
     Program PWSCF v.6.7GPU starts on  9Sep2021 at  0:47:38 

     This program is part of the open-source Quantum ESPRESSO suite
     for quantum simulation of materials; please cite
         "P. Giannozzi et al., J. Phys.:Condens. Matter 21 395502 (2009);
         "P. Giannozzi et al., J. Phys.:Condens. Matter 29 465901 (2017);
         "P. Giannozzi et al., J. Chem. Phys. 152 154105 (2020);
          URL http://www.quantum-espresso.org", 
     in publications or presentations arising from this work. More details at
     http://www.quantum-espresso.org/quote

     Parallel version (MPI), running on    10 processors

     MPI processes distributed on     1 nodes
     R & G space division:  proc/nbgrp/npool/nimage =      10
     Reading input from /storage/home/hcoda1/3/ntian30/research/carbon/CxH_vib/CH3_calc/ads_slab/CH3NNH3_a/out_0009/pw.inp
Warning: card &CELL ignored
Warning: card   CELL_DYNAMICS='IPI', ignored
Warning: card / ignored

     Current dimensions of program PWSCF are:
     Max number of different atomic species (ntypx) = 10
     Max number of k-points (npk) =  40000
     Max angular momentum in pseudopotentials (lmaxx) =  3
     Presently no symmetry can be used with electric field

     Message from routine cell_base_init:
     DEPRECATED: use true lattice parameter, not A to a.u. conversion factor

     **************************************************************************
     Initializing libbeef V0.1.2 with the BEEF-vdW functional.
     Citation: Wellendorff et al., PRB 85, 235149 (2012).
     **************************************************************************


     IMPORTANT: XC functional enforced from input :
     Exchange-correlation= BEEF-VDW
                           (   1   4  43  14   2   0   0)
     Any further DFT definition will be discarded
     Please, verify this is what you really want


     Subspace diagonalization in iterative solution of the eigenvalue problem:
     one sub-group per band group will be used
     scalapack distributed-memory algorithm (size of sub-group:  3*  3 procs)

  @ DRIVER MODE: Connecting to 
 qe_1139763_2767402.sched-torque.pace.gatech.edu2n1duvye_scratch
  using UNIX socket
  @ DRIVER MODE: Message from server: STATUS
  @ DRIVER MODE: Message from server: INIT
  @ DRIVER MODE: Receiving replica           0          -1
  @ DRIVER MODE: Receiving encoded integer          25
  @ DRIVER MODE:  SCF:  T  FORCE:  T  STRESS:  F  VC:  F  ENSEMBLE:  F
  @ DRIVER MODE:  SCF:  T  FORCE:  T  STRESS:  F  VC:  F  ENSEMBLE:  F
 
     Parallelization info
     --------------------
     sticks:   dense  smooth     PW     G-vecs:    dense   smooth      PW
     Min         327     131     37                56683    14340    2191
     Max         328     133     38                56694    14346    2206
     Sum        3275    1317    379               566857   143421   21985
 
     Using Slab Decomposition
 


     bravais-lattice index     =            0
     lattice parameter (alat)  =       1.8897  a.u.
     unit-cell volume          =    6658.9804 (a.u.)^3
     number of atoms/cell      =           56
     number of atomic types    =            5
     number of electrons       =       398.00
     number of Kohn-Sham states=          209
     kinetic-energy cutoff     =      29.3995  Ry
     charge density cutoff     =     293.9946  Ry
     scf convergence threshold =      7.3E-08
     mixing beta               =       0.0500
     number of iterations used =            8  plain     mixing
     Exchange-correlation= BEEF-VDW
                           (   1   4  43  14   2   0   0)

     celldm(1)=   1.889726  celldm(2)=   0.000000  celldm(3)=   0.000000
     celldm(4)=   0.000000  celldm(5)=   0.000000  celldm(6)=   0.000000

     crystal axes: (cart. coord. in units of alat)
               a(1) = (   6.579727   0.000000   0.000000 )  
               a(2) = (  -0.000775   5.961596   0.000000 )  
               a(3) = (   0.000000   0.000000  25.155947 )  

     reciprocal axes: (cart. coord. in units 2 pi/alat)
               b(1) = (  0.151982  0.000020  0.000000 )  
               b(2) = (  0.000000  0.167740  0.000000 )  
               b(3) = (  0.000000  0.000000  0.039752 )  


     PseudoPot. # 1 for Ti read from file:
     /storage/coda1/p-amedford6/0/shared/rich_project_chbe-medford/medford-share/data/pseudos_module/espresso/nninc/pbe/van/Ti.UPF
     MD5 check sum: 8e4df49b7f0d34bbd5052bf3f5ea0213
     Pseudo is Ultrasoft, Zval = 12.0
     Generated by new atomic code, or converted to UPF format
     Using radial grid of  851 points,  6 beta functions with: 
                l(1) =   0
                l(2) =   0
                l(3) =   1
                l(4) =   1
                l(5) =   2
                l(6) =   2
     Q(r) pseudized with  8 coefficients,  rinner =    1.000   1.000   1.000
                                                       1.000   1.000

     PseudoPot. # 2 for O  read from file:
     /storage/coda1/p-amedford6/0/shared/rich_project_chbe-medford/medford-share/data/pseudos_module/espresso/nninc/pbe/van/O.UPF
     MD5 check sum: 78c19812648e8988a0fe644b0f25305e
     Pseudo is Ultrasoft, Zval =  6.0
     Generated by new atomic code, or converted to UPF format
     Using radial grid of  737 points,  4 beta functions with: 
                l(1) =   0
                l(2) =   0
                l(3) =   1
                l(4) =   1
     Q(r) pseudized with  8 coefficients,  rinner =    0.800   0.800   0.800


     PseudoPot. # 3 for N  read from file:
     /storage/coda1/p-amedford6/0/shared/rich_project_chbe-medford/medford-share/data/pseudos_module/espresso/nninc/pbe/van/N.UPF
     MD5 check sum: 90d10febe142ad51ac9d5be1deb811c4
     Pseudo is Ultrasoft, Zval =  5.0
     Generated by new atomic code, or converted to UPF format
     Using radial grid of  729 points,  4 beta functions with: 
                l(1) =   0
                l(2) =   0
                l(3) =   1
                l(4) =   1
     Q(r) pseudized with  8 coefficients,  rinner =    0.800   0.800   0.800


     PseudoPot. # 4 for C  read from file:
     /storage/coda1/p-amedford6/0/shared/rich_project_chbe-medford/medford-share/data/pseudos_module/espresso/nninc/pbe/van/C.UPF
     MD5 check sum: 1a69bf6b8db32088f5b2163dbdb77a27
     Pseudo is Ultrasoft, Zval =  4.0
     Generated by new atomic code, or converted to UPF format
     Using radial grid of  721 points,  4 beta functions with: 
                l(1) =   0
                l(2) =   0
                l(3) =   1
                l(4) =   1
     Q(r) pseudized with  8 coefficients,  rinner =    0.800   0.800   0.800


     PseudoPot. # 5 for H  read from file:
     /storage/coda1/p-amedford6/0/shared/rich_project_chbe-medford/medford-share/data/pseudos_module/espresso/nninc/pbe/van/H.UPF
     MD5 check sum: b5ee9d7bfd3a09ee7748110bda690ff7
     Pseudo is Ultrasoft, Zval =  1.0
     Generated by new atomic code, or converted to UPF format
     Using radial grid of  615 points,  1 beta functions with: 
                l(1) =   0
     Q(r) pseudized with  8 coefficients,  rinner =    0.800

     atomic species   valence    mass     pseudopotential
        Ti1           12.00    47.86700     Ti( 1.00)
        O1             6.00    15.99900     O ( 1.00)
        N1             5.00    14.00700     N ( 1.00)
        C1             4.00    12.01100     C ( 1.00)
        H1             1.00     1.00800     H ( 1.00)

     No symmetry found



   Cartesian axes

     site n.     atom                  positions (alat units)
         1           Ti1 tau(   1) = (   0.0004258   2.9801865   6.0000000  )
         2           Ti1 tau(   2) = (   3.2906075   1.4906267   6.0002472  )
         3           O1  tau(   3) = (   0.0006271   0.0005054   7.9858123  )
         4           O1  tau(   4) = (   3.2906025   0.0005020   7.3038282  )
         5           O1  tau(   5) = (   4.5942328   1.4918067   9.2879030  )
         6           O1  tau(   6) = (   1.9868534   1.4903216   9.2879459  )
         7           Ti1 tau(   7) = (   3.2907910   2.8959150   9.1758416  )
         8           Ti1 tau(   8) = (   0.0015273   1.4827037   9.2680791  )
         9           O1  tau(   9) = (   3.2915376   0.0135470  11.3011085  )
        10           O1  tau(  10) = (   0.0116148   5.9584955  10.6183126  )
        11           O1  tau(  11) = (   1.3264285   1.5112823  12.6233503  )
        12           O1  tau(  12) = (   5.3038506   1.5117067  12.6402039  )
        13           Ti1 tau(  13) = (   6.4820107   2.9926285  12.7699842  )
        14           Ti1 tau(  14) = (   3.1705855   1.5046985  12.4703807  )
        15           O1  tau(  15) = (   0.0265921   0.0018185  14.6022993  )
        16           O1  tau(  16) = (   3.3077976   0.0231332  13.8844522  )
        17           O1  tau(  17) = (   4.5431088   1.5356983  16.0582573  )
        18           O1  tau(  18) = (   2.0919096   1.5355568  16.0602035  )
        19           Ti1 tau(  19) = (   3.3160089   3.0194793  15.6930983  )
        20           Ti1 tau(  20) = (   0.0166562   1.5958061  16.1043543  )
        21           O1  tau(  21) = (   3.2904802   0.0005063   4.7018136  )
        22           O1  tau(  22) = (   0.0292894   0.0555714  17.2141426  )
        23           O1  tau(  23) = (   1.3043587   1.4918075   6.0039043  )
        24           O1  tau(  24) = (   5.2767064   1.4903225   6.0039473  )
        25           Ti1 tau(  25) = (   0.0000382   5.9609847   6.0000000  )
        26           Ti1 tau(  26) = (   3.2902200   4.4714249   6.0002472  )
        27           O1  tau(  27) = (   0.0002396   2.9813036   7.9858123  )
        28           O1  tau(  28) = (   3.2902150   2.9813002   7.3038282  )
        29           O1  tau(  29) = (   4.5938453   4.4726049   9.2879030  )
        30           O1  tau(  30) = (   1.9864658   4.4711199   9.2879459  )
        31           Ti1 tau(  31) = (   3.2891106   5.8743827   9.1763621  )
        32           Ti1 tau(  32) = (   0.0006254   4.4649316   9.2693709  )
        33           O1  tau(  33) = (   3.2938734   2.9940915  11.3014364  )
        34           O1  tau(  34) = (   0.0092240   2.9805883  10.6323155  )
        35           O1  tau(  35) = (   1.3265148   4.4779228  12.6213786  )
        36           O1  tau(  36) = (   5.3043665   4.4729268  12.6387898  )
        37           Ti1 tau(  37) = (   6.5102921   0.0103953  12.7821347  )
        38           Ti1 tau(  38) = (   3.1702703   4.4844908  12.4724723  )
        39           O1  tau(  39) = (   0.0044238   2.9856840  14.6711682  )
        40           O1  tau(  40) = (   3.3052367   3.0047533  13.8869641  )
        41           O1  tau(  41) = (   4.5463945   4.5179403  16.0573015  )
        42           O1  tau(  42) = (   2.0913021   4.5186677  16.0620504  )
        43           Ti1 tau(  43) = (   3.3128124   0.0388915  15.6953448  )
        44           Ti1 tau(  44) = (   0.0191476   4.5695365  16.1495174  )
        45           O1  tau(  45) = (   3.2900926   2.9813045   4.7018136  )
        46           O1  tau(  46) = (   1.3039711   4.4726057   6.0039043  )
        47           O1  tau(  47) = (   5.2763189   4.4711207   6.0039473  )
        48           N1  tau(  48) = (   0.0657769   3.0188755  17.3428317  )
        49           N1  tau(  49) = (   6.3710133   2.5662042  22.6422586  )
        50           C1  tau(  50) = (   0.3130180   3.0007025  18.7658599  )
        51           H1  tau(  51) = (   0.2928038   4.0066326  19.1970245  )
        52           H1  tau(  52) = (   6.1505335   2.3845869  19.2855718  )
        53           H1  tau(  53) = (   1.2957935   2.5555442  18.9776258  )
        54           H1  tau(  54) = (   5.9555952   3.1943721  23.3306195  )
        55           H1  tau(  55) = (   0.0098814   1.7053999  23.1148127  )
        56           H1  tau(  56) = (   0.6724875   2.9916800  22.3598805  )

     number of k points=    10  Fermi-Dirac smearing, width (Ry)=  0.0073
                       cart. coord. in units 2pi/alat
        k(    1) = (   0.0000000   0.0000000   0.0000000), wk =   0.1250000
        k(    2) = (   0.0000000   0.0419351   0.0000000), wk =   0.2500000
        k(    3) = (   0.0000000  -0.0838702   0.0000000), wk =   0.1250000
        k(    4) = (   0.0379955   0.0000049   0.0000000), wk =   0.2500000
        k(    5) = (   0.0379955   0.0419400   0.0000000), wk =   0.2500000
        k(    6) = (   0.0379955  -0.0838652   0.0000000), wk =   0.2500000
        k(    7) = (   0.0379955  -0.0419301   0.0000000), wk =   0.2500000
        k(    8) = (  -0.0759910  -0.0000099   0.0000000), wk =   0.1250000
        k(    9) = (  -0.0759910   0.0419252   0.0000000), wk =   0.2500000
        k(   10) = (  -0.0759910  -0.0838800   0.0000000), wk =   0.1250000

     Dense  grid:   566857 G-vectors     FFT dimensions: (  72,  64, 270)

     Smooth grid:   143421 G-vectors     FFT dimensions: (  45,  40, 180)

     Estimated max dynamical RAM per process >     364.09 MB

     Estimated total dynamical RAM >       3.56 GB
     Cannot read rho : file not found

     Initial potential from superposition of free atoms

     starting charge  381.99914, renormalised to  398.00000

     negative rho (up, down):  7.225E-03 0.000E+00


     %%%%%%%%%%%%%%%%%%%%%%%%%%%%%%%%%%%%%%%%%%%%%%%%%%%%%%%%%%%%%%%%%%%%%%%%
     %                                                                      %
     % You are using vdW-DF, which was implemented by the Thonhauser group. %
     % Please cite the following two papers that made this development      %
     % possible and the two reviews that describe the various versions:     %
     %                                                                      %
     %   T. Thonhauser et al., PRL 115, 136402 (2015).                      %
     %   T. Thonhauser et al., PRB 76, 125112 (2007).                       %
     %   K. Berland et al., Rep. Prog. Phys. 78, 066501 (2015).             %
     %   D.C. Langreth et al., J. Phys.: Condens. Matter 21, 084203 (2009). %
     %                                                                      %
     %                                                                      %
     % If you are calculating the stress with vdW-DF, please also cite:     %
     %                                                                      %
     %   R. Sabatini et al., J. Phys.: Condens. Matter 24, 424209 (2012).   %
     %                                                                      %
     %%%%%%%%%%%%%%%%%%%%%%%%%%%%%%%%%%%%%%%%%%%%%%%%%%%%%%%%%%%%%%%%%%%%%%%%


 
     Adding external electric field

     Computed dipole along edir(3) : 
        Dipole              -12.0378 Ry au,        -30.5970 Debye
        Dipole field         -0.0227 Ry au, 
 
        Potential amp.        2.1058 Ry
        Total length         46.3494 bohr
 
     Starting wfcs are  302 atomic wfcs
  @ DRIVER MODE: Message from server: STATUS
  @ DRIVER MODE: Message from server: POSDATA
  @ DRIVER MODE: Reading and sharing cell 
  @ DRIVER MODE: Reading and sharing positions 
  @ DRIVER MODE: Received positions 

     total cpu time spent up to now is       11.4 secs

     Self-consistent Calculation

     iteration #  1     ecut=    29.40 Ry     beta= 0.05
     Davidson diagonalization with overlap
     c_bands:  1 eigenvalues not converged
     c_bands:  1 eigenvalues not converged
     c_bands:  1 eigenvalues not converged
     c_bands:  1 eigenvalues not converged
     c_bands:  1 eigenvalues not converged
     c_bands:  1 eigenvalues not converged
     c_bands:  1 eigenvalues not converged
     c_bands:  2 eigenvalues not converged
     c_bands:  1 eigenvalues not converged
     ethr =  1.00E-05,  avg # of iterations = 19.6

     negative rho (up, down):  6.558E-03 0.000E+00
 
     Adding external electric field

     Computed dipole along edir(3) : 
        Dipole               44.7344 Ry au,        113.7035 Debye
        Dipole field          0.0844 Ry au, 
 
        Potential amp.       -7.8256 Ry
        Total length         46.3494 bohr
 

     total cpu time spent up to now is       52.6 secs

     total energy              =   -2520.04378260 Ry
     estimated scf accuracy    <    4725.46224876 Ry

     iteration #  2     ecut=    29.40 Ry     beta= 0.05
     Davidson diagonalization with overlap
     ethr =  1.00E-02,  avg # of iterations = 21.8

     negative rho (up, down):  8.519E-04 0.000E+00
 
     Adding external electric field

     Computed dipole along edir(3) : 
        Dipole               -4.2383 Ry au,        -10.7727 Debye
        Dipole field         -0.0080 Ry au, 
 
        Potential amp.        0.7414 Ry
        Total length         46.3494 bohr
 

     total cpu time spent up to now is      132.1 secs

     total energy              =   -2413.81593602 Ry
     estimated scf accuracy    <   75039.18942323 Ry

     iteration #  3     ecut=    29.40 Ry     beta= 0.05
     Davidson diagonalization with overlap
     c_bands:  1 eigenvalues not converged
     ethr =  1.00E-02,  avg # of iterations = 17.5

     negative rho (up, down):  9.097E-04 0.000E+00
 
     Adding external electric field

     Computed dipole along edir(3) : 
        Dipole               -5.5439 Ry au,        -14.0911 Debye
        Dipole field         -0.0105 Ry au, 
 
        Potential amp.        0.9698 Ry
        Total length         46.3494 bohr
 

     total cpu time spent up to now is      182.5 secs

     total energy              =   -2930.53232110 Ry
     estimated scf accuracy    <    4491.21816908 Ry

     iteration #  4     ecut=    29.40 Ry     beta= 0.05
     Davidson diagonalization with overlap
     ethr =  1.00E-02,  avg # of iterations = 14.7

     negative rho (up, down):  9.336E-04 0.000E+00
 
     Adding external electric field

     Computed dipole along edir(3) : 
        Dipole               -6.3758 Ry au,        -16.2056 Debye
        Dipole field         -0.0120 Ry au, 
 
        Potential amp.        1.1153 Ry
        Total length         46.3494 bohr
 

     total cpu time spent up to now is      202.1 secs

     total energy              =   -2933.00361962 Ry
     estimated scf accuracy    <    1531.57610277 Ry

     iteration #  5     ecut=    29.40 Ry     beta= 0.05
     Davidson diagonalization with overlap
     ethr =  1.00E-02,  avg # of iterations =  3.5

     negative rho (up, down):  9.560E-04 0.000E+00
 
     Adding external electric field

     Computed dipole along edir(3) : 
        Dipole               -7.1106 Ry au,        -18.0733 Debye
        Dipole field         -0.0134 Ry au, 
 
        Potential amp.        1.2439 Ry
        Total length         46.3494 bohr
 

     total cpu time spent up to now is      213.4 secs

     total energy              =   -2920.86358511 Ry
     estimated scf accuracy    <    1235.19723689 Ry

     iteration #  6     ecut=    29.40 Ry     beta= 0.05
     Davidson diagonalization with overlap
     c_bands:  1 eigenvalues not converged
     ethr =  1.00E-02,  avg # of iterations = 13.5

     negative rho (up, down):  7.233E-04 0.000E+00
 
     Adding external electric field

     Computed dipole along edir(3) : 
        Dipole               -5.5294 Ry au,        -14.0544 Debye
        Dipole field         -0.0104 Ry au, 
 
        Potential amp.        0.9673 Ry
        Total length         46.3494 bohr
 

     total cpu time spent up to now is      236.5 secs

     total energy              =   -2945.86547820 Ry
     estimated scf accuracy    <      71.37594836 Ry

     iteration #  7     ecut=    29.40 Ry     beta= 0.05
     Davidson diagonalization with overlap
     ethr =  1.00E-02,  avg # of iterations =  1.5

     negative rho (up, down):  8.195E-04 0.000E+00
 
     Adding external electric field

     Computed dipole along edir(3) : 
        Dipole               -4.7850 Ry au,        -12.1623 Debye
        Dipole field         -0.0090 Ry au, 
 
        Potential amp.        0.8371 Ry
        Total length         46.3494 bohr
 

     total cpu time spent up to now is      246.7 secs

     total energy              =   -2945.79459794 Ry
     estimated scf accuracy    <      39.27857962 Ry

     iteration #  8     ecut=    29.40 Ry     beta= 0.05
     Davidson diagonalization with overlap
     ethr =  9.87E-03,  avg # of iterations =  1.4

     negative rho (up, down):  1.135E-03 0.000E+00
 
     Adding external electric field

     Computed dipole along edir(3) : 
        Dipole               -3.0163 Ry au,         -7.6667 Debye
        Dipole field         -0.0057 Ry au, 
 
        Potential amp.        0.5277 Ry
        Total length         46.3494 bohr
 

     total cpu time spent up to now is      256.9 secs

     total energy              =   -2944.55822936 Ry
     estimated scf accuracy    <      36.20225315 Ry

     iteration #  9     ecut=    29.40 Ry     beta= 0.05
     Davidson diagonalization with overlap
     ethr =  9.10E-03,  avg # of iterations =  2.5

     negative rho (up, down):  2.507E-03 0.000E+00
 
     Adding external electric field

     Computed dipole along edir(3) : 
        Dipole                0.4274 Ry au,          1.0864 Debye
        Dipole field          0.0008 Ry au, 
 
        Potential amp.       -0.0748 Ry
        Total length         46.3494 bohr
 

     total cpu time spent up to now is      267.6 secs

     total energy              =   -2944.34029386 Ry
     estimated scf accuracy    <      27.65094337 Ry

     iteration # 10     ecut=    29.40 Ry     beta= 0.05
     Davidson diagonalization with overlap
     c_bands:  2 eigenvalues not converged
     c_bands:  3 eigenvalues not converged
     c_bands:  3 eigenvalues not converged
     ethr =  6.95E-03,  avg # of iterations = 17.5

     negative rho (up, down):  2.816E-03 0.000E+00
 
     Adding external electric field

     Computed dipole along edir(3) : 
        Dipole                1.7983 Ry au,          4.5708 Debye
        Dipole field          0.0034 Ry au, 
 
        Potential amp.       -0.3146 Ry
        Total length         46.3494 bohr
 

     total cpu time spent up to now is      288.3 secs

     total energy              =   -2963.62909743 Ry
     estimated scf accuracy    <    1895.12373471 Ry

     iteration # 11     ecut=    29.40 Ry     beta= 0.05
     Davidson diagonalization with overlap
     ethr =  6.95E-03,  avg # of iterations =  1.9

     negative rho (up, down):  3.119E-03 0.000E+00
 
     Adding external electric field

     Computed dipole along edir(3) : 
        Dipole                2.5698 Ry au,          6.5319 Debye
        Dipole field          0.0048 Ry au, 
 
        Potential amp.       -0.4496 Ry
        Total length         46.3494 bohr
 

     total cpu time spent up to now is      299.0 secs

     total energy              =   -2961.47803006 Ry
     estimated scf accuracy    <    2189.34208071 Ry

     iteration # 12     ecut=    29.40 Ry     beta= 0.05
     Davidson diagonalization with overlap
     ethr =  6.95E-03,  avg # of iterations =  1.0

     negative rho (up, down):  3.093E-03 0.000E+00
 
     Adding external electric field

     Computed dipole along edir(3) : 
        Dipole                5.2530 Ry au,         13.3519 Debye
        Dipole field          0.0099 Ry au, 
 
        Potential amp.       -0.9189 Ry
        Total length         46.3494 bohr
 

     total cpu time spent up to now is      309.0 secs

     total energy              =   -2956.14986091 Ry
     estimated scf accuracy    <    1955.87462219 Ry

     iteration # 13     ecut=    29.40 Ry     beta= 0.05
     Davidson diagonalization with overlap
     ethr =  6.95E-03,  avg # of iterations =  1.5

     negative rho (up, down):  1.860E-03 0.000E+00
 
     Adding external electric field

     Computed dipole along edir(3) : 
        Dipole                5.1243 Ry au,         13.0246 Debye
        Dipole field          0.0097 Ry au, 
 
        Potential amp.       -0.8964 Ry
        Total length         46.3494 bohr
 

     total cpu time spent up to now is      319.3 secs

     total energy              =   -2945.08041374 Ry
     estimated scf accuracy    <    1692.19764504 Ry

     iteration # 14     ecut=    29.40 Ry     beta= 0.05
     Davidson diagonalization with overlap
     ethr =  6.95E-03,  avg # of iterations =  1.7

     negative rho (up, down):  2.188E-03 0.000E+00
 
     Adding external electric field

     Computed dipole along edir(3) : 
        Dipole                6.5879 Ry au,         16.7448 Debye
        Dipole field          0.0124 Ry au, 
 
        Potential amp.       -1.1525 Ry
        Total length         46.3494 bohr
 

     total cpu time spent up to now is      330.0 secs

     total energy              =   -2945.34450099 Ry
     estimated scf accuracy    <    1162.57375210 Ry

     iteration # 15     ecut=    29.40 Ry     beta= 0.05
     Davidson diagonalization with overlap
     c_bands:  2 eigenvalues not converged
     ethr =  6.95E-03,  avg # of iterations = 15.8

     negative rho (up, down):  2.255E-03 0.000E+00
 
     Adding external electric field

     Computed dipole along edir(3) : 
        Dipole                4.4933 Ry au,         11.4209 Debye
        Dipole field          0.0085 Ry au, 
 
        Potential amp.       -0.7860 Ry
        Total length         46.3494 bohr
 

     total cpu time spent up to now is      351.4 secs

     total energy              =   -2947.08475803 Ry
     estimated scf accuracy    <    2103.73134448 Ry

     iteration # 16     ecut=    29.40 Ry     beta= 0.05
     Davidson diagonalization with overlap
     ethr =  6.95E-03,  avg # of iterations =  2.2

     negative rho (up, down):  1.148E-03 0.000E+00
 
     Adding external electric field

     Computed dipole along edir(3) : 
        Dipole               -0.8542 Ry au,         -2.1712 Debye
        Dipole field         -0.0016 Ry au, 
 
        Potential amp.        0.1494 Ry
        Total length         46.3494 bohr
 

     total cpu time spent up to now is      362.3 secs

     total energy              =   -2931.44917105 Ry
     estimated scf accuracy    <     906.98042875 Ry

     iteration # 17     ecut=    29.40 Ry     beta= 0.05
     Davidson diagonalization with overlap
     ethr =  6.95E-03,  avg # of iterations = 12.5

     negative rho (up, down):  1.017E-03 0.000E+00
 
     Adding external electric field

     Computed dipole along edir(3) : 
        Dipole                0.2714 Ry au,          0.6898 Debye
        Dipole field          0.0005 Ry au, 
 
        Potential amp.       -0.0475 Ry
        Total length         46.3494 bohr
 

     total cpu time spent up to now is      380.5 secs

     total energy              =   -2943.14394073 Ry
     estimated scf accuracy    <       3.14673358 Ry

     iteration # 18     ecut=    29.40 Ry     beta= 0.05
     Davidson diagonalization with overlap
     ethr =  7.91E-04,  avg # of iterations = 10.6

     negative rho (up, down):  8.039E-04 0.000E+00
 
     Adding external electric field

     Computed dipole along edir(3) : 
        Dipole                3.4951 Ry au,          8.8836 Debye
        Dipole field          0.0066 Ry au, 
 
        Potential amp.       -0.6114 Ry
        Total length         46.3494 bohr
 

     total cpu time spent up to now is      395.6 secs

     total energy              =   -2943.42625544 Ry
     estimated scf accuracy    <       2.30232165 Ry

     iteration # 19     ecut=    29.40 Ry     beta= 0.05
     Davidson diagonalization with overlap
     c_bands:  4 eigenvalues not converged
     c_bands:  2 eigenvalues not converged
     c_bands:  1 eigenvalues not converged
     c_bands:  1 eigenvalues not converged
     ethr =  5.78E-04,  avg # of iterations = 18.9

     negative rho (up, down):  7.125E-04 0.000E+00
 
     Adding external electric field

     Computed dipole along edir(3) : 
        Dipole                3.2842 Ry au,          8.3476 Debye
        Dipole field          0.0062 Ry au, 
 
        Potential amp.       -0.5745 Ry
        Total length         46.3494 bohr
 

     total cpu time spent up to now is      420.3 secs

     total energy              =   -2945.32829892 Ry
     estimated scf accuracy    <     291.27929084 Ry

     iteration # 20     ecut=    29.40 Ry     beta= 0.05
     Davidson diagonalization with overlap
     ethr =  5.78E-04,  avg # of iterations =  1.5

     negative rho (up, down):  6.553E-04 0.000E+00
 
     Adding external electric field

     Computed dipole along edir(3) : 
        Dipole                3.2361 Ry au,          8.2253 Debye
        Dipole field          0.0061 Ry au, 
 
        Potential amp.       -0.5661 Ry
        Total length         46.3494 bohr
 

     total cpu time spent up to now is      430.6 secs

     total energy              =   -2944.95446611 Ry
     estimated scf accuracy    <     244.18762501 Ry

     iteration # 21     ecut=    29.40 Ry     beta= 0.05
     Davidson diagonalization with overlap
     ethr =  5.78E-04,  avg # of iterations =  1.3

     negative rho (up, down):  3.390E-04 0.000E+00
 
     Adding external electric field

     Computed dipole along edir(3) : 
        Dipole                1.7270 Ry au,          4.3895 Debye
        Dipole field          0.0033 Ry au, 
 
        Potential amp.       -0.3021 Ry
        Total length         46.3494 bohr
 

     total cpu time spent up to now is      440.8 secs

     total energy              =   -2941.23052371 Ry
     estimated scf accuracy    <     231.67711745 Ry

     iteration # 22     ecut=    29.40 Ry     beta= 0.05
     Davidson diagonalization with overlap
     ethr =  5.78E-04,  avg # of iterations =  9.0

     negative rho (up, down):  3.242E-04 0.000E+00
 
     Adding external electric field

     Computed dipole along edir(3) : 
        Dipole                1.4205 Ry au,          3.6105 Debye
        Dipole field          0.0027 Ry au, 
 
        Potential amp.       -0.2485 Ry
        Total length         46.3494 bohr
 

     total cpu time spent up to now is      457.7 secs

     total energy              =   -2943.27314838 Ry
     estimated scf accuracy    <       9.45429010 Ry

     iteration # 23     ecut=    29.40 Ry     beta= 0.05
     Davidson diagonalization with overlap
     ethr =  5.78E-04,  avg # of iterations =  1.1

     negative rho (up, down):  5.081E-04 0.000E+00
 
     Adding external electric field

     Computed dipole along edir(3) : 
        Dipole                1.3854 Ry au,          3.5214 Debye
        Dipole field          0.0026 Ry au, 
 
        Potential amp.       -0.2424 Ry
        Total length         46.3494 bohr
 

     total cpu time spent up to now is      467.8 secs

     total energy              =   -2943.07152985 Ry
     estimated scf accuracy    <       7.87019122 Ry

     iteration # 24     ecut=    29.40 Ry     beta= 0.05
     Davidson diagonalization with overlap
     ethr =  5.78E-04,  avg # of iterations =  1.8

     negative rho (up, down):  5.309E-04 0.000E+00
 
     Adding external electric field

     Computed dipole along edir(3) : 
        Dipole                1.9937 Ry au,          5.0675 Debye
        Dipole field          0.0038 Ry au, 
 
        Potential amp.       -0.3488 Ry
        Total length         46.3494 bohr
 

     total cpu time spent up to now is      478.1 secs

     total energy              =   -2943.19443381 Ry
     estimated scf accuracy    <       3.70456009 Ry

     iteration # 25     ecut=    29.40 Ry     beta= 0.05
     Davidson diagonalization with overlap
     ethr =  5.78E-04,  avg # of iterations =  1.0

     negative rho (up, down):  9.567E-04 0.000E+00
 
     Adding external electric field

     Computed dipole along edir(3) : 
        Dipole                1.1940 Ry au,          3.0348 Debye
        Dipole field          0.0023 Ry au, 
 
        Potential amp.       -0.2089 Ry
        Total length         46.3494 bohr
 

     total cpu time spent up to now is      488.1 secs

     total energy              =   -2942.74091909 Ry
     estimated scf accuracy    <       8.22395990 Ry

     iteration # 26     ecut=    29.40 Ry     beta= 0.05
     Davidson diagonalization with overlap
     ethr =  5.78E-04,  avg # of iterations =  2.0

     negative rho (up, down):  5.199E-03 0.000E+00
 
     Adding external electric field

     Computed dipole along edir(3) : 
        Dipole                1.5892 Ry au,          4.0392 Debye
        Dipole field          0.0030 Ry au, 
 
        Potential amp.       -0.2780 Ry
        Total length         46.3494 bohr
 

     total cpu time spent up to now is      499.1 secs

     total energy              =   -2942.93551808 Ry
     estimated scf accuracy    <       0.65077521 Ry

     iteration # 27     ecut=    29.40 Ry     beta= 0.05
     Davidson diagonalization with overlap
     c_bands:  2 eigenvalues not converged
     c_bands:  1 eigenvalues not converged
     ethr =  1.64E-04,  avg # of iterations = 11.7

     negative rho (up, down):  9.074E-03 0.000E+00
 
     Adding external electric field

     Computed dipole along edir(3) : 
        Dipole                1.5534 Ry au,          3.9484 Debye
        Dipole field          0.0029 Ry au, 
 
        Potential amp.       -0.2717 Ry
        Total length         46.3494 bohr
 

     total cpu time spent up to now is      513.7 secs

     total energy              =   -2942.96284228 Ry
     estimated scf accuracy    <       0.48078173 Ry

     iteration # 28     ecut=    29.40 Ry     beta= 0.05
     Davidson diagonalization with overlap
     c_bands:  2 eigenvalues not converged
     ethr =  1.21E-04,  avg # of iterations =  5.3

     negative rho (up, down):  1.271E-02 0.000E+00
 
     Adding external electric field

     Computed dipole along edir(3) : 
        Dipole                0.7095 Ry au,          1.8035 Debye
        Dipole field          0.0013 Ry au, 
 
        Potential amp.       -0.1241 Ry
        Total length         46.3494 bohr
 

     total cpu time spent up to now is      525.5 secs

     total energy              =   -2942.93808044 Ry
     estimated scf accuracy    <       0.44277823 Ry

     iteration # 29     ecut=    29.40 Ry     beta= 0.05
     Davidson diagonalization with overlap
     c_bands:  3 eigenvalues not converged
     c_bands:  4 eigenvalues not converged
     c_bands:  4 eigenvalues not converged
     c_bands:  1 eigenvalues not converged
     ethr =  1.11E-04,  avg # of iterations = 26.9

     negative rho (up, down):  6.568E-03 0.000E+00
 
     Adding external electric field

     Computed dipole along edir(3) : 
        Dipole                0.4590 Ry au,          1.1666 Debye
        Dipole field          0.0009 Ry au, 
 
        Potential amp.       -0.0803 Ry
        Total length         46.3494 bohr
 

     total cpu time spent up to now is      554.2 secs

     total energy              =   -2942.95491527 Ry
     estimated scf accuracy    <       0.49486507 Ry

     iteration # 30     ecut=    29.40 Ry     beta= 0.05
     Davidson diagonalization with overlap
     c_bands:  1 eigenvalues not converged
     c_bands:  1 eigenvalues not converged
     c_bands:  2 eigenvalues not converged
     c_bands:  2 eigenvalues not converged
     c_bands:  4 eigenvalues not converged
     c_bands:  2 eigenvalues not converged
     c_bands:  1 eigenvalues not converged
     c_bands:  2 eigenvalues not converged
     ethr =  1.11E-04,  avg # of iterations = 19.6

     negative rho (up, down):  1.584E-02 0.000E+00
 
     Adding external electric field

     Computed dipole along edir(3) : 
        Dipole                2.1422 Ry au,          5.4450 Debye
        Dipole field          0.0040 Ry au, 
 
        Potential amp.       -0.3747 Ry
        Total length         46.3494 bohr
 

     total cpu time spent up to now is      572.3 secs

     total energy              =   -2942.90278383 Ry
     estimated scf accuracy    <       0.45579869 Ry

     iteration # 31     ecut=    29.40 Ry     beta= 0.05
     Davidson diagonalization with overlap
     c_bands:  3 eigenvalues not converged
     c_bands:  5 eigenvalues not converged
     c_bands:  1 eigenvalues not converged
     c_bands:  1 eigenvalues not converged
     c_bands:  5 eigenvalues not converged
     c_bands:  1 eigenvalues not converged
     c_bands:  2 eigenvalues not converged
     c_bands:  2 eigenvalues not converged
     ethr =  1.11E-04,  avg # of iterations = 20.8

     negative rho (up, down):  5.713E-03 0.000E+00
 
     Adding external electric field

     Computed dipole along edir(3) : 
        Dipole                1.9314 Ry au,          4.9091 Debye
        Dipole field          0.0036 Ry au, 
 
        Potential amp.       -0.3379 Ry
        Total length         46.3494 bohr
 

     total cpu time spent up to now is      595.3 secs

     total energy              =   -2942.94655014 Ry
     estimated scf accuracy    <       0.69497205 Ry

     iteration # 32     ecut=    29.40 Ry     beta= 0.05
     Davidson diagonalization with overlap
     ethr =  1.11E-04,  avg # of iterations =  9.6

     negative rho (up, down):  1.294E-02 0.000E+00
 
     Adding external electric field

     Computed dipole along edir(3) : 
        Dipole                1.7777 Ry au,          4.5184 Debye
        Dipole field          0.0034 Ry au, 
 
        Potential amp.       -0.3110 Ry
        Total length         46.3494 bohr
 

     total cpu time spent up to now is      608.6 secs

     total energy              =   -2942.98632374 Ry
     estimated scf accuracy    <       0.42747627 Ry

     iteration # 33     ecut=    29.40 Ry     beta= 0.05
     Davidson diagonalization with overlap
     c_bands:  1 eigenvalues not converged
     ethr =  1.07E-04,  avg # of iterations =  6.0

     negative rho (up, down):  1.051E-02 0.000E+00
 
     Adding external electric field

     Computed dipole along edir(3) : 
        Dipole                1.2390 Ry au,          3.1491 Debye
        Dipole field          0.0023 Ry au, 
 
        Potential amp.       -0.2167 Ry
        Total length         46.3494 bohr
 

     total cpu time spent up to now is      620.4 secs

     total energy              =   -2942.92591018 Ry
     estimated scf accuracy    <       0.58476802 Ry

     iteration # 34     ecut=    29.40 Ry     beta= 0.05
     Davidson diagonalization with overlap
     c_bands:  1 eigenvalues not converged
     c_bands:  5 eigenvalues not converged
     c_bands:  1 eigenvalues not converged
     c_bands:  2 eigenvalues not converged
     ethr =  1.07E-04,  avg # of iterations = 18.4

     negative rho (up, down):  9.299E-03 0.000E+00
 
     Adding external electric field

     Computed dipole along edir(3) : 
        Dipole                0.4797 Ry au,          1.2193 Debye
        Dipole field          0.0009 Ry au, 
 
        Potential amp.       -0.0839 Ry
        Total length         46.3494 bohr
 

     total cpu time spent up to now is      638.3 secs

     total energy              =   -2942.85901387 Ry
     estimated scf accuracy    <       0.32294906 Ry

     iteration # 35     ecut=    29.40 Ry     beta= 0.05
     Davidson diagonalization with overlap
     c_bands:  1 eigenvalues not converged
     c_bands:  3 eigenvalues not converged
     c_bands:  1 eigenvalues not converged
     c_bands:  2 eigenvalues not converged
     c_bands:  1 eigenvalues not converged
     ethr =  8.11E-05,  avg # of iterations = 19.6

     negative rho (up, down):  1.684E-02 0.000E+00
 
     Adding external electric field

     Computed dipole along edir(3) : 
        Dipole                1.2637 Ry au,          3.2121 Debye
        Dipole field          0.0024 Ry au, 
 
        Potential amp.       -0.2211 Ry
        Total length         46.3494 bohr
 

     total cpu time spent up to now is      660.5 secs

     total energy              =   -2942.64268632 Ry
     estimated scf accuracy    <      21.86337705 Ry

     iteration # 36     ecut=    29.40 Ry     beta= 0.05
     Davidson diagonalization with overlap
     c_bands:  1 eigenvalues not converged
     c_bands:  1 eigenvalues not converged
     c_bands:  1 eigenvalues not converged
     ethr =  8.11E-05,  avg # of iterations = 14.8

     negative rho (up, down):  1.733E-02 0.000E+00
 
     Adding external electric field

     Computed dipole along edir(3) : 
        Dipole                1.2419 Ry au,          3.1566 Debye
        Dipole field          0.0023 Ry au, 
 
        Potential amp.       -0.2172 Ry
        Total length         46.3494 bohr
 

     total cpu time spent up to now is      675.8 secs

     total energy              =   -2942.93377112 Ry
     estimated scf accuracy    <       0.20027673 Ry

     iteration # 37     ecut=    29.40 Ry     beta= 0.05
     Davidson diagonalization with overlap
     ethr =  5.03E-05,  avg # of iterations =  3.7

     negative rho (up, down):  1.475E-02 0.000E+00
 
     Adding external electric field

     Computed dipole along edir(3) : 
        Dipole                1.1361 Ry au,          2.8877 Debye
        Dipole field          0.0021 Ry au, 
 
        Potential amp.       -0.1987 Ry
        Total length         46.3494 bohr
 

     total cpu time spent up to now is      686.9 secs

     total energy              =   -2942.95030569 Ry
     estimated scf accuracy    <       0.24057210 Ry

     iteration # 38     ecut=    29.40 Ry     beta= 0.05
     Davidson diagonalization with overlap
     ethr =  5.03E-05,  avg # of iterations =  1.3

     negative rho (up, down):  1.310E-02 0.000E+00
 
     Adding external electric field

     Computed dipole along edir(3) : 
        Dipole                1.7141 Ry au,          4.3568 Debye
        Dipole field          0.0032 Ry au, 
 
        Potential amp.       -0.2999 Ry
        Total length         46.3494 bohr
 

     total cpu time spent up to now is      697.1 secs

     total energy              =   -2942.87243560 Ry
     estimated scf accuracy    <       0.37333414 Ry

     iteration # 39     ecut=    29.40 Ry     beta= 0.05
     Davidson diagonalization with overlap
     c_bands:  3 eigenvalues not converged
     c_bands:  5 eigenvalues not converged
     c_bands:  5 eigenvalues not converged
     c_bands:  4 eigenvalues not converged
     c_bands:  3 eigenvalues not converged
     c_bands:  3 eigenvalues not converged
     c_bands:  5 eigenvalues not converged
     c_bands:  2 eigenvalues not converged
     ethr =  5.03E-05,  avg # of iterations = 20.7

     negative rho (up, down):  1.638E-02 0.000E+00
 
     Adding external electric field

     Computed dipole along edir(3) : 
        Dipole                1.1508 Ry au,          2.9251 Debye
        Dipole field          0.0022 Ry au, 
 
        Potential amp.       -0.2013 Ry
        Total length         46.3494 bohr
 

     total cpu time spent up to now is      720.0 secs

     total energy              =   -2942.89444557 Ry
     estimated scf accuracy    <       0.14752881 Ry

     iteration # 40     ecut=    29.40 Ry     beta= 0.05
     Davidson diagonalization with overlap
     c_bands:  1 eigenvalues not converged
     c_bands:  1 eigenvalues not converged
     c_bands:  3 eigenvalues not converged
     c_bands:  1 eigenvalues not converged
     c_bands:  1 eigenvalues not converged
     c_bands:  2 eigenvalues not converged
     ethr =  3.71E-05,  avg # of iterations = 17.2

     negative rho (up, down):  1.733E-02 0.000E+00
 
     Adding external electric field

     Computed dipole along edir(3) : 
        Dipole                1.1643 Ry au,          2.9593 Debye
        Dipole field          0.0022 Ry au, 
 
        Potential amp.       -0.2037 Ry
        Total length         46.3494 bohr
 

     total cpu time spent up to now is      737.5 secs

     total energy              =   -2942.90125935 Ry
     estimated scf accuracy    <       0.04787282 Ry

     iteration # 41     ecut=    29.40 Ry     beta= 0.05
     Davidson diagonalization with overlap
     c_bands:  2 eigenvalues not converged
     c_bands:  2 eigenvalues not converged
     c_bands:  2 eigenvalues not converged
     c_bands:  2 eigenvalues not converged
     c_bands:  1 eigenvalues not converged
     c_bands:  1 eigenvalues not converged
     c_bands:  1 eigenvalues not converged
     c_bands:  2 eigenvalues not converged
     ethr =  1.20E-05,  avg # of iterations = 18.2

     negative rho (up, down):  1.583E-02 0.000E+00
 
     Adding external electric field

     Computed dipole along edir(3) : 
        Dipole                1.0170 Ry au,          2.5848 Debye
        Dipole field          0.0019 Ry au, 
 
        Potential amp.       -0.1779 Ry
        Total length         46.3494 bohr
 

     total cpu time spent up to now is      757.6 secs

     total energy              =   -2942.89514998 Ry
     estimated scf accuracy    <       0.05718181 Ry

     iteration # 42     ecut=    29.40 Ry     beta= 0.05
     Davidson diagonalization with overlap
     c_bands:  1 eigenvalues not converged
     c_bands:  2 eigenvalues not converged
     c_bands:  3 eigenvalues not converged
     c_bands:  2 eigenvalues not converged
     c_bands:  2 eigenvalues not converged
     c_bands:  2 eigenvalues not converged
     c_bands:  2 eigenvalues not converged
     c_bands:  1 eigenvalues not converged
     ethr =  1.20E-05,  avg # of iterations = 19.5

     negative rho (up, down):  2.041E-02 0.000E+00
 
     Adding external electric field

     Computed dipole along edir(3) : 
        Dipole                0.6910 Ry au,          1.7562 Debye
        Dipole field          0.0013 Ry au, 
 
        Potential amp.       -0.1209 Ry
        Total length         46.3494 bohr
 

     total cpu time spent up to now is      784.2 secs

     total energy              =   -2942.89707319 Ry
     estimated scf accuracy    <       0.18187743 Ry

     iteration # 43     ecut=    29.40 Ry     beta= 0.05
     Davidson diagonalization with overlap
     c_bands:  4 eigenvalues not converged
     c_bands:  2 eigenvalues not converged
     c_bands:  3 eigenvalues not converged
     c_bands:  2 eigenvalues not converged
     c_bands:  4 eigenvalues not converged
     c_bands:  2 eigenvalues not converged
     ethr =  1.20E-05,  avg # of iterations = 19.4

     negative rho (up, down):  2.664E-02 0.000E+00
 
     Adding external electric field

     Computed dipole along edir(3) : 
        Dipole                0.6174 Ry au,          1.5693 Debye
        Dipole field          0.0012 Ry au, 
 
        Potential amp.       -0.1080 Ry
        Total length         46.3494 bohr
 

     total cpu time spent up to now is      805.6 secs

     total energy              =   -2942.90324526 Ry
     estimated scf accuracy    <       0.24378778 Ry

     iteration # 44     ecut=    29.40 Ry     beta= 0.05
     Davidson diagonalization with overlap
     c_bands:  1 eigenvalues not converged
     c_bands:  2 eigenvalues not converged
     c_bands:  1 eigenvalues not converged
     c_bands:  1 eigenvalues not converged
     ethr =  1.20E-05,  avg # of iterations = 13.4

     negative rho (up, down):  2.627E-02 0.000E+00
 
     Adding external electric field

     Computed dipole along edir(3) : 
        Dipole                0.5776 Ry au,          1.4681 Debye
        Dipole field          0.0011 Ry au, 
 
        Potential amp.       -0.1010 Ry
        Total length         46.3494 bohr
 

     total cpu time spent up to now is      823.9 secs

     total energy              =   -2942.91844493 Ry
     estimated scf accuracy    <       0.83187370 Ry

     iteration # 45     ecut=    29.40 Ry     beta= 0.05
     Davidson diagonalization with overlap
     ethr =  1.20E-05,  avg # of iterations =  3.3

     negative rho (up, down):  2.908E-02 0.000E+00
 
     Adding external electric field

     Computed dipole along edir(3) : 
        Dipole                0.5830 Ry au,          1.4819 Debye
        Dipole field          0.0011 Ry au, 
 
        Potential amp.       -0.1020 Ry
        Total length         46.3494 bohr
 

     total cpu time spent up to now is      835.0 secs

     total energy              =   -2942.91910466 Ry
     estimated scf accuracy    <       1.51557511 Ry

     iteration # 46     ecut=    29.40 Ry     beta= 0.05
     Davidson diagonalization with overlap
     ethr =  1.20E-05,  avg # of iterations =  2.8

     negative rho (up, down):  2.810E-02 0.000E+00
 
     Adding external electric field

     Computed dipole along edir(3) : 
        Dipole                0.6611 Ry au,          1.6803 Debye
        Dipole field          0.0012 Ry au, 
 
        Potential amp.       -0.1156 Ry
        Total length         46.3494 bohr
 

     total cpu time spent up to now is      845.8 secs

     total energy              =   -2942.90701823 Ry
     estimated scf accuracy    <       1.39960947 Ry

     iteration # 47     ecut=    29.40 Ry     beta= 0.05
     Davidson diagonalization with overlap
     c_bands:  1 eigenvalues not converged
     ethr =  1.20E-05,  avg # of iterations =  6.8

     negative rho (up, down):  2.292E-02 0.000E+00
 
     Adding external electric field

     Computed dipole along edir(3) : 
        Dipole                0.7374 Ry au,          1.8742 Debye
        Dipole field          0.0014 Ry au, 
 
        Potential amp.       -0.1290 Ry
        Total length         46.3494 bohr
 

     total cpu time spent up to now is      858.0 secs

     total energy              =   -2942.90201149 Ry
     estimated scf accuracy    <       0.35111371 Ry

     iteration # 48     ecut=    29.40 Ry     beta= 0.05
     Davidson diagonalization with overlap
     c_bands:  1 eigenvalues not converged
     ethr =  1.20E-05,  avg # of iterations =  3.5

     negative rho (up, down):  1.843E-02 0.000E+00
 
     Adding external electric field

     Computed dipole along edir(3) : 
        Dipole                0.6261 Ry au,          1.5913 Debye
        Dipole field          0.0012 Ry au, 
 
        Potential amp.       -0.1095 Ry
        Total length         46.3494 bohr
 

     total cpu time spent up to now is      869.0 secs

     total energy              =   -2942.90476258 Ry
     estimated scf accuracy    <       0.04251925 Ry

     iteration # 49     ecut=    29.40 Ry     beta= 0.05
     Davidson diagonalization with overlap
     ethr =  1.07E-05,  avg # of iterations =  2.0

     negative rho (up, down):  1.706E-02 0.000E+00
 
     Adding external electric field

     Computed dipole along edir(3) : 
        Dipole                0.6259 Ry au,          1.5909 Debye
        Dipole field          0.0012 Ry au, 
 
        Potential amp.       -0.1095 Ry
        Total length         46.3494 bohr
 

     total cpu time spent up to now is      880.1 secs

     total energy              =   -2942.90352472 Ry
     estimated scf accuracy    <       0.10074524 Ry

     iteration # 50     ecut=    29.40 Ry     beta= 0.05
     Davidson diagonalization with overlap
     ethr =  1.07E-05,  avg # of iterations =  2.0

     negative rho (up, down):  1.710E-02 0.000E+00
 
     Adding external electric field

     Computed dipole along edir(3) : 
        Dipole                0.6475 Ry au,          1.6457 Debye
        Dipole field          0.0012 Ry au, 
 
        Potential amp.       -0.1133 Ry
        Total length         46.3494 bohr
 

     total cpu time spent up to now is      891.0 secs

     total energy              =   -2942.90404953 Ry
     estimated scf accuracy    <       0.03958410 Ry

     iteration # 51     ecut=    29.40 Ry     beta= 0.05
     Davidson diagonalization with overlap
     ethr =  9.95E-06,  avg # of iterations =  1.0

     negative rho (up, down):  1.726E-02 0.000E+00
 
     Adding external electric field

     Computed dipole along edir(3) : 
        Dipole                0.7128 Ry au,          1.8118 Debye
        Dipole field          0.0013 Ry au, 
 
        Potential amp.       -0.1247 Ry
        Total length         46.3494 bohr
 

     total cpu time spent up to now is      901.0 secs

     total energy              =   -2942.90336075 Ry
     estimated scf accuracy    <       0.02361785 Ry

     iteration # 52     ecut=    29.40 Ry     beta= 0.05
     Davidson diagonalization with overlap
     ethr =  5.93E-06,  avg # of iterations =  4.5

     negative rho (up, down):  1.582E-02 0.000E+00
 
     Adding external electric field

     Computed dipole along edir(3) : 
        Dipole                0.7241 Ry au,          1.8405 Debye
        Dipole field          0.0014 Ry au, 
 
        Potential amp.       -0.1267 Ry
        Total length         46.3494 bohr
 

     total cpu time spent up to now is      912.3 secs

     total energy              =   -2942.90375619 Ry
     estimated scf accuracy    <       0.00307107 Ry

     iteration # 53     ecut=    29.40 Ry     beta= 0.05
     Davidson diagonalization with overlap
     c_bands:  1 eigenvalues not converged
     c_bands:  2 eigenvalues not converged
     ethr =  7.72E-07,  avg # of iterations = 16.5

     negative rho (up, down):  1.491E-02 0.000E+00
 
     Adding external electric field

     Computed dipole along edir(3) : 
        Dipole                0.6911 Ry au,          1.7566 Debye
        Dipole field          0.0013 Ry au, 
 
        Potential amp.       -0.1209 Ry
        Total length         46.3494 bohr
 

     total cpu time spent up to now is      928.6 secs

     total energy              =   -2942.90389526 Ry
     estimated scf accuracy    <       0.00069919 Ry

     iteration # 54     ecut=    29.40 Ry     beta= 0.05
     Davidson diagonalization with overlap
     ethr =  1.76E-07,  avg # of iterations =  6.8

     negative rho (up, down):  1.426E-02 0.000E+00
 
     Adding external electric field

     Computed dipole along edir(3) : 
        Dipole                0.7065 Ry au,          1.7956 Debye
        Dipole field          0.0013 Ry au, 
 
        Potential amp.       -0.1236 Ry
        Total length         46.3494 bohr
 

     total cpu time spent up to now is      943.9 secs

     total energy              =   -2942.90390151 Ry
     estimated scf accuracy    <       0.00128845 Ry

     iteration # 55     ecut=    29.40 Ry     beta= 0.05
     Davidson diagonalization with overlap
     ethr =  1.76E-07,  avg # of iterations =  6.0

     negative rho (up, down):  1.385E-02 0.000E+00
 
     Adding external electric field

     Computed dipole along edir(3) : 
        Dipole                0.7149 Ry au,          1.8170 Debye
        Dipole field          0.0013 Ry au, 
 
        Potential amp.       -0.1251 Ry
        Total length         46.3494 bohr
 

     total cpu time spent up to now is      958.3 secs

     total energy              =   -2942.90411887 Ry
     estimated scf accuracy    <       0.00047092 Ry

     iteration # 56     ecut=    29.40 Ry     beta= 0.05
     Davidson diagonalization with overlap
     ethr =  1.18E-07,  avg # of iterations =  2.8

     negative rho (up, down):  1.245E-02 0.000E+00
 
     Adding external electric field

     Computed dipole along edir(3) : 
        Dipole                0.6879 Ry au,          1.7485 Debye
        Dipole field          0.0013 Ry au, 
 
        Potential amp.       -0.1203 Ry
        Total length         46.3494 bohr
 

     total cpu time spent up to now is      969.7 secs

     total energy              =   -2942.90403038 Ry
     estimated scf accuracy    <       0.00066957 Ry

     iteration # 57     ecut=    29.40 Ry     beta= 0.05
     Davidson diagonalization with overlap
     ethr =  1.18E-07,  avg # of iterations =  6.0

     negative rho (up, down):  1.233E-02 0.000E+00
 
     Adding external electric field

     Computed dipole along edir(3) : 
        Dipole                0.6942 Ry au,          1.7645 Debye
        Dipole field          0.0013 Ry au, 
 
        Potential amp.       -0.1214 Ry
        Total length         46.3494 bohr
 

     total cpu time spent up to now is      983.6 secs

     total energy              =   -2942.90410831 Ry
     estimated scf accuracy    <       0.00022673 Ry

     iteration # 58     ecut=    29.40 Ry     beta= 0.05
     Davidson diagonalization with overlap
     ethr =  5.70E-08,  avg # of iterations =  5.0

     negative rho (up, down):  1.169E-02 0.000E+00
 
     Adding external electric field

     Computed dipole along edir(3) : 
        Dipole                0.6906 Ry au,          1.7554 Debye
        Dipole field          0.0013 Ry au, 
 
        Potential amp.       -0.1208 Ry
        Total length         46.3494 bohr
 

     total cpu time spent up to now is      995.7 secs

     total energy              =   -2942.90411168 Ry
     estimated scf accuracy    <       0.00022464 Ry

     iteration # 59     ecut=    29.40 Ry     beta= 0.05
     Davidson diagonalization with overlap
     ethr =  5.64E-08,  avg # of iterations =  2.0

     negative rho (up, down):  1.071E-02 0.000E+00
 
     Adding external electric field

     Computed dipole along edir(3) : 
        Dipole                0.6857 Ry au,          1.7429 Debye
        Dipole field          0.0013 Ry au, 
 
        Potential amp.       -0.1200 Ry
        Total length         46.3494 bohr
 

     total cpu time spent up to now is     1006.8 secs

     total energy              =   -2942.90411020 Ry
     estimated scf accuracy    <       0.00009290 Ry

     iteration # 60     ecut=    29.40 Ry     beta= 0.05
     Davidson diagonalization with overlap
     ethr =  2.33E-08,  avg # of iterations =  6.0

     negative rho (up, down):  1.073E-02 0.000E+00
 
     Adding external electric field

     Computed dipole along edir(3) : 
        Dipole                0.6874 Ry au,          1.7472 Debye
        Dipole field          0.0013 Ry au, 
 
        Potential amp.       -0.1203 Ry
        Total length         46.3494 bohr
 

     total cpu time spent up to now is     1020.7 secs

     total energy              =   -2942.90412654 Ry
     estimated scf accuracy    <       0.00006440 Ry

     iteration # 61     ecut=    29.40 Ry     beta= 0.05
     Davidson diagonalization with overlap
     ethr =  1.62E-08,  avg # of iterations =  3.2

     negative rho (up, down):  1.069E-02 0.000E+00
 
     Adding external electric field

     Computed dipole along edir(3) : 
        Dipole                0.6875 Ry au,          1.7475 Debye
        Dipole field          0.0013 Ry au, 
 
        Potential amp.       -0.1203 Ry
        Total length         46.3494 bohr
 

     total cpu time spent up to now is     1032.0 secs

     total energy              =   -2942.90413763 Ry
     estimated scf accuracy    <       0.00004729 Ry

     iteration # 62     ecut=    29.40 Ry     beta= 0.05
     Davidson diagonalization with overlap
     ethr =  1.19E-08,  avg # of iterations =  1.4

     negative rho (up, down):  1.039E-02 0.000E+00
 
     Adding external electric field

     Computed dipole along edir(3) : 
        Dipole                0.6897 Ry au,          1.7529 Debye
        Dipole field          0.0013 Ry au, 
 
        Potential amp.       -0.1206 Ry
        Total length         46.3494 bohr
 

     total cpu time spent up to now is     1042.4 secs

     total energy              =   -2942.90413045 Ry
     estimated scf accuracy    <       0.00005888 Ry

     iteration # 63     ecut=    29.40 Ry     beta= 0.05
     Davidson diagonalization with overlap
     ethr =  1.19E-08,  avg # of iterations =  6.1

     negative rho (up, down):  1.020E-02 0.000E+00
 
     Adding external electric field

     Computed dipole along edir(3) : 
        Dipole                0.6855 Ry au,          1.7423 Debye
        Dipole field          0.0013 Ry au, 
 
        Potential amp.       -0.1199 Ry
        Total length         46.3494 bohr
 

     total cpu time spent up to now is     1056.7 secs

     total energy              =   -2942.90414760 Ry
     estimated scf accuracy    <       0.00007869 Ry

     iteration # 64     ecut=    29.40 Ry     beta= 0.05
     Davidson diagonalization with overlap
     ethr =  1.19E-08,  avg # of iterations =  4.8

     negative rho (up, down):  1.023E-02 0.000E+00
 
     Adding external electric field

     Computed dipole along edir(3) : 
        Dipole                0.6847 Ry au,          1.7404 Debye
        Dipole field          0.0013 Ry au, 
 
        Potential amp.       -0.1198 Ry
        Total length         46.3494 bohr
 

     total cpu time spent up to now is     1069.3 secs

     total energy              =   -2942.90415305 Ry
     estimated scf accuracy    <       0.00005365 Ry

     iteration # 65     ecut=    29.40 Ry     beta= 0.05
     Davidson diagonalization with overlap
     ethr =  1.19E-08,  avg # of iterations =  5.0

     negative rho (up, down):  1.010E-02 0.000E+00
 
     Adding external electric field

     Computed dipole along edir(3) : 
        Dipole                0.6826 Ry au,          1.7351 Debye
        Dipole field          0.0013 Ry au, 
 
        Potential amp.       -0.1194 Ry
        Total length         46.3494 bohr
 

     total cpu time spent up to now is     1081.4 secs

     total energy              =   -2942.90415936 Ry
     estimated scf accuracy    <       0.00002680 Ry

     iteration # 66     ecut=    29.40 Ry     beta= 0.05
     Davidson diagonalization with overlap
     ethr =  6.73E-09,  avg # of iterations =  4.3

     negative rho (up, down):  1.001E-02 0.000E+00
 
     Adding external electric field

     Computed dipole along edir(3) : 
        Dipole                0.6834 Ry au,          1.7370 Debye
        Dipole field          0.0013 Ry au, 
 
        Potential amp.       -0.1196 Ry
        Total length         46.3494 bohr
 

     total cpu time spent up to now is     1093.5 secs

     total energy              =   -2942.90415906 Ry
     estimated scf accuracy    <       0.00002890 Ry

     iteration # 67     ecut=    29.40 Ry     beta= 0.05
     Davidson diagonalization with overlap
     ethr =  6.73E-09,  avg # of iterations =  5.7

     negative rho (up, down):  1.000E-02 0.000E+00
 
     Adding external electric field

     Computed dipole along edir(3) : 
        Dipole                0.6831 Ry au,          1.7364 Debye
        Dipole field          0.0013 Ry au, 
 
        Potential amp.       -0.1195 Ry
        Total length         46.3494 bohr
 

     total cpu time spent up to now is     1106.1 secs

     total energy              =   -2942.90416208 Ry
     estimated scf accuracy    <       0.00001486 Ry

     iteration # 68     ecut=    29.40 Ry     beta= 0.05
     Davidson diagonalization with overlap
     ethr =  3.73E-09,  avg # of iterations =  5.4

     negative rho (up, down):  1.002E-02 0.000E+00
 
     Adding external electric field

     Computed dipole along edir(3) : 
        Dipole                0.6833 Ry au,          1.7367 Debye
        Dipole field          0.0013 Ry au, 
 
        Potential amp.       -0.1195 Ry
        Total length         46.3494 bohr
 

     total cpu time spent up to now is     1118.4 secs

     total energy              =   -2942.90416597 Ry
     estimated scf accuracy    <       0.00000432 Ry

     iteration # 69     ecut=    29.40 Ry     beta= 0.05
     Davidson diagonalization with overlap
     ethr =  1.08E-09,  avg # of iterations =  6.0

     negative rho (up, down):  9.842E-03 0.000E+00
 
     Adding external electric field

     Computed dipole along edir(3) : 
        Dipole                0.6820 Ry au,          1.7336 Debye
        Dipole field          0.0013 Ry au, 
 
        Potential amp.       -0.1193 Ry
        Total length         46.3494 bohr
 

     total cpu time spent up to now is     1133.3 secs

     total energy              =   -2942.90416901 Ry
     estimated scf accuracy    <       0.00000533 Ry

     iteration # 70     ecut=    29.40 Ry     beta= 0.05
     Davidson diagonalization with overlap
     ethr =  1.08E-09,  avg # of iterations =  5.2

     negative rho (up, down):  9.808E-03 0.000E+00
 
     Adding external electric field

     Computed dipole along edir(3) : 
        Dipole                0.6809 Ry au,          1.7307 Debye
        Dipole field          0.0013 Ry au, 
 
        Potential amp.       -0.1191 Ry
        Total length         46.3494 bohr
 

     total cpu time spent up to now is     1148.2 secs

     total energy              =   -2942.90417197 Ry
     estimated scf accuracy    <       0.00000368 Ry

     iteration # 71     ecut=    29.40 Ry     beta= 0.05
     Davidson diagonalization with overlap
     ethr =  9.25E-10,  avg # of iterations =  2.9

     negative rho (up, down):  9.814E-03 0.000E+00
 
     Adding external electric field

     Computed dipole along edir(3) : 
        Dipole                0.6804 Ry au,          1.7295 Debye
        Dipole field          0.0013 Ry au, 
 
        Potential amp.       -0.1190 Ry
        Total length         46.3494 bohr
 

     total cpu time spent up to now is     1159.5 secs

     total energy              =   -2942.90417395 Ry
     estimated scf accuracy    <       0.00000165 Ry

     iteration # 72     ecut=    29.40 Ry     beta= 0.05
     Davidson diagonalization with overlap
     ethr =  4.14E-10,  avg # of iterations =  6.0

     negative rho (up, down):  9.822E-03 0.000E+00
 
     Adding external electric field

     Computed dipole along edir(3) : 
        Dipole                0.6807 Ry au,          1.7300 Debye
        Dipole field          0.0013 Ry au, 
 
        Potential amp.       -0.1191 Ry
        Total length         46.3494 bohr
 

     total cpu time spent up to now is     1174.2 secs

     total energy              =   -2942.90417612 Ry
     estimated scf accuracy    <       0.00000090 Ry

     iteration # 73     ecut=    29.40 Ry     beta= 0.05
     Davidson diagonalization with overlap
     ethr =  2.25E-10,  avg # of iterations =  6.0

     negative rho (up, down):  9.795E-03 0.000E+00
 
     Adding external electric field

     Computed dipole along edir(3) : 
        Dipole                0.6802 Ry au,          1.7289 Debye
        Dipole field          0.0013 Ry au, 
 
        Potential amp.       -0.1190 Ry
        Total length         46.3494 bohr
 

     total cpu time spent up to now is     1187.4 secs

     total energy              =   -2942.90417801 Ry
     estimated scf accuracy    <       0.00000069 Ry

     iteration # 74     ecut=    29.40 Ry     beta= 0.05
     Davidson diagonalization with overlap
     ethr =  1.73E-10,  avg # of iterations =  5.2

     negative rho (up, down):  9.755E-03 0.000E+00
 
     Adding external electric field

     Computed dipole along edir(3) : 
        Dipole                0.6796 Ry au,          1.7272 Debye
        Dipole field          0.0013 Ry au, 
 
        Potential amp.       -0.1189 Ry
        Total length         46.3494 bohr
 

     total cpu time spent up to now is     1200.4 secs

     total energy              =   -2942.90417975 Ry
     estimated scf accuracy    <       0.00000025 Ry

     iteration # 75     ecut=    29.40 Ry     beta= 0.05
     Davidson diagonalization with overlap
     ethr =  6.20E-11,  avg # of iterations =  5.6

     negative rho (up, down):  9.729E-03 0.000E+00
 
     Adding external electric field

     Computed dipole along edir(3) : 
        Dipole                0.6798 Ry au,          1.7278 Debye
        Dipole field          0.0013 Ry au, 
 
        Potential amp.       -0.1189 Ry
        Total length         46.3494 bohr
 

     total cpu time spent up to now is     1214.4 secs

     total energy              =   -2942.90418113 Ry
     estimated scf accuracy    <       0.00000042 Ry

     iteration # 76     ecut=    29.40 Ry     beta= 0.05
     Davidson diagonalization with overlap
     ethr =  6.20E-11,  avg # of iterations =  6.2

     negative rho (up, down):  9.727E-03 0.000E+00
 
     Adding external electric field

     Computed dipole along edir(3) : 
        Dipole                0.6797 Ry au,          1.7275 Debye
        Dipole field          0.0013 Ry au, 
 
        Potential amp.       -0.1189 Ry
        Total length         46.3494 bohr
 

     total cpu time spent up to now is     1232.3 secs

     total energy              =   -2942.90418250 Ry
     estimated scf accuracy    <       0.00000043 Ry

     iteration # 77     ecut=    29.40 Ry     beta= 0.05
     Davidson diagonalization with overlap
     ethr =  6.20E-11,  avg # of iterations =  5.0

     negative rho (up, down):  9.723E-03 0.000E+00
 
     Adding external electric field

     Computed dipole along edir(3) : 
        Dipole                0.6796 Ry au,          1.7273 Debye
        Dipole field          0.0013 Ry au, 
 
        Potential amp.       -0.1189 Ry
        Total length         46.3494 bohr
 

     total cpu time spent up to now is     1244.7 secs

     total energy              =   -2942.90418368 Ry
     estimated scf accuracy    <       0.00000011 Ry

     iteration # 78     ecut=    29.40 Ry     beta= 0.05
     Davidson diagonalization with overlap
     ethr =  2.87E-11,  avg # of iterations =  6.0

     negative rho (up, down):  9.720E-03 0.000E+00
 
     Adding external electric field

     Computed dipole along edir(3) : 
        Dipole                0.6796 Ry au,          1.7273 Debye
        Dipole field          0.0013 Ry au, 
 
        Potential amp.       -0.1189 Ry
        Total length         46.3494 bohr
 

     total cpu time spent up to now is     1260.0 secs

     total energy              =   -2942.90418473 Ry
     estimated scf accuracy    <       0.00000008 Ry

     iteration # 79     ecut=    29.40 Ry     beta= 0.05
     Davidson diagonalization with overlap
     ethr =  2.11E-11,  avg # of iterations =  6.0

     negative rho (up, down):  9.743E-03 0.000E+00
 
     Adding external electric field

     Computed dipole along edir(3) : 
        Dipole                0.6806 Ry au,          1.7299 Debye
        Dipole field          0.0013 Ry au, 
 
        Potential amp.       -0.1191 Ry
        Total length         46.3494 bohr
 

     total cpu time spent up to now is     1272.8 secs

     End of self-consistent calculation

          k = 0.0000 0.0000 0.0000 ( 18029 PWs)   bands (ev):

   -56.5053 -56.4717 -55.6135 -55.6045 -55.5782 -55.5720 -55.4751 -55.4395
   -55.2607 -55.2256 -55.1686 -55.1622 -55.1346 -55.0495 -54.6098 -54.5666
   -32.9328 -32.7791 -32.7509 -32.6821 -32.5910 -32.5588 -32.0927 -32.0710
   -32.0165 -31.9013 -31.8602 -31.8208 -31.8186 -31.7851 -31.7562 -31.7550
   -31.7537 -31.7359 -31.7253 -31.7211 -31.7000 -31.6836 -31.6575 -31.6437
   -31.6307 -31.6104 -31.6042 -31.5805 -31.5609 -31.5070 -31.4922 -31.4829
   -31.4040 -31.3996 -31.3794 -31.3356 -31.3279 -31.2960 -31.2794 -31.2556
   -31.2364 -31.1853 -31.1370 -30.8542 -30.8304 -30.8134 -30.7881 -30.6681
   -16.6666 -16.2247 -15.9965 -15.8665 -15.7932 -15.7446 -15.6918 -15.5754
   -15.4981 -15.4956 -15.4585 -15.4218 -15.3525 -15.2097 -15.1119 -15.0552
   -15.0131 -14.8985 -14.8325 -14.8058 -14.7959 -14.7645 -14.7470 -14.5482
   -14.5046 -14.4142 -14.4048 -14.2681 -14.0658 -13.9940 -13.6676 -13.5576
   -12.6984  -7.4299  -4.2337  -4.1382  -4.0105  -3.7208  -3.4788  -3.3927
    -3.2896  -3.2775  -3.2039  -3.0844  -3.0313  -2.9854  -2.8707  -2.8681
    -2.7253  -2.7068  -2.6801  -2.6695  -2.6328  -2.5858  -2.5558  -2.5085
    -2.5031  -2.4941  -2.3404  -2.2431  -2.1765  -2.1482  -2.1330  -2.1037
    -2.0282  -2.0034  -1.9923  -1.9842  -1.8958  -1.7466  -1.7408  -1.7126
    -1.6678  -1.6673  -1.6238  -1.6124  -1.4711  -1.3960  -1.2860  -1.2804
    -1.2441  -1.1770  -1.1750  -1.0723  -1.0022  -0.9503  -0.9116  -0.8056
    -0.7618  -0.7354  -0.6502  -0.5794  -0.5456  -0.5296  -0.5063  -0.4089
    -0.3919  -0.3691  -0.2858  -0.2764  -0.2282  -0.1405  -0.1198  -0.1161
    -0.0281  -0.0200   0.0819   0.1186   0.1606   0.1887   0.2785   0.3074
     0.4084   0.4522   0.4679   0.5900   0.6073   0.6667   0.7420   0.8038
     0.8241   0.8524   0.8851   0.8956   0.9778   1.0973   1.1025   1.1331
     1.2051   1.2517   1.4065   1.4453   1.7301   1.7419   2.4146   2.7701
     2.9316   3.2302   3.4312   3.5379   3.7472   3.7609   3.7666   3.9428
     3.9939

          k = 0.0000 0.0419 0.0000 ( 17933 PWs)   bands (ev):

   -56.5003 -56.4766 -55.6083 -55.5998 -55.5833 -55.5765 -55.4699 -55.4446
   -55.2556 -55.2305 -55.1635 -55.1608 -55.1395 -55.0508 -54.6058 -54.5704
   -32.8794 -32.7748 -32.7547 -32.6688 -32.6148 -32.6043 -32.0395 -32.0184
   -31.9610 -31.8867 -31.8543 -31.8214 -31.8092 -31.8081 -31.7766 -31.7552
   -31.7521 -31.7492 -31.7475 -31.7426 -31.6800 -31.6790 -31.6704 -31.6625
   -31.6436 -31.5971 -31.5871 -31.5790 -31.5082 -31.5033 -31.4862 -31.4787
   -31.4132 -31.3998 -31.3865 -31.3673 -31.3335 -31.3081 -31.2941 -31.2812
   -31.2560 -31.2420 -31.0877 -30.8664 -30.8281 -30.8151 -30.7912 -30.7062
   -16.5454 -16.1027 -15.9187 -15.8929 -15.8068 -15.7181 -15.6765 -15.5182
   -15.5119 -15.4673 -15.4398 -15.3538 -15.3318 -15.2421 -15.1552 -15.1432
   -15.0572 -14.8977 -14.8873 -14.8707 -14.8369 -14.7420 -14.6834 -14.5981
   -14.5016 -14.4699 -14.4109 -14.2915 -14.1342 -13.9936 -13.6748 -13.5987
   -12.7074  -7.4255  -4.1451  -4.0518  -4.0097  -3.5429  -3.3159  -3.2413
    -3.2061  -3.1424  -3.0764  -3.0299  -3.0146  -3.0021  -2.8364  -2.7748
    -2.6908  -2.6800  -2.6755  -2.6644  -2.6371  -2.6004  -2.5549  -2.5077
    -2.4902  -2.4579  -2.4034  -2.3719  -2.3483  -2.3071  -2.2443  -2.2106
    -2.1510  -2.1282  -2.0579  -1.9340  -1.9288  -1.9137  -1.7349  -1.7090
    -1.7022  -1.6553  -1.5862  -1.4980  -1.3492  -1.3002  -1.2935  -1.2552
    -1.2532  -1.0787  -1.0601  -1.0272  -0.9540  -0.9275  -0.9196  -0.8432
    -0.7799  -0.7677  -0.7259  -0.6171  -0.5426  -0.4772  -0.4122  -0.3366
    -0.3278  -0.2865  -0.2642  -0.2065  -0.1943  -0.1514  -0.1414  -0.1213
    -0.0510  -0.0157   0.0298   0.0599   0.0746   0.2036   0.2283   0.3273
     0.3492   0.3588   0.4173   0.4718   0.4868   0.5098   0.5246   0.5294
     0.6996   0.7434   0.8236   0.9061   1.0392   1.0854   1.1353   1.1568
     1.1785   1.1908   1.3515   1.3584   1.6193   1.6915   2.2875   3.0385
     3.0424   3.2390   3.5810   3.6158   3.6387   3.7198   3.7451   3.8938
     3.9324

          k = 0.0000-0.0839 0.0000 ( 17884 PWs)   bands (ev):

   -56.4886 -56.4882 -55.5964 -55.5955 -55.5904 -55.5855 -55.4592 -55.4551
   -55.2455 -55.2405 -55.1594 -55.1515 -55.1515 -55.0521 -54.6006 -54.5755
   -32.7649 -32.7646 -32.7485 -32.7483 -32.6367 -32.6364 -31.9111 -31.9082
   -31.8923 -31.8861 -31.8511 -31.8503 -31.8498 -31.8490 -31.8075 -31.8050
   -31.7805 -31.7751 -31.7488 -31.7467 -31.7103 -31.7069 -31.6620 -31.6566
   -31.5958 -31.5873 -31.5266 -31.5219 -31.4963 -31.4946 -31.4945 -31.4464
   -31.4455 -31.4079 -31.3773 -31.3772 -31.3730 -31.3379 -31.3379 -31.3310
   -31.2893 -31.2572 -30.9992 -30.9268 -30.8252 -30.7993 -30.7942 -30.7536
   -16.2443 -16.2437 -15.8270 -15.8233 -15.6720 -15.6703 -15.6626 -15.6625
   -15.5371 -15.5292 -15.3435 -15.3390 -15.2285 -15.2249 -15.1181 -15.1149
   -15.1058 -15.1042 -15.0264 -15.0141 -14.7246 -14.7149 -14.6072 -14.6045
   -14.5511 -14.5326 -14.3764 -14.3641 -14.2175 -13.9932 -13.6614 -13.6614
   -12.7162  -7.4212  -4.1519  -4.0090  -3.5975  -3.5974  -3.1267  -3.1194
    -3.1072  -3.1069  -3.0005  -2.9992  -2.9496  -2.9417  -2.7870  -2.7586
    -2.7075  -2.6641  -2.6544  -2.6324  -2.6294  -2.6193  -2.6061  -2.6040
    -2.5547  -2.5393  -2.4242  -2.4187  -2.3549  -2.3062  -2.2116  -2.1257
    -2.1141  -2.0632  -2.0249  -2.0134  -1.8330  -1.8087  -1.8008  -1.7927
    -1.7255  -1.7098  -1.6972  -1.6093  -1.5922  -1.4658  -1.4561  -1.1946
    -1.1858  -1.0078  -1.0023  -0.9810  -0.9408  -0.9075  -0.8638  -0.7924
    -0.7697  -0.6423  -0.6401  -0.6366  -0.5900  -0.4863  -0.4477  -0.3986
    -0.3949  -0.3107  -0.3023  -0.2809  -0.2607  -0.1944  -0.0723  -0.0631
    -0.0361   0.0077   0.0228   0.1311   0.1508   0.1685   0.2079   0.2466
     0.2696   0.2823   0.3329   0.4131   0.4176   0.4390   0.4794   0.4901
     0.5035   0.5928   0.7058   0.7976   1.0849   1.1142   1.1381   1.2169
     1.2176   1.2470   1.3239   1.3342   1.3581   1.6597   2.1568   3.2809
     3.2813   3.4165   3.4168   3.4761   3.4764   3.8493   3.8686   3.9741
     3.9867

          k = 0.0380 0.0000 0.0000 ( 17913 PWs)   bands (ev):

   -56.5052 -56.4716 -55.6127 -55.6051 -55.5781 -55.5720 -55.4749 -55.4394
   -55.2606 -55.2255 -55.1685 -55.1621 -55.1345 -55.0494 -54.6097 -54.5665
   -32.9334 -32.7789 -32.7508 -32.6800 -32.5907 -32.5585 -32.0966 -32.0714
   -32.0165 -31.8823 -31.8598 -31.8208 -31.8185 -31.7780 -31.7735 -31.7571
   -31.7548 -31.7358 -31.7261 -31.7192 -31.7009 -31.6773 -31.6736 -31.6543
   -31.6102 -31.6041 -31.6019 -31.5803 -31.5605 -31.5095 -31.4896 -31.4811
   -31.4104 -31.3996 -31.3792 -31.3354 -31.3276 -31.2959 -31.2799 -31.2554
   -31.2362 -31.1850 -31.1364 -30.8540 -30.8323 -30.8133 -30.7872 -30.6679
   -16.5626 -16.1478 -16.0241 -15.9618 -15.8449 -15.6882 -15.6000 -15.5824
   -15.4997 -15.4875 -15.4301 -15.4141 -15.3717 -15.3535 -15.0576 -15.0523
   -15.0124 -14.9381 -14.9327 -14.9154 -14.8355 -14.6412 -14.6359 -14.6293
   -14.5125 -14.4518 -14.3799 -14.2676 -14.0641 -13.9938 -13.6649 -13.5573
   -12.6969  -7.4283  -4.1378  -4.0116  -3.9499  -3.5561  -3.4216  -3.4027
    -3.3028  -3.2307  -3.0691  -3.0509  -3.0164  -2.9939  -2.8358  -2.8219
    -2.7994  -2.7163  -2.7028  -2.6769  -2.6414  -2.6013  -2.5491  -2.5088
    -2.4258  -2.3804  -2.3114  -2.2165  -2.1549  -2.1337  -2.1294  -2.1211
    -2.0110  -1.9771  -1.9217  -1.7953  -1.7884  -1.7615  -1.6972  -1.6712
    -1.6609  -1.6455  -1.5837  -1.5637  -1.5510  -1.4187  -1.3609  -1.3100
    -1.2545  -1.1926  -1.1485  -1.0643  -0.9981  -0.9705  -0.9352  -0.8941
    -0.8473  -0.8292  -0.7943  -0.7293  -0.6418  -0.5565  -0.4841  -0.4816
    -0.4307  -0.3794  -0.3239  -0.2878  -0.2820  -0.2414  -0.1815  -0.0290
     0.0155   0.0491   0.0736   0.1032   0.1557   0.2447   0.2716   0.3050
     0.3071   0.3276   0.4140   0.4862   0.5366   0.5815   0.6662   0.7170
     0.7627   0.8637   0.8664   0.8855   0.9637   1.0064   1.0490   1.0667
     1.1233   1.1341   1.3027   1.3559   1.6118   1.7384   2.2721   2.9156
     2.9478   3.2294   3.3898   3.5099   3.7567   3.7754   3.8419   3.8498
     4.0176

          k = 0.0380 0.0419 0.0000 ( 17878 PWs)   bands (ev):

   -56.5002 -56.4765 -55.6076 -55.6003 -55.5832 -55.5766 -55.4698 -55.4445
   -55.2555 -55.2305 -55.1635 -55.1608 -55.1395 -55.0507 -54.6057 -54.5704
   -32.8800 -32.7746 -32.7548 -32.6671 -32.6148 -32.6040 -32.0437 -32.0190
   -31.9611 -31.8700 -31.8538 -31.8215 -31.8091 -31.7964 -31.7848 -31.7628
   -31.7553 -31.7530 -31.7479 -31.7423 -31.6802 -31.6764 -31.6676 -31.6635
   -31.6564 -31.5971 -31.5792 -31.5720 -31.5080 -31.5052 -31.4852 -31.4765
   -31.4130 -31.4052 -31.3866 -31.3671 -31.3333 -31.3082 -31.2941 -31.2821
   -31.2559 -31.2419 -31.0873 -30.8664 -30.8294 -30.8150 -30.7910 -30.7062
   -16.4475 -16.0305 -16.0063 -15.8834 -15.7734 -15.7709 -15.6161 -15.5885
   -15.5121 -15.4044 -15.3778 -15.3541 -15.3321 -15.3308 -15.2112 -15.0553
   -15.0059 -14.9808 -14.9729 -14.9076 -14.7750 -14.7539 -14.7165 -14.6710
   -14.5054 -14.4785 -14.3907 -14.2918 -14.1330 -13.9935 -13.6729 -13.5989
   -12.7063  -7.4245  -4.1448  -4.0109  -3.7722  -3.3837  -3.2778  -3.2353
    -3.1530  -3.1304  -2.9338  -2.9254  -2.8951  -2.8532  -2.8247  -2.8022
    -2.7341  -2.6914  -2.6839  -2.6406  -2.5792  -2.5583  -2.5560  -2.4987
    -2.4689  -2.4503  -2.3938  -2.3750  -2.3142  -2.2337  -2.2018  -2.1534
    -2.0740  -2.0438  -2.0215  -1.9649  -1.8865  -1.8768  -1.7848  -1.7331
    -1.7065  -1.5801  -1.5280  -1.4483  -1.4052  -1.3902  -1.3437  -1.2988
    -1.2072  -1.1771  -1.1128  -1.0829  -1.0135  -0.9714  -0.9439  -0.9388
    -0.8023  -0.7855  -0.7047  -0.6698  -0.6524  -0.5774  -0.5441  -0.4611
    -0.4205  -0.3999  -0.3621  -0.3347  -0.2975  -0.2540  -0.2371  -0.1952
    -0.0997  -0.0415  -0.0207   0.0114   0.0706   0.1726   0.1917   0.2418
     0.2801   0.3312   0.3586   0.4221   0.4727   0.4877   0.5218   0.5569
     0.6801   0.7796   0.8318   0.9772   0.9970   1.0507   1.0998   1.1321
     1.1399   1.2217   1.2756   1.3347   1.5440   1.7135   2.2562   3.0312
     3.1897   3.2806   3.4373   3.6273   3.7091   3.7596   3.8508   3.9022
     4.0234

          k = 0.0380-0.0839 0.0000 ( 17916 PWs)   bands (ev):

   -56.4886 -56.4883 -55.5959 -55.5952 -55.5909 -55.5858 -55.4592 -55.4552
   -55.2456 -55.2405 -55.1594 -55.1516 -55.1515 -55.0521 -54.6007 -54.5755
   -32.7649 -32.7646 -32.7491 -32.7489 -32.6359 -32.6356 -31.9171 -31.9145
   -31.8940 -31.8877 -31.8507 -31.8499 -31.8313 -31.8310 -31.8076 -31.8051
   -31.7806 -31.7752 -31.7602 -31.7581 -31.7104 -31.7069 -31.6615 -31.6567
   -31.5960 -31.5875 -31.5273 -31.5226 -31.4952 -31.4952 -31.4924 -31.4454
   -31.4445 -31.4098 -31.3772 -31.3771 -31.3730 -31.3379 -31.3379 -31.3311
   -31.2922 -31.2572 -30.9992 -30.9267 -30.8260 -30.7994 -30.7949 -30.7536
   -16.1748 -16.1739 -15.8185 -15.8156 -15.7512 -15.7492 -15.6411 -15.6400
   -15.5099 -15.5028 -15.3237 -15.3183 -15.2137 -15.2116 -15.1128 -15.0988
   -15.0802 -15.0725 -15.0496 -15.0446 -14.8005 -14.7925 -14.7021 -14.6953
   -14.5216 -14.5023 -14.3709 -14.3551 -14.2156 -13.9932 -13.6613 -13.6612
   -12.7155  -7.4208  -4.1517  -4.0103  -3.3862  -3.3850  -3.0263  -3.0248
    -3.0137  -3.0131  -2.9653  -2.9612  -2.8747  -2.8660  -2.6875  -2.6752
    -2.6730  -2.6153  -2.6088  -2.5882  -2.5675  -2.5597  -2.5473  -2.5365
    -2.4894  -2.4358  -2.3921  -2.3331  -2.2871  -2.2805  -2.1767  -2.0763
    -2.0749  -2.0373  -2.0190  -1.9806  -1.9402  -1.9338  -1.8247  -1.8177
    -1.7627  -1.7272  -1.7058  -1.5630  -1.5519  -1.4688  -1.4594  -1.2712
    -1.2673  -1.2098  -1.2036  -1.0623  -1.0361  -1.0031  -0.9800  -0.8884
    -0.8775  -0.7779  -0.7728  -0.6909  -0.6786  -0.5735  -0.5534  -0.5122
    -0.5054  -0.4805  -0.4238  -0.3636  -0.2976  -0.2260  -0.1463  -0.1096
    -0.0941  -0.0477  -0.0281  -0.0060   0.0103   0.0784   0.0963   0.1276
     0.1579   0.2157   0.2660   0.3370   0.3478   0.4883   0.5819   0.5899
     0.6177   0.7626   0.8491   0.9063   1.0903   1.1173   1.1351   1.2261
     1.2272   1.2654   1.2833   1.3285   1.3365   1.6866   2.2285   3.2846
     3.2860   3.4473   3.4491   3.6448   3.6454   3.8205   3.8373   3.9703
     3.9840

          k = 0.0380-0.0419 0.0000 ( 17876 PWs)   bands (ev):

   -56.5002 -56.4765 -55.6076 -55.6003 -55.5832 -55.5766 -55.4698 -55.4445
   -55.2555 -55.2305 -55.1635 -55.1608 -55.1395 -55.0507 -54.6057 -54.5704
   -32.8800 -32.7746 -32.7548 -32.6671 -32.6148 -32.6040 -32.0437 -32.0190
   -31.9610 -31.8700 -31.8538 -31.8215 -31.8092 -31.7964 -31.7848 -31.7626
   -31.7554 -31.7530 -31.7478 -31.7423 -31.6801 -31.6763 -31.6679 -31.6635
   -31.6563 -31.5971 -31.5792 -31.5720 -31.5079 -31.5052 -31.4852 -31.4765
   -31.4129 -31.4052 -31.3866 -31.3671 -31.3333 -31.3082 -31.2939 -31.2823
   -31.2559 -31.2419 -31.0873 -30.8663 -30.8293 -30.8152 -30.7908 -30.7062
   -16.4473 -16.0304 -16.0071 -15.8833 -15.7729 -15.7709 -15.6158 -15.5886
   -15.5122 -15.4044 -15.3778 -15.3542 -15.3323 -15.3308 -15.2115 -15.0552
   -15.0055 -14.9811 -14.9730 -14.9076 -14.7757 -14.7520 -14.7170 -14.6715
   -14.5044 -14.4790 -14.3908 -14.2919 -14.1331 -13.9935 -13.6729 -13.5989
   -12.7063  -7.4246  -4.1447  -4.0109  -3.7716  -3.3828  -3.2794  -3.2363
    -3.1515  -3.1305  -2.9333  -2.9247  -2.8946  -2.8510  -2.8257  -2.8011
    -2.7337  -2.7075  -2.6875  -2.6340  -2.5812  -2.5573  -2.5507  -2.5001
    -2.4675  -2.4491  -2.3898  -2.3713  -2.3199  -2.2355  -2.2007  -2.1518
    -2.0735  -2.0489  -2.0147  -1.9714  -1.8830  -1.8789  -1.7754  -1.7364
    -1.7045  -1.5741  -1.5338  -1.4493  -1.4085  -1.3900  -1.3424  -1.3018
    -1.2024  -1.1724  -1.1127  -1.0791  -1.0149  -0.9732  -0.9478  -0.9381
    -0.8014  -0.7882  -0.7077  -0.6677  -0.6430  -0.5892  -0.5454  -0.4685
    -0.4220  -0.3887  -0.3771  -0.3380  -0.2907  -0.2549  -0.2402  -0.1922
    -0.1086  -0.0438  -0.0148   0.0160   0.0928   0.1564   0.1858   0.2510
     0.2798   0.3494   0.3530   0.4097   0.4722   0.4886   0.5179   0.5683
     0.6821   0.7721   0.8320   0.9677   0.9996   1.0530   1.1007   1.1322
     1.1412   1.2223   1.2752   1.3353   1.5438   1.7134   2.2590   3.0319
     3.1900   3.2807   3.4363   3.6269   3.7100   3.7591   3.8454   3.9016
     4.0203

          k =-0.0760-0.0000 0.0000 ( 17886 PWs)   bands (ev):

   -56.5052 -56.4716 -55.6118 -55.6058 -55.5780 -55.5720 -55.4749 -55.4394
   -55.2606 -55.2255 -55.1684 -55.1621 -55.1345 -55.0494 -54.6097 -54.5665
   -32.9341 -32.7788 -32.7507 -32.6781 -32.5910 -32.5585 -32.1004 -32.0718
   -32.0166 -31.8598 -31.8501 -31.8209 -31.8183 -31.8063 -31.7684 -31.7617
   -31.7548 -31.7358 -31.7270 -31.7175 -31.7025 -31.6883 -31.6683 -31.6546
   -31.6102 -31.6041 -31.5877 -31.5803 -31.5602 -31.5118 -31.4869 -31.4799
   -31.4174 -31.4002 -31.3792 -31.3352 -31.3276 -31.2958 -31.2808 -31.2553
   -31.2362 -31.1851 -31.1359 -30.8539 -30.8343 -30.8133 -30.7866 -30.6679
   -16.3997 -16.1071 -16.1061 -15.9373 -15.9175 -15.6844 -15.6507 -15.5032
   -15.5016 -15.4449 -15.4398 -15.3909 -15.3686 -15.3544 -15.1314 -15.0607
   -15.0533 -14.9936 -14.9705 -14.9483 -14.8486 -14.7236 -14.5844 -14.5543
   -14.5260 -14.4601 -14.3717 -14.2675 -14.0628 -13.9938 -13.6623 -13.5570
   -12.6954  -7.4268  -4.1376  -4.0128  -3.5623  -3.5586  -3.5165  -3.4040
    -3.1546  -3.1406  -3.1032  -2.9879  -2.9660  -2.8415  -2.7846  -2.7651
    -2.7121  -2.7093  -2.6896  -2.6097  -2.6002  -2.5868  -2.4604  -2.3953
    -2.3499  -2.3021  -2.2789  -2.2196  -2.2142  -2.1901  -2.1282  -2.0691
    -2.0378  -1.9306  -1.9234  -1.8899  -1.8086  -1.7910  -1.7587  -1.6618
    -1.6139  -1.6027  -1.5543  -1.5208  -1.4830  -1.4432  -1.3654  -1.3359
    -1.3088  -1.2629  -1.1901  -1.1590  -1.1240  -1.0970  -0.9939  -0.8895
    -0.8724  -0.7738  -0.7342  -0.7151  -0.6898  -0.6650  -0.5835  -0.5811
    -0.5490  -0.4266  -0.4169  -0.3614  -0.3229  -0.2434  -0.2047  -0.1833
    -0.1321  -0.0022   0.0816   0.1038   0.1818   0.1847   0.2530   0.2951
     0.3097   0.3654   0.4494   0.5018   0.5476   0.6009   0.6364   0.6465
     0.7313   0.7390   0.8065   0.8815   0.9562   0.9689   1.0217   1.0678
     1.1242   1.1608   1.1707   1.2902   1.4033   1.7388   2.1487   2.9063
     3.0427   3.1333   3.2285   3.5964   3.6183   3.7870   3.9041   3.9360
     3.9576

          k =-0.0760 0.0419 0.0000 ( 17914 PWs)   bands (ev):

   -56.5003 -56.4765 -55.6069 -55.6011 -55.5830 -55.5768 -55.4698 -55.4446
   -55.2556 -55.2305 -55.1635 -55.1608 -55.1395 -55.0508 -54.6058 -54.5704
   -32.8808 -32.7746 -32.7548 -32.6657 -32.6150 -32.6040 -32.0479 -32.0197
   -31.9613 -31.8543 -31.8386 -31.8215 -31.8139 -31.8091 -31.7746 -31.7722
   -31.7621 -31.7564 -31.7480 -31.7424 -31.6806 -31.6751 -31.6693 -31.6636
   -31.6615 -31.5972 -31.5791 -31.5607 -31.5078 -31.5073 -31.4846 -31.4746
   -31.4130 -31.4111 -31.3869 -31.3671 -31.3333 -31.3082 -31.2943 -31.2833
   -31.2559 -31.2419 -31.0870 -30.8663 -30.8310 -30.8152 -30.7908 -30.7062
   -16.2861 -16.0623 -16.0240 -15.8627 -15.8541 -15.7618 -15.6039 -15.5651
   -15.5110 -15.3963 -15.3564 -15.3530 -15.3344 -15.2701 -15.2224 -15.1113
   -15.0282 -15.0113 -14.9402 -14.9329 -14.8880 -14.7713 -14.7250 -14.6974
   -14.5072 -14.4667 -14.3812 -14.2923 -14.1323 -13.9935 -13.6710 -13.5992
   -12.7053  -7.4236  -4.1445  -4.0122  -3.3529  -3.3522  -3.2697  -3.2556
    -3.0309  -3.0229  -2.9253  -2.9057  -2.8459  -2.8257  -2.7260  -2.6889
    -2.6614  -2.6502  -2.5747  -2.5559  -2.5479  -2.5255  -2.5220  -2.4549
    -2.4497  -2.4199  -2.3824  -2.3370  -2.2604  -2.1522  -2.1350  -2.0877
    -2.0783  -2.0234  -1.9835  -1.9205  -1.8837  -1.8648  -1.8074  -1.6984
    -1.6428  -1.6313  -1.5292  -1.4969  -1.4928  -1.4729  -1.3789  -1.3140
    -1.2640  -1.2176  -1.1830  -1.1369  -1.0914  -1.0767  -1.0202  -0.9753
    -0.9126  -0.8540  -0.8213  -0.7757  -0.7209  -0.6761  -0.6462  -0.5840
    -0.5436  -0.4671  -0.4502  -0.4027  -0.3599  -0.3386  -0.3214  -0.2803
    -0.2143  -0.1846  -0.0811  -0.0743  -0.0482   0.0473   0.1127   0.1727
     0.2977   0.3041   0.3994   0.4062   0.4639   0.4888   0.6279   0.6827
     0.7751   0.8160   0.9088   0.9484   0.9829   1.0380   1.1264   1.1439
     1.1495   1.2064   1.2116   1.3216   1.4265   1.7323   2.2394   3.0436
     3.2155   3.2307   3.3281   3.7355   3.7843   3.7863   3.8297   3.9438
     4.0500

          k =-0.0760-0.0839 0.0000 ( 17948 PWs)   bands (ev):

   -56.4886 -56.4883 -55.5954 -55.5946 -55.5917 -55.5862 -55.4592 -55.4552
   -55.2456 -55.2406 -55.1595 -55.1516 -55.1515 -55.0522 -54.6007 -54.5756
   -32.7650 -32.7646 -32.7497 -32.7495 -32.6352 -32.6349 -31.9214 -31.9191
   -31.8957 -31.8894 -31.8508 -31.8499 -31.8077 -31.8053 -31.8051 -31.8043
   -31.7821 -31.7801 -31.7787 -31.7750 -31.7105 -31.7070 -31.6617 -31.6560
   -31.5961 -31.5877 -31.5279 -31.5233 -31.4959 -31.4958 -31.4885 -31.4443
   -31.4434 -31.4117 -31.3772 -31.3771 -31.3730 -31.3379 -31.3379 -31.3311
   -31.2952 -31.2572 -30.9992 -30.9267 -30.8267 -30.7994 -30.7956 -30.7536
   -16.0135 -16.0115 -15.9817 -15.9814 -15.7072 -15.7036 -15.6561 -15.6541
   -15.4847 -15.4784 -15.2685 -15.2602 -15.2560 -15.2519 -15.1237 -15.1172
   -15.0589 -15.0414 -14.9582 -14.9541 -14.8921 -14.8819 -14.8463 -14.8279
   -14.5066 -14.4856 -14.3672 -14.3489 -14.2139 -13.9933 -13.6611 -13.6611
   -12.7149  -7.4205  -4.1515  -4.0116  -3.1137  -3.1131  -3.0423  -3.0413
    -2.9189  -2.9138  -2.8456  -2.8449  -2.7343  -2.7319  -2.6794  -2.5997
    -2.5981  -2.5957  -2.5764  -2.5565  -2.4447  -2.4371  -2.4246  -2.4060
    -2.3607  -2.3577  -2.3480  -2.2672  -2.2533  -2.2172  -2.1773  -2.0712
    -2.0591  -2.0443  -2.0145  -1.9536  -1.9433  -1.9282  -1.8789  -1.8620
    -1.7786  -1.7231  -1.6603  -1.5531  -1.5488  -1.5394  -1.5271  -1.3722
    -1.3329  -1.3046  -1.2984  -1.2896  -1.2452  -1.1468  -1.1392  -0.9970
    -0.9966  -0.9246  -0.8442  -0.8285  -0.7983  -0.6679  -0.6249  -0.5845
    -0.5779  -0.5558  -0.5317  -0.5116  -0.4790  -0.3329  -0.3207  -0.2901
    -0.2496  -0.2418  -0.1952  -0.1279  -0.0401   0.0230   0.0246   0.0887
     0.1518   0.2116   0.2921   0.3077   0.3127   0.5938   0.6769   0.7648
     0.8411   0.9086   0.9732   0.9952   1.0639   1.0959   1.1321   1.2327
     1.2367   1.2538   1.2542   1.3256   1.3275   1.7071   2.3066   3.3440
     3.3444   3.4124   3.4129   3.7368   3.7423   3.8526   3.8629   3.9729
     3.9769

     the Fermi energy is     2.6027 ev

!    total energy              =   -2942.90419440 Ry
     estimated scf accuracy    <       0.00000007 Ry
     smearing contrib. (-TS)   =      -0.00455229 Ry
     internal energy E=F+TS    =   -2942.89964211 Ry

     The total energy is F=E-TS. E is the sum of the following terms:
     one-electron contribution =  -23042.96226462 Ry
     hartree contribution      =   11612.09858664 Ry
     xc contribution           =    -487.44071689 Ry
     ewald contribution        =    8975.40387861 Ry
     electric field correction =       0.00087415 Ry

     convergence has been achieved in  79 iterations

     Forces acting on atoms (cartesian axes, Ry/au):

     atom    1 type  1   force =     0.00001108   -0.00050085    0.12498052
     atom    2 type  1   force =    -0.00013953   -0.00063141   -0.16058994
     atom    3 type  2   force =     0.00017099   -0.00022444   -0.06934756
     atom    4 type  2   force =    -0.00004223   -0.00027957    0.02763020
     atom    5 type  2   force =    -0.01719129    0.00222144   -0.00888246
     atom    6 type  2   force =     0.01887268    0.00287308   -0.00920499
     atom    7 type  1   force =     0.00088111   -0.00376164    0.02234443
     atom    8 type  1   force =    -0.00036467   -0.00327934    0.11352316
     atom    9 type  2   force =     0.00050447   -0.00039860    0.00004835
     atom   10 type  2   force =    -0.00234656    0.00260008   -0.07318212
     atom   11 type  2   force =     0.00013306   -0.00095421   -0.00010885
     atom   12 type  2   force =     0.00000079   -0.00058432   -0.00003064
     atom   13 type  1   force =     0.00020561   -0.00019192   -0.00029605
     atom   14 type  1   force =    -0.00007479   -0.00054129   -0.00004483
     atom   15 type  2   force =    -0.00035652   -0.00099939    0.00084220
     atom   16 type  2   force =    -0.00013192   -0.00017131    0.00045951
     atom   17 type  2   force =     0.00089694   -0.00042880   -0.00034115
     atom   18 type  2   force =    -0.00059311   -0.00046513   -0.00030974
     atom   19 type  1   force =    -0.00024099    0.00006846   -0.00056253
     atom   20 type  1   force =     0.00054454   -0.00088719   -0.00098942
     atom   21 type  2   force =     0.00005402   -0.00006532    0.09967552
     atom   22 type  2   force =     0.00015237   -0.00038795   -0.00093655
     atom   23 type  2   force =    -0.07920237   -0.00006135   -0.03250753
     atom   24 type  2   force =     0.07905944    0.00036977   -0.03253246
     atom   25 type  1   force =     0.00003238   -0.00048916    0.12432260
     atom   26 type  1   force =    -0.00012607   -0.00048957   -0.16059950
     atom   27 type  2   force =     0.00028172   -0.00044615   -0.06835103
     atom   28 type  2   force =     0.00000370   -0.00013854    0.02748952
     atom   29 type  2   force =    -0.01765027    0.00173285   -0.00895553
     atom   30 type  2   force =     0.01922334    0.00199525   -0.00929400
     atom   31 type  1   force =     0.00080245   -0.00117254    0.02196042
     atom   32 type  1   force =    -0.00030150    0.00070775    0.11416777
     atom   33 type  2   force =    -0.00007711    0.00003895   -0.00057191
     atom   34 type  2   force =    -0.00201772    0.00205915   -0.07184541
     atom   35 type  2   force =     0.00002007   -0.00021033    0.00012606
     atom   36 type  2   force =    -0.00051959    0.00020466    0.00021588
     atom   37 type  1   force =     0.00087595    0.00095114   -0.00022305
     atom   38 type  1   force =    -0.00020845    0.00026870   -0.00019142
     atom   39 type  2   force =    -0.00002219   -0.00029772   -0.00001112
     atom   40 type  2   force =    -0.00001076   -0.00019418   -0.00024578
     atom   41 type  2   force =     0.00023929   -0.00042915   -0.00032112
     atom   42 type  2   force =    -0.00001254   -0.00039238   -0.00037247
     atom   43 type  1   force =    -0.00036094    0.00008344   -0.00044207
     atom   44 type  1   force =     0.00006233    0.00093148    0.00029199
     atom   45 type  2   force =     0.00003950   -0.00007560    0.09969741
     atom   46 type  2   force =    -0.07920665   -0.00003009   -0.03251002
     atom   47 type  2   force =     0.07906248    0.00041502   -0.03251429
     atom   48 type  3   force =    -0.00033940    0.00103051   -0.00095780
     atom   49 type  3   force =    -0.00225914    0.02283668   -0.00204522
     atom   50 type  4   force =    -0.00009092    0.00054355    0.00143998
     atom   51 type  5   force =    -0.00050604   -0.00046433   -0.00046895
     atom   52 type  5   force =     0.00000849    0.00019540   -0.00016430
     atom   53 type  5   force =    -0.00014742    0.00043061   -0.00012240
     atom   54 type  5   force =     0.00318264   -0.00723359   -0.00606071
     atom   55 type  5   force =     0.00405248   -0.01100985    0.00651024
     atom   56 type  5   force =    -0.00483320   -0.00467075    0.00040918

     Total force =     0.427597     Total SCF correction =     0.000762
  @ DRIVER MODE: Message from server: STATUS
  @ DRIVER MODE: Message from server: GETFORCE
  @ DRIVER MODE: Returning v,forces,stress,ensemble 

     Writing output data file ./calc.save/
  @ DRIVER MODE: Message from server: EXIT
  @ DRIVE MODE: Exiting  
 
     init_run     :     10.91s CPU     11.12s WALL (       1 calls)
     electrons    :   1242.68s CPU   1261.41s WALL (       1 calls)
     forces       :      2.47s CPU      2.56s WALL (       1 calls)

     Called by init_run:
     wfcinit      :      4.86s CPU      4.91s WALL (       1 calls)
     potinit      :      5.38s CPU      5.45s WALL (       1 calls)
     hinit0       :      0.30s CPU      0.31s WALL (       1 calls)

     Called by electrons:
     c_bands      :   1050.91s CPU   1058.82s WALL (      79 calls)
     sum_band     :    129.25s CPU    133.66s WALL (      79 calls)
     v_of_rho     :     46.01s CPU     48.27s WALL (      80 calls)
     newd         :     19.25s CPU     23.35s WALL (      80 calls)
     mix_rho      :      1.74s CPU      1.79s WALL (      79 calls)
     vdW_kernel   :      4.55s CPU      4.56s WALL (       1 calls)

     Called by c_bands:
     init_us_2    :      8.97s CPU      9.01s WALL (    1600 calls)
     cegterg      :   1028.15s CPU   1035.71s WALL (     811 calls)

     Called by *egterg:
     cdiaghg      :    163.04s CPU    163.74s WALL (    7175 calls)
     h_psi        :    552.81s CPU    558.25s WALL (    7185 calls)
     s_psi        :     73.48s CPU     73.71s WALL (    7185 calls)
     g_psi        :      2.11s CPU      2.13s WALL (    6364 calls)

     Called by h_psi:
     h_psi:calbec :     69.85s CPU     70.23s WALL (    7185 calls)
     vloc_psi     :    403.92s CPU    408.29s WALL (    7185 calls)
     add_vuspsi   :     74.76s CPU     75.13s WALL (    7185 calls)

     General routines
     calbec       :     92.38s CPU     92.83s WALL (    8015 calls)
     fft          :     23.90s CPU     24.07s WALL (    5040 calls)
     ffts         :      0.15s CPU      0.15s WALL (     159 calls)
     fftw         :    453.19s CPU    458.08s WALL ( 1073508 calls)
     interpolate  :      0.49s CPU      0.50s WALL (      80 calls)
     davcio       :      0.00s CPU      0.20s WALL (      10 calls)
 
     Parallel routines
 
     PWSCF        :  20m56.33s CPU  21m15.69s WALL

 
   This run was terminated on:   1: 8:54   9Sep2021            

=------------------------------------------------------------------------------=
   JOB DONE.
=------------------------------------------------------------------------------=
