
     Program PWSCF v.6.7GPU starts on 23Sep2021 at 14:13: 3 

     This program is part of the open-source Quantum ESPRESSO suite
     for quantum simulation of materials; please cite
         "P. Giannozzi et al., J. Phys.:Condens. Matter 21 395502 (2009);
         "P. Giannozzi et al., J. Phys.:Condens. Matter 29 465901 (2017);
         "P. Giannozzi et al., J. Chem. Phys. 152 154105 (2020);
          URL http://www.quantum-espresso.org", 
     in publications or presentations arising from this work. More details at
     http://www.quantum-espresso.org/quote

     Parallel version (MPI), running on     8 processors

     MPI processes distributed on     1 nodes
     R & G space division:  proc/nbgrp/npool/nimage =       8
     Reading input from /storage/home/hcoda1/3/ntian30/research/carbon/CxH_vib/H2O_calc/ads_slab/CH3NHNH2HO_a/out_0008/pw.inp
Warning: card &CELL ignored
Warning: card   CELL_DYNAMICS='IPI', ignored
Warning: card / ignored

     Current dimensions of program PWSCF are:
     Max number of different atomic species (ntypx) = 10
     Max number of k-points (npk) =  40000
     Max angular momentum in pseudopotentials (lmaxx) =  3
     Presently no symmetry can be used with electric field

     Message from routine cell_base_init:
     DEPRECATED: use true lattice parameter, not A to a.u. conversion factor

     **************************************************************************
     Initializing libbeef V0.1.2 with the BEEF-vdW functional.
     Citation: Wellendorff et al., PRB 85, 235149 (2012).
     **************************************************************************


     IMPORTANT: XC functional enforced from input :
     Exchange-correlation= BEEF-VDW
                           (   1   4  43  14   2   0   0)
     Any further DFT definition will be discarded
     Please, verify this is what you really want


     Subspace diagonalization in iterative solution of the eigenvalue problem:
     one sub-group per band group will be used
     scalapack distributed-memory algorithm (size of sub-group:  2*  2 procs)

  @ DRIVER MODE: Connecting to 
 qe_1139763_2947307.sched-torque.pace.gatech.eduenw9th_x_scratch
  using UNIX socket
  @ DRIVER MODE: Message from server: STATUS
  @ DRIVER MODE: Message from server: INIT
  @ DRIVER MODE: Receiving replica           0          -1
  @ DRIVER MODE: Receiving encoded integer          25
  @ DRIVER MODE:  SCF:  T  FORCE:  T  STRESS:  F  VC:  F  ENSEMBLE:  F
  @ DRIVER MODE:  SCF:  T  FORCE:  T  STRESS:  F  VC:  F  ENSEMBLE:  F
 
     Parallelization info
     --------------------
     sticks:   dense  smooth     PW     G-vecs:    dense   smooth      PW
     Min         409     164     47                70857    17926    2743
     Max         411     165     48                70858    17931    2751
     Sum        3275    1317    379               566857   143421   21985
 
     Using Slab Decomposition
 


     bravais-lattice index     =            0
     lattice parameter (alat)  =       1.8897  a.u.
     unit-cell volume          =    6658.9804 (a.u.)^3
     number of atoms/cell      =           58
     number of atomic types    =            5
     number of electrons       =       405.00
     number of Kohn-Sham states=          212
     kinetic-energy cutoff     =      29.3995  Ry
     charge density cutoff     =     293.9946  Ry
     scf convergence threshold =      7.3E-08
     mixing beta               =       0.0500
     number of iterations used =            8  plain     mixing
     Exchange-correlation= BEEF-VDW
                           (   1   4  43  14   2   0   0)

     celldm(1)=   1.889726  celldm(2)=   0.000000  celldm(3)=   0.000000
     celldm(4)=   0.000000  celldm(5)=   0.000000  celldm(6)=   0.000000

     crystal axes: (cart. coord. in units of alat)
               a(1) = (   6.579727   0.000000   0.000000 )  
               a(2) = (  -0.000775   5.961596   0.000000 )  
               a(3) = (   0.000000   0.000000  25.155947 )  

     reciprocal axes: (cart. coord. in units 2 pi/alat)
               b(1) = (  0.151982  0.000020  0.000000 )  
               b(2) = (  0.000000  0.167740  0.000000 )  
               b(3) = (  0.000000  0.000000  0.039752 )  


     PseudoPot. # 1 for Ti read from file:
     /storage/coda1/p-amedford6/0/shared/rich_project_chbe-medford/medford-share/data/pseudos_module/espresso/nninc/pbe/van/Ti.UPF
     MD5 check sum: 8e4df49b7f0d34bbd5052bf3f5ea0213
     Pseudo is Ultrasoft, Zval = 12.0
     Generated by new atomic code, or converted to UPF format
     Using radial grid of  851 points,  6 beta functions with: 
                l(1) =   0
                l(2) =   0
                l(3) =   1
                l(4) =   1
                l(5) =   2
                l(6) =   2
     Q(r) pseudized with  8 coefficients,  rinner =    1.000   1.000   1.000
                                                       1.000   1.000

     PseudoPot. # 2 for O  read from file:
     /storage/coda1/p-amedford6/0/shared/rich_project_chbe-medford/medford-share/data/pseudos_module/espresso/nninc/pbe/van/O.UPF
     MD5 check sum: 78c19812648e8988a0fe644b0f25305e
     Pseudo is Ultrasoft, Zval =  6.0
     Generated by new atomic code, or converted to UPF format
     Using radial grid of  737 points,  4 beta functions with: 
                l(1) =   0
                l(2) =   0
                l(3) =   1
                l(4) =   1
     Q(r) pseudized with  8 coefficients,  rinner =    0.800   0.800   0.800


     PseudoPot. # 3 for N  read from file:
     /storage/coda1/p-amedford6/0/shared/rich_project_chbe-medford/medford-share/data/pseudos_module/espresso/nninc/pbe/van/N.UPF
     MD5 check sum: 90d10febe142ad51ac9d5be1deb811c4
     Pseudo is Ultrasoft, Zval =  5.0
     Generated by new atomic code, or converted to UPF format
     Using radial grid of  729 points,  4 beta functions with: 
                l(1) =   0
                l(2) =   0
                l(3) =   1
                l(4) =   1
     Q(r) pseudized with  8 coefficients,  rinner =    0.800   0.800   0.800


     PseudoPot. # 4 for C  read from file:
     /storage/coda1/p-amedford6/0/shared/rich_project_chbe-medford/medford-share/data/pseudos_module/espresso/nninc/pbe/van/C.UPF
     MD5 check sum: 1a69bf6b8db32088f5b2163dbdb77a27
     Pseudo is Ultrasoft, Zval =  4.0
     Generated by new atomic code, or converted to UPF format
     Using radial grid of  721 points,  4 beta functions with: 
                l(1) =   0
                l(2) =   0
                l(3) =   1
                l(4) =   1
     Q(r) pseudized with  8 coefficients,  rinner =    0.800   0.800   0.800


     PseudoPot. # 5 for H  read from file:
     /storage/coda1/p-amedford6/0/shared/rich_project_chbe-medford/medford-share/data/pseudos_module/espresso/nninc/pbe/van/H.UPF
     MD5 check sum: b5ee9d7bfd3a09ee7748110bda690ff7
     Pseudo is Ultrasoft, Zval =  1.0
     Generated by new atomic code, or converted to UPF format
     Using radial grid of  615 points,  1 beta functions with: 
                l(1) =   0
     Q(r) pseudized with  8 coefficients,  rinner =    0.800

     atomic species   valence    mass     pseudopotential
        Ti1           12.00    47.86700     Ti( 1.00)
        O1             6.00    15.99900     O ( 1.00)
        N1             5.00    14.00700     N ( 1.00)
        C1             4.00    12.01100     C ( 1.00)
        H1             1.00     1.00800     H ( 1.00)

     No symmetry found



   Cartesian axes

     site n.     atom                  positions (alat units)
         1           Ti1 tau(   1) = (   0.0004258   2.9801865   6.0000000  )
         2           Ti1 tau(   2) = (   3.2906075   1.4906267   6.0002472  )
         3           O1  tau(   3) = (   0.0006271   0.0005054   7.9858123  )
         4           O1  tau(   4) = (   3.2906025   0.0005020   7.3038282  )
         5           O1  tau(   5) = (   4.5942328   1.4918067   9.2879030  )
         6           O1  tau(   6) = (   1.9868534   1.4903216   9.2879459  )
         7           Ti1 tau(   7) = (   3.2907910   2.8959150   9.1758416  )
         8           Ti1 tau(   8) = (   0.0015273   1.4827037   9.2680791  )
         9           O1  tau(   9) = (   3.3003128   0.0493987  11.3625472  )
        10           O1  tau(  10) = (   0.0116148   5.9584955  10.6183126  )
        11           O1  tau(  11) = (   1.2863924   1.5188706  12.6959087  )
        12           O1  tau(  12) = (   5.3173592   1.5183023  12.6957539  )
        13           Ti1 tau(  13) = (   0.0130489   2.9571150  12.5182267  )
        14           Ti1 tau(  14) = (   3.3124343   1.5987737  12.4587140  )
        15           O1  tau(  15) = (   0.0455642   5.8537743  14.6515032  )
        16           O1  tau(  16) = (   3.3135256   5.8999501  14.0036581  )
        17           O1  tau(  17) = (   4.5824137   1.5787328  16.0473457  )
        18           O1  tau(  18) = (   2.0456054   1.5356268  16.0652349  )
        19           Ti1 tau(  19) = (   3.2855744   2.9948502  15.7047272  )
        20           Ti1 tau(  20) = (   0.0729980   1.3194477  15.7501807  )
        21           O1  tau(  21) = (   3.2904802   0.0005063   4.7018136  )
        22           O1  tau(  22) = (   6.5643345   0.1786488  17.1561759  )
        23           O1  tau(  23) = (   1.3043587   1.4918075   6.0039043  )
        24           O1  tau(  24) = (   5.2767064   1.4903225   6.0039473  )
        25           Ti1 tau(  25) = (   0.0000382   5.9609847   6.0000000  )
        26           Ti1 tau(  26) = (   3.2902200   4.4714249   6.0002472  )
        27           O1  tau(  27) = (   0.0002396   2.9813036   7.9858123  )
        28           O1  tau(  28) = (   3.2902150   2.9813002   7.3038282  )
        29           O1  tau(  29) = (   4.5938453   4.4726049   9.2879030  )
        30           O1  tau(  30) = (   1.9864658   4.4711199   9.2879459  )
        31           Ti1 tau(  31) = (   3.2891106   5.8743827   9.1763621  )
        32           Ti1 tau(  32) = (   0.0006254   4.4649316   9.2693709  )
        33           O1  tau(  33) = (   3.3044115   2.9646987  11.3227374  )
        34           O1  tau(  34) = (   0.0092240   2.9805883  10.6323155  )
        35           O1  tau(  35) = (   1.2889249   4.4812606  12.6373974  )
        36           O1  tau(  36) = (   5.3198440   4.4849614  12.6453916  )
        37           Ti1 tau(  37) = (   0.0274371   5.9167426  12.5032498  )
        38           Ti1 tau(  38) = (   3.3124303   4.6827448  12.7121475  )
        39           O1  tau(  39) = (   0.0064664   3.0605765  14.9143048  )
        40           O1  tau(  40) = (   3.2921723   3.0190953  13.9337278  )
        41           O1  tau(  41) = (   4.5343043   4.4484976  16.2223827  )
        42           O1  tau(  42) = (   2.0055671   4.4324605  16.2273083  )
        43           Ti1 tau(  43) = (   3.3963104   0.0511244  16.3072024  )
        44           Ti1 tau(  44) = (   0.1011521   4.5293608  16.0606835  )
        45           O1  tau(  45) = (   3.2900926   2.9813045   4.7018136  )
        46           O1  tau(  46) = (   1.3039711   4.4726057   6.0039043  )
        47           O1  tau(  47) = (   5.2763189   4.4711207   6.0039473  )
        48           N1  tau(  48) = (   0.7799224   3.1460235  19.0808133  )
        49           N1  tau(  49) = (   6.3129119   3.3142126  18.0946246  )
        50           C1  tau(  50) = (   0.9829876   4.3811599  19.8296872  )
        51           H1  tau(  51) = (   0.0599524   4.7630682  20.2995108  )
        52           H1  tau(  52) = (   1.7087173   4.1728717  20.6153690  )
        53           H1  tau(  53) = (   1.3778604   5.1510331  19.1745456  )
        54           H1  tau(  54) = (   0.4845774   2.4057476  19.7140978  )
        55           H1  tau(  55) = (   5.5451363   3.8924421  18.4761980  )
        56           H1  tau(  56) = (   5.8791802   2.3931312  17.9634808  )
        57           O1  tau(  57) = (   3.3895457   0.1916509  18.1699706  )
        58           H1  tau(  58) = (   3.8128180   5.4341384  18.6581559  )

     number of k points=    10  Fermi-Dirac smearing, width (Ry)=  0.0073
                       cart. coord. in units 2pi/alat
        k(    1) = (   0.0000000   0.0000000   0.0000000), wk =   0.1250000
        k(    2) = (   0.0000000   0.0419351   0.0000000), wk =   0.2500000
        k(    3) = (   0.0000000  -0.0838702   0.0000000), wk =   0.1250000
        k(    4) = (   0.0379955   0.0000049   0.0000000), wk =   0.2500000
        k(    5) = (   0.0379955   0.0419400   0.0000000), wk =   0.2500000
        k(    6) = (   0.0379955  -0.0838652   0.0000000), wk =   0.2500000
        k(    7) = (   0.0379955  -0.0419301   0.0000000), wk =   0.2500000
        k(    8) = (  -0.0759910  -0.0000099   0.0000000), wk =   0.1250000
        k(    9) = (  -0.0759910   0.0419252   0.0000000), wk =   0.2500000
        k(   10) = (  -0.0759910  -0.0838800   0.0000000), wk =   0.1250000

     Dense  grid:   566857 G-vectors     FFT dimensions: (  72,  64, 270)

     Smooth grid:   143421 G-vectors     FFT dimensions: (  45,  40, 180)

     Estimated max dynamical RAM per process >     458.11 MB

     Estimated total dynamical RAM >       3.58 GB
     Cannot read rho : file not found

     Initial potential from superposition of free atoms

     starting charge  388.99913, renormalised to  405.00000

     negative rho (up, down):  1.368E-02 0.000E+00


     %%%%%%%%%%%%%%%%%%%%%%%%%%%%%%%%%%%%%%%%%%%%%%%%%%%%%%%%%%%%%%%%%%%%%%%%
     %                                                                      %
     % You are using vdW-DF, which was implemented by the Thonhauser group. %
     % Please cite the following two papers that made this development      %
     % possible and the two reviews that describe the various versions:     %
     %                                                                      %
     %   T. Thonhauser et al., PRL 115, 136402 (2015).                      %
     %   T. Thonhauser et al., PRB 76, 125112 (2007).                       %
     %   K. Berland et al., Rep. Prog. Phys. 78, 066501 (2015).             %
     %   D.C. Langreth et al., J. Phys.: Condens. Matter 21, 084203 (2009). %
     %                                                                      %
     %                                                                      %
     % If you are calculating the stress with vdW-DF, please also cite:     %
     %                                                                      %
     %   R. Sabatini et al., J. Phys.: Condens. Matter 24, 424209 (2012).   %
     %                                                                      %
     %%%%%%%%%%%%%%%%%%%%%%%%%%%%%%%%%%%%%%%%%%%%%%%%%%%%%%%%%%%%%%%%%%%%%%%%


 
     Adding external electric field

     Computed dipole along edir(3) : 
        Dipole              -14.8124 Ry au,        -37.6493 Debye
        Dipole field         -0.0280 Ry au, 
 
        Potential amp.        2.5912 Ry
        Total length         46.3494 bohr
 
     Starting wfcs are  307 atomic wfcs
  @ DRIVER MODE: Message from server: STATUS
  @ DRIVER MODE: Message from server: POSDATA
  @ DRIVER MODE: Reading and sharing cell 
  @ DRIVER MODE: Reading and sharing positions 
  @ DRIVER MODE: Received positions 

     total cpu time spent up to now is       14.7 secs

     Self-consistent Calculation

     iteration #  1     ecut=    29.40 Ry     beta= 0.05
     Davidson diagonalization with overlap
     c_bands:  4 eigenvalues not converged
     c_bands:  4 eigenvalues not converged
     c_bands:  5 eigenvalues not converged
     c_bands:  2 eigenvalues not converged
     c_bands:  3 eigenvalues not converged
     c_bands:  4 eigenvalues not converged
     c_bands:  2 eigenvalues not converged
     ethr =  1.00E-05,  avg # of iterations = 22.9

     negative rho (up, down):  7.862E-03 0.000E+00
 
     Adding external electric field

     Computed dipole along edir(3) : 
        Dipole               60.9961 Ry au,        155.0366 Debye
        Dipole field          0.1151 Ry au, 
 
        Potential amp.      -10.6703 Ry
        Total length         46.3494 bohr
 

     total cpu time spent up to now is       81.1 secs

     total energy              =   -2202.99354715 Ry
     estimated scf accuracy    <    8803.92939986 Ry

     iteration #  2     ecut=    29.40 Ry     beta= 0.05
     Davidson diagonalization with overlap
     ethr =  1.00E-02,  avg # of iterations = 30.6

     negative rho (up, down):  2.473E-04 0.000E+00
 
     Adding external electric field

     Computed dipole along edir(3) : 
        Dipole                0.3286 Ry au,          0.8352 Debye
        Dipole field          0.0006 Ry au, 
 
        Potential amp.       -0.0575 Ry
        Total length         46.3494 bohr
 

     total cpu time spent up to now is      202.8 secs

     total energy              =   -2446.30631463 Ry
     estimated scf accuracy    <   79759.83934388 Ry

     iteration #  3     ecut=    29.40 Ry     beta= 0.05
     Davidson diagonalization with overlap
     ethr =  1.00E-02,  avg # of iterations = 16.8

     negative rho (up, down):  2.937E-04 0.000E+00
 
     Adding external electric field

     Computed dipole along edir(3) : 
        Dipole               -3.4221 Ry au,         -8.6981 Debye
        Dipole field         -0.0065 Ry au, 
 
        Potential amp.        0.5986 Ry
        Total length         46.3494 bohr
 

     total cpu time spent up to now is      268.0 secs

     total energy              =   -2960.93701311 Ry
     estimated scf accuracy    <    8376.50885510 Ry

     iteration #  4     ecut=    29.40 Ry     beta= 0.05
     Davidson diagonalization with overlap
     ethr =  1.00E-02,  avg # of iterations = 12.0

     negative rho (up, down):  3.076E-04 0.000E+00
 
     Adding external electric field

     Computed dipole along edir(3) : 
        Dipole               -5.0538 Ry au,        -12.8454 Debye
        Dipole field         -0.0095 Ry au, 
 
        Potential amp.        0.8841 Ry
        Total length         46.3494 bohr
 

     total cpu time spent up to now is      300.0 secs

     total energy              =   -2970.91338864 Ry
     estimated scf accuracy    <    2337.84840228 Ry

     iteration #  5     ecut=    29.40 Ry     beta= 0.05
     Davidson diagonalization with overlap
     ethr =  1.00E-02,  avg # of iterations =  6.2

     negative rho (up, down):  3.471E-04 0.000E+00
 
     Adding external electric field

     Computed dipole along edir(3) : 
        Dipole               -7.4537 Ry au,        -18.9453 Debye
        Dipole field         -0.0141 Ry au, 
 
        Potential amp.        1.3039 Ry
        Total length         46.3494 bohr
 

     total cpu time spent up to now is      316.2 secs

     total energy              =   -2948.97966811 Ry
     estimated scf accuracy    <    1866.18865262 Ry

     iteration #  6     ecut=    29.40 Ry     beta= 0.05
     Davidson diagonalization with overlap
     ethr =  1.00E-02,  avg # of iterations = 12.4

     negative rho (up, down):  3.428E-04 0.000E+00
 
     Adding external electric field

     Computed dipole along edir(3) : 
        Dipole               -6.1345 Ry au,        -15.5922 Debye
        Dipole field         -0.0116 Ry au, 
 
        Potential amp.        1.0731 Ry
        Total length         46.3494 bohr
 

     total cpu time spent up to now is      349.5 secs

     total energy              =   -2981.24423985 Ry
     estimated scf accuracy    <      39.76259243 Ry

     iteration #  7     ecut=    29.40 Ry     beta= 0.05
     Davidson diagonalization with overlap
     ethr =  9.82E-03,  avg # of iterations =  1.3

     negative rho (up, down):  3.460E-04 0.000E+00
 
     Adding external electric field

     Computed dipole along edir(3) : 
        Dipole               -5.7595 Ry au,        -14.6391 Debye
        Dipole field         -0.0109 Ry au, 
 
        Potential amp.        1.0075 Ry
        Total length         46.3494 bohr
 

     total cpu time spent up to now is      362.8 secs

     total energy              =   -2981.02405317 Ry
     estimated scf accuracy    <      25.89977865 Ry

     iteration #  8     ecut=    29.40 Ry     beta= 0.05
     Davidson diagonalization with overlap
     ethr =  6.40E-03,  avg # of iterations =  1.0

     negative rho (up, down):  3.710E-04 0.000E+00
 
     Adding external electric field

     Computed dipole along edir(3) : 
        Dipole               -3.7073 Ry au,         -9.4231 Debye
        Dipole field         -0.0070 Ry au, 
 
        Potential amp.        0.6485 Ry
        Total length         46.3494 bohr
 

     total cpu time spent up to now is      375.8 secs

     total energy              =   -2978.40855379 Ry
     estimated scf accuracy    <      23.39954558 Ry

     iteration #  9     ecut=    29.40 Ry     beta= 0.05
     Davidson diagonalization with overlap
     ethr =  5.78E-03,  avg # of iterations =  1.2

     negative rho (up, down):  4.567E-04 0.000E+00
 
     Adding external electric field

     Computed dipole along edir(3) : 
        Dipole                0.8916 Ry au,          2.2663 Debye
        Dipole field          0.0017 Ry au, 
 
        Potential amp.       -0.1560 Ry
        Total length         46.3494 bohr
 

     total cpu time spent up to now is      389.0 secs

     total energy              =   -2975.47849603 Ry
     estimated scf accuracy    <      15.41888972 Ry

     iteration # 10     ecut=    29.40 Ry     beta= 0.05
     Davidson diagonalization with overlap
     ethr =  3.81E-03,  avg # of iterations = 13.3

     negative rho (up, down):  5.950E-04 0.000E+00
 
     Adding external electric field

     Computed dipole along edir(3) : 
        Dipole                4.4076 Ry au,         11.2030 Debye
        Dipole field          0.0083 Ry au, 
 
        Potential amp.       -0.7710 Ry
        Total length         46.3494 bohr
 

     total cpu time spent up to now is      418.1 secs

     total energy              =   -3024.75186865 Ry
     estimated scf accuracy    <    3101.61929075 Ry

     iteration # 11     ecut=    29.40 Ry     beta= 0.05
     Davidson diagonalization with overlap
     ethr =  3.81E-03,  avg # of iterations =  7.4

     negative rho (up, down):  6.359E-04 0.000E+00
 
     Adding external electric field

     Computed dipole along edir(3) : 
        Dipole                3.2737 Ry au,          8.3210 Debye
        Dipole field          0.0062 Ry au, 
 
        Potential amp.       -0.5727 Ry
        Total length         46.3494 bohr
 

     total cpu time spent up to now is      434.7 secs

     total energy              =   -3006.73741259 Ry
     estimated scf accuracy    <    4287.70214944 Ry

     iteration # 12     ecut=    29.40 Ry     beta= 0.05
     Davidson diagonalization with overlap
     ethr =  3.81E-03,  avg # of iterations =  2.2

     negative rho (up, down):  6.739E-04 0.000E+00
 
     Adding external electric field

     Computed dipole along edir(3) : 
        Dipole                4.0892 Ry au,         10.3938 Debye
        Dipole field          0.0077 Ry au, 
 
        Potential amp.       -0.7153 Ry
        Total length         46.3494 bohr
 

     total cpu time spent up to now is      448.8 secs

     total energy              =   -3015.41035212 Ry
     estimated scf accuracy    <    3267.24683832 Ry

     iteration # 13     ecut=    29.40 Ry     beta= 0.05
     Davidson diagonalization with overlap
     ethr =  3.81E-03,  avg # of iterations =  1.4

     negative rho (up, down):  6.794E-04 0.000E+00
 
     Adding external electric field

     Computed dipole along edir(3) : 
        Dipole                4.6210 Ry au,         11.7455 Debye
        Dipole field          0.0087 Ry au, 
 
        Potential amp.       -0.8084 Ry
        Total length         46.3494 bohr
 

     total cpu time spent up to now is      462.2 secs

     total energy              =   -3021.32599243 Ry
     estimated scf accuracy    <    3434.53837462 Ry

     iteration # 14     ecut=    29.40 Ry     beta= 0.05
     Davidson diagonalization with overlap
     ethr =  3.81E-03,  avg # of iterations =  1.1

     negative rho (up, down):  6.460E-04 0.000E+00
 
     Adding external electric field

     Computed dipole along edir(3) : 
        Dipole                3.4862 Ry au,          8.8611 Debye
        Dipole field          0.0066 Ry au, 
 
        Potential amp.       -0.6099 Ry
        Total length         46.3494 bohr
 

     total cpu time spent up to now is      475.5 secs

     total energy              =   -3005.09230999 Ry
     estimated scf accuracy    <    3800.75351372 Ry

     iteration # 15     ecut=    29.40 Ry     beta= 0.05
     Davidson diagonalization with overlap
     ethr =  3.81E-03,  avg # of iterations =  1.9

     negative rho (up, down):  5.954E-04 0.000E+00
 
     Adding external electric field

     Computed dipole along edir(3) : 
        Dipole                1.7288 Ry au,          4.3941 Debye
        Dipole field          0.0033 Ry au, 
 
        Potential amp.       -0.3024 Ry
        Total length         46.3494 bohr
 

     total cpu time spent up to now is      489.4 secs

     total energy              =   -2987.85643226 Ry
     estimated scf accuracy    <    3163.06657224 Ry

     iteration # 16     ecut=    29.40 Ry     beta= 0.05
     Davidson diagonalization with overlap
     ethr =  3.81E-03,  avg # of iterations =  6.9

     negative rho (up, down):  6.336E-04 0.000E+00
 
     Adding external electric field

     Computed dipole along edir(3) : 
        Dipole                1.0625 Ry au,          2.7007 Debye
        Dipole field          0.0020 Ry au, 
 
        Potential amp.       -0.1859 Ry
        Total length         46.3494 bohr
 

     total cpu time spent up to now is      505.8 secs

     total energy              =   -2977.57204926 Ry
     estimated scf accuracy    <    2813.11734791 Ry

     iteration # 17     ecut=    29.40 Ry     beta= 0.05
     Davidson diagonalization with overlap
     c_bands:  2 eigenvalues not converged
     ethr =  3.81E-03,  avg # of iterations = 11.0

     negative rho (up, down):  6.048E-04 0.000E+00
 
     Adding external electric field

     Computed dipole along edir(3) : 
        Dipole                0.0866 Ry au,          0.2201 Debye
        Dipole field          0.0002 Ry au, 
 
        Potential amp.       -0.0151 Ry
        Total length         46.3494 bohr
 

     total cpu time spent up to now is      527.5 secs

     total energy              =   -2978.39571608 Ry
     estimated scf accuracy    <    1638.42669904 Ry

     iteration # 18     ecut=    29.40 Ry     beta= 0.05
     Davidson diagonalization with overlap
     ethr =  3.81E-03,  avg # of iterations =  3.0

     negative rho (up, down):  5.183E-04 0.000E+00
 
     Adding external electric field

     Computed dipole along edir(3) : 
        Dipole               -5.0593 Ry au,        -12.8593 Debye
        Dipole field         -0.0095 Ry au, 
 
        Potential amp.        0.8850 Ry
        Total length         46.3494 bohr
 

     total cpu time spent up to now is      543.1 secs

     total energy              =   -2967.42830415 Ry
     estimated scf accuracy    <    1536.15308488 Ry

     iteration # 19     ecut=    29.40 Ry     beta= 0.05
     Davidson diagonalization with overlap
     c_bands:  1 eigenvalues not converged
     c_bands:  2 eigenvalues not converged
     c_bands:  5 eigenvalues not converged
     ethr =  3.81E-03,  avg # of iterations = 16.0

     negative rho (up, down):  7.288E-04 0.000E+00
 
     Adding external electric field

     Computed dipole along edir(3) : 
        Dipole               -1.8705 Ry au,         -4.7543 Debye
        Dipole field         -0.0035 Ry au, 
 
        Potential amp.        0.3272 Ry
        Total length         46.3494 bohr
 

     total cpu time spent up to now is      573.2 secs

     total energy              =   -2966.24557464 Ry
     estimated scf accuracy    <     208.15792975 Ry

     iteration # 20     ecut=    29.40 Ry     beta= 0.05
     Davidson diagonalization with overlap
     ethr =  3.81E-03,  avg # of iterations = 14.1

     negative rho (up, down):  7.586E-04 0.000E+00
 
     Adding external electric field

     Computed dipole along edir(3) : 
        Dipole               -1.7469 Ry au,         -4.4402 Debye
        Dipole field         -0.0033 Ry au, 
 
        Potential amp.        0.3056 Ry
        Total length         46.3494 bohr
 

     total cpu time spent up to now is      600.3 secs

     total energy              =   -2976.98363372 Ry
     estimated scf accuracy    <       4.43465377 Ry

     iteration # 21     ecut=    29.40 Ry     beta= 0.05
     Davidson diagonalization with overlap
     ethr =  1.09E-03,  avg # of iterations =  2.0

     negative rho (up, down):  1.012E-03 0.000E+00
 
     Adding external electric field

     Computed dipole along edir(3) : 
        Dipole               -1.1553 Ry au,         -2.9365 Debye
        Dipole field         -0.0022 Ry au, 
 
        Potential amp.        0.2021 Ry
        Total length         46.3494 bohr
 

     total cpu time spent up to now is      614.4 secs

     total energy              =   -2976.30562618 Ry
     estimated scf accuracy    <       3.66638347 Ry

     iteration # 22     ecut=    29.40 Ry     beta= 0.05
     Davidson diagonalization with overlap
     c_bands:  1 eigenvalues not converged
     ethr =  9.05E-04,  avg # of iterations = 12.1

     negative rho (up, down):  9.721E-04 0.000E+00
 
     Adding external electric field

     Computed dipole along edir(3) : 
        Dipole               -1.2917 Ry au,         -3.2833 Debye
        Dipole field         -0.0024 Ry au, 
 
        Potential amp.        0.2260 Ry
        Total length         46.3494 bohr
 

     total cpu time spent up to now is      633.9 secs

     total energy              =   -2976.68317378 Ry
     estimated scf accuracy    <       1.55062683 Ry

     iteration # 23     ecut=    29.40 Ry     beta= 0.05
     Davidson diagonalization with overlap
     ethr =  3.83E-04,  avg # of iterations =  1.9

     negative rho (up, down):  9.479E-04 0.000E+00
 
     Adding external electric field

     Computed dipole along edir(3) : 
        Dipole               -1.4936 Ry au,         -3.7964 Debye
        Dipole field         -0.0028 Ry au, 
 
        Potential amp.        0.2613 Ry
        Total length         46.3494 bohr
 

     total cpu time spent up to now is      647.9 secs

     total energy              =   -2976.65300368 Ry
     estimated scf accuracy    <       1.46638799 Ry

     iteration # 24     ecut=    29.40 Ry     beta= 0.05
     Davidson diagonalization with overlap
     c_bands:  1 eigenvalues not converged
     c_bands:  2 eigenvalues not converged
     c_bands:  2 eigenvalues not converged
     c_bands:  1 eigenvalues not converged
     ethr =  3.62E-04,  avg # of iterations = 17.2

     negative rho (up, down):  1.370E-03 0.000E+00
 
     Adding external electric field

     Computed dipole along edir(3) : 
        Dipole               -0.9289 Ry au,         -2.3609 Debye
        Dipole field         -0.0018 Ry au, 
 
        Potential amp.        0.1625 Ry
        Total length         46.3494 bohr
 

     total cpu time spent up to now is      670.5 secs

     total energy              =   -2976.42019678 Ry
     estimated scf accuracy    <       2.47838530 Ry

     iteration # 25     ecut=    29.40 Ry     beta= 0.05
     Davidson diagonalization with overlap
     ethr =  3.62E-04,  avg # of iterations =  7.0

     negative rho (up, down):  1.869E-03 0.000E+00
 
     Adding external electric field

     Computed dipole along edir(3) : 
        Dipole               -0.3663 Ry au,         -0.9311 Debye
        Dipole field         -0.0007 Ry au, 
 
        Potential amp.        0.0641 Ry
        Total length         46.3494 bohr
 

     total cpu time spent up to now is      686.8 secs

     total energy              =   -2976.44846728 Ry
     estimated scf accuracy    <       0.83954165 Ry

     iteration # 26     ecut=    29.40 Ry     beta= 0.05
     Davidson diagonalization with overlap
     c_bands:  1 eigenvalues not converged
     c_bands:  1 eigenvalues not converged
     c_bands:  2 eigenvalues not converged
     c_bands:  1 eigenvalues not converged
     c_bands:  1 eigenvalues not converged
     c_bands:  1 eigenvalues not converged
     ethr =  2.07E-04,  avg # of iterations = 18.4

     negative rho (up, down):  1.789E-03 0.000E+00
 
     Adding external electric field

     Computed dipole along edir(3) : 
        Dipole               -0.2445 Ry au,         -0.6214 Debye
        Dipole field         -0.0005 Ry au, 
 
        Potential amp.        0.0428 Ry
        Total length         46.3494 bohr
 

     total cpu time spent up to now is      716.3 secs

     total energy              =   -2976.51250172 Ry
     estimated scf accuracy    <       4.99364530 Ry

     iteration # 27     ecut=    29.40 Ry     beta= 0.05
     Davidson diagonalization with overlap
     ethr =  2.07E-04,  avg # of iterations =  4.2

     negative rho (up, down):  2.179E-03 0.000E+00
 
     Adding external electric field

     Computed dipole along edir(3) : 
        Dipole                0.8547 Ry au,          2.1724 Debye
        Dipole field          0.0016 Ry au, 
 
        Potential amp.       -0.1495 Ry
        Total length         46.3494 bohr
 

     total cpu time spent up to now is      730.9 secs

     total energy              =   -2976.71068018 Ry
     estimated scf accuracy    <       0.81383656 Ry

     iteration # 28     ecut=    29.40 Ry     beta= 0.05
     Davidson diagonalization with overlap
     c_bands:  1 eigenvalues not converged
     ethr =  2.01E-04,  avg # of iterations = 14.7

     negative rho (up, down):  2.006E-03 0.000E+00
 
     Adding external electric field

     Computed dipole along edir(3) : 
        Dipole                0.1488 Ry au,          0.3783 Debye
        Dipole field          0.0003 Ry au, 
 
        Potential amp.       -0.0260 Ry
        Total length         46.3494 bohr
 

     total cpu time spent up to now is      771.9 secs

     total energy              =   -2975.74787985 Ry
     estimated scf accuracy    <      83.44940034 Ry

     iteration # 29     ecut=    29.40 Ry     beta= 0.05
     Davidson diagonalization with overlap
     ethr =  2.01E-04,  avg # of iterations =  6.4

     negative rho (up, down):  2.160E-03 0.000E+00
 
     Adding external electric field

     Computed dipole along edir(3) : 
        Dipole                0.4143 Ry au,          1.0529 Debye
        Dipole field          0.0008 Ry au, 
 
        Potential amp.       -0.0725 Ry
        Total length         46.3494 bohr
 

     total cpu time spent up to now is      788.1 secs

     total energy              =   -2976.61856645 Ry
     estimated scf accuracy    <       8.13436401 Ry

     iteration # 30     ecut=    29.40 Ry     beta= 0.05
     Davidson diagonalization with overlap
     ethr =  2.01E-04,  avg # of iterations =  5.9

     negative rho (up, down):  1.969E-03 0.000E+00
 
     Adding external electric field

     Computed dipole along edir(3) : 
        Dipole               -0.0536 Ry au,         -0.1363 Debye
        Dipole field         -0.0001 Ry au, 
 
        Potential amp.        0.0094 Ry
        Total length         46.3494 bohr
 

     total cpu time spent up to now is      803.4 secs

     total energy              =   -2976.32770155 Ry
     estimated scf accuracy    <       2.24016808 Ry

     iteration # 31     ecut=    29.40 Ry     beta= 0.05
     Davidson diagonalization with overlap
     c_bands:  2 eigenvalues not converged
     c_bands:  1 eigenvalues not converged
     c_bands:  1 eigenvalues not converged
     c_bands:  1 eigenvalues not converged
     ethr =  2.01E-04,  avg # of iterations = 18.3

     negative rho (up, down):  1.897E-03 0.000E+00
 
     Adding external electric field

     Computed dipole along edir(3) : 
        Dipole               -0.1341 Ry au,         -0.3408 Debye
        Dipole field         -0.0003 Ry au, 
 
        Potential amp.        0.0235 Ry
        Total length         46.3494 bohr
 

     total cpu time spent up to now is      830.3 secs

     total energy              =   -2976.49295171 Ry
     estimated scf accuracy    <       0.49418596 Ry

     iteration # 32     ecut=    29.40 Ry     beta= 0.05
     Davidson diagonalization with overlap
     ethr =  1.22E-04,  avg # of iterations =  4.8

     negative rho (up, down):  1.830E-03 0.000E+00
 
     Adding external electric field

     Computed dipole along edir(3) : 
        Dipole               -0.0374 Ry au,         -0.0951 Debye
        Dipole field         -0.0001 Ry au, 
 
        Potential amp.        0.0065 Ry
        Total length         46.3494 bohr
 

     total cpu time spent up to now is      845.2 secs

     total energy              =   -2976.47022140 Ry
     estimated scf accuracy    <       0.45540527 Ry

     iteration # 33     ecut=    29.40 Ry     beta= 0.05
     Davidson diagonalization with overlap
     ethr =  1.12E-04,  avg # of iterations =  4.0

     negative rho (up, down):  2.107E-03 0.000E+00
 
     Adding external electric field

     Computed dipole along edir(3) : 
        Dipole                0.4417 Ry au,          1.1227 Debye
        Dipole field          0.0008 Ry au, 
 
        Potential amp.       -0.0773 Ry
        Total length         46.3494 bohr
 

     total cpu time spent up to now is      859.9 secs

     total energy              =   -2976.44256116 Ry
     estimated scf accuracy    <       0.31918359 Ry

     iteration # 34     ecut=    29.40 Ry     beta= 0.05
     Davidson diagonalization with overlap
     c_bands:  4 eigenvalues not converged
     c_bands:  2 eigenvalues not converged
     c_bands:  5 eigenvalues not converged
     c_bands:  2 eigenvalues not converged
     c_bands:  3 eigenvalues not converged
     c_bands:  2 eigenvalues not converged
     c_bands:  2 eigenvalues not converged
     c_bands:  1 eigenvalues not converged
     c_bands:  1 eigenvalues not converged
     ethr =  7.88E-05,  avg # of iterations = 19.7

     negative rho (up, down):  2.005E-03 0.000E+00
 
     Adding external electric field

     Computed dipole along edir(3) : 
        Dipole                0.0752 Ry au,          0.1911 Debye
        Dipole field          0.0001 Ry au, 
 
        Potential amp.       -0.0132 Ry
        Total length         46.3494 bohr
 

     total cpu time spent up to now is      889.6 secs

     total energy              =   -2976.46530650 Ry
     estimated scf accuracy    <       0.69406329 Ry

     iteration # 35     ecut=    29.40 Ry     beta= 0.05
     Davidson diagonalization with overlap
     c_bands:  3 eigenvalues not converged
     c_bands:  1 eigenvalues not converged
     c_bands:  2 eigenvalues not converged
     c_bands:  1 eigenvalues not converged
     ethr =  7.88E-05,  avg # of iterations = 14.1

     negative rho (up, down):  2.476E-03 0.000E+00
 
     Adding external electric field

     Computed dipole along edir(3) : 
        Dipole                0.1311 Ry au,          0.3331 Debye
        Dipole field          0.0002 Ry au, 
 
        Potential amp.       -0.0229 Ry
        Total length         46.3494 bohr
 

     total cpu time spent up to now is      908.6 secs

     total energy              =   -2976.48124757 Ry
     estimated scf accuracy    <       0.29055068 Ry

     iteration # 36     ecut=    29.40 Ry     beta= 0.05
     Davidson diagonalization with overlap
     c_bands:  2 eigenvalues not converged
     c_bands:  3 eigenvalues not converged
     c_bands:  2 eigenvalues not converged
     c_bands:  2 eigenvalues not converged
     c_bands:  1 eigenvalues not converged
     c_bands:  1 eigenvalues not converged
     ethr =  7.17E-05,  avg # of iterations = 19.5

     negative rho (up, down):  4.228E-03 0.000E+00
 
     Adding external electric field

     Computed dipole along edir(3) : 
        Dipole                0.6732 Ry au,          1.7110 Debye
        Dipole field          0.0013 Ry au, 
 
        Potential amp.       -0.1178 Ry
        Total length         46.3494 bohr
 

     total cpu time spent up to now is      933.9 secs

     total energy              =   -2976.46570578 Ry
     estimated scf accuracy    <       0.37084867 Ry

     iteration # 37     ecut=    29.40 Ry     beta= 0.05
     Davidson diagonalization with overlap
     ethr =  7.17E-05,  avg # of iterations =  4.9

     negative rho (up, down):  1.024E-02 0.000E+00
 
     Adding external electric field

     Computed dipole along edir(3) : 
        Dipole                1.1357 Ry au,          2.8866 Debye
        Dipole field          0.0021 Ry au, 
 
        Potential amp.       -0.1987 Ry
        Total length         46.3494 bohr
 

     total cpu time spent up to now is      949.2 secs

     total energy              =   -2976.45488918 Ry
     estimated scf accuracy    <       0.19367372 Ry

     iteration # 38     ecut=    29.40 Ry     beta= 0.05
     Davidson diagonalization with overlap
     c_bands:  1 eigenvalues not converged
     c_bands:  1 eigenvalues not converged
     c_bands:  1 eigenvalues not converged
     c_bands:  4 eigenvalues not converged
     c_bands:  2 eigenvalues not converged
     ethr =  4.78E-05,  avg # of iterations = 18.8

     negative rho (up, down):  6.771E-03 0.000E+00
 
     Adding external electric field

     Computed dipole along edir(3) : 
        Dipole                1.0203 Ry au,          2.5933 Debye
        Dipole field          0.0019 Ry au, 
 
        Potential amp.       -0.1785 Ry
        Total length         46.3494 bohr
 

     total cpu time spent up to now is      972.3 secs

     total energy              =   -2976.45739186 Ry
     estimated scf accuracy    <       0.04745959 Ry

     iteration # 39     ecut=    29.40 Ry     beta= 0.05
     Davidson diagonalization with overlap
     c_bands:  2 eigenvalues not converged
     c_bands:  2 eigenvalues not converged
     c_bands:  3 eigenvalues not converged
     c_bands:  3 eigenvalues not converged
     ethr =  1.17E-05,  avg # of iterations = 16.4

     negative rho (up, down):  7.606E-03 0.000E+00
 
     Adding external electric field

     Computed dipole along edir(3) : 
        Dipole                1.2018 Ry au,          3.0547 Debye
        Dipole field          0.0023 Ry au, 
 
        Potential amp.       -0.2102 Ry
        Total length         46.3494 bohr
 

     total cpu time spent up to now is     1000.1 secs

     total energy              =   -2976.46117505 Ry
     estimated scf accuracy    <       0.03498557 Ry

     iteration # 40     ecut=    29.40 Ry     beta= 0.05
     Davidson diagonalization with overlap
     c_bands:  1 eigenvalues not converged
     c_bands:  2 eigenvalues not converged
     c_bands:  4 eigenvalues not converged
     c_bands:  1 eigenvalues not converged
     c_bands:  3 eigenvalues not converged
     ethr =  8.64E-06,  avg # of iterations = 17.8

     negative rho (up, down):  9.068E-03 0.000E+00
 
     Adding external electric field

     Computed dipole along edir(3) : 
        Dipole                1.2031 Ry au,          3.0580 Debye
        Dipole field          0.0023 Ry au, 
 
        Potential amp.       -0.2105 Ry
        Total length         46.3494 bohr
 

     total cpu time spent up to now is     1024.4 secs

     total energy              =   -2976.46282852 Ry
     estimated scf accuracy    <       0.04114542 Ry

     iteration # 41     ecut=    29.40 Ry     beta= 0.05
     Davidson diagonalization with overlap
     c_bands:  2 eigenvalues not converged
     c_bands:  1 eigenvalues not converged
     ethr =  8.64E-06,  avg # of iterations = 10.1

     negative rho (up, down):  8.666E-03 0.000E+00
 
     Adding external electric field

     Computed dipole along edir(3) : 
        Dipole                1.1513 Ry au,          2.9264 Debye
        Dipole field          0.0022 Ry au, 
 
        Potential amp.       -0.2014 Ry
        Total length         46.3494 bohr
 

     total cpu time spent up to now is     1041.9 secs

     total energy              =   -2976.46334957 Ry
     estimated scf accuracy    <       0.02400764 Ry

     iteration # 42     ecut=    29.40 Ry     beta= 0.05
     Davidson diagonalization with overlap
     c_bands:  1 eigenvalues not converged
     ethr =  5.93E-06,  avg # of iterations = 10.2

     negative rho (up, down):  8.396E-03 0.000E+00
 
     Adding external electric field

     Computed dipole along edir(3) : 
        Dipole                1.1291 Ry au,          2.8699 Debye
        Dipole field          0.0021 Ry au, 
 
        Potential amp.       -0.1975 Ry
        Total length         46.3494 bohr
 

     total cpu time spent up to now is     1059.3 secs

     total energy              =   -2976.46307685 Ry
     estimated scf accuracy    <       0.01849517 Ry

     iteration # 43     ecut=    29.40 Ry     beta= 0.05
     Davidson diagonalization with overlap
     c_bands:  1 eigenvalues not converged
     ethr =  4.57E-06,  avg # of iterations =  8.3

     negative rho (up, down):  1.034E-02 0.000E+00
 
     Adding external electric field

     Computed dipole along edir(3) : 
        Dipole                1.1909 Ry au,          3.0270 Debye
        Dipole field          0.0022 Ry au, 
 
        Potential amp.       -0.2083 Ry
        Total length         46.3494 bohr
 

     total cpu time spent up to now is     1075.9 secs

     total energy              =   -2976.46316919 Ry
     estimated scf accuracy    <       0.00930271 Ry

     iteration # 44     ecut=    29.40 Ry     beta= 0.05
     Davidson diagonalization with overlap
     c_bands:  1 eigenvalues not converged
     c_bands:  1 eigenvalues not converged
     c_bands:  1 eigenvalues not converged
     ethr =  2.30E-06,  avg # of iterations = 17.0

     negative rho (up, down):  1.267E-02 0.000E+00
 
     Adding external electric field

     Computed dipole along edir(3) : 
        Dipole                1.2506 Ry au,          3.1787 Debye
        Dipole field          0.0024 Ry au, 
 
        Potential amp.       -0.2188 Ry
        Total length         46.3494 bohr
 

     total cpu time spent up to now is     1097.2 secs

     total energy              =   -2976.46359545 Ry
     estimated scf accuracy    <       0.00346249 Ry

     iteration # 45     ecut=    29.40 Ry     beta= 0.05
     Davidson diagonalization with overlap
     c_bands:  1 eigenvalues not converged
     ethr =  8.55E-07,  avg # of iterations = 13.5

     negative rho (up, down):  1.238E-02 0.000E+00
 
     Adding external electric field

     Computed dipole along edir(3) : 
        Dipole                1.1904 Ry au,          3.0256 Debye
        Dipole field          0.0022 Ry au, 
 
        Potential amp.       -0.2082 Ry
        Total length         46.3494 bohr
 

     total cpu time spent up to now is     1116.6 secs

     total energy              =   -2976.46315498 Ry
     estimated scf accuracy    <       0.00790387 Ry

     iteration # 46     ecut=    29.40 Ry     beta= 0.05
     Davidson diagonalization with overlap
     c_bands:  1 eigenvalues not converged
     ethr =  8.55E-07,  avg # of iterations = 12.3

     negative rho (up, down):  1.305E-02 0.000E+00
 
     Adding external electric field

     Computed dipole along edir(3) : 
        Dipole                1.2075 Ry au,          3.0691 Debye
        Dipole field          0.0023 Ry au, 
 
        Potential amp.       -0.2112 Ry
        Total length         46.3494 bohr
 

     total cpu time spent up to now is     1140.5 secs

     total energy              =   -2976.46366206 Ry
     estimated scf accuracy    <       0.00317769 Ry

     iteration # 47     ecut=    29.40 Ry     beta= 0.05
     Davidson diagonalization with overlap
     ethr =  7.85E-07,  avg # of iterations =  2.2

     negative rho (up, down):  1.401E-02 0.000E+00
 
     Adding external electric field

     Computed dipole along edir(3) : 
        Dipole                1.2398 Ry au,          3.1512 Debye
        Dipole field          0.0023 Ry au, 
 
        Potential amp.       -0.2169 Ry
        Total length         46.3494 bohr
 

     total cpu time spent up to now is     1154.2 secs

     total energy              =   -2976.46347389 Ry
     estimated scf accuracy    <       0.00253318 Ry

     iteration # 48     ecut=    29.40 Ry     beta= 0.05
     Davidson diagonalization with overlap
     ethr =  6.25E-07,  avg # of iterations =  9.9

     negative rho (up, down):  1.335E-02 0.000E+00
 
     Adding external electric field

     Computed dipole along edir(3) : 
        Dipole                1.2195 Ry au,          3.0997 Debye
        Dipole field          0.0023 Ry au, 
 
        Potential amp.       -0.2133 Ry
        Total length         46.3494 bohr
 

     total cpu time spent up to now is     1173.0 secs

     total energy              =   -2976.46361323 Ry
     estimated scf accuracy    <       0.00111610 Ry

     iteration # 49     ecut=    29.40 Ry     beta= 0.05
     Davidson diagonalization with overlap
     ethr =  2.76E-07,  avg # of iterations =  5.9

     negative rho (up, down):  1.384E-02 0.000E+00
 
     Adding external electric field

     Computed dipole along edir(3) : 
        Dipole                1.2128 Ry au,          3.0826 Debye
        Dipole field          0.0023 Ry au, 
 
        Potential amp.       -0.2122 Ry
        Total length         46.3494 bohr
 

     total cpu time spent up to now is     1189.2 secs

     total energy              =   -2976.46370319 Ry
     estimated scf accuracy    <       0.00087138 Ry

     iteration # 50     ecut=    29.40 Ry     beta= 0.05
     Davidson diagonalization with overlap
     ethr =  2.15E-07,  avg # of iterations = 10.6

     negative rho (up, down):  1.389E-02 0.000E+00
 
     Adding external electric field

     Computed dipole along edir(3) : 
        Dipole                1.2182 Ry au,          3.0963 Debye
        Dipole field          0.0023 Ry au, 
 
        Potential amp.       -0.2131 Ry
        Total length         46.3494 bohr
 

     total cpu time spent up to now is     1212.0 secs

     total energy              =   -2976.46382062 Ry
     estimated scf accuracy    <       0.00184093 Ry

     iteration # 51     ecut=    29.40 Ry     beta= 0.05
     Davidson diagonalization with overlap
     ethr =  2.15E-07,  avg # of iterations =  1.0

     negative rho (up, down):  1.399E-02 0.000E+00
 
     Adding external electric field

     Computed dipole along edir(3) : 
        Dipole                1.2224 Ry au,          3.1071 Debye
        Dipole field          0.0023 Ry au, 
 
        Potential amp.       -0.2138 Ry
        Total length         46.3494 bohr
 

     total cpu time spent up to now is     1225.1 secs

     total energy              =   -2976.46378587 Ry
     estimated scf accuracy    <       0.00149925 Ry

     iteration # 52     ecut=    29.40 Ry     beta= 0.05
     Davidson diagonalization with overlap
     ethr =  2.15E-07,  avg # of iterations =  5.2

     negative rho (up, down):  1.432E-02 0.000E+00
 
     Adding external electric field

     Computed dipole along edir(3) : 
        Dipole                1.2340 Ry au,          3.1366 Debye
        Dipole field          0.0023 Ry au, 
 
        Potential amp.       -0.2159 Ry
        Total length         46.3494 bohr
 

     total cpu time spent up to now is     1240.5 secs

     total energy              =   -2976.46359627 Ry
     estimated scf accuracy    <       0.00097874 Ry

     iteration # 53     ecut=    29.40 Ry     beta= 0.05
     Davidson diagonalization with overlap
     ethr =  2.15E-07,  avg # of iterations = 11.2

     negative rho (up, down):  1.401E-02 0.000E+00
 
     Adding external electric field

     Computed dipole along edir(3) : 
        Dipole                1.2217 Ry au,          3.1053 Debye
        Dipole field          0.0023 Ry au, 
 
        Potential amp.       -0.2137 Ry
        Total length         46.3494 bohr
 

     total cpu time spent up to now is     1261.1 secs

     total energy              =   -2976.46376028 Ry
     estimated scf accuracy    <       0.00029388 Ry

     iteration # 54     ecut=    29.40 Ry     beta= 0.05
     Davidson diagonalization with overlap
     ethr =  7.26E-08,  avg # of iterations = 11.7

     negative rho (up, down):  1.426E-02 0.000E+00
 
     Adding external electric field

     Computed dipole along edir(3) : 
        Dipole                1.2327 Ry au,          3.1333 Debye
        Dipole field          0.0023 Ry au, 
 
        Potential amp.       -0.2156 Ry
        Total length         46.3494 bohr
 

     total cpu time spent up to now is     1283.6 secs

     total energy              =   -2976.46386894 Ry
     estimated scf accuracy    <       0.00031537 Ry

     iteration # 55     ecut=    29.40 Ry     beta= 0.05
     Davidson diagonalization with overlap
     ethr =  7.26E-08,  avg # of iterations =  6.2

     negative rho (up, down):  1.460E-02 0.000E+00
 
     Adding external electric field

     Computed dipole along edir(3) : 
        Dipole                1.2353 Ry au,          3.1399 Debye
        Dipole field          0.0023 Ry au, 
 
        Potential amp.       -0.2161 Ry
        Total length         46.3494 bohr
 

     total cpu time spent up to now is     1300.6 secs

     total energy              =   -2976.46384339 Ry
     estimated scf accuracy    <       0.00079658 Ry

     iteration # 56     ecut=    29.40 Ry     beta= 0.05
     Davidson diagonalization with overlap
     ethr =  7.26E-08,  avg # of iterations =  2.9

     negative rho (up, down):  1.492E-02 0.000E+00
 
     Adding external electric field

     Computed dipole along edir(3) : 
        Dipole                1.2363 Ry au,          3.1424 Debye
        Dipole field          0.0023 Ry au, 
 
        Potential amp.       -0.2163 Ry
        Total length         46.3494 bohr
 

     total cpu time spent up to now is     1315.3 secs

     total energy              =   -2976.46375309 Ry
     estimated scf accuracy    <       0.00056446 Ry

     iteration # 57     ecut=    29.40 Ry     beta= 0.05
     Davidson diagonalization with overlap
     ethr =  7.26E-08,  avg # of iterations = 12.3

     negative rho (up, down):  1.486E-02 0.000E+00
 
     Adding external electric field

     Computed dipole along edir(3) : 
        Dipole                1.2365 Ry au,          3.1429 Debye
        Dipole field          0.0023 Ry au, 
 
        Potential amp.       -0.2163 Ry
        Total length         46.3494 bohr
 

     total cpu time spent up to now is     1338.3 secs

     total energy              =   -2976.46381597 Ry
     estimated scf accuracy    <       0.00006482 Ry

     iteration # 58     ecut=    29.40 Ry     beta= 0.05
     Davidson diagonalization with overlap
     ethr =  1.60E-08,  avg # of iterations =  7.9

     negative rho (up, down):  1.455E-02 0.000E+00
 
     Adding external electric field

     Computed dipole along edir(3) : 
        Dipole                1.2318 Ry au,          3.1310 Debye
        Dipole field          0.0023 Ry au, 
 
        Potential amp.       -0.2155 Ry
        Total length         46.3494 bohr
 

     total cpu time spent up to now is     1355.6 secs

     total energy              =   -2976.46382404 Ry
     estimated scf accuracy    <       0.00004902 Ry

     iteration # 59     ecut=    29.40 Ry     beta= 0.05
     Davidson diagonalization with overlap
     ethr =  1.21E-08,  avg # of iterations = 12.5

     negative rho (up, down):  1.460E-02 0.000E+00
 
     Adding external electric field

     Computed dipole along edir(3) : 
        Dipole                1.2323 Ry au,          3.1323 Debye
        Dipole field          0.0023 Ry au, 
 
        Potential amp.       -0.2156 Ry
        Total length         46.3494 bohr
 

     total cpu time spent up to now is     1379.9 secs

     total energy              =   -2976.46383181 Ry
     estimated scf accuracy    <       0.00007443 Ry

     iteration # 60     ecut=    29.40 Ry     beta= 0.05
     Davidson diagonalization with overlap
     ethr =  1.21E-08,  avg # of iterations =  5.0

     negative rho (up, down):  1.465E-02 0.000E+00
 
     Adding external electric field

     Computed dipole along edir(3) : 
        Dipole                1.2317 Ry au,          3.1308 Debye
        Dipole field          0.0023 Ry au, 
 
        Potential amp.       -0.2155 Ry
        Total length         46.3494 bohr
 

     total cpu time spent up to now is     1395.3 secs

     total energy              =   -2976.46383505 Ry
     estimated scf accuracy    <       0.00003649 Ry

     iteration # 61     ecut=    29.40 Ry     beta= 0.05
     Davidson diagonalization with overlap
     ethr =  9.01E-09,  avg # of iterations = 11.3

     negative rho (up, down):  1.469E-02 0.000E+00
 
     Adding external electric field

     Computed dipole along edir(3) : 
        Dipole                1.2327 Ry au,          3.1333 Debye
        Dipole field          0.0023 Ry au, 
 
        Potential amp.       -0.2156 Ry
        Total length         46.3494 bohr
 

     total cpu time spent up to now is     1417.1 secs

     total energy              =   -2976.46384615 Ry
     estimated scf accuracy    <       0.00001085 Ry

     iteration # 62     ecut=    29.40 Ry     beta= 0.05
     Davidson diagonalization with overlap
     ethr =  2.68E-09,  avg # of iterations =  8.0

     negative rho (up, down):  1.456E-02 0.000E+00
 
     Adding external electric field

     Computed dipole along edir(3) : 
        Dipole                1.2296 Ry au,          3.1254 Debye
        Dipole field          0.0023 Ry au, 
 
        Potential amp.       -0.2151 Ry
        Total length         46.3494 bohr
 

     total cpu time spent up to now is     1434.8 secs

     total energy              =   -2976.46385242 Ry
     estimated scf accuracy    <       0.00001121 Ry

     iteration # 63     ecut=    29.40 Ry     beta= 0.05
     Davidson diagonalization with overlap
     ethr =  2.68E-09,  avg # of iterations =  5.7

     negative rho (up, down):  1.446E-02 0.000E+00
 
     Adding external electric field

     Computed dipole along edir(3) : 
        Dipole                1.2262 Ry au,          3.1167 Debye
        Dipole field          0.0023 Ry au, 
 
        Potential amp.       -0.2145 Ry
        Total length         46.3494 bohr
 

     total cpu time spent up to now is     1450.5 secs

     total energy              =   -2976.46385655 Ry
     estimated scf accuracy    <       0.00000775 Ry

     iteration # 64     ecut=    29.40 Ry     beta= 0.05
     Davidson diagonalization with overlap
     ethr =  1.91E-09,  avg # of iterations = 10.6

     negative rho (up, down):  1.446E-02 0.000E+00
 
     Adding external electric field

     Computed dipole along edir(3) : 
        Dipole                1.2270 Ry au,          3.1188 Debye
        Dipole field          0.0023 Ry au, 
 
        Potential amp.       -0.2146 Ry
        Total length         46.3494 bohr
 

     total cpu time spent up to now is     1470.2 secs

     total energy              =   -2976.46386197 Ry
     estimated scf accuracy    <       0.00000315 Ry

     iteration # 65     ecut=    29.40 Ry     beta= 0.05
     Davidson diagonalization with overlap
     ethr =  7.78E-10,  avg # of iterations =  9.2

     negative rho (up, down):  1.440E-02 0.000E+00
 
     Adding external electric field

     Computed dipole along edir(3) : 
        Dipole                1.2268 Ry au,          3.1181 Debye
        Dipole field          0.0023 Ry au, 
 
        Potential amp.       -0.2146 Ry
        Total length         46.3494 bohr
 

     total cpu time spent up to now is     1489.0 secs

     total energy              =   -2976.46386627 Ry
     estimated scf accuracy    <       0.00000153 Ry

     iteration # 66     ecut=    29.40 Ry     beta= 0.05
     Davidson diagonalization with overlap
     ethr =  3.79E-10,  avg # of iterations = 13.3

     negative rho (up, down):  1.436E-02 0.000E+00
 
     Adding external electric field

     Computed dipole along edir(3) : 
        Dipole                1.2253 Ry au,          3.1145 Debye
        Dipole field          0.0023 Ry au, 
 
        Potential amp.       -0.2144 Ry
        Total length         46.3494 bohr
 

     total cpu time spent up to now is     1512.1 secs

     total energy              =   -2976.46387010 Ry
     estimated scf accuracy    <       0.00000160 Ry

     iteration # 67     ecut=    29.40 Ry     beta= 0.05
     Davidson diagonalization with overlap
     ethr =  3.79E-10,  avg # of iterations =  9.6

     negative rho (up, down):  1.435E-02 0.000E+00
 
     Adding external electric field

     Computed dipole along edir(3) : 
        Dipole                1.2258 Ry au,          3.1157 Debye
        Dipole field          0.0023 Ry au, 
 
        Potential amp.       -0.2144 Ry
        Total length         46.3494 bohr
 

     total cpu time spent up to now is     1530.9 secs

     total energy              =   -2976.46387367 Ry
     estimated scf accuracy    <       0.00000034 Ry

     iteration # 68     ecut=    29.40 Ry     beta= 0.05
     Davidson diagonalization with overlap
     ethr =  8.51E-11,  avg # of iterations =  8.6

     negative rho (up, down):  1.435E-02 0.000E+00
 
     Adding external electric field

     Computed dipole along edir(3) : 
        Dipole                1.2258 Ry au,          3.1158 Debye
        Dipole field          0.0023 Ry au, 
 
        Potential amp.       -0.2144 Ry
        Total length         46.3494 bohr
 

     total cpu time spent up to now is     1551.4 secs

     total energy              =   -2976.46387682 Ry
     estimated scf accuracy    <       0.00000022 Ry

     iteration # 69     ecut=    29.40 Ry     beta= 0.05
     Davidson diagonalization with overlap
     ethr =  5.47E-11,  avg # of iterations =  9.3

     negative rho (up, down):  1.435E-02 0.000E+00
 
     Adding external electric field

     Computed dipole along edir(3) : 
        Dipole                1.2255 Ry au,          3.1149 Debye
        Dipole field          0.0023 Ry au, 
 
        Potential amp.       -0.2144 Ry
        Total length         46.3494 bohr
 

     total cpu time spent up to now is     1571.5 secs

     total energy              =   -2976.46387965 Ry
     estimated scf accuracy    <       0.00000013 Ry

     iteration # 70     ecut=    29.40 Ry     beta= 0.05
     Davidson diagonalization with overlap
     ethr =  3.15E-11,  avg # of iterations =  9.3

     negative rho (up, down):  1.435E-02 0.000E+00
 
     Adding external electric field

     Computed dipole along edir(3) : 
        Dipole                1.2256 Ry au,          3.1152 Debye
        Dipole field          0.0023 Ry au, 
 
        Potential amp.       -0.2144 Ry
        Total length         46.3494 bohr
 

     total cpu time spent up to now is     1590.2 secs

     total energy              =   -2976.46388217 Ry
     estimated scf accuracy    <       0.00000015 Ry

     iteration # 71     ecut=    29.40 Ry     beta= 0.05
     Davidson diagonalization with overlap
     ethr =  3.15E-11,  avg # of iterations =  7.2

     negative rho (up, down):  1.442E-02 0.000E+00
 
     Adding external electric field

     Computed dipole along edir(3) : 
        Dipole                1.2275 Ry au,          3.1200 Debye
        Dipole field          0.0023 Ry au, 
 
        Potential amp.       -0.2147 Ry
        Total length         46.3494 bohr
 

     total cpu time spent up to now is     1606.6 secs

     End of self-consistent calculation

          k = 0.0000 0.0000 0.0000 ( 18029 PWs)   bands (ev):

   -55.4449 -55.3567 -55.3226 -55.2172 -55.2150 -55.1873 -55.1854 -55.1775
   -55.1532 -55.1300 -55.0870 -54.9854 -54.9362 -54.8937 -54.3313 -54.2973
   -31.8419 -31.7913 -31.7210 -31.7043 -31.6901 -31.6755 -31.6548 -31.6476
   -31.6162 -31.6029 -31.5969 -31.5092 -31.4943 -31.4868 -31.4671 -31.4638
   -31.4598 -31.4503 -31.4493 -31.4204 -31.4142 -31.3926 -31.3853 -31.3754
   -31.3707 -31.3545 -31.3537 -31.3215 -31.3205 -31.3148 -31.3140 -31.3081
   -31.2999 -31.2817 -31.2581 -31.2394 -31.1745 -31.1521 -31.1410 -31.1319
   -31.1120 -31.1028 -30.7373 -30.6510 -30.6286 -30.5549 -30.4685 -30.3567
   -17.7880 -16.3666 -16.0108 -15.8470 -15.6324 -15.5394 -15.5124 -15.3135
   -15.2186 -15.1604 -14.9587 -14.9321 -14.8945 -14.8816 -14.8727 -14.8516
   -14.8480 -14.7964 -14.7811 -14.7711 -14.7676 -14.7373 -14.7102 -14.6709
   -14.6114 -14.5976 -14.4951 -14.4396 -14.3997 -14.1585 -14.1374 -13.1463
   -12.8302 -12.7138  -9.4415  -6.4634  -5.7226  -4.2762  -3.9335  -3.3688
    -3.2676  -3.2559  -3.1994  -3.1318  -2.9692  -2.8841  -2.7830  -2.7426
    -2.6132  -2.5977  -2.4921  -2.4434  -2.3704  -2.3239  -2.2831  -2.2484
    -2.2206  -2.1644  -2.1423  -2.1161  -2.1054  -2.0323  -2.0138  -1.9233
    -1.8914  -1.8778  -1.7606  -1.7254  -1.6918  -1.6784  -1.6690  -1.6653
    -1.6202  -1.6084  -1.5976  -1.5580  -1.4555  -1.4474  -1.4298  -1.3389
    -1.2431  -0.9912  -0.9602  -0.9098  -0.8982  -0.8201  -0.7815  -0.7499
    -0.7170  -0.6499  -0.6364  -0.6097  -0.5484  -0.4733  -0.4190  -0.3714
    -0.3362  -0.2254  -0.1754  -0.1316  -0.0986  -0.0620   0.0012   0.0413
     0.0651   0.1076   0.1955   0.2581   0.2863   0.3034   0.3534   0.3951
     0.4329   0.4737   0.5452   0.5678   0.5780   0.6172   0.6259   0.6467
     0.7422   0.7607   0.8202   0.8477   0.9352   0.9663   1.0105   1.1805
     1.2500   1.3080   1.3878   1.4831   1.6403   1.6948   1.7197   1.8888
     2.2620   2.3074   3.7272   3.8746   3.8909   3.9687   3.9856   4.0497
     4.2160   4.2753   4.4126   4.4255

          k = 0.0000 0.0419 0.0000 ( 17933 PWs)   bands (ev):

   -55.4445 -55.3517 -55.3276 -55.2165 -55.2104 -55.1857 -55.1826 -55.1817
   -55.1581 -55.1264 -55.0905 -54.9838 -54.9367 -54.8951 -54.3263 -54.3022
   -31.7879 -31.7626 -31.6866 -31.6725 -31.6541 -31.6508 -31.6474 -31.6428
   -31.5957 -31.5880 -31.5626 -31.5205 -31.4954 -31.4789 -31.4559 -31.4547
   -31.4524 -31.4455 -31.4442 -31.4281 -31.4268 -31.4240 -31.3965 -31.3782
   -31.3721 -31.3690 -31.3643 -31.3526 -31.3496 -31.3285 -31.3230 -31.3174
   -31.3114 -31.2951 -31.2864 -31.2527 -31.1734 -31.1684 -31.1679 -31.1510
   -31.1389 -31.1026 -30.6832 -30.6475 -30.6316 -30.5423 -30.4810 -30.4138
   -17.7862 -16.3624 -15.8848 -15.7345 -15.5263 -15.4957 -15.4114 -15.2444
   -15.1688 -15.1506 -15.0747 -15.0060 -14.8922 -14.8788 -14.8632 -14.8477
   -14.8356 -14.8222 -14.8085 -14.7898 -14.7769 -14.7395 -14.7208 -14.6940
   -14.6549 -14.5586 -14.5528 -14.4977 -14.4587 -14.2585 -14.2105 -13.1465
   -12.8343 -12.7534  -9.4515  -6.4561  -5.7218  -4.2679  -3.9366  -3.1837
    -3.0961  -3.0860  -3.0680  -2.9843  -2.9451  -2.7568  -2.6885  -2.5796
    -2.5579  -2.4819  -2.4209  -2.3927  -2.3655  -2.3203  -2.2953  -2.2848
    -2.2617  -2.2089  -2.1951  -2.1784  -2.1087  -2.0648  -2.0484  -2.0344
    -1.9720  -1.9681  -1.9429  -1.9038  -1.8647  -1.8403  -1.8131  -1.7716
    -1.7480  -1.6083  -1.5887  -1.5316  -1.4337  -1.3607  -1.2571  -1.1261
    -1.0782  -1.0465  -1.0209  -0.9418  -0.8039  -0.7580  -0.6726  -0.6234
    -0.5791  -0.5623  -0.5255  -0.4561  -0.4319  -0.3671  -0.3115  -0.3064
    -0.2785  -0.2317  -0.1804  -0.1635  -0.1090  -0.1004  -0.0780  -0.0259
    -0.0063   0.0380   0.1093   0.1393   0.1618   0.2464   0.3210   0.3621
     0.3895   0.4304   0.4536   0.4705   0.4867   0.4948   0.5778   0.5901
     0.6615   0.7608   0.7864   0.8336   0.8482   0.9104   0.9863   1.0138
     1.0697   1.1117   1.2589   1.3118   1.4651   1.6088   1.8838   1.9778
     2.2173   2.2194   3.9446   3.9741   4.0975   4.1213   4.1590   4.1960
     4.2651   4.3164   4.3627   4.3690

          k = 0.0000-0.0839 0.0000 ( 17884 PWs)   bands (ev):

   -55.4441 -55.3397 -55.3395 -55.2159 -55.2034 -55.1891 -55.1860 -55.1715
   -55.1687 -55.1218 -55.0950 -54.9822 -54.9372 -54.8966 -54.3142 -54.3142
   -31.7277 -31.6696 -31.6558 -31.6556 -31.6552 -31.6466 -31.6331 -31.6328
   -31.5758 -31.5275 -31.5071 -31.4972 -31.4913 -31.4739 -31.4619 -31.4616
   -31.4552 -31.4497 -31.4421 -31.4362 -31.4295 -31.4289 -31.4213 -31.4200
   -31.4186 -31.3970 -31.3891 -31.3738 -31.3504 -31.3444 -31.3407 -31.3376
   -31.3156 -31.3114 -31.2928 -31.2521 -31.2348 -31.2062 -31.1722 -31.1509
   -31.1488 -31.1023 -30.6394 -30.6393 -30.5505 -30.5501 -30.5118 -30.5116
   -17.7845 -16.3590 -15.6411 -15.5499 -15.4671 -15.4485 -15.2561 -15.2515
   -15.2047 -15.1928 -15.0988 -15.0658 -15.0250 -15.0045 -14.9320 -14.8807
   -14.8190 -14.7890 -14.7309 -14.7252 -14.7224 -14.6950 -14.6929 -14.6617
   -14.6433 -14.6243 -14.6074 -14.5902 -14.4865 -14.4654 -14.2954 -13.1467
   -12.8162 -12.8160  -9.4615  -6.4494  -5.7210  -4.2606  -3.9397  -2.9464
    -2.8417  -2.7831  -2.7519  -2.7028  -2.6856  -2.6680  -2.6503  -2.6494
    -2.6112  -2.5888  -2.5526  -2.4941  -2.3834  -2.3695  -2.3633  -2.3473
    -2.3328  -2.3071  -2.2922  -2.2145  -2.1992  -2.1577  -2.1463  -2.0883
    -2.0724  -2.0216  -2.0155  -1.9248  -1.8755  -1.8073  -1.7376  -1.6716
    -1.6215  -1.4603  -1.4541  -1.3788  -1.3594  -1.3310  -1.1826  -1.1206
    -1.0296  -0.9771  -0.9509  -0.8609  -0.8020  -0.7664  -0.7556  -0.7525
    -0.7097  -0.7042  -0.6729  -0.6224  -0.5819  -0.4641  -0.4509  -0.3558
    -0.3460  -0.1325  -0.0423  -0.0094   0.0036   0.0257   0.0311   0.0762
     0.0880   0.1482   0.1759   0.1797   0.2006   0.2249   0.2482   0.2714
     0.3083   0.3359   0.3863   0.4302   0.4414   0.4500   0.4738   0.5173
     0.5555   0.5867   0.6030   0.6697   0.7254   0.8069   0.8898   0.9142
     0.9520   1.0606   1.1633   1.3477   1.4027   1.4560   2.0260   2.0339
     2.1529   2.1535   4.1794   4.2090   4.2161   4.2514   4.2710   4.2880
     4.3204   4.3367   4.3857   4.4318

          k = 0.0380 0.0000 0.0000 ( 17913 PWs)   bands (ev):

   -55.4448 -55.3566 -55.3225 -55.2171 -55.2148 -55.1870 -55.1853 -55.1774
   -55.1531 -55.1300 -55.0869 -54.9853 -54.9361 -54.8936 -54.3312 -54.2972
   -31.8428 -31.7930 -31.7215 -31.7061 -31.6903 -31.6723 -31.6534 -31.6474
   -31.6216 -31.6028 -31.5970 -31.5063 -31.4951 -31.4867 -31.4635 -31.4541
   -31.4500 -31.4467 -31.4459 -31.4202 -31.4140 -31.3919 -31.3780 -31.3751
   -31.3735 -31.3547 -31.3515 -31.3407 -31.3203 -31.3145 -31.3138 -31.3080
   -31.2994 -31.2823 -31.2580 -31.2393 -31.1786 -31.1529 -31.1408 -31.1318
   -31.1119 -31.1039 -30.7369 -30.6543 -30.6266 -30.5547 -30.4684 -30.3565
   -17.7874 -16.3638 -15.9291 -15.7638 -15.5808 -15.5315 -15.4246 -15.3439
   -15.2213 -15.1620 -15.0618 -15.0491 -14.9965 -14.9765 -14.9681 -14.9133
   -14.8461 -14.7855 -14.7734 -14.7645 -14.7573 -14.6362 -14.6222 -14.6023
   -14.5592 -14.5523 -14.5336 -14.5128 -14.4547 -14.1566 -14.1366 -13.1465
   -12.8270 -12.7135  -9.4409  -6.4632  -5.7254  -4.2769  -3.9248  -3.2402
    -3.0711  -3.0179  -2.9939  -2.9851  -2.9288  -2.8500  -2.7988  -2.7366
    -2.6921  -2.6627  -2.5920  -2.5768  -2.5197  -2.4369  -2.3834  -2.2996
    -2.2219  -2.1128  -2.0744  -2.0131  -1.9702  -1.9485  -1.9063  -1.8637
    -1.8071  -1.7676  -1.7356  -1.7253  -1.7144  -1.6752  -1.6726  -1.6419
    -1.6289  -1.5667  -1.5604  -1.4576  -1.3750  -1.2602  -1.2232  -1.2071
    -1.1330  -1.0951  -1.0206  -0.9548  -0.9231  -0.8676  -0.8255  -0.7891
    -0.7480  -0.7004  -0.6749  -0.6398  -0.6110  -0.5771  -0.5128  -0.4578
    -0.4211  -0.3349  -0.2398  -0.1686  -0.0948  -0.0685   0.0084   0.0281
     0.0897   0.1368   0.1715   0.2145   0.2602   0.2870   0.3491   0.3547
     0.3896   0.3988   0.4186   0.4917   0.5031   0.5229   0.5481   0.5970
     0.6639   0.7237   0.7441   0.8194   0.8828   0.9156   0.9638   1.0159
     1.0391   1.2517   1.3408   1.4793   1.5887   1.6484   1.7066   1.8587
     2.1509   2.2256   3.7415   3.8337   4.0712   4.1293   4.1704   4.2100
     4.2148   4.2402   4.2801   4.3357

          k = 0.0380 0.0419 0.0000 ( 17878 PWs)   bands (ev):

   -55.4444 -55.3516 -55.3275 -55.2164 -55.2104 -55.1856 -55.1825 -55.1816
   -55.1581 -55.1264 -55.0905 -54.9838 -54.9366 -54.8950 -54.3262 -54.3022
   -31.7888 -31.7639 -31.6882 -31.6695 -31.6524 -31.6521 -31.6481 -31.6425
   -31.5959 -31.5882 -31.5691 -31.5206 -31.4929 -31.4787 -31.4590 -31.4527
   -31.4441 -31.4410 -31.4365 -31.4277 -31.4269 -31.4177 -31.3855 -31.3783
   -31.3762 -31.3657 -31.3646 -31.3529 -31.3496 -31.3352 -31.3281 -31.3229
   -31.3114 -31.2930 -31.2901 -31.2526 -31.1771 -31.1682 -31.1677 -31.1523
   -31.1388 -31.1044 -30.6829 -30.6502 -30.6306 -30.5421 -30.4811 -30.4136
   -17.7858 -16.3607 -15.8123 -15.6601 -15.5255 -15.4311 -15.3331 -15.2633
   -15.1715 -15.1460 -15.0816 -15.0442 -15.0138 -14.9575 -14.9250 -14.8664
   -14.8514 -14.8367 -14.8236 -14.8044 -14.7625 -14.6882 -14.6700 -14.6396
   -14.6165 -14.6021 -14.5872 -14.5613 -14.4864 -14.2562 -14.2103 -13.1468
   -12.8321 -12.7536  -9.4511  -6.4561  -5.7250  -4.2707  -3.9226  -3.0751
    -2.9724  -2.9127  -2.8461  -2.8223  -2.8115  -2.7112  -2.6850  -2.5816
    -2.5614  -2.5010  -2.4728  -2.4339  -2.3512  -2.3338  -2.2623  -2.2357
    -2.2036  -2.1859  -2.1388  -2.1124  -2.0864  -2.0469  -2.0151  -2.0020
    -1.9772  -1.9622  -1.9154  -1.8935  -1.8599  -1.8064  -1.7667  -1.7210
    -1.6789  -1.5701  -1.5163  -1.4337  -1.4075  -1.3368  -1.2927  -1.1460
    -1.1037  -1.0425  -0.9923  -0.9279  -0.8220  -0.7688  -0.7371  -0.7121
    -0.6577  -0.6155  -0.5908  -0.5628  -0.5071  -0.4588  -0.3926  -0.3767
    -0.3462  -0.3257  -0.3121  -0.2285  -0.1522  -0.1381  -0.1078  -0.0896
    -0.0525  -0.0259   0.0330   0.0605   0.0806   0.1200   0.2134   0.2438
     0.2844   0.3148   0.3829   0.4041   0.4294   0.4819   0.4870   0.5800
     0.6944   0.7387   0.7981   0.8201   0.8839   0.9489   0.9831   1.0148
     1.0558   1.0852   1.2284   1.2820   1.4684   1.5444   1.8939   1.9807
     2.1400   2.2000   3.9387   3.9588   4.0933   4.1995   4.2302   4.2722
     4.3096   4.3351   4.3440   4.3786

          k = 0.0380-0.0839 0.0000 ( 17916 PWs)   bands (ev):

   -55.4441 -55.3397 -55.3395 -55.2159 -55.2034 -55.1891 -55.1860 -55.1715
   -55.1687 -55.1219 -55.0950 -54.9823 -54.9372 -54.8966 -54.3143 -54.3142
   -31.7288 -31.6696 -31.6565 -31.6564 -31.6556 -31.6440 -31.6332 -31.6328
   -31.5758 -31.5292 -31.5082 -31.4979 -31.4924 -31.4820 -31.4608 -31.4606
   -31.4572 -31.4553 -31.4427 -31.4381 -31.4363 -31.4295 -31.4172 -31.3991
   -31.3938 -31.3915 -31.3864 -31.3790 -31.3498 -31.3443 -31.3404 -31.3375
   -31.3221 -31.3157 -31.3029 -31.2518 -31.2346 -31.2060 -31.1754 -31.1526
   -31.1488 -31.1050 -30.6404 -30.6403 -30.5504 -30.5500 -30.5118 -30.5116
   -17.7843 -16.3577 -15.6163 -15.5039 -15.4150 -15.4002 -15.2040 -15.1866
   -15.1719 -15.1644 -15.1125 -15.0460 -15.0243 -14.9963 -14.9478 -14.8989
   -14.8755 -14.8169 -14.7872 -14.7712 -14.7670 -14.7230 -14.7106 -14.6983
   -14.6691 -14.6556 -14.6463 -14.6133 -14.4729 -14.4528 -14.2917 -13.1471
   -12.8160 -12.8158  -9.4610  -6.4497  -5.7237  -4.2617  -3.9305  -2.9502
    -2.8105  -2.6807  -2.6154  -2.5846  -2.5768  -2.5047  -2.4923  -2.4569
    -2.4540  -2.4380  -2.4236  -2.4112  -2.3465  -2.3326  -2.2906  -2.2562
    -2.2447  -2.2331  -2.2057  -2.1979  -2.1562  -2.1308  -2.0970  -2.0676
    -2.0465  -2.0180  -1.9923  -1.9619  -1.9272  -1.8162  -1.7533  -1.5648
    -1.5227  -1.4677  -1.4476  -1.3912  -1.3020  -1.2785  -1.2297  -1.1712
    -1.1591  -1.0979  -1.0956  -1.0692  -1.0182  -0.9980  -0.9617  -0.8852
    -0.8486  -0.7659  -0.6723  -0.6301  -0.5530  -0.5278  -0.4684  -0.4438
    -0.3553  -0.2526  -0.2063  -0.1776  -0.1394  -0.1179  -0.0844  -0.0411
    -0.0178  -0.0055   0.0162   0.0425   0.0555   0.0757   0.1021   0.1291
     0.2203   0.2454   0.3335   0.3934   0.4616   0.4851   0.5560   0.5821
     0.6969   0.7160   0.7601   0.7882   0.8263   0.8649   0.9148   0.9363
     0.9855   1.0560   1.1571   1.3265   1.3552   1.4618   2.0390   2.0465
     2.1424   2.1433   4.0878   4.1880   4.1949   4.2218   4.2577   4.2803
     4.3393   4.3443   4.4054   4.4197

          k = 0.0380-0.0419 0.0000 ( 17876 PWs)   bands (ev):

   -55.4444 -55.3516 -55.3275 -55.2164 -55.2104 -55.1856 -55.1825 -55.1816
   -55.1580 -55.1264 -55.0905 -54.9838 -54.9366 -54.8950 -54.3262 -54.3022
   -31.7888 -31.7643 -31.6877 -31.6696 -31.6526 -31.6520 -31.6481 -31.6425
   -31.5959 -31.5882 -31.5691 -31.5206 -31.4929 -31.4788 -31.4574 -31.4510
   -31.4441 -31.4409 -31.4365 -31.4277 -31.4269 -31.4221 -31.3855 -31.3785
   -31.3751 -31.3664 -31.3638 -31.3529 -31.3496 -31.3353 -31.3283 -31.3230
   -31.3114 -31.2931 -31.2899 -31.2526 -31.1770 -31.1681 -31.1676 -31.1522
   -31.1389 -31.1044 -30.6829 -30.6502 -30.6306 -30.5421 -30.4811 -30.4136
   -17.7858 -16.3605 -15.8117 -15.6587 -15.5273 -15.4277 -15.3327 -15.2635
   -15.1723 -15.1465 -15.0804 -15.0552 -15.0145 -14.9572 -14.9328 -14.8662
   -14.8415 -14.8349 -14.8244 -14.8027 -14.7598 -14.6877 -14.6689 -14.6396
   -14.6177 -14.6023 -14.5873 -14.5615 -14.4860 -14.2567 -14.2104 -13.1469
   -12.8321 -12.7537  -9.4508  -6.4560  -5.7240  -4.2670  -3.9329  -3.0750
    -2.9702  -2.9132  -2.8388  -2.8163  -2.8108  -2.7116  -2.6872  -2.5942
    -2.5590  -2.5008  -2.4767  -2.4317  -2.3591  -2.3324  -2.2603  -2.2388
    -2.2067  -2.1978  -2.1485  -2.1138  -2.0823  -2.0529  -2.0278  -2.0024
    -1.9802  -1.9634  -1.9076  -1.8871  -1.8352  -1.8031  -1.7643  -1.7043
    -1.6727  -1.5738  -1.5001  -1.4452  -1.4034  -1.3476  -1.2973  -1.1333
    -1.1051  -1.0253  -0.9769  -0.9453  -0.8278  -0.7648  -0.7279  -0.7119
    -0.6680  -0.6319  -0.5877  -0.5441  -0.5101  -0.4637  -0.4256  -0.3768
    -0.3351  -0.3177  -0.2607  -0.2412  -0.1550  -0.1414  -0.1252  -0.0652
    -0.0473  -0.0186   0.0106   0.0568   0.0887   0.1389   0.1718   0.2257
     0.2716   0.3008   0.3658   0.3933   0.4231   0.4758   0.4969   0.5879
     0.6882   0.7392   0.7980   0.8270   0.8876   0.9537   0.9796   1.0173
     1.0823   1.0953   1.2279   1.2818   1.4741   1.5449   1.8939   1.9807
     2.1398   2.2007   3.9389   3.9591   4.0876   4.1971   4.2343   4.2619
     4.3202   4.3398   4.3498   4.3804

          k =-0.0760-0.0000 0.0000 ( 17886 PWs)   bands (ev):

   -55.4448 -55.3566 -55.3226 -55.2170 -55.2148 -55.1869 -55.1853 -55.1774
   -55.1531 -55.1301 -55.0869 -54.9853 -54.9361 -54.8935 -54.3312 -54.2972
   -31.8437 -31.7947 -31.7221 -31.7080 -31.6905 -31.6697 -31.6517 -31.6472
   -31.6268 -31.6028 -31.5972 -31.5034 -31.4960 -31.4865 -31.4635 -31.4496
   -31.4461 -31.4438 -31.4202 -31.4143 -31.4128 -31.3908 -31.3778 -31.3761
   -31.3738 -31.3715 -31.3544 -31.3500 -31.3203 -31.3145 -31.3138 -31.3078
   -31.2991 -31.2832 -31.2580 -31.2396 -31.1837 -31.1541 -31.1407 -31.1318
   -31.1120 -31.1048 -30.7365 -30.6576 -30.6253 -30.5546 -30.4683 -30.3565
   -17.7868 -16.3614 -15.7909 -15.6806 -15.6259 -15.4451 -15.3358 -15.3240
   -15.2105 -15.1774 -15.1321 -15.1215 -15.0703 -15.0585 -15.0404 -15.0292
   -14.8264 -14.8115 -14.8062 -14.7512 -14.7124 -14.6520 -14.6474 -14.6166
   -14.6060 -14.5129 -14.4830 -14.4777 -14.4456 -14.1555 -14.1362 -13.1468
   -12.8240 -12.7132  -9.4404  -6.4632  -5.7283  -4.2783  -3.9163  -3.2091
    -3.0002  -2.9640  -2.8589  -2.8044  -2.7930  -2.7590  -2.7334  -2.6499
    -2.6337  -2.6174  -2.6145  -2.6044  -2.5977  -2.5602  -2.2693  -2.2631
    -2.1557  -2.0747  -1.9552  -1.9467  -1.8677  -1.8503  -1.8323  -1.7988
    -1.7873  -1.7759  -1.7396  -1.7094  -1.6912  -1.6721  -1.6367  -1.5876
    -1.5817  -1.5684  -1.5642  -1.4659  -1.4380  -1.3944  -1.2821  -1.1649
    -1.0854  -0.9588  -0.9466  -0.9403  -0.9384  -0.9042  -0.8656  -0.8191
    -0.8091  -0.7731  -0.7421  -0.6627  -0.6509  -0.6291  -0.5981  -0.5411
    -0.5126  -0.4472  -0.3178  -0.2218  -0.2076  -0.0927  -0.0628   0.0136
     0.0682   0.0800   0.1084   0.1267   0.1902   0.2139   0.2692   0.2779
     0.3235   0.3590   0.3816   0.4083   0.4485   0.4708   0.4945   0.5857
     0.6225   0.6899   0.7341   0.7651   0.8564   0.8886   0.9093   1.0141
     1.1383   1.2647   1.3100   1.3386   1.4910   1.6534   1.7275   1.8347
     2.0239   2.1706   3.7432   3.7904   4.0413   4.0634   4.1107   4.1636
     4.1914   4.2127   4.3063   4.3452

          k =-0.0760 0.0419 0.0000 ( 17914 PWs)   bands (ev):

   -55.4444 -55.3516 -55.3276 -55.2164 -55.2104 -55.1857 -55.1824 -55.1816
   -55.1581 -55.1265 -55.0905 -54.9838 -54.9366 -54.8950 -54.3262 -54.3022
   -31.7898 -31.7658 -31.6890 -31.6676 -31.6538 -31.6505 -31.6488 -31.6426
   -31.5960 -31.5885 -31.5753 -31.5209 -31.4908 -31.4788 -31.4600 -31.4525
   -31.4443 -31.4331 -31.4276 -31.4269 -31.4145 -31.4127 -31.3806 -31.3794
   -31.3744 -31.3683 -31.3628 -31.3622 -31.3497 -31.3486 -31.3280 -31.3229
   -31.3114 -31.2956 -31.2915 -31.2527 -31.1811 -31.1683 -31.1677 -31.1537
   -31.1389 -31.1063 -30.6827 -30.6530 -30.6299 -30.5421 -30.4811 -30.4137
   -17.7854 -16.3589 -15.6968 -15.5863 -15.5486 -15.3491 -15.2581 -15.2367
   -15.1550 -15.1237 -15.0994 -15.0897 -15.0719 -15.0289 -15.0156 -14.9787
   -14.8595 -14.8521 -14.8326 -14.7901 -14.7822 -14.6760 -14.6657 -14.6635
   -14.6431 -14.6199 -14.5861 -14.5401 -14.4824 -14.2545 -14.2114 -13.1473
   -12.8300 -12.7540  -9.4504  -6.4561  -5.7273  -4.2703  -3.9189  -3.0532
    -2.9696  -2.8365  -2.7212  -2.6177  -2.5718  -2.5542  -2.5354  -2.5129
    -2.4980  -2.4285  -2.4216  -2.3963  -2.3512  -2.3153  -2.2913  -2.2524
    -2.2030  -2.1590  -2.0913  -2.0772  -2.0291  -2.0160  -1.9700  -1.9331
    -1.9177  -1.8922  -1.8650  -1.8506  -1.8425  -1.8158  -1.7755  -1.7072
    -1.6243  -1.4530  -1.4392  -1.4144  -1.3390  -1.3104  -1.2730  -1.2452
    -1.1425  -1.0733  -0.9765  -0.9623  -0.8758  -0.8461  -0.7884  -0.7475
    -0.7257  -0.6780  -0.6217  -0.6080  -0.5886  -0.5816  -0.5601  -0.5268
    -0.5005  -0.4624  -0.4239  -0.3953  -0.3514  -0.2845  -0.2481  -0.2194
    -0.1555  -0.1173  -0.0720  -0.0351   0.0097   0.0460   0.0688   0.1391
     0.2371   0.2441   0.3377   0.4294   0.4535   0.4730   0.5221   0.5887
     0.6810   0.7482   0.7863   0.8712   0.9573   1.0021   1.0228   1.0889
     1.1420   1.1583   1.1952   1.2870   1.3456   1.4808   1.9073   1.9823
     2.0629   2.1893   3.9348   3.9533   4.0223   4.0950   4.1469   4.1886
     4.2683   4.2829   4.4391   4.4625

          k =-0.0760-0.0839 0.0000 ( 17948 PWs)   bands (ev):

   -55.4441 -55.3397 -55.3395 -55.2159 -55.2034 -55.1891 -55.1861 -55.1714
   -55.1687 -55.1220 -55.0951 -54.9823 -54.9372 -54.8966 -54.3143 -54.3142
   -31.7300 -31.6695 -31.6573 -31.6571 -31.6559 -31.6414 -31.6332 -31.6329
   -31.5759 -31.5308 -31.5093 -31.4985 -31.4931 -31.4879 -31.4650 -31.4596
   -31.4590 -31.4557 -31.4493 -31.4369 -31.4300 -31.4271 -31.4159 -31.3900
   -31.3853 -31.3834 -31.3757 -31.3679 -31.3493 -31.3441 -31.3405 -31.3403
   -31.3371 -31.3172 -31.3157 -31.2514 -31.2344 -31.2058 -31.1787 -31.1543
   -31.1489 -31.1077 -30.6413 -30.6413 -30.5504 -30.5500 -30.5118 -30.5116
   -17.7840 -16.3565 -15.5909 -15.4467 -15.3381 -15.3277 -15.2038 -15.1368
   -15.1269 -15.0935 -15.0705 -15.0486 -15.0301 -15.0151 -14.9602 -14.9205
   -14.8891 -14.8617 -14.8571 -14.8142 -14.8044 -14.7931 -14.7751 -14.7635
   -14.7083 -14.6722 -14.6625 -14.6037 -14.4649 -14.4434 -14.2888 -13.1476
   -12.8158 -12.8156  -9.4605  -6.4499  -5.7264  -4.2628  -3.9213  -2.9552
    -2.8008  -2.6581  -2.6089  -2.5625  -2.4491  -2.4250  -2.3668  -2.3167
    -2.2923  -2.2706  -2.2197  -2.2090  -2.1625  -2.1465  -2.1226  -2.1077
    -2.0912  -2.0845  -2.0566  -2.0409  -2.0305  -2.0165  -1.9906  -1.9794
    -1.9613  -1.9325  -1.9124  -1.9034  -1.8696  -1.8271  -1.7661  -1.6589
    -1.5850  -1.5733  -1.5272  -1.5021  -1.4858  -1.4450  -1.4324  -1.3914
    -1.3740  -1.3076  -1.1498  -1.1246  -1.1103  -0.9676  -0.9604  -0.9315
    -0.8574  -0.8157  -0.7938  -0.7356  -0.7068  -0.6678  -0.5890  -0.5457
    -0.4913  -0.4253  -0.3256  -0.3179  -0.3018  -0.2817  -0.2656  -0.2579
    -0.2245  -0.1873  -0.1144  -0.0677  -0.0590  -0.0530  -0.0019   0.0783
     0.1289   0.2434   0.3898   0.3939   0.4610   0.4619   0.6616   0.6697
     0.7467   0.7824   0.8168   0.8439   0.9378   0.9557   0.9935   1.0765
     1.1397   1.1693   1.1902   1.1950   1.2481   1.4684   2.0571   2.0649
     2.1277   2.1278   3.9678   4.2013   4.2417   4.2548   4.2734   4.2996
     4.3136   4.3276   4.3941   4.4175

     the Fermi energy is     3.7644 ev

!    total energy              =   -2976.46390525 Ry
     estimated scf accuracy    <       0.00000007 Ry
     smearing contrib. (-TS)   =      -0.01955664 Ry
     internal energy E=F+TS    =   -2976.44434861 Ry

     The total energy is F=E-TS. E is the sum of the following terms:
     one-electron contribution =  -23037.38253381 Ry
     hartree contribution      =   11616.40982454 Ry
     xc contribution           =    -495.72243231 Ry
     ewald contribution        =    8940.24794948 Ry
     electric field correction =       0.00284349 Ry

     convergence has been achieved in  71 iterations

     Forces acting on atoms (cartesian axes, Ry/au):

     atom    1 type  1   force =     0.00016136   -0.00023337    0.09416141
     atom    2 type  1   force =    -0.00009919    0.00017409   -0.17537328
     atom    3 type  2   force =     0.00005408   -0.00049568   -0.02103202
     atom    4 type  2   force =    -0.00002447   -0.00093840    0.05426504
     atom    5 type  2   force =    -0.00488346   -0.00215818    0.00107207
     atom    6 type  2   force =     0.00670831   -0.00138364    0.00108670
     atom    7 type  1   force =     0.00005472    0.00331130    0.00865893
     atom    8 type  1   force =    -0.00010218    0.00119802    0.00270018
     atom    9 type  2   force =    -0.00021813   -0.00031348   -0.00059140
     atom   10 type  2   force =    -0.00111994    0.00429225   -0.01025510
     atom   11 type  2   force =    -0.00007642   -0.00054898   -0.00011433
     atom   12 type  2   force =     0.00062204   -0.00031741   -0.00027412
     atom   13 type  1   force =    -0.00143927    0.00019469   -0.00056758
     atom   14 type  1   force =     0.00072120    0.00018062   -0.00049392
     atom   15 type  2   force =     0.00015394    0.00003713   -0.00002284
     atom   16 type  2   force =    -0.00008651   -0.00069077   -0.00028199
     atom   17 type  2   force =    -0.00038521    0.00076237    0.00015571
     atom   18 type  2   force =    -0.00071014    0.00032014   -0.00019150
     atom   19 type  1   force =     0.00036216   -0.00092079    0.00058158
     atom   20 type  1   force =    -0.00068035   -0.00005291    0.00061342
     atom   21 type  2   force =     0.00003808   -0.00001060    0.10318156
     atom   22 type  2   force =    -0.00009422    0.00003317    0.00039105
     atom   23 type  2   force =    -0.07198408   -0.00019672   -0.02725337
     atom   24 type  2   force =     0.07186317    0.00025894   -0.02732437
     atom   25 type  1   force =     0.00007637   -0.00016610    0.09390106
     atom   26 type  1   force =    -0.00011890   -0.00136316   -0.17551527
     atom   27 type  2   force =     0.00011167   -0.00005439   -0.01984393
     atom   28 type  2   force =     0.00006556   -0.00104993    0.04981035
     atom   29 type  2   force =    -0.00746351    0.00209345    0.00339557
     atom   30 type  2   force =     0.00906930    0.00223512    0.00331266
     atom   31 type  1   force =     0.00019432    0.00150965    0.00005711
     atom   32 type  1   force =    -0.00008594   -0.00227073    0.00300456
     atom   33 type  2   force =    -0.00017615   -0.00030180   -0.00003246
     atom   34 type  2   force =    -0.00117176   -0.00218303   -0.00964858
     atom   35 type  2   force =     0.00064361    0.00005874   -0.00023437
     atom   36 type  2   force =     0.00037184    0.00012165   -0.00036205
     atom   37 type  1   force =    -0.00096807    0.00024764    0.00037094
     atom   38 type  1   force =     0.00097068   -0.00024877    0.00017955
     atom   39 type  2   force =    -0.00020276   -0.00052967    0.00005819
     atom   40 type  2   force =    -0.00019836   -0.00018813   -0.00015648
     atom   41 type  2   force =     0.00052577   -0.00048035    0.00010935
     atom   42 type  2   force =    -0.00051730    0.00008329   -0.00016036
     atom   43 type  1   force =     0.00015801    0.00093322    0.00053425
     atom   44 type  1   force =    -0.00011312    0.00095232   -0.00001755
     atom   45 type  2   force =     0.00002622    0.00003444    0.10299897
     atom   46 type  2   force =    -0.07193625   -0.00008115   -0.02720738
     atom   47 type  2   force =     0.07182659    0.00034928   -0.02729084
     atom   48 type  3   force =     0.00402495   -0.00155219    0.00329910
     atom   49 type  3   force =    -0.01755521    0.00031202   -0.00121454
     atom   50 type  4   force =     0.00087899   -0.00040208    0.00035741
     atom   51 type  5   force =    -0.00127877   -0.00029134    0.00030876
     atom   52 type  5   force =     0.00055114    0.00001815    0.00037775
     atom   53 type  5   force =    -0.00023427    0.00064451   -0.00049191
     atom   54 type  5   force =     0.00089344   -0.00025704   -0.00003394
     atom   55 type  5   force =     0.00812145   -0.00475026   -0.00347030
     atom   56 type  5   force =     0.00474440    0.00432182    0.00019836
     atom   57 type  2   force =     0.00067979   -0.00115755    0.00008335
     atom   58 type  5   force =    -0.00074920    0.00091058    0.00023087

     Total force =     0.362641     Total SCF correction =     0.000796
  @ DRIVER MODE: Message from server: STATUS
  @ DRIVER MODE: Message from server: GETFORCE
  @ DRIVER MODE: Returning v,forces,stress,ensemble 

     Writing output data file ./calc.save/
  @ DRIVER MODE: Message from server: EXIT
  @ DRIVE MODE: Exiting  
 
     init_run     :     13.67s CPU     14.04s WALL (       1 calls)
     electrons    :   1557.03s CPU   1591.90s WALL (       1 calls)
     forces       :      3.14s CPU      3.27s WALL (       1 calls)

     Called by init_run:
     wfcinit      :      6.11s CPU      6.27s WALL (       1 calls)
     potinit      :      6.80s CPU      6.87s WALL (       1 calls)
     hinit0       :      0.38s CPU      0.39s WALL (       1 calls)

     Called by electrons:
     c_bands      :   1342.50s CPU   1363.29s WALL (      71 calls)
     sum_band     :    148.66s CPU    155.35s WALL (      71 calls)
     v_of_rho     :     50.46s CPU     52.32s WALL (      72 calls)
     newd         :     19.21s CPU     24.70s WALL (      72 calls)
     mix_rho      :      1.93s CPU      1.96s WALL (      71 calls)
     vdW_kernel   :      5.86s CPU      5.88s WALL (       1 calls)

     Called by c_bands:
     init_us_2    :      7.88s CPU      7.91s WALL (    1440 calls)
     cegterg      :   1318.12s CPU   1338.47s WALL (     724 calls)

     Called by *egterg:
     cdiaghg      :    226.51s CPU    227.85s WALL (    7609 calls)
     h_psi        :    697.90s CPU    711.46s WALL (    7622 calls)
     s_psi        :     92.91s CPU     93.20s WALL (    7622 calls)
     g_psi        :      2.36s CPU      2.38s WALL (    6888 calls)

     Called by h_psi:
     h_psi:calbec :     88.96s CPU     90.37s WALL (    7622 calls)
     vloc_psi     :    512.97s CPU    520.85s WALL (    7622 calls)
     add_vuspsi   :     93.30s CPU     95.18s WALL (    7622 calls)

     General routines
     calbec       :    116.30s CPU    117.80s WALL (    8372 calls)
     fft          :     25.93s CPU     26.06s WALL (    4536 calls)
     ffts         :      0.20s CPU      0.20s WALL (     143 calls)
     fftw         :    568.36s CPU    576.72s WALL ( 1015526 calls)
     interpolate  :      0.56s CPU      0.57s WALL (      72 calls)
     davcio       :      0.00s CPU      0.87s WALL (      10 calls)
 
     Parallel routines
 
     PWSCF        :  26m14.11s CPU  27m24.87s WALL

 
   This run was terminated on:  14:40:27  23Sep2021            

=------------------------------------------------------------------------------=
   JOB DONE.
=------------------------------------------------------------------------------=
