
     Program PWSCF v.6.7GPU starts on 15Sep2021 at 21:26:12 

     This program is part of the open-source Quantum ESPRESSO suite
     for quantum simulation of materials; please cite
         "P. Giannozzi et al., J. Phys.:Condens. Matter 21 395502 (2009);
         "P. Giannozzi et al., J. Phys.:Condens. Matter 29 465901 (2017);
         "P. Giannozzi et al., J. Chem. Phys. 152 154105 (2020);
          URL http://www.quantum-espresso.org", 
     in publications or presentations arising from this work. More details at
     http://www.quantum-espresso.org/quote

     Parallel version (MPI), running on    10 processors

     MPI processes distributed on     1 nodes
     R & G space division:  proc/nbgrp/npool/nimage =      10
     Reading input from /storage/home/hcoda1/3/ntian30/research/carbon/CxH_vib/H2O_calc/ads_slab/CH2N2HH2O_a/out_0018/pw.inp
Warning: card &CELL ignored
Warning: card   CELL_DYNAMICS='IPI', ignored
Warning: card / ignored

     Current dimensions of program PWSCF are:
     Max number of different atomic species (ntypx) = 10
     Max number of k-points (npk) =  40000
     Max angular momentum in pseudopotentials (lmaxx) =  3
     Presently no symmetry can be used with electric field

     Message from routine cell_base_init:
     DEPRECATED: use true lattice parameter, not A to a.u. conversion factor

     **************************************************************************
     Initializing libbeef V0.1.2 with the BEEF-vdW functional.
     Citation: Wellendorff et al., PRB 85, 235149 (2012).
     **************************************************************************


     IMPORTANT: XC functional enforced from input :
     Exchange-correlation= BEEF-VDW
                           (   1   4  43  14   2   0   0)
     Any further DFT definition will be discarded
     Please, verify this is what you really want


     Subspace diagonalization in iterative solution of the eigenvalue problem:
     one sub-group per band group will be used
     scalapack distributed-memory algorithm (size of sub-group:  3*  3 procs)

  @ DRIVER MODE: Connecting to 
 qe_1139763_2852606.sched-torque.pace.gatech.eduyjc3l4cn_scratch
  using UNIX socket
  @ DRIVER MODE: Message from server: STATUS
  @ DRIVER MODE: Message from server: INIT
  @ DRIVER MODE: Receiving replica           0          -1
  @ DRIVER MODE: Receiving encoded integer          25
  @ DRIVER MODE:  SCF:  T  FORCE:  T  STRESS:  F  VC:  F  ENSEMBLE:  F
  @ DRIVER MODE:  SCF:  T  FORCE:  T  STRESS:  F  VC:  F  ENSEMBLE:  F
 
     Parallelization info
     --------------------
     sticks:   dense  smooth     PW     G-vecs:    dense   smooth      PW
     Min         327     131     37                56683    14340    2191
     Max         328     133     38                56694    14346    2206
     Sum        3275    1317    379               566857   143421   21985
 
     Using Slab Decomposition
 


     bravais-lattice index     =            0
     lattice parameter (alat)  =       1.8897  a.u.
     unit-cell volume          =    6658.9804 (a.u.)^3
     number of atoms/cell      =           56
     number of atomic types    =            5
     number of electrons       =       403.00
     number of Kohn-Sham states=          211
     kinetic-energy cutoff     =      29.3995  Ry
     charge density cutoff     =     293.9946  Ry
     scf convergence threshold =      7.3E-08
     mixing beta               =       0.0500
     number of iterations used =            8  plain     mixing
     Exchange-correlation= BEEF-VDW
                           (   1   4  43  14   2   0   0)

     celldm(1)=   1.889726  celldm(2)=   0.000000  celldm(3)=   0.000000
     celldm(4)=   0.000000  celldm(5)=   0.000000  celldm(6)=   0.000000

     crystal axes: (cart. coord. in units of alat)
               a(1) = (   6.579727   0.000000   0.000000 )  
               a(2) = (  -0.000775   5.961596   0.000000 )  
               a(3) = (   0.000000   0.000000  25.155947 )  

     reciprocal axes: (cart. coord. in units 2 pi/alat)
               b(1) = (  0.151982  0.000020  0.000000 )  
               b(2) = (  0.000000  0.167740  0.000000 )  
               b(3) = (  0.000000  0.000000  0.039752 )  


     PseudoPot. # 1 for Ti read from file:
     /storage/coda1/p-amedford6/0/shared/rich_project_chbe-medford/medford-share/data/pseudos_module/espresso/nninc/pbe/van/Ti.UPF
     MD5 check sum: 8e4df49b7f0d34bbd5052bf3f5ea0213
     Pseudo is Ultrasoft, Zval = 12.0
     Generated by new atomic code, or converted to UPF format
     Using radial grid of  851 points,  6 beta functions with: 
                l(1) =   0
                l(2) =   0
                l(3) =   1
                l(4) =   1
                l(5) =   2
                l(6) =   2
     Q(r) pseudized with  8 coefficients,  rinner =    1.000   1.000   1.000
                                                       1.000   1.000

     PseudoPot. # 2 for O  read from file:
     /storage/coda1/p-amedford6/0/shared/rich_project_chbe-medford/medford-share/data/pseudos_module/espresso/nninc/pbe/van/O.UPF
     MD5 check sum: 78c19812648e8988a0fe644b0f25305e
     Pseudo is Ultrasoft, Zval =  6.0
     Generated by new atomic code, or converted to UPF format
     Using radial grid of  737 points,  4 beta functions with: 
                l(1) =   0
                l(2) =   0
                l(3) =   1
                l(4) =   1
     Q(r) pseudized with  8 coefficients,  rinner =    0.800   0.800   0.800


     PseudoPot. # 3 for N  read from file:
     /storage/coda1/p-amedford6/0/shared/rich_project_chbe-medford/medford-share/data/pseudos_module/espresso/nninc/pbe/van/N.UPF
     MD5 check sum: 90d10febe142ad51ac9d5be1deb811c4
     Pseudo is Ultrasoft, Zval =  5.0
     Generated by new atomic code, or converted to UPF format
     Using radial grid of  729 points,  4 beta functions with: 
                l(1) =   0
                l(2) =   0
                l(3) =   1
                l(4) =   1
     Q(r) pseudized with  8 coefficients,  rinner =    0.800   0.800   0.800


     PseudoPot. # 4 for C  read from file:
     /storage/coda1/p-amedford6/0/shared/rich_project_chbe-medford/medford-share/data/pseudos_module/espresso/nninc/pbe/van/C.UPF
     MD5 check sum: 1a69bf6b8db32088f5b2163dbdb77a27
     Pseudo is Ultrasoft, Zval =  4.0
     Generated by new atomic code, or converted to UPF format
     Using radial grid of  721 points,  4 beta functions with: 
                l(1) =   0
                l(2) =   0
                l(3) =   1
                l(4) =   1
     Q(r) pseudized with  8 coefficients,  rinner =    0.800   0.800   0.800


     PseudoPot. # 5 for H  read from file:
     /storage/coda1/p-amedford6/0/shared/rich_project_chbe-medford/medford-share/data/pseudos_module/espresso/nninc/pbe/van/H.UPF
     MD5 check sum: b5ee9d7bfd3a09ee7748110bda690ff7
     Pseudo is Ultrasoft, Zval =  1.0
     Generated by new atomic code, or converted to UPF format
     Using radial grid of  615 points,  1 beta functions with: 
                l(1) =   0
     Q(r) pseudized with  8 coefficients,  rinner =    0.800

     atomic species   valence    mass     pseudopotential
        Ti1           12.00    47.86700     Ti( 1.00)
        O1             6.00    15.99900     O ( 1.00)
        N1             5.00    14.00700     N ( 1.00)
        C1             4.00    12.01100     C ( 1.00)
        H1             1.00     1.00800     H ( 1.00)

     No symmetry found



   Cartesian axes

     site n.     atom                  positions (alat units)
         1           Ti1 tau(   1) = (   0.0004258   2.9801865   6.0000000  )
         2           Ti1 tau(   2) = (   3.2906075   1.4906267   6.0002472  )
         3           O1  tau(   3) = (   0.0006271   0.0005054   7.9858123  )
         4           O1  tau(   4) = (   3.2906025   0.0005020   7.3038282  )
         5           O1  tau(   5) = (   4.5942328   1.4918067   9.2879030  )
         6           O1  tau(   6) = (   1.9868534   1.4903216   9.2879459  )
         7           Ti1 tau(   7) = (   3.2907910   2.8959150   9.1758416  )
         8           Ti1 tau(   8) = (   0.0015273   1.4827037   9.2680791  )
         9           O1  tau(   9) = (   3.2932810   5.9556063  11.3276769  )
        10           O1  tau(  10) = (   0.0116148   5.9584955  10.6183126  )
        11           O1  tau(  11) = (   1.2966828   1.5020869  12.6141357  )
        12           O1  tau(  12) = (   5.2995835   1.4923495  12.6341875  )
        13           Ti1 tau(  13) = (   6.5470072   2.9473109  12.5798724  )
        14           Ti1 tau(  14) = (   3.2302912   1.4573256  12.5082679  )
        15           O1  tau(  15) = (   0.0525813   0.0137714  14.6435187  )
        16           O1  tau(  16) = (   3.2708393   0.0302713  13.9228694  )
        17           O1  tau(  17) = (   4.5627544   1.5900677  16.0055000  )
        18           O1  tau(  18) = (   2.0437599   1.5040777  16.0764052  )
        19           Ti1 tau(  19) = (   3.3063064   2.9825517  15.6619520  )
        20           Ti1 tau(  20) = (   6.5607061   1.3194196  15.9785141  )
        21           O1  tau(  21) = (   3.2904802   0.0005063   4.7018136  )
        22           O1  tau(  22) = (   6.3855286   5.9589440  17.1610702  )
        23           O1  tau(  23) = (   1.3043587   1.4918075   6.0039043  )
        24           O1  tau(  24) = (   5.2767064   1.4903225   6.0039473  )
        25           Ti1 tau(  25) = (   0.0000382   5.9609847   6.0000000  )
        26           Ti1 tau(  26) = (   3.2902200   4.4714249   6.0002472  )
        27           O1  tau(  27) = (   0.0002396   2.9813036   7.9858123  )
        28           O1  tau(  28) = (   3.2902150   2.9813002   7.3038282  )
        29           O1  tau(  29) = (   4.5938453   4.4726049   9.2879030  )
        30           O1  tau(  30) = (   1.9864658   4.4711199   9.2879459  )
        31           Ti1 tau(  31) = (   3.2891106   5.8743827   9.1763621  )
        32           Ti1 tau(  32) = (   0.0006254   4.4649316   9.2693709  )
        33           O1  tau(  33) = (   3.2946552   2.9814125  11.3288906  )
        34           O1  tau(  34) = (   0.0092240   2.9805883  10.6323155  )
        35           O1  tau(  35) = (   1.2978438   4.4726441  12.6233041  )
        36           O1  tau(  36) = (   5.2969606   4.4732664  12.6435870  )
        37           Ti1 tau(  37) = (   6.5415350   5.9305516  12.5357152  )
        38           Ti1 tau(  38) = (   3.2303862   4.4559975  12.4807118  )
        39           O1  tau(  39) = (   0.0164246   2.9899045  14.7829194  )
        40           O1  tau(  40) = (   3.2688228   2.9752494  13.8698570  )
        41           O1  tau(  41) = (   4.5210259   4.4573316  15.9082071  )
        42           O1  tau(  42) = (   2.0412773   4.4882057  16.0214637  )
        43           Ti1 tau(  43) = (   3.2233344   5.9452837  15.7820064  )
        44           Ti1 tau(  44) = (   6.5355943   4.4735413  15.8975681  )
        45           O1  tau(  45) = (   3.2900926   2.9813045   4.7018136  )
        46           O1  tau(  46) = (   1.3039711   4.4726057   6.0039043  )
        47           O1  tau(  47) = (   5.2763189   4.4711207   6.0039473  )
        48           N1  tau(  48) = (   0.2167872   2.3688911  18.0161765  )
        49           C1  tau(  49) = (   0.4968348   1.8934616  19.1878903  )
        50           H1  tau(  50) = (   0.5617972   2.5522217  20.0613624  )
        51           H1  tau(  51) = (   0.6371857   0.8299532  19.2874115  )
        52           N1  tau(  52) = (   6.5661014   3.6386027  17.7750644  )
        53           H1  tau(  53) = (   0.0713089   4.2532688  18.5884219  )
        54           O1  tau(  54) = (   3.6608114   5.9026821  18.0962282  )
        55           H1  tau(  55) = (   4.6425638   0.0038819  18.0438526  )
        56           H1  tau(  56) = (   3.3558581   0.7595698  18.5153002  )

     number of k points=    10  Fermi-Dirac smearing, width (Ry)=  0.0073
                       cart. coord. in units 2pi/alat
        k(    1) = (   0.0000000   0.0000000   0.0000000), wk =   0.1250000
        k(    2) = (   0.0000000   0.0419351   0.0000000), wk =   0.2500000
        k(    3) = (   0.0000000  -0.0838702   0.0000000), wk =   0.1250000
        k(    4) = (   0.0379955   0.0000049   0.0000000), wk =   0.2500000
        k(    5) = (   0.0379955   0.0419400   0.0000000), wk =   0.2500000
        k(    6) = (   0.0379955  -0.0838652   0.0000000), wk =   0.2500000
        k(    7) = (   0.0379955  -0.0419301   0.0000000), wk =   0.2500000
        k(    8) = (  -0.0759910  -0.0000099   0.0000000), wk =   0.1250000
        k(    9) = (  -0.0759910   0.0419252   0.0000000), wk =   0.2500000
        k(   10) = (  -0.0759910  -0.0838800   0.0000000), wk =   0.1250000

     Dense  grid:   566857 G-vectors     FFT dimensions: (  72,  64, 270)

     Smooth grid:   143421 G-vectors     FFT dimensions: (  45,  40, 180)

     Estimated max dynamical RAM per process >     367.48 MB

     Estimated total dynamical RAM >       3.59 GB
     Cannot read rho : file not found

     Initial potential from superposition of free atoms

     starting charge  386.99914, renormalised to  403.00000

     negative rho (up, down):  1.553E-02 0.000E+00


     %%%%%%%%%%%%%%%%%%%%%%%%%%%%%%%%%%%%%%%%%%%%%%%%%%%%%%%%%%%%%%%%%%%%%%%%
     %                                                                      %
     % You are using vdW-DF, which was implemented by the Thonhauser group. %
     % Please cite the following two papers that made this development      %
     % possible and the two reviews that describe the various versions:     %
     %                                                                      %
     %   T. Thonhauser et al., PRL 115, 136402 (2015).                      %
     %   T. Thonhauser et al., PRB 76, 125112 (2007).                       %
     %   K. Berland et al., Rep. Prog. Phys. 78, 066501 (2015).             %
     %   D.C. Langreth et al., J. Phys.: Condens. Matter 21, 084203 (2009). %
     %                                                                      %
     %                                                                      %
     % If you are calculating the stress with vdW-DF, please also cite:     %
     %                                                                      %
     %   R. Sabatini et al., J. Phys.: Condens. Matter 24, 424209 (2012).   %
     %                                                                      %
     %%%%%%%%%%%%%%%%%%%%%%%%%%%%%%%%%%%%%%%%%%%%%%%%%%%%%%%%%%%%%%%%%%%%%%%%


 
     Adding external electric field

     Computed dipole along edir(3) : 
        Dipole              -12.7959 Ry au,        -32.5241 Debye
        Dipole field         -0.0241 Ry au, 
 
        Potential amp.        2.2385 Ry
        Total length         46.3494 bohr
 
     Starting wfcs are  305 atomic wfcs
  @ DRIVER MODE: Message from server: STATUS
  @ DRIVER MODE: Message from server: POSDATA
  @ DRIVER MODE: Reading and sharing cell 
  @ DRIVER MODE: Reading and sharing positions 
  @ DRIVER MODE: Received positions 

     total cpu time spent up to now is       11.9 secs

     Self-consistent Calculation

     iteration #  1     ecut=    29.40 Ry     beta= 0.05
     Davidson diagonalization with overlap
     c_bands:  3 eigenvalues not converged
     c_bands:  3 eigenvalues not converged
     c_bands:  4 eigenvalues not converged
     c_bands:  5 eigenvalues not converged
     c_bands:  1 eigenvalues not converged
     c_bands:  1 eigenvalues not converged
     c_bands:  4 eigenvalues not converged
     c_bands:  3 eigenvalues not converged
     ethr =  1.00E-05,  avg # of iterations = 27.5

     negative rho (up, down):  9.275E-03 0.000E+00
 
     Adding external electric field

     Computed dipole along edir(3) : 
        Dipole               52.8839 Ry au,        134.4175 Debye
        Dipole field          0.0998 Ry au, 
 
        Potential amp.       -9.2512 Ry
        Total length         46.3494 bohr
 

     total cpu time spent up to now is       61.0 secs

     total energy              =   -2369.10935095 Ry
     estimated scf accuracy    <    6884.10473930 Ry

     iteration #  2     ecut=    29.40 Ry     beta= 0.05
     Davidson diagonalization with overlap
     ethr =  1.00E-02,  avg # of iterations = 24.7

     negative rho (up, down):  4.355E-04 0.000E+00
 
     Adding external electric field

     Computed dipole along edir(3) : 
        Dipole               -0.8039 Ry au,         -2.0434 Debye
        Dipole field         -0.0015 Ry au, 
 
        Potential amp.        0.1406 Ry
        Total length         46.3494 bohr
 

     total cpu time spent up to now is      143.0 secs

     total energy              =   -2463.49026111 Ry
     estimated scf accuracy    <   71020.86073163 Ry

     iteration #  3     ecut=    29.40 Ry     beta= 0.05
     Davidson diagonalization with overlap
     ethr =  1.00E-02,  avg # of iterations = 15.8

     negative rho (up, down):  4.900E-04 0.000E+00
 
     Adding external electric field

     Computed dipole along edir(3) : 
        Dipole               -3.8352 Ry au,         -9.7481 Debye
        Dipole field         -0.0072 Ry au, 
 
        Potential amp.        0.6709 Ry
        Total length         46.3494 bohr
 

     total cpu time spent up to now is      194.0 secs

     total energy              =   -2961.98442894 Ry
     estimated scf accuracy    <    5608.12108794 Ry

     iteration #  4     ecut=    29.40 Ry     beta= 0.05
     Davidson diagonalization with overlap
     ethr =  1.00E-02,  avg # of iterations = 12.4

     negative rho (up, down):  5.226E-04 0.000E+00
 
     Adding external electric field

     Computed dipole along edir(3) : 
        Dipole               -5.7849 Ry au,        -14.7038 Debye
        Dipole field         -0.0109 Ry au, 
 
        Potential amp.        1.0120 Ry
        Total length         46.3494 bohr
 

     total cpu time spent up to now is      215.7 secs

     total energy              =   -2959.45291044 Ry
     estimated scf accuracy    <    2036.60483806 Ry

     iteration #  5     ecut=    29.40 Ry     beta= 0.05
     Davidson diagonalization with overlap
     c_bands:  4 eigenvalues not converged
     ethr =  1.00E-02,  avg # of iterations =  8.3

     negative rho (up, down):  6.011E-04 0.000E+00
 
     Adding external electric field

     Computed dipole along edir(3) : 
        Dipole               -8.3231 Ry au,        -21.1552 Debye
        Dipole field         -0.0157 Ry au, 
 
        Potential amp.        1.4560 Ry
        Total length         46.3494 bohr
 

     total cpu time spent up to now is      230.5 secs

     total energy              =   -2945.22827890 Ry
     estimated scf accuracy    <    1167.83796989 Ry

     iteration #  6     ecut=    29.40 Ry     beta= 0.05
     Davidson diagonalization with overlap
     c_bands:  2 eigenvalues not converged
     ethr =  1.00E-02,  avg # of iterations = 15.0

     negative rho (up, down):  5.612E-04 0.000E+00
 
     Adding external electric field

     Computed dipole along edir(3) : 
        Dipole               -6.8029 Ry au,        -17.2913 Debye
        Dipole field         -0.0128 Ry au, 
 
        Potential amp.        1.1901 Ry
        Total length         46.3494 bohr
 

     total cpu time spent up to now is      256.6 secs

     total energy              =   -2977.94102515 Ry
     estimated scf accuracy    <     191.49777494 Ry

     iteration #  7     ecut=    29.40 Ry     beta= 0.05
     Davidson diagonalization with overlap
     ethr =  1.00E-02,  avg # of iterations =  1.3

     negative rho (up, down):  5.701E-04 0.000E+00
 
     Adding external electric field

     Computed dipole along edir(3) : 
        Dipole               -5.9021 Ry au,        -15.0016 Debye
        Dipole field         -0.0111 Ry au, 
 
        Potential amp.        1.0325 Ry
        Total length         46.3494 bohr
 

     total cpu time spent up to now is      267.1 secs

     total energy              =   -2977.56065532 Ry
     estimated scf accuracy    <      38.31634278 Ry

     iteration #  8     ecut=    29.40 Ry     beta= 0.05
     Davidson diagonalization with overlap
     ethr =  9.51E-03,  avg # of iterations =  1.1

     negative rho (up, down):  5.832E-04 0.000E+00
 
     Adding external electric field

     Computed dipole along edir(3) : 
        Dipole               -5.1507 Ry au,        -13.0918 Debye
        Dipole field         -0.0097 Ry au, 
 
        Potential amp.        0.9010 Ry
        Total length         46.3494 bohr
 

     total cpu time spent up to now is      277.4 secs

     total energy              =   -2976.85232694 Ry
     estimated scf accuracy    <      31.07469112 Ry

     iteration #  9     ecut=    29.40 Ry     beta= 0.05
     Davidson diagonalization with overlap
     ethr =  7.71E-03,  avg # of iterations =  5.2

     negative rho (up, down):  5.979E-04 0.000E+00
 
     Adding external electric field

     Computed dipole along edir(3) : 
        Dipole               -4.5002 Ry au,        -11.4384 Debye
        Dipole field         -0.0085 Ry au, 
 
        Potential amp.        0.7872 Ry
        Total length         46.3494 bohr
 

     total cpu time spent up to now is      289.0 secs

     total energy              =   -2976.60372806 Ry
     estimated scf accuracy    <      21.78347201 Ry

     iteration # 10     ecut=    29.40 Ry     beta= 0.05
     Davidson diagonalization with overlap
     c_bands:  3 eigenvalues not converged
     c_bands:  2 eigenvalues not converged
     c_bands:  2 eigenvalues not converged
     c_bands:  1 eigenvalues not converged
     c_bands:  1 eigenvalues not converged
     c_bands:  1 eigenvalues not converged
     ethr =  5.41E-03,  avg # of iterations = 17.2

     negative rho (up, down):  7.761E-04 0.000E+00
 
     Adding external electric field

     Computed dipole along edir(3) : 
        Dipole                0.8269 Ry au,          2.1017 Debye
        Dipole field          0.0016 Ry au, 
 
        Potential amp.       -0.1447 Ry
        Total length         46.3494 bohr
 

     total cpu time spent up to now is      305.1 secs

     total energy              =   -2977.28908245 Ry
     estimated scf accuracy    <      18.76368031 Ry

     iteration # 11     ecut=    29.40 Ry     beta= 0.05
     Davidson diagonalization with overlap
     ethr =  4.66E-03,  avg # of iterations = 13.3

     negative rho (up, down):  7.306E-04 0.000E+00
 
     Adding external electric field

     Computed dipole along edir(3) : 
        Dipole               -3.6789 Ry au,         -9.3508 Debye
        Dipole field         -0.0069 Ry au, 
 
        Potential amp.        0.6436 Ry
        Total length         46.3494 bohr
 

     total cpu time spent up to now is      328.4 secs

     total energy              =   -2946.37260277 Ry
     estimated scf accuracy    <    3453.87454214 Ry

     iteration # 12     ecut=    29.40 Ry     beta= 0.05
     Davidson diagonalization with overlap
     c_bands:  1 eigenvalues not converged
     c_bands:  2 eigenvalues not converged
     ethr =  4.66E-03,  avg # of iterations = 18.3

     negative rho (up, down):  9.289E-04 0.000E+00
 
     Adding external electric field

     Computed dipole along edir(3) : 
        Dipole               -1.5293 Ry au,         -3.8872 Debye
        Dipole field         -0.0029 Ry au, 
 
        Potential amp.        0.2675 Ry
        Total length         46.3494 bohr
 

     total cpu time spent up to now is      356.5 secs

     total energy              =   -2974.58993158 Ry
     estimated scf accuracy    <      12.50920568 Ry

     iteration # 13     ecut=    29.40 Ry     beta= 0.05
     Davidson diagonalization with overlap
     ethr =  3.10E-03,  avg # of iterations =  2.0

     negative rho (up, down):  9.328E-04 0.000E+00
 
     Adding external electric field

     Computed dipole along edir(3) : 
        Dipole               -2.3389 Ry au,         -5.9449 Debye
        Dipole field         -0.0044 Ry au, 
 
        Potential amp.        0.4092 Ry
        Total length         46.3494 bohr
 

     total cpu time spent up to now is      367.7 secs

     total energy              =   -2973.12874267 Ry
     estimated scf accuracy    <     164.56006679 Ry

     iteration # 14     ecut=    29.40 Ry     beta= 0.05
     Davidson diagonalization with overlap
     ethr =  3.10E-03,  avg # of iterations =  2.7

     negative rho (up, down):  1.109E-03 0.000E+00
 
     Adding external electric field

     Computed dipole along edir(3) : 
        Dipole               -2.5706 Ry au,         -6.5337 Debye
        Dipole field         -0.0049 Ry au, 
 
        Potential amp.        0.4497 Ry
        Total length         46.3494 bohr
 

     total cpu time spent up to now is      378.5 secs

     total energy              =   -2973.21349794 Ry
     estimated scf accuracy    <       6.28236947 Ry

     iteration # 15     ecut=    29.40 Ry     beta= 0.05
     Davidson diagonalization with overlap
     c_bands:  5 eigenvalues not converged
     c_bands:  1 eigenvalues not converged
     c_bands:  2 eigenvalues not converged
     ethr =  1.56E-03,  avg # of iterations = 18.4

     negative rho (up, down):  1.115E-03 0.000E+00
 
     Adding external electric field

     Computed dipole along edir(3) : 
        Dipole               -2.6431 Ry au,         -6.7182 Debye
        Dipole field         -0.0050 Ry au, 
 
        Potential amp.        0.4624 Ry
        Total length         46.3494 bohr
 

     total cpu time spent up to now is      399.9 secs

     total energy              =   -2975.34614640 Ry
     estimated scf accuracy    <      76.29492664 Ry

     iteration # 16     ecut=    29.40 Ry     beta= 0.05
     Davidson diagonalization with overlap
     ethr =  1.56E-03,  avg # of iterations =  2.9

     negative rho (up, down):  1.106E-03 0.000E+00
 
     Adding external electric field

     Computed dipole along edir(3) : 
        Dipole               -2.9183 Ry au,         -7.4175 Debye
        Dipole field         -0.0055 Ry au, 
 
        Potential amp.        0.5105 Ry
        Total length         46.3494 bohr
 

     total cpu time spent up to now is      410.9 secs

     total energy              =   -2975.93273477 Ry
     estimated scf accuracy    <     137.90124250 Ry

     iteration # 17     ecut=    29.40 Ry     beta= 0.05
     Davidson diagonalization with overlap
     ethr =  1.56E-03,  avg # of iterations =  2.1

     negative rho (up, down):  1.081E-03 0.000E+00
 
     Adding external electric field

     Computed dipole along edir(3) : 
        Dipole               -3.2798 Ry au,         -8.3365 Debye
        Dipole field         -0.0062 Ry au, 
 
        Potential amp.        0.5738 Ry
        Total length         46.3494 bohr
 

     total cpu time spent up to now is      421.6 secs

     total energy              =   -2975.63568153 Ry
     estimated scf accuracy    <     153.20344769 Ry

     iteration # 18     ecut=    29.40 Ry     beta= 0.05
     Davidson diagonalization with overlap
     ethr =  1.56E-03,  avg # of iterations =  3.4

     negative rho (up, down):  1.161E-03 0.000E+00
 
     Adding external electric field

     Computed dipole along edir(3) : 
        Dipole               -2.1808 Ry au,         -5.5430 Debye
        Dipole field         -0.0041 Ry au, 
 
        Potential amp.        0.3815 Ry
        Total length         46.3494 bohr
 

     total cpu time spent up to now is      433.1 secs

     total energy              =   -2972.33454292 Ry
     estimated scf accuracy    <     174.15640039 Ry

     iteration # 19     ecut=    29.40 Ry     beta= 0.05
     Davidson diagonalization with overlap
     ethr =  1.56E-03,  avg # of iterations =  6.8

     negative rho (up, down):  1.166E-03 0.000E+00
 
     Adding external electric field

     Computed dipole along edir(3) : 
        Dipole               -2.0586 Ry au,         -5.2326 Debye
        Dipole field         -0.0039 Ry au, 
 
        Potential amp.        0.3601 Ry
        Total length         46.3494 bohr
 

     total cpu time spent up to now is      445.8 secs

     total energy              =   -2974.07838629 Ry
     estimated scf accuracy    <       2.46912221 Ry

     iteration # 20     ecut=    29.40 Ry     beta= 0.05
     Davidson diagonalization with overlap
     ethr =  6.13E-04,  avg # of iterations =  6.7

     negative rho (up, down):  1.362E-03 0.000E+00
 
     Adding external electric field

     Computed dipole along edir(3) : 
        Dipole               -1.3592 Ry au,         -3.4547 Debye
        Dipole field         -0.0026 Ry au, 
 
        Potential amp.        0.2378 Ry
        Total length         46.3494 bohr
 

     total cpu time spent up to now is      458.4 secs

     total energy              =   -2973.83174364 Ry
     estimated scf accuracy    <       1.52604147 Ry

     iteration # 21     ecut=    29.40 Ry     beta= 0.05
     Davidson diagonalization with overlap
     c_bands:  2 eigenvalues not converged
     c_bands:  3 eigenvalues not converged
     c_bands:  4 eigenvalues not converged
     c_bands:  3 eigenvalues not converged
     c_bands:  1 eigenvalues not converged
     c_bands:  2 eigenvalues not converged
     c_bands:  2 eigenvalues not converged
     ethr =  3.79E-04,  avg # of iterations = 19.9

     negative rho (up, down):  1.552E-03 0.000E+00
 
     Adding external electric field

     Computed dipole along edir(3) : 
        Dipole               -1.1989 Ry au,         -3.0473 Debye
        Dipole field         -0.0023 Ry au, 
 
        Potential amp.        0.2097 Ry
        Total length         46.3494 bohr
 

     total cpu time spent up to now is      482.3 secs

     total energy              =   -2973.99833000 Ry
     estimated scf accuracy    <       1.14924890 Ry

     iteration # 22     ecut=    29.40 Ry     beta= 0.05
     Davidson diagonalization with overlap
     ethr =  2.85E-04,  avg # of iterations =  8.6

     negative rho (up, down):  1.534E-03 0.000E+00
 
     Adding external electric field

     Computed dipole along edir(3) : 
        Dipole               -1.0562 Ry au,         -2.6845 Debye
        Dipole field         -0.0020 Ry au, 
 
        Potential amp.        0.1848 Ry
        Total length         46.3494 bohr
 

     total cpu time spent up to now is      495.4 secs

     total energy              =   -2974.05890503 Ry
     estimated scf accuracy    <       0.95242964 Ry

     iteration # 23     ecut=    29.40 Ry     beta= 0.05
     Davidson diagonalization with overlap
     ethr =  2.36E-04,  avg # of iterations =  1.8

     negative rho (up, down):  1.588E-03 0.000E+00
 
     Adding external electric field

     Computed dipole along edir(3) : 
        Dipole               -0.9632 Ry au,         -2.4481 Debye
        Dipole field         -0.0018 Ry au, 
 
        Potential amp.        0.1685 Ry
        Total length         46.3494 bohr
 

     total cpu time spent up to now is      506.4 secs

     total energy              =   -2973.98949050 Ry
     estimated scf accuracy    <       0.66695512 Ry

     iteration # 24     ecut=    29.40 Ry     beta= 0.05
     Davidson diagonalization with overlap
     c_bands:  2 eigenvalues not converged
     c_bands:  4 eigenvalues not converged
     c_bands:  1 eigenvalues not converged
     c_bands:  1 eigenvalues not converged
     c_bands:  1 eigenvalues not converged
     ethr =  1.65E-04,  avg # of iterations = 15.1

     negative rho (up, down):  2.135E-03 0.000E+00
 
     Adding external electric field

     Computed dipole along edir(3) : 
        Dipole               -0.9035 Ry au,         -2.2965 Debye
        Dipole field         -0.0017 Ry au, 
 
        Potential amp.        0.1581 Ry
        Total length         46.3494 bohr
 

     total cpu time spent up to now is      522.5 secs

     total energy              =   -2973.90122517 Ry
     estimated scf accuracy    <       0.43887260 Ry

     iteration # 25     ecut=    29.40 Ry     beta= 0.05
     Davidson diagonalization with overlap
     c_bands:  1 eigenvalues not converged
     c_bands:  2 eigenvalues not converged
     c_bands:  1 eigenvalues not converged
     c_bands:  1 eigenvalues not converged
     ethr =  1.09E-04,  avg # of iterations = 18.5

     negative rho (up, down):  2.237E-03 0.000E+00
 
     Adding external electric field

     Computed dipole along edir(3) : 
        Dipole               -0.7022 Ry au,         -1.7849 Debye
        Dipole field         -0.0013 Ry au, 
 
        Potential amp.        0.1228 Ry
        Total length         46.3494 bohr
 

     total cpu time spent up to now is      548.1 secs

     total energy              =   -2974.14985928 Ry
     estimated scf accuracy    <       3.96456614 Ry

     iteration # 26     ecut=    29.40 Ry     beta= 0.05
     Davidson diagonalization with overlap
     ethr =  1.09E-04,  avg # of iterations =  1.4

     negative rho (up, down):  2.269E-03 0.000E+00
 
     Adding external electric field

     Computed dipole along edir(3) : 
        Dipole               -0.6132 Ry au,         -1.5585 Debye
        Dipole field         -0.0012 Ry au, 
 
        Potential amp.        0.1073 Ry
        Total length         46.3494 bohr
 

     total cpu time spent up to now is      558.7 secs

     total energy              =   -2974.11215298 Ry
     estimated scf accuracy    <       1.89820733 Ry

     iteration # 27     ecut=    29.40 Ry     beta= 0.05
     Davidson diagonalization with overlap
     ethr =  1.09E-04,  avg # of iterations =  2.1

     negative rho (up, down):  2.810E-03 0.000E+00
 
     Adding external electric field

     Computed dipole along edir(3) : 
        Dipole               -0.0812 Ry au,         -0.2065 Debye
        Dipole field         -0.0002 Ry au, 
 
        Potential amp.        0.0142 Ry
        Total length         46.3494 bohr
 

     total cpu time spent up to now is      569.3 secs

     total energy              =   -2973.91365736 Ry
     estimated scf accuracy    <       1.52070658 Ry

     iteration # 28     ecut=    29.40 Ry     beta= 0.05
     Davidson diagonalization with overlap
     c_bands:  1 eigenvalues not converged
     c_bands:  1 eigenvalues not converged
     c_bands:  1 eigenvalues not converged
     ethr =  1.09E-04,  avg # of iterations = 15.9

     negative rho (up, down):  3.328E-03 0.000E+00
 
     Adding external electric field

     Computed dipole along edir(3) : 
        Dipole                0.2506 Ry au,          0.6370 Debye
        Dipole field          0.0005 Ry au, 
 
        Potential amp.       -0.0438 Ry
        Total length         46.3494 bohr
 

     total cpu time spent up to now is      588.5 secs

     total energy              =   -2973.95416144 Ry
     estimated scf accuracy    <       0.38125707 Ry

     iteration # 29     ecut=    29.40 Ry     beta= 0.05
     Davidson diagonalization with overlap
     c_bands:  1 eigenvalues not converged
     c_bands:  1 eigenvalues not converged
     c_bands:  5 eigenvalues not converged
     c_bands:  1 eigenvalues not converged
     c_bands:  3 eigenvalues not converged
     ethr =  9.46E-05,  avg # of iterations = 16.2

     negative rho (up, down):  3.518E-03 0.000E+00
 
     Adding external electric field

     Computed dipole along edir(3) : 
        Dipole                0.3148 Ry au,          0.8002 Debye
        Dipole field          0.0006 Ry au, 
 
        Potential amp.       -0.0551 Ry
        Total length         46.3494 bohr
 

     total cpu time spent up to now is      604.2 secs

     total energy              =   -2973.97061365 Ry
     estimated scf accuracy    <       0.07301139 Ry

     iteration # 30     ecut=    29.40 Ry     beta= 0.05
     Davidson diagonalization with overlap
     c_bands:  2 eigenvalues not converged
     c_bands:  1 eigenvalues not converged
     c_bands:  4 eigenvalues not converged
     c_bands:  3 eigenvalues not converged
     c_bands:  2 eigenvalues not converged
     c_bands:  1 eigenvalues not converged
     c_bands:  2 eigenvalues not converged
     ethr =  1.81E-05,  avg # of iterations = 19.5

     negative rho (up, down):  3.515E-03 0.000E+00
 
     Adding external electric field

     Computed dipole along edir(3) : 
        Dipole                0.2392 Ry au,          0.6081 Debye
        Dipole field          0.0005 Ry au, 
 
        Potential amp.       -0.0419 Ry
        Total length         46.3494 bohr
 

     total cpu time spent up to now is      627.0 secs

     total energy              =   -2973.97555715 Ry
     estimated scf accuracy    <       0.08416176 Ry

     iteration # 31     ecut=    29.40 Ry     beta= 0.05
     Davidson diagonalization with overlap
     c_bands:  1 eigenvalues not converged
     ethr =  1.81E-05,  avg # of iterations = 13.8

     negative rho (up, down):  4.088E-03 0.000E+00
 
     Adding external electric field

     Computed dipole along edir(3) : 
        Dipole                0.4338 Ry au,          1.1027 Debye
        Dipole field          0.0008 Ry au, 
 
        Potential amp.       -0.0759 Ry
        Total length         46.3494 bohr
 

     total cpu time spent up to now is      642.8 secs

     total energy              =   -2973.97724405 Ry
     estimated scf accuracy    <       0.15751936 Ry

     iteration # 32     ecut=    29.40 Ry     beta= 0.05
     Davidson diagonalization with overlap
     ethr =  1.81E-05,  avg # of iterations =  4.9

     negative rho (up, down):  6.186E-03 0.000E+00
 
     Adding external electric field

     Computed dipole along edir(3) : 
        Dipole                0.7994 Ry au,          2.0319 Debye
        Dipole field          0.0015 Ry au, 
 
        Potential amp.       -0.1398 Ry
        Total length         46.3494 bohr
 

     total cpu time spent up to now is      654.8 secs

     total energy              =   -2973.98250201 Ry
     estimated scf accuracy    <       0.04278460 Ry

     iteration # 33     ecut=    29.40 Ry     beta= 0.05
     Davidson diagonalization with overlap
     c_bands:  1 eigenvalues not converged
     c_bands:  2 eigenvalues not converged
     c_bands:  3 eigenvalues not converged
     c_bands:  4 eigenvalues not converged
     c_bands:  2 eigenvalues not converged
     c_bands:  4 eigenvalues not converged
     c_bands:  3 eigenvalues not converged
     c_bands:  2 eigenvalues not converged
     ethr =  1.06E-05,  avg # of iterations = 22.0

     negative rho (up, down):  6.800E-03 0.000E+00
 
     Adding external electric field

     Computed dipole along edir(3) : 
        Dipole                0.8063 Ry au,          2.0494 Debye
        Dipole field          0.0015 Ry au, 
 
        Potential amp.       -0.1410 Ry
        Total length         46.3494 bohr
 

     total cpu time spent up to now is      679.3 secs

     total energy              =   -2973.99027046 Ry
     estimated scf accuracy    <       0.42184403 Ry

     iteration # 34     ecut=    29.40 Ry     beta= 0.05
     Davidson diagonalization with overlap
     c_bands:  1 eigenvalues not converged
     ethr =  1.06E-05,  avg # of iterations =  9.4

     negative rho (up, down):  7.536E-03 0.000E+00
 
     Adding external electric field

     Computed dipole along edir(3) : 
        Dipole                0.7882 Ry au,          2.0034 Debye
        Dipole field          0.0015 Ry au, 
 
        Potential amp.       -0.1379 Ry
        Total length         46.3494 bohr
 

     total cpu time spent up to now is      692.4 secs

     total energy              =   -2973.98290772 Ry
     estimated scf accuracy    <       0.26435976 Ry

     iteration # 35     ecut=    29.40 Ry     beta= 0.05
     Davidson diagonalization with overlap
     c_bands:  3 eigenvalues not converged
     c_bands:  2 eigenvalues not converged
     c_bands:  1 eigenvalues not converged
     ethr =  1.06E-05,  avg # of iterations = 15.0

     negative rho (up, down):  7.014E-03 0.000E+00
 
     Adding external electric field

     Computed dipole along edir(3) : 
        Dipole                0.6937 Ry au,          1.7632 Debye
        Dipole field          0.0013 Ry au, 
 
        Potential amp.       -0.1214 Ry
        Total length         46.3494 bohr
 

     total cpu time spent up to now is      709.0 secs

     total energy              =   -2973.97360865 Ry
     estimated scf accuracy    <       0.10491930 Ry

     iteration # 36     ecut=    29.40 Ry     beta= 0.05
     Davidson diagonalization with overlap
     c_bands:  1 eigenvalues not converged
     c_bands:  3 eigenvalues not converged
     c_bands:  3 eigenvalues not converged
     c_bands:  1 eigenvalues not converged
     c_bands:  1 eigenvalues not converged
     c_bands:  1 eigenvalues not converged
     ethr =  1.06E-05,  avg # of iterations = 19.1

     negative rho (up, down):  8.348E-03 0.000E+00
 
     Adding external electric field

     Computed dipole along edir(3) : 
        Dipole                0.8469 Ry au,          2.1527 Debye
        Dipole field          0.0016 Ry au, 
 
        Potential amp.       -0.1482 Ry
        Total length         46.3494 bohr
 

     total cpu time spent up to now is      729.7 secs

     total energy              =   -2973.97942942 Ry
     estimated scf accuracy    <       0.03848724 Ry

     iteration # 37     ecut=    29.40 Ry     beta= 0.05
     Davidson diagonalization with overlap
     c_bands:  1 eigenvalues not converged
     c_bands:  1 eigenvalues not converged
     c_bands:  1 eigenvalues not converged
     ethr =  9.55E-06,  avg # of iterations = 13.7

     negative rho (up, down):  9.331E-03 0.000E+00
 
     Adding external electric field

     Computed dipole along edir(3) : 
        Dipole                0.8784 Ry au,          2.2328 Debye
        Dipole field          0.0017 Ry au, 
 
        Potential amp.       -0.1537 Ry
        Total length         46.3494 bohr
 

     total cpu time spent up to now is      744.7 secs

     total energy              =   -2973.98145536 Ry
     estimated scf accuracy    <       0.01427530 Ry

     iteration # 38     ecut=    29.40 Ry     beta= 0.05
     Davidson diagonalization with overlap
     c_bands:  2 eigenvalues not converged
     c_bands:  1 eigenvalues not converged
     c_bands:  1 eigenvalues not converged
     c_bands:  1 eigenvalues not converged
     ethr =  3.54E-06,  avg # of iterations = 16.9

     negative rho (up, down):  1.105E-02 0.000E+00
 
     Adding external electric field

     Computed dipole along edir(3) : 
        Dipole                0.8947 Ry au,          2.2742 Debye
        Dipole field          0.0017 Ry au, 
 
        Potential amp.       -0.1565 Ry
        Total length         46.3494 bohr
 

     total cpu time spent up to now is      762.1 secs

     total energy              =   -2973.98225293 Ry
     estimated scf accuracy    <       0.00413361 Ry

     iteration # 39     ecut=    29.40 Ry     beta= 0.05
     Davidson diagonalization with overlap
     ethr =  1.03E-06,  avg # of iterations =  9.9

     negative rho (up, down):  1.294E-02 0.000E+00
 
     Adding external electric field

     Computed dipole along edir(3) : 
        Dipole                0.9226 Ry au,          2.3450 Debye
        Dipole field          0.0017 Ry au, 
 
        Potential amp.       -0.1614 Ry
        Total length         46.3494 bohr
 

     total cpu time spent up to now is      776.4 secs

     total energy              =   -2973.98265265 Ry
     estimated scf accuracy    <       0.00199340 Ry

     iteration # 40     ecut=    29.40 Ry     beta= 0.05
     Davidson diagonalization with overlap
     c_bands:  1 eigenvalues not converged
     ethr =  4.95E-07,  avg # of iterations = 14.8

     negative rho (up, down):  1.347E-02 0.000E+00
 
     Adding external electric field

     Computed dipole along edir(3) : 
        Dipole                0.9109 Ry au,          2.3154 Debye
        Dipole field          0.0017 Ry au, 
 
        Potential amp.       -0.1594 Ry
        Total length         46.3494 bohr
 

     total cpu time spent up to now is      791.8 secs

     total energy              =   -2973.98271400 Ry
     estimated scf accuracy    <       0.00167747 Ry

     iteration # 41     ecut=    29.40 Ry     beta= 0.05
     Davidson diagonalization with overlap
     ethr =  4.16E-07,  avg # of iterations = 10.8

     negative rho (up, down):  1.368E-02 0.000E+00
 
     Adding external electric field

     Computed dipole along edir(3) : 
        Dipole                0.9155 Ry au,          2.3270 Debye
        Dipole field          0.0017 Ry au, 
 
        Potential amp.       -0.1602 Ry
        Total length         46.3494 bohr
 

     total cpu time spent up to now is      806.0 secs

     total energy              =   -2973.98286615 Ry
     estimated scf accuracy    <       0.00046937 Ry

     iteration # 42     ecut=    29.40 Ry     beta= 0.05
     Davidson diagonalization with overlap
     ethr =  1.16E-07,  avg # of iterations =  9.9

     negative rho (up, down):  1.346E-02 0.000E+00
 
     Adding external electric field

     Computed dipole along edir(3) : 
        Dipole                0.9079 Ry au,          2.3076 Debye
        Dipole field          0.0017 Ry au, 
 
        Potential amp.       -0.1588 Ry
        Total length         46.3494 bohr
 

     total cpu time spent up to now is      821.5 secs

     total energy              =   -2973.98290295 Ry
     estimated scf accuracy    <       0.00034265 Ry

     iteration # 43     ecut=    29.40 Ry     beta= 0.05
     Davidson diagonalization with overlap
     ethr =  8.50E-08,  avg # of iterations =  7.4

     negative rho (up, down):  1.410E-02 0.000E+00
 
     Adding external electric field

     Computed dipole along edir(3) : 
        Dipole                0.9169 Ry au,          2.3306 Debye
        Dipole field          0.0017 Ry au, 
 
        Potential amp.       -0.1604 Ry
        Total length         46.3494 bohr
 

     total cpu time spent up to now is      834.3 secs

     total energy              =   -2973.98296562 Ry
     estimated scf accuracy    <       0.00024772 Ry

     iteration # 44     ecut=    29.40 Ry     beta= 0.05
     Davidson diagonalization with overlap
     ethr =  6.15E-08,  avg # of iterations = 11.7

     negative rho (up, down):  1.496E-02 0.000E+00
 
     Adding external electric field

     Computed dipole along edir(3) : 
        Dipole                0.9190 Ry au,          2.3359 Debye
        Dipole field          0.0017 Ry au, 
 
        Potential amp.       -0.1608 Ry
        Total length         46.3494 bohr
 

     total cpu time spent up to now is      849.3 secs

     total energy              =   -2973.98303442 Ry
     estimated scf accuracy    <       0.00015090 Ry

     iteration # 45     ecut=    29.40 Ry     beta= 0.05
     Davidson diagonalization with overlap
     ethr =  3.74E-08,  avg # of iterations =  7.8

     negative rho (up, down):  1.530E-02 0.000E+00
 
     Adding external electric field

     Computed dipole along edir(3) : 
        Dipole                0.9205 Ry au,          2.3397 Debye
        Dipole field          0.0017 Ry au, 
 
        Potential amp.       -0.1610 Ry
        Total length         46.3494 bohr
 

     total cpu time spent up to now is      862.5 secs

     total energy              =   -2973.98307111 Ry
     estimated scf accuracy    <       0.00006734 Ry

     iteration # 46     ecut=    29.40 Ry     beta= 0.05
     Davidson diagonalization with overlap
     ethr =  1.67E-08,  avg # of iterations = 10.1

     negative rho (up, down):  1.508E-02 0.000E+00
 
     Adding external electric field

     Computed dipole along edir(3) : 
        Dipole                0.9183 Ry au,          2.3342 Debye
        Dipole field          0.0017 Ry au, 
 
        Potential amp.       -0.1607 Ry
        Total length         46.3494 bohr
 

     total cpu time spent up to now is      878.4 secs

     total energy              =   -2973.98308873 Ry
     estimated scf accuracy    <       0.00004608 Ry

     iteration # 47     ecut=    29.40 Ry     beta= 0.05
     Davidson diagonalization with overlap
     ethr =  1.14E-08,  avg # of iterations =  8.2

     negative rho (up, down):  1.517E-02 0.000E+00
 
     Adding external electric field

     Computed dipole along edir(3) : 
        Dipole                0.9204 Ry au,          2.3395 Debye
        Dipole field          0.0017 Ry au, 
 
        Potential amp.       -0.1610 Ry
        Total length         46.3494 bohr
 

     total cpu time spent up to now is      895.0 secs

     total energy              =   -2973.98310952 Ry
     estimated scf accuracy    <       0.00004033 Ry

     iteration # 48     ecut=    29.40 Ry     beta= 0.05
     Davidson diagonalization with overlap
     ethr =  1.00E-08,  avg # of iterations =  7.4

     negative rho (up, down):  1.528E-02 0.000E+00
 
     Adding external electric field

     Computed dipole along edir(3) : 
        Dipole                0.9225 Ry au,          2.3448 Debye
        Dipole field          0.0017 Ry au, 
 
        Potential amp.       -0.1614 Ry
        Total length         46.3494 bohr
 

     total cpu time spent up to now is      909.5 secs

     total energy              =   -2973.98313139 Ry
     estimated scf accuracy    <       0.00002198 Ry

     iteration # 49     ecut=    29.40 Ry     beta= 0.05
     Davidson diagonalization with overlap
     ethr =  5.45E-09,  avg # of iterations = 11.1

     negative rho (up, down):  1.528E-02 0.000E+00
 
     Adding external electric field

     Computed dipole along edir(3) : 
        Dipole                0.9230 Ry au,          2.3460 Debye
        Dipole field          0.0017 Ry au, 
 
        Potential amp.       -0.1615 Ry
        Total length         46.3494 bohr
 

     total cpu time spent up to now is      926.3 secs

     total energy              =   -2973.98314410 Ry
     estimated scf accuracy    <       0.00003227 Ry

     iteration # 50     ecut=    29.40 Ry     beta= 0.05
     Davidson diagonalization with overlap
     ethr =  5.45E-09,  avg # of iterations =  8.5

     negative rho (up, down):  1.535E-02 0.000E+00
 
     Adding external electric field

     Computed dipole along edir(3) : 
        Dipole                0.9233 Ry au,          2.3469 Debye
        Dipole field          0.0017 Ry au, 
 
        Potential amp.       -0.1615 Ry
        Total length         46.3494 bohr
 

     total cpu time spent up to now is      943.0 secs

     total energy              =   -2973.98316374 Ry
     estimated scf accuracy    <       0.00000526 Ry

     iteration # 51     ecut=    29.40 Ry     beta= 0.05
     Davidson diagonalization with overlap
     ethr =  1.30E-09,  avg # of iterations =  8.5

     negative rho (up, down):  1.538E-02 0.000E+00
 
     Adding external electric field

     Computed dipole along edir(3) : 
        Dipole                0.9235 Ry au,          2.3473 Debye
        Dipole field          0.0017 Ry au, 
 
        Potential amp.       -0.1615 Ry
        Total length         46.3494 bohr
 

     total cpu time spent up to now is      959.9 secs

     total energy              =   -2973.98317613 Ry
     estimated scf accuracy    <       0.00000633 Ry

     iteration # 52     ecut=    29.40 Ry     beta= 0.05
     Davidson diagonalization with overlap
     ethr =  1.30E-09,  avg # of iterations =  4.8

     negative rho (up, down):  1.541E-02 0.000E+00
 
     Adding external electric field

     Computed dipole along edir(3) : 
        Dipole                0.9238 Ry au,          2.3480 Debye
        Dipole field          0.0017 Ry au, 
 
        Potential amp.       -0.1616 Ry
        Total length         46.3494 bohr
 

     total cpu time spent up to now is      971.8 secs

     total energy              =   -2973.98318702 Ry
     estimated scf accuracy    <       0.00000459 Ry

     iteration # 53     ecut=    29.40 Ry     beta= 0.05
     Davidson diagonalization with overlap
     ethr =  1.14E-09,  avg # of iterations =  2.3

     negative rho (up, down):  1.542E-02 0.000E+00
 
     Adding external electric field

     Computed dipole along edir(3) : 
        Dipole                0.9240 Ry au,          2.3485 Debye
        Dipole field          0.0017 Ry au, 
 
        Potential amp.       -0.1616 Ry
        Total length         46.3494 bohr
 

     total cpu time spent up to now is      983.1 secs

     total energy              =   -2973.98319705 Ry
     estimated scf accuracy    <       0.00000360 Ry

     iteration # 54     ecut=    29.40 Ry     beta= 0.05
     Davidson diagonalization with overlap
     ethr =  8.93E-10,  avg # of iterations =  1.1

     negative rho (up, down):  1.543E-02 0.000E+00
 
     Adding external electric field

     Computed dipole along edir(3) : 
        Dipole                0.9249 Ry au,          2.3509 Debye
        Dipole field          0.0017 Ry au, 
 
        Potential amp.       -0.1618 Ry
        Total length         46.3494 bohr
 

     total cpu time spent up to now is      993.4 secs

     total energy              =   -2973.98320605 Ry
     estimated scf accuracy    <       0.00000316 Ry

     iteration # 55     ecut=    29.40 Ry     beta= 0.05
     Davidson diagonalization with overlap
     ethr =  7.83E-10,  avg # of iterations =  9.6

     negative rho (up, down):  1.543E-02 0.000E+00
 
     Adding external electric field

     Computed dipole along edir(3) : 
        Dipole                0.9253 Ry au,          2.3520 Debye
        Dipole field          0.0017 Ry au, 
 
        Potential amp.       -0.1619 Ry
        Total length         46.3494 bohr
 

     total cpu time spent up to now is     1010.5 secs

     total energy              =   -2973.98321446 Ry
     estimated scf accuracy    <       0.00000269 Ry

     iteration # 56     ecut=    29.40 Ry     beta= 0.05
     Davidson diagonalization with overlap
     ethr =  6.67E-10,  avg # of iterations =  5.4

     negative rho (up, down):  1.541E-02 0.000E+00
 
     Adding external electric field

     Computed dipole along edir(3) : 
        Dipole                0.9252 Ry au,          2.3517 Debye
        Dipole field          0.0017 Ry au, 
 
        Potential amp.       -0.1619 Ry
        Total length         46.3494 bohr
 

     total cpu time spent up to now is     1023.2 secs

     total energy              =   -2973.98322205 Ry
     estimated scf accuracy    <       0.00000064 Ry

     iteration # 57     ecut=    29.40 Ry     beta= 0.05
     Davidson diagonalization with overlap
     ethr =  1.60E-10,  avg # of iterations = 11.1

     negative rho (up, down):  1.540E-02 0.000E+00
 
     Adding external electric field

     Computed dipole along edir(3) : 
        Dipole                0.9251 Ry au,          2.3514 Debye
        Dipole field          0.0017 Ry au, 
 
        Potential amp.       -0.1618 Ry
        Total length         46.3494 bohr
 

     total cpu time spent up to now is     1039.3 secs

     total energy              =   -2973.98322873 Ry
     estimated scf accuracy    <       0.00000041 Ry

     iteration # 58     ecut=    29.40 Ry     beta= 0.05
     Davidson diagonalization with overlap
     ethr =  1.03E-10,  avg # of iterations =  2.8

     negative rho (up, down):  1.538E-02 0.000E+00
 
     Adding external electric field

     Computed dipole along edir(3) : 
        Dipole                0.9248 Ry au,          2.3505 Debye
        Dipole field          0.0017 Ry au, 
 
        Potential amp.       -0.1618 Ry
        Total length         46.3494 bohr
 

     total cpu time spent up to now is     1050.7 secs

     total energy              =   -2973.98323470 Ry
     estimated scf accuracy    <       0.00000032 Ry

     iteration # 59     ecut=    29.40 Ry     beta= 0.05
     Davidson diagonalization with overlap
     ethr =  7.84E-11,  avg # of iterations =  9.4

     negative rho (up, down):  1.536E-02 0.000E+00
 
     Adding external electric field

     Computed dipole along edir(3) : 
        Dipole                0.9246 Ry au,          2.3500 Debye
        Dipole field          0.0017 Ry au, 
 
        Potential amp.       -0.1617 Ry
        Total length         46.3494 bohr
 

     total cpu time spent up to now is     1064.8 secs

     total energy              =   -2973.98324009 Ry
     estimated scf accuracy    <       0.00000023 Ry

     iteration # 60     ecut=    29.40 Ry     beta= 0.05
     Davidson diagonalization with overlap
     ethr =  5.79E-11,  avg # of iterations =  9.0

     negative rho (up, down):  1.534E-02 0.000E+00
 
     Adding external electric field

     Computed dipole along edir(3) : 
        Dipole                0.9244 Ry au,          2.3496 Debye
        Dipole field          0.0017 Ry au, 
 
        Potential amp.       -0.1617 Ry
        Total length         46.3494 bohr
 

     total cpu time spent up to now is     1079.1 secs

     total energy              =   -2973.98324505 Ry
     estimated scf accuracy    <       0.00000011 Ry

     iteration # 61     ecut=    29.40 Ry     beta= 0.05
     Davidson diagonalization with overlap
     ethr =  2.72E-11,  avg # of iterations =  6.8

     negative rho (up, down):  1.534E-02 0.000E+00
 
     Adding external electric field

     Computed dipole along edir(3) : 
        Dipole                0.9243 Ry au,          2.3493 Debye
        Dipole field          0.0017 Ry au, 
 
        Potential amp.       -0.1617 Ry
        Total length         46.3494 bohr
 

     total cpu time spent up to now is     1092.1 secs

     total energy              =   -2973.98324946 Ry
     estimated scf accuracy    <       0.00000008 Ry

     iteration # 62     ecut=    29.40 Ry     beta= 0.05
     Davidson diagonalization with overlap
     ethr =  1.88E-11,  avg # of iterations =  7.2

     negative rho (up, down):  1.540E-02 0.000E+00
 
     Adding external electric field

     Computed dipole along edir(3) : 
        Dipole                0.9235 Ry au,          2.3474 Debye
        Dipole field          0.0017 Ry au, 
 
        Potential amp.       -0.1616 Ry
        Total length         46.3494 bohr
 

     total cpu time spent up to now is     1105.0 secs

     End of self-consistent calculation

          k = 0.0000 0.0000 0.0000 ( 18029 PWs)   bands (ev):

   -55.6132 -55.5851 -55.5791 -55.5471 -55.4946 -55.4830 -55.4530 -55.4307
   -55.3967 -55.3921 -55.3581 -55.3350 -55.0417 -54.9909 -54.5928 -54.5588
   -32.1291 -32.0972 -31.9854 -31.9305 -31.9169 -31.9050 -31.8834 -31.8706
   -31.8576 -31.8167 -31.7656 -31.7616 -31.7331 -31.7327 -31.7289 -31.7191
   -31.7145 -31.7112 -31.7080 -31.7059 -31.6753 -31.6705 -31.6617 -31.6340
   -31.6245 -31.6236 -31.6162 -31.6132 -31.5981 -31.5895 -31.5724 -31.5593
   -31.5468 -31.5406 -31.5353 -31.5055 -31.5030 -31.3054 -31.2658 -31.2423
   -31.1893 -31.1469 -30.9997 -30.9117 -30.8893 -30.8168 -30.7303 -30.6188
   -18.6655 -17.9049 -16.3329 -16.0906 -15.8509 -15.7738 -15.7415 -15.5279
   -15.4250 -15.3694 -15.2340 -15.1852 -15.1716 -15.1513 -15.1264 -15.0920
   -15.0661 -15.0526 -15.0455 -15.0290 -15.0037 -14.9769 -14.9566 -14.9528
   -14.9118 -14.8430 -14.7736 -14.7479 -14.6859 -14.6738 -14.2343 -13.0940
   -12.9775 -12.0705  -7.8366  -6.4496  -5.2956  -4.4801  -3.7067  -3.5687
    -3.5210  -3.4714  -3.4626  -3.2736  -3.1889  -3.0583  -2.8973  -2.8500
    -2.7795  -2.7416  -2.7027  -2.6399  -2.5991  -2.4930  -2.4555  -2.4257
    -2.4103  -2.3653  -2.3600  -2.3560  -2.2944  -2.2579  -2.1793  -2.1531
    -2.0738  -2.0040  -1.9755  -1.9486  -1.9271  -1.9098  -1.9057  -1.8574
    -1.8562  -1.8543  -1.7820  -1.7336  -1.6602  -1.6136  -1.5554  -1.4176
    -1.3759  -1.2657  -1.2206  -1.0994  -1.0955  -1.0727  -1.0484  -1.0093
    -1.0014  -0.8779  -0.7927  -0.7431  -0.7077  -0.6455  -0.5420  -0.5214
    -0.4323  -0.4272  -0.3734  -0.3601  -0.3447  -0.3153  -0.2369  -0.1244
    -0.1057  -0.0452   0.0040   0.0669   0.1105   0.1353   0.1733   0.2231
     0.2467   0.2878   0.3143   0.3254   0.3586   0.3962   0.4185   0.4966
     0.5694   0.6190   0.6681   0.7086   0.7126   0.8903   1.0026   1.0416
     1.1726   1.1936   1.3631   1.4308   1.5008   1.6226   2.0009   2.0465
     2.2174   3.4946   3.6083   3.6326   3.6427   3.7460   3.8795   3.9621
     4.0029   4.0272   4.0662

          k = 0.0000 0.0419 0.0000 ( 17933 PWs)   bands (ev):

   -55.6081 -55.5840 -55.5802 -55.5518 -55.4906 -55.4820 -55.4568 -55.4256
   -55.4016 -55.3872 -55.3628 -55.3360 -55.0385 -54.9939 -54.5878 -54.5637
   -32.0721 -32.0432 -31.9306 -31.9003 -31.8969 -31.8674 -31.8557 -31.8429
   -31.8302 -31.8045 -31.7944 -31.7757 -31.7646 -31.7518 -31.7441 -31.7246
   -31.7212 -31.7046 -31.7015 -31.6985 -31.6844 -31.6727 -31.6628 -31.6540
   -31.6390 -31.6375 -31.6178 -31.6117 -31.5941 -31.5927 -31.5766 -31.5685
   -31.5666 -31.5616 -31.5572 -31.5501 -31.5408 -31.2996 -31.2642 -31.2430
   -31.2125 -31.1759 -30.9455 -30.9083 -30.8924 -30.8042 -30.7428 -30.6760
   -18.6648 -17.8986 -16.1962 -15.9698 -15.7403 -15.6722 -15.6389 -15.4810
   -15.4478 -15.3846 -15.3380 -15.2086 -15.1450 -15.1312 -15.1147 -15.1081
   -15.0923 -15.0835 -15.0716 -15.0431 -15.0255 -15.0092 -14.9670 -14.9458
   -14.9177 -14.8550 -14.8288 -14.8064 -14.7397 -14.7295 -14.3612 -13.0981
   -13.0170 -12.0459  -7.7997  -6.4485  -5.3308  -4.5213  -3.5158  -3.4011
    -3.3453  -3.3165  -3.3015  -3.1273  -3.1127  -2.8755  -2.8419  -2.7725
    -2.7558  -2.6720  -2.6493  -2.6419  -2.5814  -2.5675  -2.5289  -2.5079
    -2.4774  -2.4511  -2.3939  -2.3677  -2.3493  -2.3215  -2.2874  -2.2724
    -2.2472  -2.1436  -2.1229  -2.1120  -2.0575  -2.0356  -1.9779  -1.9198
    -1.8413  -1.8324  -1.7251  -1.6862  -1.5823  -1.4937  -1.4085  -1.3441
    -1.3058  -1.2671  -1.2187  -1.0790  -0.9704  -0.9516  -0.8948  -0.8378
    -0.8327  -0.7811  -0.7049  -0.6555  -0.6238  -0.5674  -0.5357  -0.5098
    -0.4884  -0.4529  -0.4252  -0.4059  -0.3802  -0.3287  -0.2545  -0.1975
    -0.1424  -0.1190  -0.0778  -0.0270   0.0154   0.0835   0.1338   0.1572
     0.1881   0.2108   0.2297   0.2515   0.2815   0.3632   0.3910   0.4676
     0.5145   0.5510   0.6237   0.6567   0.7112   0.7342   0.7596   0.9279
     1.0118   1.0489   1.0813   1.3802   1.6193   1.7068   1.9554   1.9583
     2.2155   3.7101   3.7338   3.8060   3.8668   3.8907   3.9283   3.9748
     4.0179   4.0517   4.0632

          k = 0.0000-0.0839 0.0000 ( 17884 PWs)   bands (ev):

   -55.5962 -55.5959 -55.5725 -55.5595 -55.4854 -55.4809 -55.4619 -55.4141
   -55.4130 -55.3775 -55.3724 -55.3369 -55.0348 -54.9976 -54.5759 -54.5755
   -31.9449 -31.9195 -31.9111 -31.9108 -31.8905 -31.8902 -31.8204 -31.8121
   -31.8058 -31.7860 -31.7849 -31.7806 -31.7667 -31.7372 -31.7309 -31.7218
   -31.7183 -31.7179 -31.7158 -31.7021 -31.6970 -31.6943 -31.6750 -31.6726
   -31.6707 -31.6687 -31.6640 -31.6454 -31.6437 -31.6078 -31.5994 -31.5908
   -31.5892 -31.5607 -31.5572 -31.5488 -31.5190 -31.2937 -31.2684 -31.2613
   -31.2423 -31.1902 -30.9002 -30.9000 -30.8127 -30.8124 -30.7736 -30.7734
   -18.6641 -17.8924 -15.8624 -15.8389 -15.6929 -15.6542 -15.5178 -15.4743
   -15.4054 -15.3929 -15.3594 -15.3555 -15.3050 -15.2346 -15.1600 -15.1383
   -15.0758 -15.0489 -14.9989 -14.9783 -14.9769 -14.9724 -14.9518 -14.9490
   -14.9351 -14.9293 -14.8782 -14.8672 -14.8444 -14.6823 -14.5962 -13.0798
   -13.0796 -12.0233  -7.7619  -6.4470  -5.3672  -4.5534  -3.1979  -3.0842
    -3.0080  -3.0036  -2.9862  -2.9740  -2.9165  -2.9059  -2.9049  -2.8751
    -2.7978  -2.7897  -2.7508  -2.7140  -2.7081  -2.6899  -2.6788  -2.6259
    -2.5729  -2.5709  -2.4927  -2.4308  -2.4259  -2.3770  -2.3077  -2.2852
    -2.2287  -2.2055  -2.1666  -2.0849  -2.0465  -2.0136  -1.9618  -1.9095
    -1.8130  -1.6965  -1.6449  -1.5381  -1.4531  -1.4325  -1.3357  -1.2877
    -1.2663  -1.2297  -1.1197  -1.1044  -1.0358  -1.0184  -1.0028  -0.9892
    -0.9582  -0.8750  -0.8193  -0.7702  -0.6815  -0.6219  -0.5476  -0.5048
    -0.3184  -0.2956  -0.2491  -0.2370  -0.2147  -0.2016  -0.1828  -0.1346
    -0.0986  -0.0866  -0.0663  -0.0491   0.0090   0.0172   0.0472   0.0690
     0.1047   0.1156   0.1392   0.1742   0.1935   0.2054   0.2428   0.2563
     0.3014   0.3489   0.5511   0.6245   0.6340   0.6460   0.6802   0.8493
     0.9818   1.0111   1.0902   1.1117   1.7634   1.7645   1.8917   1.8922
     2.2096   3.8547   3.8722   3.9535   3.9588   3.9930   4.0202   4.0918
     4.1052   4.1080   4.1096

          k = 0.0380 0.0000 0.0000 ( 17913 PWs)   bands (ev):

   -55.6131 -55.5850 -55.5790 -55.5470 -55.4945 -55.4829 -55.4529 -55.4304
   -55.3966 -55.3921 -55.3580 -55.3349 -55.0416 -54.9908 -54.5927 -54.5587
   -32.1293 -32.0980 -31.9902 -31.9306 -31.9183 -31.9048 -31.8882 -31.8703
   -31.8576 -31.7979 -31.7627 -31.7615 -31.7326 -31.7269 -31.7259 -31.7188
   -31.7108 -31.7079 -31.7058 -31.6945 -31.6932 -31.6703 -31.6617 -31.6339
   -31.6224 -31.6175 -31.6170 -31.6140 -31.5979 -31.5932 -31.5894 -31.5592
   -31.5469 -31.5397 -31.5320 -31.5057 -31.5026 -31.3057 -31.2703 -31.2402
   -31.1891 -31.1467 -30.9992 -30.9151 -30.8873 -30.8166 -30.7302 -30.6186
   -18.6648 -17.9048 -16.2533 -16.0097 -15.7830 -15.7519 -15.6651 -15.5484
   -15.4550 -15.3674 -15.3110 -15.3064 -15.2436 -15.2417 -15.2208 -15.1994
   -15.1680 -15.0654 -15.0142 -14.9516 -14.9232 -14.8763 -14.8660 -14.8602
   -14.8597 -14.8296 -14.8064 -14.8021 -14.7652 -14.7139 -14.2350 -13.0907
   -12.9772 -12.0703  -7.8380  -6.4423  -5.2963  -4.4709  -3.6065  -3.3908
    -3.3248  -3.3042  -3.2440  -3.1788  -3.1506  -3.0517  -3.0114  -2.8999
    -2.8737  -2.8563  -2.7311  -2.6957  -2.6803  -2.5684  -2.5224  -2.4111
    -2.3810  -2.3327  -2.3058  -2.2609  -2.1888  -2.1676  -2.1317  -2.0946
    -2.0502  -2.0107  -1.9687  -1.9641  -1.8992  -1.8871  -1.8617  -1.8191
    -1.7951  -1.7129  -1.6415  -1.5763  -1.5536  -1.5440  -1.4586  -1.4262
    -1.4013  -1.3294  -1.2198  -1.1440  -1.1296  -1.0859  -1.0489  -1.0305
    -0.9821  -0.9380  -0.8955  -0.8771  -0.8474  -0.7500  -0.6584  -0.5839
    -0.5288  -0.4441  -0.3937  -0.3793  -0.3151  -0.2816  -0.2434  -0.2222
    -0.1061  -0.0051   0.0005   0.0442   0.0518   0.1020   0.1243   0.1413
     0.1744   0.2046   0.2285   0.2646   0.2817   0.3023   0.3769   0.4624
     0.4741   0.5338   0.5718   0.6589   0.7212   0.7848   0.8234   1.0487
     1.0729   1.1759   1.3556   1.3751   1.4426   1.5921   1.8894   1.9641
     2.1790   3.5164   3.5754   3.8483   3.8656   3.8886   3.9344   3.9611
     3.9865   4.0131   4.0323

          k = 0.0380 0.0419 0.0000 ( 17878 PWs)   bands (ev):

   -55.6080 -55.5840 -55.5801 -55.5518 -55.4906 -55.4819 -55.4568 -55.4254
   -55.4015 -55.3872 -55.3629 -55.3359 -55.0384 -54.9939 -54.5877 -54.5637
   -32.0723 -32.0440 -31.9361 -31.9001 -31.8971 -31.8687 -31.8555 -31.8432
   -31.8356 -31.7956 -31.7878 -31.7758 -31.7645 -31.7493 -31.7343 -31.7234
   -31.7196 -31.7046 -31.6984 -31.6904 -31.6842 -31.6840 -31.6628 -31.6518
   -31.6423 -31.6266 -31.6166 -31.6126 -31.5951 -31.5927 -31.5887 -31.5779
   -31.5667 -31.5577 -31.5576 -31.5545 -31.5368 -31.2997 -31.2670 -31.2428
   -31.2123 -31.1759 -30.9452 -30.9109 -30.8913 -30.8040 -30.7429 -30.6758
   -18.6643 -17.8985 -16.1233 -15.8960 -15.6843 -15.6471 -15.5601 -15.4943
   -15.4517 -15.3828 -15.3691 -15.2726 -15.2582 -15.2161 -15.2057 -15.1415
   -15.1133 -15.0779 -15.0482 -14.9930 -14.9674 -14.9558 -14.9389 -14.9158
   -14.9056 -14.8810 -14.8558 -14.8485 -14.8142 -14.7431 -14.3621 -13.0958
   -13.0173 -12.0456  -7.7984  -6.4466  -5.3274  -4.5197  -3.4338  -3.2256
    -3.1817  -3.1562  -3.0708  -3.0281  -3.0212  -2.8931  -2.8480  -2.8169
    -2.7300  -2.7142  -2.6216  -2.5801  -2.5647  -2.5352  -2.5100  -2.4905
    -2.4551  -2.4134  -2.3845  -2.3458  -2.3329  -2.3164  -2.2737  -2.2632
    -2.2158  -2.1798  -2.1255  -2.0906  -2.0343  -1.9531  -1.9215  -1.8576
    -1.7741  -1.7450  -1.6766  -1.5981  -1.5888  -1.5270  -1.4345  -1.3510
    -1.3016  -1.2320  -1.1683  -1.0887  -1.0303  -1.0124  -0.9595  -0.9152
    -0.8760  -0.8525  -0.7979  -0.7764  -0.7315  -0.6926  -0.6378  -0.5771
    -0.5562  -0.4923  -0.4562  -0.4217  -0.3954  -0.3285  -0.3002  -0.2906
    -0.2390  -0.2198  -0.2043  -0.1398  -0.0759  -0.0588  -0.0059   0.0363
     0.0698   0.0879   0.1471   0.1872   0.2646   0.3156   0.3885   0.4469
     0.5271   0.6008   0.6265   0.6864   0.7224   0.7899   0.8180   0.8565
     0.9791   1.0007   1.0616   1.3089   1.6298   1.7106   1.8779   1.9392
     2.1810   3.6936   3.7295   3.8661   3.8950   3.9484   3.9817   4.0623
     4.0844   4.0958   4.1145

          k = 0.0380-0.0839 0.0000 ( 17916 PWs)   bands (ev):

   -55.5962 -55.5959 -55.5725 -55.5595 -55.4855 -55.4809 -55.4620 -55.4140
   -55.4130 -55.3776 -55.3725 -55.3370 -55.0348 -54.9976 -54.5759 -54.5756
   -31.9452 -31.9198 -31.9118 -31.9115 -31.8906 -31.8902 -31.8205 -31.8181
   -31.8121 -31.8005 -31.7872 -31.7558 -31.7446 -31.7376 -31.7315 -31.7218
   -31.7172 -31.7168 -31.7141 -31.7113 -31.7065 -31.6992 -31.6753 -31.6742
   -31.6726 -31.6551 -31.6466 -31.6452 -31.6448 -31.6076 -31.5990 -31.5911
   -31.5895 -31.5724 -31.5687 -31.5464 -31.5188 -31.2938 -31.2683 -31.2621
   -31.2443 -31.1903 -30.9012 -30.9010 -30.8126 -30.8123 -30.7736 -30.7734
   -18.6638 -17.8923 -15.8214 -15.7817 -15.6416 -15.5978 -15.5030 -15.4363
   -15.3956 -15.3715 -15.3308 -15.3064 -15.2901 -15.2783 -15.1707 -15.1530
   -15.0705 -15.0662 -15.0384 -15.0297 -15.0241 -14.9984 -14.9963 -14.9752
   -14.9534 -14.9260 -14.9178 -14.9153 -14.9028 -14.6687 -14.5890 -13.0796
   -13.0794 -12.0233  -7.7605  -6.4453  -5.3641  -4.5524  -3.1880  -3.0639
    -2.9030  -2.8704  -2.8479  -2.8171  -2.7963  -2.7770  -2.7513  -2.7230
    -2.6980  -2.6832  -2.6433  -2.6254  -2.6197  -2.5933  -2.5702  -2.5586
    -2.4821  -2.4680  -2.4641  -2.4307  -2.3830  -2.3465  -2.3207  -2.2936
    -2.2701  -2.2219  -2.1922  -2.1073  -2.0550  -1.9510  -1.8765  -1.7638
    -1.7314  -1.7084  -1.5745  -1.5269  -1.5032  -1.4878  -1.4577  -1.4008
    -1.3861  -1.3297  -1.3225  -1.2902  -1.2552  -1.2309  -1.1638  -1.1030
    -1.0272  -0.8653  -0.7733  -0.7611  -0.6977  -0.6916  -0.5527  -0.5289
    -0.4713  -0.4231  -0.4002  -0.3824  -0.3722  -0.3591  -0.3354  -0.3190
    -0.2452  -0.2179  -0.2027  -0.1721  -0.1635  -0.1521  -0.1242  -0.0327
     0.0157   0.0394   0.1145   0.1964   0.2526   0.3075   0.3822   0.4612
     0.4898   0.5034   0.5615   0.5924   0.6382   0.7199   0.7402   0.8426
     0.9453   0.9777   1.0846   1.0943   1.7765   1.7776   1.8811   1.8819
     2.1846   3.8388   3.8667   3.9322   3.9397   3.9753   4.0304   4.1130
     4.1278   4.1394   4.1516

          k = 0.0380-0.0419 0.0000 ( 17876 PWs)   bands (ev):

   -55.6080 -55.5840 -55.5801 -55.5518 -55.4906 -55.4819 -55.4568 -55.4254
   -55.4015 -55.3872 -55.3628 -55.3359 -55.0384 -54.9939 -54.5877 -54.5637
   -32.0723 -32.0440 -31.9361 -31.9001 -31.8971 -31.8687 -31.8555 -31.8432
   -31.8356 -31.7956 -31.7879 -31.7758 -31.7646 -31.7493 -31.7347 -31.7234
   -31.7197 -31.7046 -31.6984 -31.6896 -31.6841 -31.6840 -31.6629 -31.6521
   -31.6423 -31.6266 -31.6166 -31.6126 -31.5949 -31.5928 -31.5889 -31.5780
   -31.5667 -31.5576 -31.5574 -31.5545 -31.5368 -31.3000 -31.2669 -31.2427
   -31.2123 -31.1759 -30.9451 -30.9109 -30.8913 -30.8040 -30.7429 -30.6758
   -18.6642 -17.8986 -16.1231 -15.8958 -15.6836 -15.6463 -15.5597 -15.4943
   -15.4519 -15.3833 -15.3713 -15.2731 -15.2505 -15.2114 -15.2050 -15.1645
   -15.1139 -15.0777 -15.0481 -14.9919 -14.9636 -14.9516 -14.9391 -14.9118
   -14.9042 -14.8830 -14.8558 -14.8489 -14.8146 -14.7418 -14.3633 -13.0958
   -13.0173 -12.0458  -7.8011  -6.4408  -5.3320  -4.5128  -3.4352  -3.2326
    -3.1800  -3.1520  -3.0704  -3.0663  -3.0203  -2.8953  -2.8541  -2.7849
    -2.7291  -2.7036  -2.6279  -2.5885  -2.5720  -2.5480  -2.5162  -2.4744
    -2.4513  -2.4139  -2.3730  -2.3527  -2.3272  -2.3117  -2.2664  -2.2523
    -2.2237  -2.1789  -2.1273  -2.0936  -2.0031  -1.9293  -1.9135  -1.8862
    -1.7827  -1.7477  -1.6553  -1.6105  -1.5924  -1.5448  -1.4259  -1.3421
    -1.3035  -1.2346  -1.1663  -1.0743  -1.0315  -1.0181  -0.9570  -0.9229
    -0.8781  -0.8356  -0.8237  -0.7910  -0.7284  -0.7064  -0.6727  -0.5740
    -0.5538  -0.4822  -0.4586  -0.4332  -0.3825  -0.3351  -0.3158  -0.2860
    -0.2591  -0.2192  -0.1970  -0.1556  -0.0803  -0.0573  -0.0009   0.0507
     0.0844   0.0983   0.1474   0.1841   0.3034   0.3256   0.4138   0.4552
     0.5171   0.5935   0.6409   0.6690   0.7061   0.7581   0.8159   0.8361
     0.9846   1.0457   1.0589   1.3111   1.6298   1.7105   1.8777   1.9398
     2.1870   3.6922   3.7277   3.8744   3.8774   3.9389   3.9688   4.0502
     4.0789   4.0982   4.1136

          k =-0.0760-0.0000 0.0000 ( 17886 PWs)   bands (ev):

   -55.6130 -55.5849 -55.5790 -55.5470 -55.4945 -55.4829 -55.4529 -55.4302
   -55.3966 -55.3922 -55.3580 -55.3349 -55.0416 -54.9908 -54.5927 -54.5587
   -32.1295 -32.0990 -31.9948 -31.9308 -31.9198 -31.9047 -31.8929 -31.8701
   -31.8576 -31.7658 -31.7614 -31.7598 -31.7324 -31.7274 -31.7228 -31.7204
   -31.7187 -31.7105 -31.7077 -31.7055 -31.6707 -31.6616 -31.6516 -31.6370
   -31.6342 -31.6211 -31.6177 -31.6149 -31.6113 -31.5981 -31.5893 -31.5590
   -31.5477 -31.5390 -31.5292 -31.5063 -31.5025 -31.3063 -31.2750 -31.2386
   -31.1890 -31.1467 -30.9988 -30.9183 -30.8860 -30.8165 -30.7300 -30.6187
   -18.6642 -17.9048 -16.1364 -15.9563 -15.7231 -15.7009 -15.5792 -15.4929
   -15.4817 -15.3901 -15.3889 -15.3661 -15.3297 -15.3259 -15.2933 -15.2659
   -15.2130 -15.0740 -15.0238 -14.9522 -14.9331 -14.9122 -14.8901 -14.8609
   -14.8254 -14.8012 -14.7872 -14.7703 -14.7358 -14.7150 -14.2358 -13.0877
   -12.9769 -12.0702  -7.8394  -6.4350  -5.2973  -4.4628  -3.5802  -3.3510
    -3.2182  -3.1829  -3.1087  -3.0385  -3.0083  -2.9709  -2.9026  -2.8884
    -2.8758  -2.8630  -2.8528  -2.7120  -2.6086  -2.5286  -2.4161  -2.4065
    -2.3125  -2.2671  -2.2044  -2.1913  -2.1391  -2.1294  -2.1095  -2.0311
    -1.9904  -1.9611  -1.9515  -1.9326  -1.9158  -1.8655  -1.8459  -1.8442
    -1.8203  -1.7653  -1.6770  -1.6515  -1.6144  -1.5524  -1.4100  -1.2911
    -1.2509  -1.2245  -1.2130  -1.2080  -1.1979  -1.1156  -1.0922  -1.0786
    -1.0508  -1.0069  -0.9408  -0.8810  -0.8722  -0.8265  -0.7967  -0.7626
    -0.7054  -0.6584  -0.4366  -0.3611  -0.3278  -0.2775  -0.2394  -0.2324
    -0.1953  -0.1887  -0.0677  -0.0551  -0.0491   0.0036   0.0551   0.0752
     0.1421   0.1678   0.1760   0.1947   0.2298   0.2620   0.3171   0.4460
     0.4933   0.5868   0.5937   0.6193   0.7578   0.8608   0.8800   0.9837
     1.0655   1.0772   1.1585   1.3765   1.4637   1.5677   1.7608   1.9087
     2.1427   3.5195   3.5459   3.6655   3.7922   3.8513   3.9508   3.9588
     4.0117   4.0432   4.0577

          k =-0.0760 0.0419 0.0000 ( 17914 PWs)   bands (ev):

   -55.6080 -55.5840 -55.5801 -55.5518 -55.4906 -55.4819 -55.4568 -55.4253
   -55.4015 -55.3874 -55.3629 -55.3359 -55.0385 -54.9939 -54.5877 -54.5637
   -32.0727 -32.0450 -31.9416 -31.9001 -31.8974 -31.8702 -31.8556 -31.8432
   -31.8411 -31.7950 -31.7761 -31.7657 -31.7642 -31.7471 -31.7245 -31.7235
   -31.7176 -31.7146 -31.7045 -31.6983 -31.6840 -31.6628 -31.6528 -31.6512
   -31.6466 -31.6269 -31.6146 -31.6140 -31.6135 -31.5927 -31.5915 -31.5790
   -31.5668 -31.5607 -31.5581 -31.5573 -31.5334 -31.3003 -31.2702 -31.2425
   -31.2123 -31.1759 -30.9449 -30.9137 -30.8907 -30.8040 -30.7429 -30.6759
   -18.6638 -17.8984 -16.0178 -15.8420 -15.6223 -15.6161 -15.4921 -15.4423
   -15.4181 -15.3944 -15.3788 -15.3486 -15.3135 -15.2710 -15.2565 -15.2143
   -15.2062 -15.0983 -15.0617 -14.9833 -14.9753 -14.9688 -14.9373 -14.9081
   -14.8990 -14.8932 -14.8775 -14.8425 -14.8045 -14.7458 -14.3643 -13.0937
   -13.0176 -12.0456  -7.7999  -6.4391  -5.3287  -4.5120  -3.4164  -3.1926
    -3.1448  -2.9684  -2.9200  -2.8568  -2.8173  -2.7448  -2.7044  -2.6842
    -2.6726  -2.6618  -2.6083  -2.5926  -2.5647  -2.5442  -2.5110  -2.5054
    -2.4131  -2.3922  -2.3820  -2.3160  -2.3076  -2.2471  -2.2000  -2.1730
    -2.1505  -2.1316  -2.1122  -2.0920  -2.0627  -2.0222  -1.7657  -1.7480
    -1.7130  -1.6902  -1.6682  -1.6031  -1.5380  -1.5235  -1.4427  -1.4004
    -1.2794  -1.2307  -1.1766  -1.1291  -1.0902  -1.0799  -1.0403  -0.9975
    -0.9267  -0.9118  -0.8992  -0.8584  -0.8372  -0.8208  -0.7949  -0.7676
    -0.7479  -0.6825  -0.6303  -0.5764  -0.5321  -0.4449  -0.4035  -0.3738
    -0.3491  -0.3202  -0.2813  -0.2294  -0.2032  -0.1456  -0.1040  -0.0697
    -0.0138   0.0669   0.1210   0.2120   0.2874   0.3284   0.3617   0.5308
     0.6337   0.6683   0.7022   0.7395   0.7682   0.8452   0.8812   0.8934
     0.9504   0.9766   1.0442   1.1255   1.6443   1.7131   1.8009   1.9285
     2.1543   3.6884   3.7241   3.7303   3.8386   3.8818   3.9279   4.0070
     4.0967   4.1378   4.1802

          k =-0.0760-0.0839 0.0000 ( 17948 PWs)   bands (ev):

   -55.5962 -55.5959 -55.5724 -55.5595 -55.4855 -55.4809 -55.4620 -55.4140
   -55.4129 -55.3777 -55.3726 -55.3370 -55.0348 -54.9977 -54.5759 -54.5756
   -31.9454 -31.9202 -31.9126 -31.9123 -31.8906 -31.8903 -31.8254 -31.8206
   -31.8122 -31.8074 -31.7885 -31.7386 -31.7348 -31.7317 -31.7223 -31.7210
   -31.7188 -31.7161 -31.7153 -31.7135 -31.7118 -31.6995 -31.6902 -31.6756
   -31.6729 -31.6683 -31.6468 -31.6180 -31.6170 -31.6073 -31.5985 -31.5944
   -31.5914 -31.5903 -31.5888 -31.5440 -31.5185 -31.2939 -31.2682 -31.2628
   -31.2463 -31.1903 -30.9021 -30.9019 -30.8126 -30.8122 -30.7736 -30.7735
   -18.6635 -17.8922 -15.7738 -15.6808 -15.5938 -15.5517 -15.4730 -15.4547
   -15.4006 -15.3357 -15.2972 -15.2788 -15.2374 -15.2085 -15.1642 -15.1518
   -15.1441 -15.1205 -15.0964 -15.0722 -15.0609 -15.0548 -15.0501 -15.0368
   -15.0033 -14.9714 -14.9345 -14.9307 -14.9023 -14.6597 -14.5837 -13.0794
   -13.0792 -12.0232  -7.7590  -6.4436  -5.3610  -4.5517  -3.1862  -3.0617
    -2.8913  -2.8511  -2.8036  -2.7498  -2.7420  -2.6877  -2.5634  -2.5542
    -2.5229  -2.4590  -2.4355  -2.4324  -2.4237  -2.4198  -2.3988  -2.3622
    -2.3614  -2.3061  -2.2976  -2.2863  -2.2810  -2.2612  -2.2453  -2.2422
    -2.2185  -2.1724  -2.1571  -2.1420  -2.0352  -1.9315  -1.8767  -1.8375
    -1.8070  -1.7616  -1.7568  -1.7363  -1.7211  -1.6827  -1.6667  -1.6108
    -1.4958  -1.4175  -1.3312  -1.3011  -1.2719  -1.2016  -1.1565  -1.0923
    -1.0519  -1.0463  -0.9628  -0.8480  -0.8352  -0.7980  -0.7700  -0.6937
    -0.6651  -0.6325  -0.5719  -0.5651  -0.5377  -0.5094  -0.4737  -0.3816
    -0.3638  -0.3574  -0.3277  -0.3189  -0.3076  -0.2669  -0.1934  -0.0948
    -0.0231  -0.0165   0.0893   0.2162   0.3136   0.4454   0.4738   0.5217
     0.5749   0.6080   0.6924   0.7002   0.7261   0.7901   0.8329   0.9010
     0.9251   0.9403   1.0255   1.0328   1.7947   1.7959   1.8665   1.8667
     2.1613   3.8590   3.8873   3.9080   3.9528   4.0302   4.0543   4.0551
     4.0610   4.1773   4.1841

     the Fermi energy is     3.5135 ev

!    total energy              =   -2973.98328979 Ry
     estimated scf accuracy    <       0.00000006 Ry
     smearing contrib. (-TS)   =      -0.02040376 Ry
     internal energy E=F+TS    =   -2973.96288603 Ry

     The total energy is F=E-TS. E is the sum of the following terms:
     one-electron contribution =  -24203.78569683 Ry
     hartree contribution      =   12196.51486376 Ry
     xc contribution           =    -494.25494429 Ry
     ewald contribution        =    9527.56128181 Ry
     electric field correction =       0.00160952 Ry

     convergence has been achieved in  62 iterations

     Forces acting on atoms (cartesian axes, Ry/au):

     atom    1 type  1   force =    -0.00005287   -0.00019221    0.09556124
     atom    2 type  1   force =     0.00002406   -0.00035569   -0.17556446
     atom    3 type  2   force =     0.00009556   -0.00012539   -0.02315028
     atom    4 type  2   force =     0.00000551   -0.00139142    0.05289917
     atom    5 type  2   force =    -0.01001040   -0.00075271    0.00324913
     atom    6 type  2   force =     0.01154230   -0.00009356    0.00282402
     atom    7 type  1   force =     0.00045578    0.00028213   -0.00664420
     atom    8 type  1   force =     0.00029119    0.00536782    0.01757638
     atom    9 type  2   force =    -0.00015175   -0.00015436   -0.00038325
     atom   10 type  2   force =    -0.00346463    0.00075138   -0.01265856
     atom   11 type  2   force =    -0.00081077   -0.00032805    0.00009330
     atom   12 type  2   force =     0.00033237   -0.00017095    0.00009984
     atom   13 type  1   force =    -0.00025398    0.00039290   -0.00023149
     atom   14 type  1   force =     0.00021638    0.00003318    0.00067282
     atom   15 type  2   force =    -0.00013460    0.00014501   -0.00033162
     atom   16 type  2   force =    -0.00003376   -0.00022294   -0.00007069
     atom   17 type  2   force =     0.00051940   -0.00013043   -0.00008384
     atom   18 type  2   force =    -0.00024611   -0.00038690   -0.00006246
     atom   19 type  1   force =    -0.00011234   -0.00010811    0.00032400
     atom   20 type  1   force =     0.00049990   -0.00013624   -0.00049408
     atom   21 type  2   force =     0.00007299    0.00003343    0.10318863
     atom   22 type  2   force =     0.00006017    0.00001628   -0.00008307
     atom   23 type  2   force =    -0.07160804   -0.00013363   -0.02754156
     atom   24 type  2   force =     0.07153332    0.00036783   -0.02758245
     atom   25 type  1   force =     0.00018290   -0.00009064    0.09523215
     atom   26 type  1   force =     0.00007899   -0.00040207   -0.17572888
     atom   27 type  2   force =     0.00011132   -0.00024044   -0.02207031
     atom   28 type  2   force =     0.00002790   -0.00099074    0.05229763
     atom   29 type  2   force =    -0.01016019    0.00037369    0.00285473
     atom   30 type  2   force =     0.01156209    0.00075037    0.00247611
     atom   31 type  1   force =     0.00027609    0.00394454   -0.01131738
     atom   32 type  1   force =     0.00045596   -0.00673005    0.01787332
     atom   33 type  2   force =    -0.00008014    0.00004860   -0.00019089
     atom   34 type  2   force =    -0.00395596    0.00073660   -0.01214045
     atom   35 type  2   force =    -0.00021685    0.00008143   -0.00016984
     atom   36 type  2   force =     0.00000291    0.00003338   -0.00007949
     atom   37 type  1   force =    -0.00003947   -0.00040957    0.00033788
     atom   38 type  1   force =     0.00005841    0.00001483    0.00039637
     atom   39 type  2   force =     0.00035760   -0.00035625    0.00027025
     atom   40 type  2   force =    -0.00050180    0.00026676   -0.00008290
     atom   41 type  2   force =     0.00006712    0.00008989   -0.00018335
     atom   42 type  2   force =     0.00033728    0.00019688    0.00022006
     atom   43 type  1   force =    -0.00013371   -0.00033947   -0.00000544
     atom   44 type  1   force =    -0.00014256   -0.00019536    0.00021406
     atom   45 type  2   force =     0.00007171   -0.00000263    0.10315861
     atom   46 type  2   force =    -0.07160869   -0.00004014   -0.02751650
     atom   47 type  2   force =     0.07153948    0.00035243   -0.02760595
     atom   48 type  3   force =     0.00038296    0.00066267    0.00117710
     atom   49 type  4   force =     0.00139333    0.00426916    0.00780231
     atom   50 type  5   force =    -0.00046739   -0.00511704   -0.00806623
     atom   51 type  5   force =     0.00049067   -0.00043311   -0.00010769
     atom   52 type  3   force =    -0.00024397    0.00027057   -0.00058821
     atom   53 type  5   force =     0.00055082    0.00030253   -0.00012522
     atom   54 type  2   force =    -0.00059561   -0.00134144   -0.00066559
     atom   55 type  5   force =     0.00172853    0.00000956    0.00016663
     atom   56 type  5   force =    -0.00029941    0.00157768    0.00056059

     Total force =     0.364972     Total SCF correction =     0.000401
  @ DRIVER MODE: Message from server: STATUS
  @ DRIVER MODE: Message from server: GETFORCE
  @ DRIVER MODE: Returning v,forces,stress,ensemble 

     Writing output data file ./calc.save/
  @ DRIVER MODE: Message from server: EXIT
  @ DRIVE MODE: Exiting  
 
     init_run     :     11.00s CPU     11.23s WALL (       1 calls)
     electrons    :   1077.10s CPU   1093.08s WALL (       1 calls)
     forces       :      2.56s CPU      2.65s WALL (       1 calls)

     Called by init_run:
     wfcinit      :      4.99s CPU      5.06s WALL (       1 calls)
     potinit      :      5.34s CPU      5.40s WALL (       1 calls)
     hinit0       :      0.30s CPU      0.31s WALL (       1 calls)

     Called by electrons:
     c_bands      :    925.40s CPU    932.43s WALL (      62 calls)
     sum_band     :    102.92s CPU    106.46s WALL (      62 calls)
     v_of_rho     :     36.95s CPU     38.89s WALL (      63 calls)
     newd         :     15.07s CPU     18.40s WALL (      63 calls)
     mix_rho      :      1.33s CPU      1.43s WALL (      62 calls)
     vdW_kernel   :      4.54s CPU      4.56s WALL (       1 calls)

     Called by c_bands:
     init_us_2    :      7.05s CPU      7.11s WALL (    1260 calls)
     cegterg      :    907.17s CPU    913.84s WALL (     637 calls)

     Called by *egterg:
     cdiaghg      :    150.88s CPU    151.71s WALL (    6978 calls)
     h_psi        :    472.01s CPU    476.61s WALL (    6992 calls)
     s_psi        :     66.79s CPU     67.00s WALL (    6992 calls)
     g_psi        :      1.87s CPU      1.89s WALL (    6345 calls)

     Called by h_psi:
     h_psi:calbec :     63.89s CPU     64.22s WALL (    6992 calls)
     vloc_psi     :    336.69s CPU    340.34s WALL (    6992 calls)
     add_vuspsi   :     67.88s CPU     68.28s WALL (    6992 calls)

     General routines
     calbec       :     83.25s CPU     83.65s WALL (    7652 calls)
     fft          :     18.94s CPU     19.09s WALL (    3969 calls)
     ffts         :      0.12s CPU      0.12s WALL (     125 calls)
     fftw         :    374.61s CPU    378.66s WALL (  894626 calls)
     interpolate  :      0.39s CPU      0.39s WALL (      63 calls)
     davcio       :      0.00s CPU      0.31s WALL (      10 calls)
 
     Parallel routines
 
     PWSCF        :  18m10.90s CPU  18m28.27s WALL

 
   This run was terminated on:  21:44:40  15Sep2021            

=------------------------------------------------------------------------------=
   JOB DONE.
=------------------------------------------------------------------------------=
