
     Program PWSCF v.6.7GPU starts on 24Sep2021 at  2:43:11 

     This program is part of the open-source Quantum ESPRESSO suite
     for quantum simulation of materials; please cite
         "P. Giannozzi et al., J. Phys.:Condens. Matter 21 395502 (2009);
         "P. Giannozzi et al., J. Phys.:Condens. Matter 29 465901 (2017);
         "P. Giannozzi et al., J. Chem. Phys. 152 154105 (2020);
          URL http://www.quantum-espresso.org", 
     in publications or presentations arising from this work. More details at
     http://www.quantum-espresso.org/quote

     Parallel version (MPI), running on     8 processors

     MPI processes distributed on     1 nodes
     R & G space division:  proc/nbgrp/npool/nimage =       8
     Reading input from /storage/home/hcoda1/3/ntian30/research/carbon/CxH_vib/H2O_calc/ads_slab/CH2NNHHHHO_a/out_0036/pw.inp
Warning: card &CELL ignored
Warning: card   CELL_DYNAMICS='IPI', ignored
Warning: card / ignored

     Current dimensions of program PWSCF are:
     Max number of different atomic species (ntypx) = 10
     Max number of k-points (npk) =  40000
     Max angular momentum in pseudopotentials (lmaxx) =  3
     Presently no symmetry can be used with electric field

     Message from routine cell_base_init:
     DEPRECATED: use true lattice parameter, not A to a.u. conversion factor

     **************************************************************************
     Initializing libbeef V0.1.2 with the BEEF-vdW functional.
     Citation: Wellendorff et al., PRB 85, 235149 (2012).
     **************************************************************************


     IMPORTANT: XC functional enforced from input :
     Exchange-correlation= BEEF-VDW
                           (   1   4  43  14   2   0   0)
     Any further DFT definition will be discarded
     Please, verify this is what you really want


     Subspace diagonalization in iterative solution of the eigenvalue problem:
     one sub-group per band group will be used
     scalapack distributed-memory algorithm (size of sub-group:  2*  2 procs)

  @ DRIVER MODE: Connecting to 
 qe_1139763_2947316.sched-torque.pace.gatech.edu3zibx1za_scratch
  using UNIX socket
  @ DRIVER MODE: Message from server: STATUS
  @ DRIVER MODE: Message from server: INIT
  @ DRIVER MODE: Receiving replica           0          -1
  @ DRIVER MODE: Receiving encoded integer          25
  @ DRIVER MODE:  SCF:  T  FORCE:  T  STRESS:  F  VC:  F  ENSEMBLE:  F
  @ DRIVER MODE:  SCF:  T  FORCE:  T  STRESS:  F  VC:  F  ENSEMBLE:  F
 
     Parallelization info
     --------------------
     sticks:   dense  smooth     PW     G-vecs:    dense   smooth      PW
     Min         409     164     47                70857    17926    2743
     Max         411     165     48                70858    17931    2751
     Sum        3275    1317    379               566857   143421   21985
 
     Using Slab Decomposition
 


     bravais-lattice index     =            0
     lattice parameter (alat)  =       1.8897  a.u.
     unit-cell volume          =    6658.9804 (a.u.)^3
     number of atoms/cell      =           57
     number of atomic types    =            5
     number of electrons       =       404.00
     number of Kohn-Sham states=          212
     kinetic-energy cutoff     =      29.3995  Ry
     charge density cutoff     =     293.9946  Ry
     scf convergence threshold =      7.3E-08
     mixing beta               =       0.0500
     number of iterations used =            8  plain     mixing
     Exchange-correlation= BEEF-VDW
                           (   1   4  43  14   2   0   0)

     celldm(1)=   1.889726  celldm(2)=   0.000000  celldm(3)=   0.000000
     celldm(4)=   0.000000  celldm(5)=   0.000000  celldm(6)=   0.000000

     crystal axes: (cart. coord. in units of alat)
               a(1) = (   6.579727   0.000000   0.000000 )  
               a(2) = (  -0.000775   5.961596   0.000000 )  
               a(3) = (   0.000000   0.000000  25.155947 )  

     reciprocal axes: (cart. coord. in units 2 pi/alat)
               b(1) = (  0.151982  0.000020  0.000000 )  
               b(2) = (  0.000000  0.167740  0.000000 )  
               b(3) = (  0.000000  0.000000  0.039752 )  


     PseudoPot. # 1 for Ti read from file:
     /storage/coda1/p-amedford6/0/shared/rich_project_chbe-medford/medford-share/data/pseudos_module/espresso/nninc/pbe/van/Ti.UPF
     MD5 check sum: 8e4df49b7f0d34bbd5052bf3f5ea0213
     Pseudo is Ultrasoft, Zval = 12.0
     Generated by new atomic code, or converted to UPF format
     Using radial grid of  851 points,  6 beta functions with: 
                l(1) =   0
                l(2) =   0
                l(3) =   1
                l(4) =   1
                l(5) =   2
                l(6) =   2
     Q(r) pseudized with  8 coefficients,  rinner =    1.000   1.000   1.000
                                                       1.000   1.000

     PseudoPot. # 2 for O  read from file:
     /storage/coda1/p-amedford6/0/shared/rich_project_chbe-medford/medford-share/data/pseudos_module/espresso/nninc/pbe/van/O.UPF
     MD5 check sum: 78c19812648e8988a0fe644b0f25305e
     Pseudo is Ultrasoft, Zval =  6.0
     Generated by new atomic code, or converted to UPF format
     Using radial grid of  737 points,  4 beta functions with: 
                l(1) =   0
                l(2) =   0
                l(3) =   1
                l(4) =   1
     Q(r) pseudized with  8 coefficients,  rinner =    0.800   0.800   0.800


     PseudoPot. # 3 for N  read from file:
     /storage/coda1/p-amedford6/0/shared/rich_project_chbe-medford/medford-share/data/pseudos_module/espresso/nninc/pbe/van/N.UPF
     MD5 check sum: 90d10febe142ad51ac9d5be1deb811c4
     Pseudo is Ultrasoft, Zval =  5.0
     Generated by new atomic code, or converted to UPF format
     Using radial grid of  729 points,  4 beta functions with: 
                l(1) =   0
                l(2) =   0
                l(3) =   1
                l(4) =   1
     Q(r) pseudized with  8 coefficients,  rinner =    0.800   0.800   0.800


     PseudoPot. # 4 for C  read from file:
     /storage/coda1/p-amedford6/0/shared/rich_project_chbe-medford/medford-share/data/pseudos_module/espresso/nninc/pbe/van/C.UPF
     MD5 check sum: 1a69bf6b8db32088f5b2163dbdb77a27
     Pseudo is Ultrasoft, Zval =  4.0
     Generated by new atomic code, or converted to UPF format
     Using radial grid of  721 points,  4 beta functions with: 
                l(1) =   0
                l(2) =   0
                l(3) =   1
                l(4) =   1
     Q(r) pseudized with  8 coefficients,  rinner =    0.800   0.800   0.800


     PseudoPot. # 5 for H  read from file:
     /storage/coda1/p-amedford6/0/shared/rich_project_chbe-medford/medford-share/data/pseudos_module/espresso/nninc/pbe/van/H.UPF
     MD5 check sum: b5ee9d7bfd3a09ee7748110bda690ff7
     Pseudo is Ultrasoft, Zval =  1.0
     Generated by new atomic code, or converted to UPF format
     Using radial grid of  615 points,  1 beta functions with: 
                l(1) =   0
     Q(r) pseudized with  8 coefficients,  rinner =    0.800

     atomic species   valence    mass     pseudopotential
        Ti1           12.00    47.86700     Ti( 1.00)
        O1             6.00    15.99900     O ( 1.00)
        N1             5.00    14.00700     N ( 1.00)
        C1             4.00    12.01100     C ( 1.00)
        H1             1.00     1.00800     H ( 1.00)

     No symmetry found



   Cartesian axes

     site n.     atom                  positions (alat units)
         1           Ti1 tau(   1) = (   0.0004258   2.9801865   6.0000000  )
         2           Ti1 tau(   2) = (   3.2906075   1.4906267   6.0002472  )
         3           O1  tau(   3) = (   0.0006271   0.0005054   7.9858123  )
         4           O1  tau(   4) = (   3.2906025   0.0005020   7.3038282  )
         5           O1  tau(   5) = (   4.5942328   1.4918067   9.2879030  )
         6           O1  tau(   6) = (   1.9868534   1.4903216   9.2879459  )
         7           Ti1 tau(   7) = (   3.2907910   2.8959150   9.1758416  )
         8           Ti1 tau(   8) = (   0.0015273   1.4827037   9.2680791  )
         9           O1  tau(   9) = (   3.3027076   5.9092304  11.3732431  )
        10           O1  tau(  10) = (   0.0116148   5.9584955  10.6183126  )
        11           O1  tau(  11) = (   1.2953868   1.4751764  12.6403503  )
        12           O1  tau(  12) = (   5.3168701   1.4807623  12.6366210  )
        13           Ti1 tau(  13) = (   0.0172323   2.9996225  12.5311828  )
        14           Ti1 tau(  14) = (   3.3257086   1.2755711  12.7138078  )
        15           O1  tau(  15) = (   6.5733368   0.1082846  14.6600873  )
        16           O1  tau(  16) = (   3.3238075   0.0838359  14.0473399  )
        17           O1  tau(  17) = (   4.5575128   1.5393005  16.2317518  )
        18           O1  tau(  18) = (   2.0302387   1.4963625  16.2670071  )
        19           Ti1 tau(  19) = (   3.2366114   2.9448900  15.6849520  )
        20           Ti1 tau(  20) = (   6.5300729   1.3987400  16.1165465  )
        21           O1  tau(  21) = (   3.2904802   0.0005063   4.7018136  )
        22           O1  tau(  22) = (   0.0022030   5.7760056  17.1861099  )
        23           O1  tau(  23) = (   1.3043587   1.4918075   6.0039043  )
        24           O1  tau(  24) = (   5.2767064   1.4903225   6.0039473  )
        25           Ti1 tau(  25) = (   0.0000382   5.9609847   6.0000000  )
        26           Ti1 tau(  26) = (   3.2902200   4.4714249   6.0002472  )
        27           O1  tau(  27) = (   0.0002396   2.9813036   7.9858123  )
        28           O1  tau(  28) = (   3.2902150   2.9813002   7.3038282  )
        29           O1  tau(  29) = (   4.5938453   4.4726049   9.2879030  )
        30           O1  tau(  30) = (   1.9864658   4.4711199   9.2879459  )
        31           Ti1 tau(  31) = (   3.2891106   5.8743827   9.1763621  )
        32           Ti1 tau(  32) = (   0.0006254   4.4649316   9.2693709  )
        33           O1  tau(  33) = (   3.3012885   2.9833904  11.3212188  )
        34           O1  tau(  34) = (   0.0092240   2.9805883  10.6323155  )
        35           O1  tau(  35) = (   1.2895456   4.4501540  12.7025460  )
        36           O1  tau(  36) = (   5.3143371   4.4382646  12.6927937  )
        37           Ti1 tau(  37) = (   0.0343555   0.0433052  12.5107970  )
        38           Ti1 tau(  38) = (   3.3217552   4.3482123  12.4486840  )
        39           O1  tau(  39) = (   0.0141661   2.9064423  14.8877341  )
        40           O1  tau(  40) = (   3.2920978   2.9424077  13.9176102  )
        41           O1  tau(  41) = (   4.5506947   4.3398720  16.1100615  )
        42           O1  tau(  42) = (   2.0210198   4.4131678  16.0160425  )
        43           Ti1 tau(  43) = (   3.3132698   5.9358869  16.2610495  )
        44           Ti1 tau(  44) = (   0.0826266   4.5979890  15.7080129  )
        45           O1  tau(  45) = (   3.2900926   2.9813045   4.7018136  )
        46           O1  tau(  46) = (   1.3039711   4.4726057   6.0039043  )
        47           O1  tau(  47) = (   5.2763189   4.4711207   6.0039473  )
        48           N1  tau(  48) = (   6.5643472   2.7424576  18.0625816  )
        49           C1  tau(  49) = (   0.8744728   2.5686873  19.0232366  )
        50           H1  tau(  50) = (   0.8543601   3.1364980  19.9465443  )
        51           H1  tau(  51) = (   1.6733950   1.8773151  18.8242213  )
        52           N1  tau(  52) = (   5.5366205   3.6779994  18.4753393  )
        53           H1  tau(  53) = (   5.9486539   4.6347284  18.5735686  )
        54           H1  tau(  54) = (   4.8775701   3.8234783  17.6645784  )
        55           H1  tau(  55) = (   5.0440791   3.3775604  19.3232938  )
        56           O1  tau(  56) = (   3.4091604   5.6710612  18.1544331  )
        57           H1  tau(  57) = (   3.1368125   0.4262250  18.7404830  )

     number of k points=    10  Fermi-Dirac smearing, width (Ry)=  0.0073
                       cart. coord. in units 2pi/alat
        k(    1) = (   0.0000000   0.0000000   0.0000000), wk =   0.1250000
        k(    2) = (   0.0000000   0.0419351   0.0000000), wk =   0.2500000
        k(    3) = (   0.0000000  -0.0838702   0.0000000), wk =   0.1250000
        k(    4) = (   0.0379955   0.0000049   0.0000000), wk =   0.2500000
        k(    5) = (   0.0379955   0.0419400   0.0000000), wk =   0.2500000
        k(    6) = (   0.0379955  -0.0838652   0.0000000), wk =   0.2500000
        k(    7) = (   0.0379955  -0.0419301   0.0000000), wk =   0.2500000
        k(    8) = (  -0.0759910  -0.0000099   0.0000000), wk =   0.1250000
        k(    9) = (  -0.0759910   0.0419252   0.0000000), wk =   0.2500000
        k(   10) = (  -0.0759910  -0.0838800   0.0000000), wk =   0.1250000

     Dense  grid:   566857 G-vectors     FFT dimensions: (  72,  64, 270)

     Smooth grid:   143421 G-vectors     FFT dimensions: (  45,  40, 180)

     Estimated max dynamical RAM per process >     458.07 MB

     Estimated total dynamical RAM >       3.58 GB
     Cannot read rho : file not found

     Initial potential from superposition of free atoms

     starting charge  387.99913, renormalised to  404.00000

     negative rho (up, down):  1.545E-02 0.000E+00


     %%%%%%%%%%%%%%%%%%%%%%%%%%%%%%%%%%%%%%%%%%%%%%%%%%%%%%%%%%%%%%%%%%%%%%%%
     %                                                                      %
     % You are using vdW-DF, which was implemented by the Thonhauser group. %
     % Please cite the following two papers that made this development      %
     % possible and the two reviews that describe the various versions:     %
     %                                                                      %
     %   T. Thonhauser et al., PRL 115, 136402 (2015).                      %
     %   T. Thonhauser et al., PRB 76, 125112 (2007).                       %
     %   K. Berland et al., Rep. Prog. Phys. 78, 066501 (2015).             %
     %   D.C. Langreth et al., J. Phys.: Condens. Matter 21, 084203 (2009). %
     %                                                                      %
     %                                                                      %
     % If you are calculating the stress with vdW-DF, please also cite:     %
     %                                                                      %
     %   R. Sabatini et al., J. Phys.: Condens. Matter 24, 424209 (2012).   %
     %                                                                      %
     %%%%%%%%%%%%%%%%%%%%%%%%%%%%%%%%%%%%%%%%%%%%%%%%%%%%%%%%%%%%%%%%%%%%%%%%


 
     Adding external electric field

     Computed dipole along edir(3) : 
        Dipole              -13.5869 Ry au,        -34.5346 Debye
        Dipole field         -0.0256 Ry au, 
 
        Potential amp.        2.3768 Ry
        Total length         46.3494 bohr
 
     Starting wfcs are  306 atomic wfcs
  @ DRIVER MODE: Message from server: STATUS
  @ DRIVER MODE: Message from server: POSDATA
  @ DRIVER MODE: Reading and sharing cell 
  @ DRIVER MODE: Reading and sharing positions 
  @ DRIVER MODE: Received positions 

     total cpu time spent up to now is       14.5 secs

     Self-consistent Calculation

     iteration #  1     ecut=    29.40 Ry     beta= 0.05
     Davidson diagonalization with overlap
     c_bands:  4 eigenvalues not converged
     c_bands:  1 eigenvalues not converged
     c_bands:  1 eigenvalues not converged
     c_bands:  1 eigenvalues not converged
     c_bands:  2 eigenvalues not converged
     c_bands:  4 eigenvalues not converged
     c_bands:  5 eigenvalues not converged
     c_bands:  2 eigenvalues not converged
     ethr =  1.00E-05,  avg # of iterations = 29.7

     negative rho (up, down):  8.750E-03 0.000E+00
 
     Adding external electric field

     Computed dipole along edir(3) : 
        Dipole               59.0987 Ry au,        150.2138 Debye
        Dipole field          0.1115 Ry au, 
 
        Potential amp.      -10.3384 Ry
        Total length         46.3494 bohr
 

     total cpu time spent up to now is       77.6 secs

     total energy              =   -2247.85277906 Ry
     estimated scf accuracy    <    8242.63561567 Ry

     iteration #  2     ecut=    29.40 Ry     beta= 0.05
     Davidson diagonalization with overlap
     ethr =  1.00E-02,  avg # of iterations = 24.3

     negative rho (up, down):  2.915E-04 0.000E+00
 
     Adding external electric field

     Computed dipole along edir(3) : 
        Dipole                1.0285 Ry au,          2.6143 Debye
        Dipole field          0.0019 Ry au, 
 
        Potential amp.       -0.1799 Ry
        Total length         46.3494 bohr
 

     total cpu time spent up to now is      185.2 secs

     total energy              =   -2491.79522711 Ry
     estimated scf accuracy    <   74464.31464366 Ry

     iteration #  3     ecut=    29.40 Ry     beta= 0.05
     Davidson diagonalization with overlap
     ethr =  1.00E-02,  avg # of iterations = 16.3

     negative rho (up, down):  3.447E-04 0.000E+00
 
     Adding external electric field

     Computed dipole along edir(3) : 
        Dipole               -2.9189 Ry au,         -7.4191 Debye
        Dipole field         -0.0055 Ry au, 
 
        Potential amp.        0.5106 Ry
        Total length         46.3494 bohr
 

     total cpu time spent up to now is      247.9 secs

     total energy              =   -2956.81225558 Ry
     estimated scf accuracy    <    7962.08052099 Ry

     iteration #  4     ecut=    29.40 Ry     beta= 0.05
     Davidson diagonalization with overlap
     ethr =  1.00E-02,  avg # of iterations = 11.9

     negative rho (up, down):  3.631E-04 0.000E+00
 
     Adding external electric field

     Computed dipole along edir(3) : 
        Dipole               -4.6820 Ry au,        -11.9004 Debye
        Dipole field         -0.0088 Ry au, 
 
        Potential amp.        0.8190 Ry
        Total length         46.3494 bohr
 

     total cpu time spent up to now is      277.9 secs

     total energy              =   -2967.73739394 Ry
     estimated scf accuracy    <    2218.48586164 Ry

     iteration #  5     ecut=    29.40 Ry     beta= 0.05
     Davidson diagonalization with overlap
     ethr =  1.00E-02,  avg # of iterations =  3.9

     negative rho (up, down):  4.151E-04 0.000E+00
 
     Adding external electric field

     Computed dipole along edir(3) : 
        Dipole               -7.3949 Ry au,        -18.7960 Debye
        Dipole field         -0.0140 Ry au, 
 
        Potential amp.        1.2936 Ry
        Total length         46.3494 bohr
 

     total cpu time spent up to now is      292.3 secs

     total energy              =   -2939.08596725 Ry
     estimated scf accuracy    <    2152.46379741 Ry

     iteration #  6     ecut=    29.40 Ry     beta= 0.05
     Davidson diagonalization with overlap
     ethr =  1.00E-02,  avg # of iterations = 13.6

     negative rho (up, down):  4.047E-04 0.000E+00
 
     Adding external electric field

     Computed dipole along edir(3) : 
        Dipole               -5.9791 Ry au,        -15.1973 Debye
        Dipole field         -0.0113 Ry au, 
 
        Potential amp.        1.0459 Ry
        Total length         46.3494 bohr
 

     total cpu time spent up to now is      325.7 secs

     total energy              =   -2979.63843355 Ry
     estimated scf accuracy    <      52.69334715 Ry

     iteration #  7     ecut=    29.40 Ry     beta= 0.05
     Davidson diagonalization with overlap
     ethr =  1.00E-02,  avg # of iterations =  1.2

     negative rho (up, down):  4.183E-04 0.000E+00
 
     Adding external electric field

     Computed dipole along edir(3) : 
        Dipole               -4.6179 Ry au,        -11.7376 Debye
        Dipole field         -0.0087 Ry au, 
 
        Potential amp.        0.8078 Ry
        Total length         46.3494 bohr
 

     total cpu time spent up to now is      338.6 secs

     total energy              =   -2978.38402355 Ry
     estimated scf accuracy    <      23.15934446 Ry

     iteration #  8     ecut=    29.40 Ry     beta= 0.05
     Davidson diagonalization with overlap
     ethr =  5.73E-03,  avg # of iterations =  2.7

     negative rho (up, down):  4.236E-04 0.000E+00
 
     Adding external electric field

     Computed dipole along edir(3) : 
        Dipole               -4.2876 Ry au,        -10.8981 Debye
        Dipole field         -0.0081 Ry au, 
 
        Potential amp.        0.7501 Ry
        Total length         46.3494 bohr
 

     total cpu time spent up to now is      352.2 secs

     total energy              =   -2978.55307376 Ry
     estimated scf accuracy    <      16.13136684 Ry

     iteration #  9     ecut=    29.40 Ry     beta= 0.05
     Davidson diagonalization with overlap
     ethr =  3.99E-03,  avg # of iterations =  1.1

     negative rho (up, down):  6.534E-04 0.000E+00
 
     Adding external electric field

     Computed dipole along edir(3) : 
        Dipole                2.1616 Ry au,          5.4942 Debye
        Dipole field          0.0041 Ry au, 
 
        Potential amp.       -0.3781 Ry
        Total length         46.3494 bohr
 

     total cpu time spent up to now is      365.8 secs

     total energy              =   -2973.88418576 Ry
     estimated scf accuracy    <      15.27503148 Ry

     iteration # 10     ecut=    29.40 Ry     beta= 0.05
     Davidson diagonalization with overlap
     ethr =  3.78E-03,  avg # of iterations = 14.9

     negative rho (up, down):  9.801E-04 0.000E+00
 
     Adding external electric field

     Computed dipole along edir(3) : 
        Dipole                4.5345 Ry au,         11.5256 Debye
        Dipole field          0.0086 Ry au, 
 
        Potential amp.       -0.7932 Ry
        Total length         46.3494 bohr
 

     total cpu time spent up to now is      396.9 secs

     total energy              =   -3035.99790595 Ry
     estimated scf accuracy    <    3583.14600147 Ry

     iteration # 11     ecut=    29.40 Ry     beta= 0.05
     Davidson diagonalization with overlap
     ethr =  3.78E-03,  avg # of iterations =  3.5

     negative rho (up, down):  1.005E-03 0.000E+00
 
     Adding external electric field

     Computed dipole along edir(3) : 
        Dipole                3.7770 Ry au,          9.6002 Debye
        Dipole field          0.0071 Ry au, 
 
        Potential amp.       -0.6607 Ry
        Total length         46.3494 bohr
 

     total cpu time spent up to now is      411.3 secs

     total energy              =   -3021.90104466 Ry
     estimated scf accuracy    <    4096.96984220 Ry

     iteration # 12     ecut=    29.40 Ry     beta= 0.05
     Davidson diagonalization with overlap
     ethr =  3.78E-03,  avg # of iterations =  1.3

     negative rho (up, down):  9.609E-04 0.000E+00
 
     Adding external electric field

     Computed dipole along edir(3) : 
        Dipole                2.1454 Ry au,          5.4532 Debye
        Dipole field          0.0040 Ry au, 
 
        Potential amp.       -0.3753 Ry
        Total length         46.3494 bohr
 

     total cpu time spent up to now is      424.3 secs

     total energy              =   -2998.40421592 Ry
     estimated scf accuracy    <    3513.66841866 Ry

     iteration # 13     ecut=    29.40 Ry     beta= 0.05
     Davidson diagonalization with overlap
     ethr =  3.78E-03,  avg # of iterations =  3.0

     negative rho (up, down):  1.007E-03 0.000E+00
 
     Adding external electric field

     Computed dipole along edir(3) : 
        Dipole                2.0650 Ry au,          5.2488 Debye
        Dipole field          0.0039 Ry au, 
 
        Potential amp.       -0.3612 Ry
        Total length         46.3494 bohr
 

     total cpu time spent up to now is      438.5 secs

     total energy              =   -2997.20457945 Ry
     estimated scf accuracy    <    2900.71044683 Ry

     iteration # 14     ecut=    29.40 Ry     beta= 0.05
     Davidson diagonalization with overlap
     ethr =  3.78E-03,  avg # of iterations =  1.8

     negative rho (up, down):  9.921E-04 0.000E+00
 
     Adding external electric field

     Computed dipole along edir(3) : 
        Dipole                0.9057 Ry au,          2.3022 Debye
        Dipole field          0.0017 Ry au, 
 
        Potential amp.       -0.1584 Ry
        Total length         46.3494 bohr
 

     total cpu time spent up to now is      451.7 secs

     total energy              =   -2983.37356024 Ry
     estimated scf accuracy    <    2851.02705849 Ry

     iteration # 15     ecut=    29.40 Ry     beta= 0.05
     Davidson diagonalization with overlap
     ethr =  3.78E-03,  avg # of iterations = 10.4

     negative rho (up, down):  1.011E-03 0.000E+00
 
     Adding external electric field

     Computed dipole along edir(3) : 
        Dipole               -0.1168 Ry au,         -0.2968 Debye
        Dipole field         -0.0002 Ry au, 
 
        Potential amp.        0.0204 Ry
        Total length         46.3494 bohr
 

     total cpu time spent up to now is      470.3 secs

     total energy              =   -2969.97648886 Ry
     estimated scf accuracy    <    2089.49301336 Ry

     iteration # 16     ecut=    29.40 Ry     beta= 0.05
     Davidson diagonalization with overlap
     c_bands:  1 eigenvalues not converged
     c_bands:  1 eigenvalues not converged
     ethr =  3.78E-03,  avg # of iterations = 16.8

     negative rho (up, down):  9.607E-04 0.000E+00
 
     Adding external electric field

     Computed dipole along edir(3) : 
        Dipole               -0.9042 Ry au,         -2.2982 Debye
        Dipole field         -0.0017 Ry au, 
 
        Potential amp.        0.1582 Ry
        Total length         46.3494 bohr
 

     total cpu time spent up to now is      497.9 secs

     total energy              =   -2975.22463723 Ry
     estimated scf accuracy    <     218.02294071 Ry

     iteration # 17     ecut=    29.40 Ry     beta= 0.05
     Davidson diagonalization with overlap
     ethr =  3.78E-03,  avg # of iterations =  5.5

     negative rho (up, down):  9.112E-04 0.000E+00
 
     Adding external electric field

     Computed dipole along edir(3) : 
        Dipole               -2.0584 Ry au,         -5.2320 Debye
        Dipole field         -0.0039 Ry au, 
 
        Potential amp.        0.3601 Ry
        Total length         46.3494 bohr
 

     total cpu time spent up to now is      513.0 secs

     total energy              =   -2972.39209382 Ry
     estimated scf accuracy    <     119.54835596 Ry

     iteration # 18     ecut=    29.40 Ry     beta= 0.05
     Davidson diagonalization with overlap
     c_bands:  2 eigenvalues not converged
     c_bands:  1 eigenvalues not converged
     c_bands:  1 eigenvalues not converged
     c_bands:  5 eigenvalues not converged
     c_bands:  3 eigenvalues not converged
     ethr =  3.78E-03,  avg # of iterations = 18.8

     negative rho (up, down):  8.204E-04 0.000E+00
 
     Adding external electric field

     Computed dipole along edir(3) : 
        Dipole               -4.5498 Ry au,        -11.5644 Debye
        Dipole field         -0.0086 Ry au, 
 
        Potential amp.        0.7959 Ry
        Total length         46.3494 bohr
 

     total cpu time spent up to now is      538.5 secs

     total energy              =   -2977.20055503 Ry
     estimated scf accuracy    <      82.27198833 Ry

     iteration # 19     ecut=    29.40 Ry     beta= 0.05
     Davidson diagonalization with overlap
     ethr =  3.78E-03,  avg # of iterations = 10.3

     negative rho (up, down):  8.439E-04 0.000E+00
 
     Adding external electric field

     Computed dipole along edir(3) : 
        Dipole               -4.8573 Ry au,        -12.3461 Debye
        Dipole field         -0.0092 Ry au, 
 
        Potential amp.        0.8497 Ry
        Total length         46.3494 bohr
 

     total cpu time spent up to now is      560.0 secs

     total energy              =   -2984.38773847 Ry
     estimated scf accuracy    <     759.54998420 Ry

     iteration # 20     ecut=    29.40 Ry     beta= 0.05
     Davidson diagonalization with overlap
     c_bands:  1 eigenvalues not converged
     ethr =  3.78E-03,  avg # of iterations =  3.8

     negative rho (up, down):  9.493E-04 0.000E+00
 
     Adding external electric field

     Computed dipole along edir(3) : 
        Dipole               -3.4521 Ry au,         -8.7745 Debye
        Dipole field         -0.0065 Ry au, 
 
        Potential amp.        0.6039 Ry
        Total length         46.3494 bohr
 

     total cpu time spent up to now is      574.5 secs

     total energy              =   -2978.68204165 Ry
     estimated scf accuracy    <     929.24009282 Ry

     iteration # 21     ecut=    29.40 Ry     beta= 0.05
     Davidson diagonalization with overlap
     ethr =  3.78E-03,  avg # of iterations =  1.7

     negative rho (up, down):  1.402E-03 0.000E+00
 
     Adding external electric field

     Computed dipole along edir(3) : 
        Dipole               -1.5433 Ry au,         -3.9227 Debye
        Dipole field         -0.0029 Ry au, 
 
        Potential amp.        0.2700 Ry
        Total length         46.3494 bohr
 

     total cpu time spent up to now is      587.6 secs

     total energy              =   -2970.89996172 Ry
     estimated scf accuracy    <     641.83200047 Ry

     iteration # 22     ecut=    29.40 Ry     beta= 0.05
     Davidson diagonalization with overlap
     ethr =  3.78E-03,  avg # of iterations =  6.6

     negative rho (up, down):  3.603E-02 0.000E+00
 
     Adding external electric field

     Computed dipole along edir(3) : 
        Dipole               -0.0048 Ry au,         -0.0123 Debye
        Dipole field         -0.0000 Ry au, 
 
        Potential amp.        0.0008 Ry
        Total length         46.3494 bohr
 

     total cpu time spent up to now is      603.6 secs

     total energy              =   -2971.91455886 Ry
     estimated scf accuracy    <      90.71579250 Ry

     iteration # 23     ecut=    29.40 Ry     beta= 0.05
     Davidson diagonalization with overlap
     ethr =  3.78E-03,  avg # of iterations = 14.4

     negative rho (up, down):  2.567E-02 0.000E+00
 
     Adding external electric field

     Computed dipole along edir(3) : 
        Dipole               -0.6974 Ry au,         -1.7727 Debye
        Dipole field         -0.0013 Ry au, 
 
        Potential amp.        0.1220 Ry
        Total length         46.3494 bohr
 

     total cpu time spent up to now is      628.3 secs

     total energy              =   -2975.97858412 Ry
     estimated scf accuracy    <     230.47996450 Ry

     iteration # 24     ecut=    29.40 Ry     beta= 0.05
     Davidson diagonalization with overlap
     ethr =  3.78E-03,  avg # of iterations =  2.9

     negative rho (up, down):  2.094E-02 0.000E+00
 
     Adding external electric field

     Computed dipole along edir(3) : 
        Dipole               -0.8447 Ry au,         -2.1470 Debye
        Dipole field         -0.0016 Ry au, 
 
        Potential amp.        0.1478 Ry
        Total length         46.3494 bohr
 

     total cpu time spent up to now is      642.2 secs

     total energy              =   -2975.08284757 Ry
     estimated scf accuracy    <     136.92439560 Ry

     iteration # 25     ecut=    29.40 Ry     beta= 0.05
     Davidson diagonalization with overlap
     ethr =  3.78E-03,  avg # of iterations =  5.1

     negative rho (up, down):  2.666E-02 0.000E+00
 
     Adding external electric field

     Computed dipole along edir(3) : 
        Dipole               -1.1286 Ry au,         -2.8686 Debye
        Dipole field         -0.0021 Ry au, 
 
        Potential amp.        0.1974 Ry
        Total length         46.3494 bohr
 

     total cpu time spent up to now is      657.0 secs

     total energy              =   -2974.27107449 Ry
     estimated scf accuracy    <     100.41301197 Ry

     iteration # 26     ecut=    29.40 Ry     beta= 0.05
     Davidson diagonalization with overlap
     c_bands:  1 eigenvalues not converged
     c_bands:  2 eigenvalues not converged
     ethr =  3.78E-03,  avg # of iterations = 16.6

     negative rho (up, down):  1.377E-03 0.000E+00
 
     Adding external electric field

     Computed dipole along edir(3) : 
        Dipole               -1.5507 Ry au,         -3.9415 Debye
        Dipole field         -0.0029 Ry au, 
 
        Potential amp.        0.2713 Ry
        Total length         46.3494 bohr
 

     total cpu time spent up to now is      677.7 secs

     total energy              =   -2974.65789386 Ry
     estimated scf accuracy    <      20.72967290 Ry

     iteration # 27     ecut=    29.40 Ry     beta= 0.05
     Davidson diagonalization with overlap
     ethr =  3.78E-03,  avg # of iterations =  4.4

     negative rho (up, down):  6.491E-04 0.000E+00
 
     Adding external electric field

     Computed dipole along edir(3) : 
        Dipole               -1.9642 Ry au,         -4.9926 Debye
        Dipole field         -0.0037 Ry au, 
 
        Potential amp.        0.3436 Ry
        Total length         46.3494 bohr
 

     total cpu time spent up to now is      692.4 secs

     total energy              =   -2973.47236724 Ry
     estimated scf accuracy    <      14.40192307 Ry

     iteration # 28     ecut=    29.40 Ry     beta= 0.05
     Davidson diagonalization with overlap
     ethr =  3.56E-03,  avg # of iterations =  7.3

     negative rho (up, down):  4.128E-03 0.000E+00
 
     Adding external electric field

     Computed dipole along edir(3) : 
        Dipole               -0.4268 Ry au,         -1.0848 Debye
        Dipole field         -0.0008 Ry au, 
 
        Potential amp.        0.0747 Ry
        Total length         46.3494 bohr
 

     total cpu time spent up to now is      709.3 secs

     total energy              =   -2974.54339990 Ry
     estimated scf accuracy    <       3.18154312 Ry

     iteration # 29     ecut=    29.40 Ry     beta= 0.05
     Davidson diagonalization with overlap
     ethr =  7.88E-04,  avg # of iterations = 10.3

     negative rho (up, down):  3.072E-03 0.000E+00
 
     Adding external electric field

     Computed dipole along edir(3) : 
        Dipole               -0.4030 Ry au,         -1.0243 Debye
        Dipole field         -0.0008 Ry au, 
 
        Potential amp.        0.0705 Ry
        Total length         46.3494 bohr
 

     total cpu time spent up to now is      731.7 secs

     total energy              =   -2975.20958577 Ry
     estimated scf accuracy    <       4.32234883 Ry

     iteration # 30     ecut=    29.40 Ry     beta= 0.05
     Davidson diagonalization with overlap
     ethr =  7.88E-04,  avg # of iterations =  1.0

     negative rho (up, down):  1.295E-03 0.000E+00
 
     Adding external electric field

     Computed dipole along edir(3) : 
        Dipole               -0.3068 Ry au,         -0.7798 Debye
        Dipole field         -0.0006 Ry au, 
 
        Potential amp.        0.0537 Ry
        Total length         46.3494 bohr
 

     total cpu time spent up to now is      744.5 secs

     total energy              =   -2974.84562516 Ry
     estimated scf accuracy    <       2.74417170 Ry

     iteration # 31     ecut=    29.40 Ry     beta= 0.05
     Davidson diagonalization with overlap
     ethr =  6.79E-04,  avg # of iterations =  8.2

     negative rho (up, down):  1.618E-03 0.000E+00
 
     Adding external electric field

     Computed dipole along edir(3) : 
        Dipole                0.0243 Ry au,          0.0617 Debye
        Dipole field          0.0000 Ry au, 
 
        Potential amp.       -0.0042 Ry
        Total length         46.3494 bohr
 

     total cpu time spent up to now is      761.5 secs

     total energy              =   -2975.08825744 Ry
     estimated scf accuracy    <       0.60927848 Ry

     iteration # 32     ecut=    29.40 Ry     beta= 0.05
     Davidson diagonalization with overlap
     c_bands:  1 eigenvalues not converged
     c_bands:  1 eigenvalues not converged
     c_bands:  1 eigenvalues not converged
     ethr =  1.51E-04,  avg # of iterations = 16.6

     negative rho (up, down):  1.415E-03 0.000E+00
 
     Adding external electric field

     Computed dipole along edir(3) : 
        Dipole               -0.0901 Ry au,         -0.2289 Debye
        Dipole field         -0.0002 Ry au, 
 
        Potential amp.        0.0158 Ry
        Total length         46.3494 bohr
 

     total cpu time spent up to now is      783.4 secs

     total energy              =   -2975.13730517 Ry
     estimated scf accuracy    <       0.32394968 Ry

     iteration # 33     ecut=    29.40 Ry     beta= 0.05
     Davidson diagonalization with overlap
     c_bands:  3 eigenvalues not converged
     c_bands:  1 eigenvalues not converged
     c_bands:  1 eigenvalues not converged
     c_bands:  2 eigenvalues not converged
     ethr =  8.02E-05,  avg # of iterations = 12.5

     negative rho (up, down):  1.539E-03 0.000E+00
 
     Adding external electric field

     Computed dipole along edir(3) : 
        Dipole                0.1358 Ry au,          0.3451 Debye
        Dipole field          0.0003 Ry au, 
 
        Potential amp.       -0.0238 Ry
        Total length         46.3494 bohr
 

     total cpu time spent up to now is      801.7 secs

     total energy              =   -2975.13956684 Ry
     estimated scf accuracy    <       0.94793812 Ry

     iteration # 34     ecut=    29.40 Ry     beta= 0.05
     Davidson diagonalization with overlap
     c_bands:  1 eigenvalues not converged
     c_bands:  1 eigenvalues not converged
     ethr =  8.02E-05,  avg # of iterations =  7.6

     negative rho (up, down):  2.348E-03 0.000E+00
 
     Adding external electric field

     Computed dipole along edir(3) : 
        Dipole                0.6657 Ry au,          1.6920 Debye
        Dipole field          0.0013 Ry au, 
 
        Potential amp.       -0.1165 Ry
        Total length         46.3494 bohr
 

     total cpu time spent up to now is      817.2 secs

     total energy              =   -2975.11328617 Ry
     estimated scf accuracy    <       0.33052978 Ry

     iteration # 35     ecut=    29.40 Ry     beta= 0.05
     Davidson diagonalization with overlap
     c_bands:  2 eigenvalues not converged
     ethr =  8.02E-05,  avg # of iterations = 10.7

     negative rho (up, down):  4.050E-03 0.000E+00
 
     Adding external electric field

     Computed dipole along edir(3) : 
        Dipole                1.2228 Ry au,          3.1081 Debye
        Dipole field          0.0023 Ry au, 
 
        Potential amp.       -0.2139 Ry
        Total length         46.3494 bohr
 

     total cpu time spent up to now is      835.1 secs

     total energy              =   -2975.14003587 Ry
     estimated scf accuracy    <       0.24159988 Ry

     iteration # 36     ecut=    29.40 Ry     beta= 0.05
     Davidson diagonalization with overlap
     c_bands:  3 eigenvalues not converged
     c_bands:  2 eigenvalues not converged
     c_bands:  1 eigenvalues not converged
     c_bands:  1 eigenvalues not converged
     ethr =  5.98E-05,  avg # of iterations = 13.3

     negative rho (up, down):  2.287E-03 0.000E+00
 
     Adding external electric field

     Computed dipole along edir(3) : 
        Dipole                0.8245 Ry au,          2.0958 Debye
        Dipole field          0.0016 Ry au, 
 
        Potential amp.       -0.1442 Ry
        Total length         46.3494 bohr
 

     total cpu time spent up to now is      854.5 secs

     total energy              =   -2975.08128477 Ry
     estimated scf accuracy    <       0.83317386 Ry

     iteration # 37     ecut=    29.40 Ry     beta= 0.05
     Davidson diagonalization with overlap
     ethr =  5.98E-05,  avg # of iterations =  9.4

     negative rho (up, down):  2.804E-03 0.000E+00
 
     Adding external electric field

     Computed dipole along edir(3) : 
        Dipole                0.9006 Ry au,          2.2891 Debye
        Dipole field          0.0017 Ry au, 
 
        Potential amp.       -0.1575 Ry
        Total length         46.3494 bohr
 

     total cpu time spent up to now is      872.1 secs

     total energy              =   -2975.11164185 Ry
     estimated scf accuracy    <       0.13345615 Ry

     iteration # 38     ecut=    29.40 Ry     beta= 0.05
     Davidson diagonalization with overlap
     c_bands:  1 eigenvalues not converged
     c_bands:  3 eigenvalues not converged
     c_bands:  1 eigenvalues not converged
     c_bands:  1 eigenvalues not converged
     ethr =  3.30E-05,  avg # of iterations = 14.2

     negative rho (up, down):  4.195E-03 0.000E+00
 
     Adding external electric field

     Computed dipole along edir(3) : 
        Dipole                1.2108 Ry au,          3.0776 Debye
        Dipole field          0.0023 Ry au, 
 
        Potential amp.       -0.2118 Ry
        Total length         46.3494 bohr
 

     total cpu time spent up to now is      890.9 secs

     total energy              =   -2975.11569873 Ry
     estimated scf accuracy    <       0.04865977 Ry

     iteration # 39     ecut=    29.40 Ry     beta= 0.05
     Davidson diagonalization with overlap
     c_bands:  2 eigenvalues not converged
     c_bands:  1 eigenvalues not converged
     c_bands:  2 eigenvalues not converged
     c_bands:  1 eigenvalues not converged
     c_bands:  3 eigenvalues not converged
     c_bands:  1 eigenvalues not converged
     c_bands:  1 eigenvalues not converged
     ethr =  1.20E-05,  avg # of iterations = 17.9

     negative rho (up, down):  4.651E-03 0.000E+00
 
     Adding external electric field

     Computed dipole along edir(3) : 
        Dipole                1.2176 Ry au,          3.0950 Debye
        Dipole field          0.0023 Ry au, 
 
        Potential amp.       -0.2130 Ry
        Total length         46.3494 bohr
 

     total cpu time spent up to now is      914.4 secs

     total energy              =   -2975.11789987 Ry
     estimated scf accuracy    <       0.05035282 Ry

     iteration # 40     ecut=    29.40 Ry     beta= 0.05
     Davidson diagonalization with overlap
     ethr =  1.20E-05,  avg # of iterations = 10.1

     negative rho (up, down):  5.678E-03 0.000E+00
 
     Adding external electric field

     Computed dipole along edir(3) : 
        Dipole                1.2908 Ry au,          3.2809 Debye
        Dipole field          0.0024 Ry au, 
 
        Potential amp.       -0.2258 Ry
        Total length         46.3494 bohr
 

     total cpu time spent up to now is      931.8 secs

     total energy              =   -2975.12118241 Ry
     estimated scf accuracy    <       0.02239541 Ry

     iteration # 41     ecut=    29.40 Ry     beta= 0.05
     Davidson diagonalization with overlap
     c_bands:  3 eigenvalues not converged
     c_bands:  1 eigenvalues not converged
     ethr =  5.54E-06,  avg # of iterations = 13.6

     negative rho (up, down):  7.709E-03 0.000E+00
 
     Adding external electric field

     Computed dipole along edir(3) : 
        Dipole                1.3566 Ry au,          3.4481 Debye
        Dipole field          0.0026 Ry au, 
 
        Potential amp.       -0.2373 Ry
        Total length         46.3494 bohr
 

     total cpu time spent up to now is      950.4 secs

     total energy              =   -2975.12236162 Ry
     estimated scf accuracy    <       0.01033773 Ry

     iteration # 42     ecut=    29.40 Ry     beta= 0.05
     Davidson diagonalization with overlap
     c_bands:  1 eigenvalues not converged
     c_bands:  1 eigenvalues not converged
     c_bands:  1 eigenvalues not converged
     c_bands:  1 eigenvalues not converged
     c_bands:  2 eigenvalues not converged
     ethr =  2.56E-06,  avg # of iterations = 16.9

     negative rho (up, down):  8.152E-03 0.000E+00
 
     Adding external electric field

     Computed dipole along edir(3) : 
        Dipole                1.3368 Ry au,          3.3977 Debye
        Dipole field          0.0025 Ry au, 
 
        Potential amp.       -0.2338 Ry
        Total length         46.3494 bohr
 

     total cpu time spent up to now is      973.7 secs

     total energy              =   -2975.12323267 Ry
     estimated scf accuracy    <       0.01229932 Ry

     iteration # 43     ecut=    29.40 Ry     beta= 0.05
     Davidson diagonalization with overlap
     ethr =  2.56E-06,  avg # of iterations =  5.7

     negative rho (up, down):  1.043E-02 0.000E+00
 
     Adding external electric field

     Computed dipole along edir(3) : 
        Dipole                1.3654 Ry au,          3.4706 Debye
        Dipole field          0.0026 Ry au, 
 
        Potential amp.       -0.2389 Ry
        Total length         46.3494 bohr
 

     total cpu time spent up to now is      988.6 secs

     total energy              =   -2975.12307968 Ry
     estimated scf accuracy    <       0.00396001 Ry

     iteration # 44     ecut=    29.40 Ry     beta= 0.05
     Davidson diagonalization with overlap
     ethr =  9.80E-07,  avg # of iterations = 12.7

     negative rho (up, down):  1.101E-02 0.000E+00
 
     Adding external electric field

     Computed dipole along edir(3) : 
        Dipole                1.3690 Ry au,          3.4796 Debye
        Dipole field          0.0026 Ry au, 
 
        Potential amp.       -0.2395 Ry
        Total length         46.3494 bohr
 

     total cpu time spent up to now is     1012.4 secs

     total energy              =   -2975.12366958 Ry
     estimated scf accuracy    <       0.00193046 Ry

     iteration # 45     ecut=    29.40 Ry     beta= 0.05
     Davidson diagonalization with overlap
     ethr =  4.78E-07,  avg # of iterations = 11.2

     negative rho (up, down):  1.136E-02 0.000E+00
 
     Adding external electric field

     Computed dipole along edir(3) : 
        Dipole                1.3684 Ry au,          3.4781 Debye
        Dipole field          0.0026 Ry au, 
 
        Potential amp.       -0.2394 Ry
        Total length         46.3494 bohr
 

     total cpu time spent up to now is     1030.6 secs

     total energy              =   -2975.12381457 Ry
     estimated scf accuracy    <       0.00111424 Ry

     iteration # 46     ecut=    29.40 Ry     beta= 0.05
     Davidson diagonalization with overlap
     ethr =  2.76E-07,  avg # of iterations = 10.3

     negative rho (up, down):  1.210E-02 0.000E+00
 
     Adding external electric field

     Computed dipole along edir(3) : 
        Dipole                1.3677 Ry au,          3.4763 Debye
        Dipole field          0.0026 Ry au, 
 
        Potential amp.       -0.2393 Ry
        Total length         46.3494 bohr
 

     total cpu time spent up to now is     1048.4 secs

     total energy              =   -2975.12391806 Ry
     estimated scf accuracy    <       0.00069444 Ry

     iteration # 47     ecut=    29.40 Ry     beta= 0.05
     Davidson diagonalization with overlap
     ethr =  1.72E-07,  avg # of iterations =  7.2

     negative rho (up, down):  1.314E-02 0.000E+00
 
     Adding external electric field

     Computed dipole along edir(3) : 
        Dipole                1.3673 Ry au,          3.4754 Debye
        Dipole field          0.0026 Ry au, 
 
        Potential amp.       -0.2392 Ry
        Total length         46.3494 bohr
 

     total cpu time spent up to now is     1064.1 secs

     total energy              =   -2975.12399723 Ry
     estimated scf accuracy    <       0.00033013 Ry

     iteration # 48     ecut=    29.40 Ry     beta= 0.05
     Davidson diagonalization with overlap
     ethr =  8.17E-08,  avg # of iterations = 10.5

     negative rho (up, down):  1.314E-02 0.000E+00
 
     Adding external electric field

     Computed dipole along edir(3) : 
        Dipole                1.3697 Ry au,          3.4814 Debye
        Dipole field          0.0026 Ry au, 
 
        Potential amp.       -0.2396 Ry
        Total length         46.3494 bohr
 

     total cpu time spent up to now is     1086.1 secs

     total energy              =   -2975.12407774 Ry
     estimated scf accuracy    <       0.00018152 Ry

     iteration # 49     ecut=    29.40 Ry     beta= 0.05
     Davidson diagonalization with overlap
     ethr =  4.49E-08,  avg # of iterations =  5.8

     negative rho (up, down):  1.322E-02 0.000E+00
 
     Adding external electric field

     Computed dipole along edir(3) : 
        Dipole                1.3734 Ry au,          3.4909 Debye
        Dipole field          0.0026 Ry au, 
 
        Potential amp.       -0.2403 Ry
        Total length         46.3494 bohr
 

     total cpu time spent up to now is     1101.0 secs

     total energy              =   -2975.12410293 Ry
     estimated scf accuracy    <       0.00014606 Ry

     iteration # 50     ecut=    29.40 Ry     beta= 0.05
     Davidson diagonalization with overlap
     c_bands:  1 eigenvalues not converged
     ethr =  3.62E-08,  avg # of iterations = 12.9

     negative rho (up, down):  1.369E-02 0.000E+00
 
     Adding external electric field

     Computed dipole along edir(3) : 
        Dipole                1.3744 Ry au,          3.4934 Debye
        Dipole field          0.0026 Ry au, 
 
        Potential amp.       -0.2404 Ry
        Total length         46.3494 bohr
 

     total cpu time spent up to now is     1120.6 secs

     total energy              =   -2975.12414325 Ry
     estimated scf accuracy    <       0.00010181 Ry

     iteration # 51     ecut=    29.40 Ry     beta= 0.05
     Davidson diagonalization with overlap
     ethr =  2.52E-08,  avg # of iterations = 12.5

     negative rho (up, down):  1.362E-02 0.000E+00
 
     Adding external electric field

     Computed dipole along edir(3) : 
        Dipole                1.3762 Ry au,          3.4979 Debye
        Dipole field          0.0026 Ry au, 
 
        Potential amp.       -0.2407 Ry
        Total length         46.3494 bohr
 

     total cpu time spent up to now is     1143.7 secs

     total energy              =   -2975.12417713 Ry
     estimated scf accuracy    <       0.00009579 Ry

     iteration # 52     ecut=    29.40 Ry     beta= 0.05
     Davidson diagonalization with overlap
     ethr =  2.37E-08,  avg # of iterations =  2.4

     negative rho (up, down):  1.361E-02 0.000E+00
 
     Adding external electric field

     Computed dipole along edir(3) : 
        Dipole                1.3758 Ry au,          3.4969 Debye
        Dipole field          0.0026 Ry au, 
 
        Potential amp.       -0.2407 Ry
        Total length         46.3494 bohr
 

     total cpu time spent up to now is     1157.6 secs

     total energy              =   -2975.12419240 Ry
     estimated scf accuracy    <       0.00007421 Ry

     iteration # 53     ecut=    29.40 Ry     beta= 0.05
     Davidson diagonalization with overlap
     ethr =  1.84E-08,  avg # of iterations = 10.7

     negative rho (up, down):  1.376E-02 0.000E+00
 
     Adding external electric field

     Computed dipole along edir(3) : 
        Dipole                1.3740 Ry au,          3.4923 Debye
        Dipole field          0.0026 Ry au, 
 
        Potential amp.       -0.2404 Ry
        Total length         46.3494 bohr
 

     total cpu time spent up to now is     1175.8 secs

     total energy              =   -2975.12421874 Ry
     estimated scf accuracy    <       0.00003708 Ry

     iteration # 54     ecut=    29.40 Ry     beta= 0.05
     Davidson diagonalization with overlap
     ethr =  9.18E-09,  avg # of iterations =  7.0

     negative rho (up, down):  1.366E-02 0.000E+00
 
     Adding external electric field

     Computed dipole along edir(3) : 
        Dipole                1.3756 Ry au,          3.4964 Debye
        Dipole field          0.0026 Ry au, 
 
        Potential amp.       -0.2406 Ry
        Total length         46.3494 bohr
 

     total cpu time spent up to now is     1191.9 secs

     total energy              =   -2975.12423621 Ry
     estimated scf accuracy    <       0.00002162 Ry

     iteration # 55     ecut=    29.40 Ry     beta= 0.05
     Davidson diagonalization with overlap
     ethr =  5.35E-09,  avg # of iterations = 12.4

     negative rho (up, down):  1.369E-02 0.000E+00
 
     Adding external electric field

     Computed dipole along edir(3) : 
        Dipole                1.3757 Ry au,          3.4967 Debye
        Dipole field          0.0026 Ry au, 
 
        Potential amp.       -0.2407 Ry
        Total length         46.3494 bohr
 

     total cpu time spent up to now is     1216.0 secs

     total energy              =   -2975.12425843 Ry
     estimated scf accuracy    <       0.00001338 Ry

     iteration # 56     ecut=    29.40 Ry     beta= 0.05
     Davidson diagonalization with overlap
     ethr =  3.31E-09,  avg # of iterations =  3.4

     negative rho (up, down):  1.384E-02 0.000E+00
 
     Adding external electric field

     Computed dipole along edir(3) : 
        Dipole                1.3771 Ry au,          3.5001 Debye
        Dipole field          0.0026 Ry au, 
 
        Potential amp.       -0.2409 Ry
        Total length         46.3494 bohr
 

     total cpu time spent up to now is     1230.1 secs

     total energy              =   -2975.12427462 Ry
     estimated scf accuracy    <       0.00000712 Ry

     iteration # 57     ecut=    29.40 Ry     beta= 0.05
     Davidson diagonalization with overlap
     c_bands:  1 eigenvalues not converged
     ethr =  1.76E-09,  avg # of iterations = 16.3

     negative rho (up, down):  1.380E-02 0.000E+00
 
     Adding external electric field

     Computed dipole along edir(3) : 
        Dipole                1.3763 Ry au,          3.4981 Debye
        Dipole field          0.0026 Ry au, 
 
        Potential amp.       -0.2408 Ry
        Total length         46.3494 bohr
 

     total cpu time spent up to now is     1256.5 secs

     total energy              =   -2975.12429079 Ry
     estimated scf accuracy    <       0.00000737 Ry

     iteration # 58     ecut=    29.40 Ry     beta= 0.05
     Davidson diagonalization with overlap
     ethr =  1.76E-09,  avg # of iterations =  4.6

     negative rho (up, down):  1.377E-02 0.000E+00
 
     Adding external electric field

     Computed dipole along edir(3) : 
        Dipole                1.3760 Ry au,          3.4974 Debye
        Dipole field          0.0026 Ry au, 
 
        Potential amp.       -0.2407 Ry
        Total length         46.3494 bohr
 

     total cpu time spent up to now is     1271.2 secs

     total energy              =   -2975.12430385 Ry
     estimated scf accuracy    <       0.00000370 Ry

     iteration # 59     ecut=    29.40 Ry     beta= 0.05
     Davidson diagonalization with overlap
     ethr =  9.17E-10,  avg # of iterations = 11.7

     negative rho (up, down):  1.377E-02 0.000E+00
 
     Adding external electric field

     Computed dipole along edir(3) : 
        Dipole                1.3764 Ry au,          3.4984 Debye
        Dipole field          0.0026 Ry au, 
 
        Potential amp.       -0.2408 Ry
        Total length         46.3494 bohr
 

     total cpu time spent up to now is     1293.1 secs

     total energy              =   -2975.12431644 Ry
     estimated scf accuracy    <       0.00000134 Ry

     iteration # 60     ecut=    29.40 Ry     beta= 0.05
     Davidson diagonalization with overlap
     ethr =  3.31E-10,  avg # of iterations =  6.8

     negative rho (up, down):  1.373E-02 0.000E+00
 
     Adding external electric field

     Computed dipole along edir(3) : 
        Dipole                1.3759 Ry au,          3.4971 Debye
        Dipole field          0.0026 Ry au, 
 
        Potential amp.       -0.2407 Ry
        Total length         46.3494 bohr
 

     total cpu time spent up to now is     1309.2 secs

     total energy              =   -2975.12432757 Ry
     estimated scf accuracy    <       0.00000100 Ry

     iteration # 61     ecut=    29.40 Ry     beta= 0.05
     Davidson diagonalization with overlap
     ethr =  2.47E-10,  avg # of iterations = 10.4

     negative rho (up, down):  1.374E-02 0.000E+00
 
     Adding external electric field

     Computed dipole along edir(3) : 
        Dipole                1.3758 Ry au,          3.4969 Debye
        Dipole field          0.0026 Ry au, 
 
        Potential amp.       -0.2407 Ry
        Total length         46.3494 bohr
 

     total cpu time spent up to now is     1330.2 secs

     total energy              =   -2975.12433758 Ry
     estimated scf accuracy    <       0.00000056 Ry

     iteration # 62     ecut=    29.40 Ry     beta= 0.05
     Davidson diagonalization with overlap
     ethr =  1.39E-10,  avg # of iterations =  4.0

     negative rho (up, down):  1.377E-02 0.000E+00
 
     Adding external electric field

     Computed dipole along edir(3) : 
        Dipole                1.3755 Ry au,          3.4962 Debye
        Dipole field          0.0026 Ry au, 
 
        Potential amp.       -0.2406 Ry
        Total length         46.3494 bohr
 

     total cpu time spent up to now is     1345.0 secs

     total energy              =   -2975.12434658 Ry
     estimated scf accuracy    <       0.00000032 Ry

     iteration # 63     ecut=    29.40 Ry     beta= 0.05
     Davidson diagonalization with overlap
     c_bands:  3 eigenvalues not converged
     ethr =  7.91E-11,  avg # of iterations = 13.3

     negative rho (up, down):  1.374E-02 0.000E+00
 
     Adding external electric field

     Computed dipole along edir(3) : 
        Dipole                1.3755 Ry au,          3.4961 Debye
        Dipole field          0.0026 Ry au, 
 
        Potential amp.       -0.2406 Ry
        Total length         46.3494 bohr
 

     total cpu time spent up to now is     1369.9 secs

     total energy              =   -2975.12435464 Ry
     estimated scf accuracy    <       0.00000047 Ry

     iteration # 64     ecut=    29.40 Ry     beta= 0.05
     Davidson diagonalization with overlap
     ethr =  7.91E-11,  avg # of iterations =  8.7

     negative rho (up, down):  1.373E-02 0.000E+00
 
     Adding external electric field

     Computed dipole along edir(3) : 
        Dipole                1.3755 Ry au,          3.4961 Debye
        Dipole field          0.0026 Ry au, 
 
        Potential amp.       -0.2406 Ry
        Total length         46.3494 bohr
 

     total cpu time spent up to now is     1387.4 secs

     total energy              =   -2975.12436188 Ry
     estimated scf accuracy    <       0.00000020 Ry

     iteration # 65     ecut=    29.40 Ry     beta= 0.05
     Davidson diagonalization with overlap
     ethr =  4.90E-11,  avg # of iterations =  8.0

     negative rho (up, down):  1.373E-02 0.000E+00
 
     Adding external electric field

     Computed dipole along edir(3) : 
        Dipole                1.3753 Ry au,          3.4957 Debye
        Dipole field          0.0026 Ry au, 
 
        Potential amp.       -0.2406 Ry
        Total length         46.3494 bohr
 

     total cpu time spent up to now is     1403.5 secs

     total energy              =   -2975.12436843 Ry
     estimated scf accuracy    <       0.00000016 Ry

     iteration # 66     ecut=    29.40 Ry     beta= 0.05
     Davidson diagonalization with overlap
     ethr =  3.88E-11,  avg # of iterations =  8.3

     negative rho (up, down):  1.373E-02 0.000E+00
 
     Adding external electric field

     Computed dipole along edir(3) : 
        Dipole                1.3753 Ry au,          3.4956 Debye
        Dipole field          0.0026 Ry au, 
 
        Potential amp.       -0.2406 Ry
        Total length         46.3494 bohr
 

     total cpu time spent up to now is     1420.5 secs

     total energy              =   -2975.12437439 Ry
     estimated scf accuracy    <       0.00000009 Ry

     iteration # 67     ecut=    29.40 Ry     beta= 0.05
     Davidson diagonalization with overlap
     ethr =  2.13E-11,  avg # of iterations = 10.7

     negative rho (up, down):  1.375E-02 0.000E+00
 
     Adding external electric field

     Computed dipole along edir(3) : 
        Dipole                1.3752 Ry au,          3.4955 Debye
        Dipole field          0.0026 Ry au, 
 
        Potential amp.       -0.2406 Ry
        Total length         46.3494 bohr
 

     total cpu time spent up to now is     1442.2 secs

     total energy              =   -2975.12437970 Ry
     estimated scf accuracy    <       0.00000017 Ry

     iteration # 68     ecut=    29.40 Ry     beta= 0.05
     Davidson diagonalization with overlap
     ethr =  2.13E-11,  avg # of iterations =  9.8

     negative rho (up, down):  1.379E-02 0.000E+00
 
     Adding external electric field

     Computed dipole along edir(3) : 
        Dipole                1.3762 Ry au,          3.4978 Debye
        Dipole field          0.0026 Ry au, 
 
        Potential amp.       -0.2407 Ry
        Total length         46.3494 bohr
 

     total cpu time spent up to now is     1460.2 secs

     End of self-consistent calculation

          k = 0.0000 0.0000 0.0000 ( 18029 PWs)   bands (ev):

   -55.3859 -55.2461 -55.2120 -55.1211 -55.0859 -55.0796 -55.0757 -55.0417
   -55.0351 -54.9870 -54.9590 -54.9230 -54.8704 -54.7411 -54.2268 -54.1927
   -31.7315 -31.7150 -31.6131 -31.6055 -31.5842 -31.5775 -31.5369 -31.5286
   -31.5188 -31.4920 -31.4486 -31.4446 -31.3986 -31.3712 -31.3696 -31.3594
   -31.3533 -31.3126 -31.3034 -31.3016 -31.2845 -31.2741 -31.2696 -31.2644
   -31.2627 -31.2237 -31.2196 -31.2191 -31.2149 -31.2029 -31.1935 -31.1884
   -31.1811 -31.1477 -31.1412 -31.1101 -31.1024 -31.0862 -31.0804 -31.0764
   -31.0023 -30.9084 -30.6331 -30.5458 -30.5234 -30.4505 -30.3641 -30.2523
   -19.1868 -16.3136 -15.9249 -15.7687 -15.5876 -15.4490 -15.4085 -15.1852
   -15.1293 -15.0429 -15.0215 -14.9043 -14.7878 -14.7873 -14.7665 -14.7597
   -14.7428 -14.6992 -14.6936 -14.6904 -14.6721 -14.6506 -14.6297 -14.6199
   -14.5824 -14.5409 -14.3902 -14.3684 -14.3503 -14.3071 -14.1701 -13.9999
   -12.7255 -12.6090  -9.1944  -7.6667  -6.9077  -6.1373  -4.3095  -3.6072
    -3.2734  -3.1758  -3.1530  -3.1426  -3.0098  -2.8392  -2.6441  -2.5819
    -2.5196  -2.4050  -2.3765  -2.2805  -2.2580  -2.2177  -2.1616  -2.1387
    -2.1110  -2.0567  -2.0437  -2.0355  -1.9452  -1.9256  -1.8231  -1.8020
    -1.7680  -1.7103  -1.6838  -1.6170  -1.5853  -1.5629  -1.5610  -1.5530
    -1.5300  -1.5161  -1.4939  -1.4411  -1.4105  -1.3476  -1.2823  -1.2067
    -1.1325  -0.9096  -0.8632  -0.8433  -0.7901  -0.7513  -0.6887  -0.6644
    -0.6442  -0.6316  -0.5628  -0.4523  -0.4040  -0.3628  -0.3084  -0.2840
    -0.2522  -0.1465  -0.0696  -0.0512  -0.0061   0.0333   0.0591   0.1248
     0.1594   0.2011   0.2698   0.2834   0.3606   0.4004   0.4234   0.4709
     0.5101   0.5745   0.6189   0.6680   0.6753   0.7051   0.7225   0.7539
     0.8398   0.8575   0.8986   0.9330   0.9934   1.0479   1.0724   1.2474
     1.3722   1.4059   1.4752   1.7419   1.7996   1.8156   1.9903   2.3678
     2.4134   3.8400   3.9802   3.9912   3.9989   4.0678   4.1214   4.1439
     4.3261   4.3656   4.4838   4.5226

          k = 0.0000 0.0419 0.0000 ( 17933 PWs)   bands (ev):

   -55.3855 -55.2410 -55.2169 -55.1160 -55.0907 -55.0799 -55.0706 -55.0466
   -55.0319 -54.9901 -54.9584 -54.9202 -54.8730 -54.7416 -54.2217 -54.1976
   -31.6866 -31.6775 -31.6026 -31.5844 -31.5584 -31.5370 -31.5321 -31.5152
   -31.4842 -31.4654 -31.4172 -31.4100 -31.4080 -31.3847 -31.3616 -31.3562
   -31.3467 -31.3315 -31.3194 -31.3173 -31.2894 -31.2863 -31.2822 -31.2783
   -31.2640 -31.2578 -31.2405 -31.2212 -31.2156 -31.2145 -31.2120 -31.1969
   -31.1899 -31.1846 -31.1444 -31.1383 -31.1085 -31.1010 -31.0919 -31.0760
   -31.0019 -30.9418 -30.5790 -30.5424 -30.5265 -30.4379 -30.3766 -30.3094
   -19.1852 -16.3092 -15.8005 -15.6556 -15.4863 -15.3913 -15.3139 -15.1323
   -15.0865 -15.0508 -15.0408 -14.9686 -14.9431 -14.7813 -14.7615 -14.7325
   -14.7286 -14.7167 -14.7093 -14.6983 -14.6887 -14.6486 -14.6427 -14.6274
   -14.5947 -14.5130 -14.4473 -14.4141 -14.3888 -14.3646 -14.2184 -14.0937
   -12.7296 -12.6485  -9.1963  -7.6714  -6.9139  -6.1361  -4.2058  -3.7051
    -3.0918  -3.0201  -2.9948  -2.9791  -2.8599  -2.7140  -2.4894  -2.4436
    -2.3982  -2.3454  -2.3315  -2.2754  -2.2364  -2.2109  -2.1998  -2.1642
    -2.1319  -2.1145  -2.1054  -2.0223  -1.9972  -1.9772  -1.9475  -1.9306
    -1.9102  -1.8680  -1.8144  -1.7634  -1.7564  -1.7102  -1.6686  -1.6487
    -1.5516  -1.5083  -1.4758  -1.3854  -1.3499  -1.2561  -1.1642  -1.0397
    -0.9733  -0.9520  -0.8808  -0.8735  -0.7340  -0.7029  -0.5638  -0.4943
    -0.4731  -0.4637  -0.4527  -0.4054  -0.3543  -0.2662  -0.2558  -0.2084
    -0.1903  -0.1666  -0.0796  -0.0744  -0.0461  -0.0084   0.0128   0.0793
     0.0841   0.1345   0.1845   0.2384   0.2512   0.3154   0.4008   0.4471
     0.4681   0.5082   0.5466   0.5737   0.5854   0.6068   0.6442   0.6967
     0.7185   0.8333   0.8758   0.9206   0.9527   1.0064   1.0757   1.0866
     1.1426   1.2165   1.3387   1.4159   1.6975   1.9879   2.0795   2.3229
     2.3252   3.9167   4.0771   4.0816   4.1313   4.2305   4.2537   4.2876
     4.3565   4.4246   4.4308   4.4696

          k = 0.0000-0.0839 0.0000 ( 17884 PWs)   bands (ev):

   -55.3851 -55.2291 -55.2288 -55.1065 -55.1002 -55.0802 -55.0590 -55.0581
   -55.0281 -54.9938 -54.9577 -54.9172 -54.8760 -54.7421 -54.2100 -54.2093
   -31.6521 -31.5996 -31.5869 -31.5453 -31.5452 -31.5224 -31.5221 -31.5017
   -31.4367 -31.4116 -31.3937 -31.3812 -31.3790 -31.3687 -31.3513 -31.3509
   -31.3480 -31.3357 -31.3310 -31.3272 -31.3261 -31.3207 -31.3183 -31.3128
   -31.3092 -31.2925 -31.2545 -31.2358 -31.2346 -31.2303 -31.2143 -31.2111
   -31.2109 -31.1891 -31.1833 -31.1460 -31.1197 -31.0995 -31.0939 -31.0757
   -31.0014 -30.9806 -30.5344 -30.5339 -30.4466 -30.4454 -30.4075 -30.4070
   -19.1835 -16.3058 -15.5363 -15.4944 -15.3776 -15.3498 -15.2606 -15.2072
   -15.1080 -15.0993 -15.0045 -14.9786 -14.9412 -14.9203 -14.8989 -14.8167
   -14.7554 -14.7174 -14.7089 -14.6258 -14.6217 -14.5908 -14.5888 -14.5788
   -14.5416 -14.5111 -14.4997 -14.4935 -14.4743 -14.4217 -14.2901 -14.2336
   -12.7115 -12.7110  -9.1982  -7.6762  -6.9201  -6.1350  -3.9934  -3.9124
    -2.7692  -2.7329  -2.6554  -2.6107  -2.5910  -2.5746  -2.5424  -2.5412
    -2.5118  -2.4815  -2.3779  -2.3177  -2.2856  -2.2657  -2.2617  -2.2387
    -2.2011  -2.1931  -2.1404  -2.1274  -2.1101  -2.0719  -2.0103  -1.9681
    -1.9454  -1.9320  -1.8595  -1.8056  -1.7733  -1.6280  -1.5461  -1.5186
    -1.4576  -1.3781  -1.3591  -1.2858  -1.2494  -1.2360  -1.1153  -1.0280
    -0.9327  -0.9262  -0.8688  -0.7907  -0.7097  -0.6641  -0.6471  -0.6410
    -0.6297  -0.5876  -0.5694  -0.5400  -0.4629  -0.3901  -0.3396  -0.2647
    -0.1967  -0.1082   0.0294   0.0355   0.0645   0.1175   0.1281   0.1665
     0.1976   0.2254   0.2542   0.2725   0.2924   0.3133   0.3172   0.3373
     0.3422   0.4073   0.4876   0.5247   0.5365   0.5620   0.5803   0.6130
     0.6504   0.6692   0.7067   0.7783   0.7950   0.9362   0.9917   0.9973
     1.0036   1.1621   1.2505   1.4389   1.4702   2.1292   2.1377   2.2585
     2.2595   3.8136   4.2624   4.2903   4.3186   4.3270   4.3583   4.3985
     4.4286   4.4371   4.4613   4.5585

          k = 0.0380 0.0000 0.0000 ( 17913 PWs)   bands (ev):

   -55.3858 -55.2460 -55.2119 -55.1209 -55.0857 -55.0795 -55.0754 -55.0415
   -55.0352 -54.9869 -54.9589 -54.9229 -54.8703 -54.7410 -54.2267 -54.1926
   -31.7324 -31.7163 -31.6151 -31.6028 -31.5841 -31.5777 -31.5367 -31.5286
   -31.5240 -31.4920 -31.4486 -31.4452 -31.3956 -31.3698 -31.3620 -31.3531
   -31.3397 -31.3125 -31.3032 -31.3009 -31.2790 -31.2687 -31.2669 -31.2650
   -31.2608 -31.2385 -31.2235 -31.2203 -31.2185 -31.2028 -31.1934 -31.1877
   -31.1822 -31.1479 -31.1412 -31.1102 -31.1085 -31.0861 -31.0803 -31.0761
   -31.0027 -30.9083 -30.6326 -30.5492 -30.5214 -30.4503 -30.3639 -30.2521
   -19.1863 -16.3113 -15.8428 -15.6871 -15.5155 -15.4648 -15.3268 -15.2289
   -15.1265 -15.1099 -15.0445 -14.9408 -14.8916 -14.8766 -14.8670 -14.8096
   -14.7879 -14.7644 -14.7230 -14.6725 -14.6380 -14.6073 -14.5572 -14.4941
   -14.4777 -14.4474 -14.4361 -14.4119 -14.3962 -14.3849 -14.1676 -14.0001
   -12.7223 -12.6087  -9.1919  -7.6729  -6.9043  -6.1386  -4.2150  -3.7137
    -3.1174  -3.0018  -2.9368  -2.8949  -2.8784  -2.7801  -2.6368  -2.6097
    -2.5864  -2.5488  -2.5219  -2.4618  -2.3298  -2.3130  -2.2017  -2.1230
    -2.0396  -1.9886  -1.9246  -1.9044  -1.8695  -1.8111  -1.7937  -1.7498
    -1.7046  -1.6668  -1.6466  -1.6263  -1.6006  -1.5544  -1.5484  -1.5338
    -1.5207  -1.4840  -1.4423  -1.3289  -1.2931  -1.1904  -1.1468  -1.1291
    -1.0242  -0.9955  -0.9620  -0.8598  -0.8547  -0.7607  -0.7258  -0.6802
    -0.6657  -0.6010  -0.5813  -0.5517  -0.5286  -0.4294  -0.3913  -0.3693
    -0.3239  -0.2594  -0.1387  -0.0807  -0.0579   0.0290   0.0883   0.1103
     0.1589   0.2146   0.2362   0.2947   0.3281   0.3511   0.4328   0.4486
     0.4717   0.4896   0.5318   0.5517   0.6042   0.6138   0.6446   0.6960
     0.7410   0.8028   0.8382   0.8924   0.9502   0.9989   1.0455   1.0981
     1.1746   1.3305   1.4409   1.6808   1.7507   1.8114   1.9599   2.2564
     2.3315   3.8540   3.9392   4.0347   4.1078   4.2359   4.2522   4.3029
     4.3202   4.3228   4.3297   4.4081

          k = 0.0380 0.0419 0.0000 ( 17878 PWs)   bands (ev):

   -55.3854 -55.2410 -55.2169 -55.1159 -55.0907 -55.0798 -55.0704 -55.0465
   -55.0319 -54.9901 -54.9583 -54.9202 -54.8730 -54.7415 -54.2216 -54.1976
   -31.6878 -31.6783 -31.6004 -31.5843 -31.5604 -31.5372 -31.5319 -31.5153
   -31.4844 -31.4714 -31.4169 -31.4101 -31.4089 -31.3822 -31.3614 -31.3484
   -31.3332 -31.3303 -31.3196 -31.3170 -31.2835 -31.2827 -31.2761 -31.2745
   -31.2633 -31.2584 -31.2414 -31.2333 -31.2212 -31.2184 -31.2122 -31.1944
   -31.1899 -31.1890 -31.1445 -31.1381 -31.1087 -31.1055 -31.0916 -31.0775
   -31.0027 -30.9416 -30.5786 -30.5450 -30.5255 -30.4377 -30.3767 -30.3093
   -19.1848 -16.3055 -15.7260 -15.5789 -15.4383 -15.3871 -15.2322 -15.1636
   -15.1035 -15.0661 -15.0378 -14.9843 -14.9216 -14.9058 -14.8712 -14.8103
   -14.7667 -14.7565 -14.7197 -14.7076 -14.6733 -14.5897 -14.5833 -14.5561
   -14.5374 -14.4990 -14.4904 -14.4608 -14.4281 -14.4052 -14.2167 -14.0953
   -12.7273 -12.6488  -9.1882  -7.6727  -6.9000  -6.1417  -4.3242  -3.6017
    -2.9494  -2.8562  -2.8111  -2.7318  -2.7041  -2.6363  -2.4841  -2.4624
    -2.4207  -2.3974  -2.3480  -2.2871  -2.2643  -2.1825  -2.1408  -2.1171
    -2.0996  -2.0921  -2.0259  -1.9888  -1.9633  -1.9388  -1.9183  -1.8863
    -1.8737  -1.8304  -1.7932  -1.7758  -1.7173  -1.6701  -1.6330  -1.6198
    -1.5201  -1.4499  -1.3862  -1.3588  -1.3263  -1.2559  -1.2066  -1.0342
    -0.9782  -0.9365  -0.9032  -0.8733  -0.7459  -0.6689  -0.6285  -0.5891
    -0.5668  -0.5118  -0.4786  -0.4640  -0.4243  -0.3781  -0.3441  -0.3067
    -0.2592  -0.2334  -0.2052  -0.1421  -0.0966  -0.0501  -0.0127   0.0146
     0.0444   0.0753   0.0981   0.1466   0.1666   0.2230   0.2934   0.3368
     0.3529   0.3919   0.4300   0.4855   0.5213   0.5542   0.5803   0.6683
     0.7692   0.8199   0.8848   0.9158   0.9757   1.0282   1.0666   1.0983
     1.1710   1.1847   1.3027   1.3826   1.6360   1.9981   2.0829   2.2456
     2.3061   3.8747   4.0614   4.0719   4.1146   4.2897   4.3160   4.3266
     4.3912   4.4257   4.4509   4.4818

          k = 0.0380-0.0839 0.0000 ( 17916 PWs)   bands (ev):

   -55.3852 -55.2291 -55.2288 -55.1065 -55.1002 -55.0802 -55.0590 -55.0581
   -55.0282 -54.9938 -54.9578 -54.9172 -54.8760 -54.7422 -54.2100 -54.2093
   -31.6533 -31.5979 -31.5870 -31.5461 -31.5459 -31.5225 -31.5221 -31.5017
   -31.4387 -31.4135 -31.3939 -31.3818 -31.3788 -31.3717 -31.3597 -31.3501
   -31.3496 -31.3396 -31.3382 -31.3305 -31.3275 -31.3165 -31.3061 -31.2930
   -31.2870 -31.2868 -31.2544 -31.2357 -31.2343 -31.2304 -31.2221 -31.2182
   -31.2104 -31.1996 -31.1833 -31.1458 -31.1198 -31.1030 -31.0938 -31.0792
   -31.0027 -30.9806 -30.5354 -30.5349 -30.4465 -30.4454 -30.4076 -30.4070
   -19.1833 -16.3031 -15.4992 -15.4555 -15.3203 -15.2971 -15.2308 -15.1506
   -15.0844 -15.0674 -15.0118 -14.9919 -14.9476 -14.9251 -14.8928 -14.8371
   -14.7917 -14.7661 -14.7071 -14.6672 -14.6600 -14.6399 -14.6090 -14.6009
   -14.5847 -14.5610 -14.5420 -14.4940 -14.4495 -14.4150 -14.2859 -14.2360
   -12.7113 -12.7108  -9.1902  -7.6771  -6.9070  -6.1404  -4.2234  -3.6970
    -2.6788  -2.6399  -2.5530  -2.4685  -2.4338  -2.4175  -2.3691  -2.3496
    -2.3401  -2.3355  -2.3093  -2.2588  -2.2421  -2.2087  -2.1736  -2.1480
    -2.1411  -2.1241  -2.1104  -2.0945  -2.0659  -2.0163  -1.9778  -1.9451
    -1.9242  -1.9112  -1.8928  -1.8286  -1.7901  -1.6131  -1.5425  -1.4537
    -1.3999  -1.3765  -1.3443  -1.2891  -1.2194  -1.1778  -1.1279  -1.0771
    -1.0555  -1.0351  -1.0086  -0.9676  -0.9396  -0.8968  -0.8829  -0.7725
    -0.7437  -0.6425  -0.5955  -0.5381  -0.4773  -0.4253  -0.3700  -0.3318
    -0.2659  -0.1986  -0.1302  -0.0813  -0.0724  -0.0250   0.0068   0.0362
     0.0547   0.0759   0.1044   0.1374   0.1487   0.1782   0.2051   0.2399
     0.3111   0.3308   0.4053   0.4720   0.5264   0.5467   0.6239   0.6589
     0.7867   0.8211   0.8590   0.8804   0.8986   0.9538   1.0044   1.0302
     1.0685   1.1651   1.2416   1.4219   1.4298   2.1424   2.1504   2.2481
     2.2493   3.8050   4.1231   4.2667   4.2982   4.3045   4.3440   4.4046
     4.4500   4.4689   4.5032   4.5312

          k = 0.0380-0.0419 0.0000 ( 17876 PWs)   bands (ev):

   -55.3854 -55.2410 -55.2169 -55.1159 -55.0907 -55.0798 -55.0704 -55.0465
   -55.0319 -54.9901 -54.9583 -54.9202 -54.8730 -54.7415 -54.2216 -54.1976
   -31.6878 -31.6783 -31.6003 -31.5844 -31.5604 -31.5372 -31.5319 -31.5153
   -31.4844 -31.4714 -31.4176 -31.4101 -31.4088 -31.3822 -31.3614 -31.3484
   -31.3325 -31.3303 -31.3196 -31.3170 -31.2830 -31.2822 -31.2762 -31.2746
   -31.2634 -31.2584 -31.2412 -31.2335 -31.2213 -31.2186 -31.2122 -31.1944
   -31.1900 -31.1889 -31.1445 -31.1381 -31.1085 -31.1058 -31.0919 -31.0775
   -31.0028 -30.9416 -30.5786 -30.5450 -30.5254 -30.4377 -30.3767 -30.3093
   -19.1847 -16.3083 -15.7269 -15.5813 -15.4394 -15.3898 -15.2306 -15.1601
   -15.1029 -15.0721 -15.0384 -14.9762 -14.9152 -14.9070 -14.8672 -14.7942
   -14.7663 -14.7566 -14.7171 -14.7055 -14.6732 -14.6054 -14.5841 -14.5585
   -14.5400 -14.4993 -14.4904 -14.4611 -14.4279 -14.4127 -14.2158 -14.0940
   -12.7273 -12.6488  -9.1939  -7.6771  -6.9106  -6.1375  -4.0043  -3.9193
    -2.9489  -2.8567  -2.7967  -2.7319  -2.7035  -2.6365  -2.4921  -2.4692
    -2.4218  -2.3793  -2.3417  -2.2930  -2.2691  -2.1725  -2.1417  -2.1268
    -2.1096  -2.0656  -2.0465  -1.9925  -1.9624  -1.9295  -1.9160  -1.8850
    -1.8753  -1.8464  -1.8085  -1.7808  -1.7071  -1.6759  -1.6497  -1.5969
    -1.5015  -1.4543  -1.4011  -1.3474  -1.3134  -1.2478  -1.2046  -1.0456
    -0.9726  -0.9352  -0.9047  -0.8605  -0.7580  -0.6760  -0.6489  -0.6095
    -0.5724  -0.5393  -0.4819  -0.4556  -0.4214  -0.3703  -0.3329  -0.3012
    -0.2567  -0.2052  -0.1783  -0.1721  -0.0894  -0.0689  -0.0049   0.0068
     0.0460   0.0661   0.0906   0.1572   0.1641   0.2217   0.2854   0.3313
     0.3689   0.3987   0.4257   0.4751   0.5134   0.5466   0.5876   0.6472
     0.8014   0.8201   0.8828   0.9116   0.9823   1.0310   1.0615   1.0997
     1.1835   1.1998   1.3047   1.3835   1.6363   1.9981   2.0829   2.2453
     2.3067   3.9090   4.0613   4.0738   4.1460   4.2844   4.3197   4.3376
     4.3845   4.4295   4.4511   4.4821

          k =-0.0760-0.0000 0.0000 ( 17886 PWs)   bands (ev):

   -55.3857 -55.2459 -55.2119 -55.1209 -55.0857 -55.0795 -55.0752 -55.0415
   -55.0352 -54.9869 -54.9589 -54.9229 -54.8703 -54.7409 -54.2266 -54.1926
   -31.7333 -31.7177 -31.6172 -31.6003 -31.5840 -31.5779 -31.5366 -31.5290
   -31.5287 -31.4919 -31.4487 -31.4461 -31.3927 -31.3696 -31.3530 -31.3529
   -31.3125 -31.3036 -31.3015 -31.3007 -31.2772 -31.2721 -31.2670 -31.2660
   -31.2607 -31.2594 -31.2263 -31.2236 -31.2190 -31.2027 -31.1934 -31.1872
   -31.1834 -31.1481 -31.1416 -31.1167 -31.1098 -31.0861 -31.0805 -31.0756
   -31.0034 -30.9083 -30.6322 -30.5524 -30.5201 -30.4502 -30.3638 -30.2522
   -19.1857 -16.3094 -15.6778 -15.6563 -15.4737 -15.4405 -15.2900 -15.2079
   -15.1619 -15.1016 -15.0501 -15.0238 -14.9628 -14.9599 -14.9309 -14.9246
   -14.7657 -14.7541 -14.7363 -14.6834 -14.6261 -14.5821 -14.5748 -14.5134
   -14.5022 -14.4284 -14.4188 -14.4046 -14.3996 -14.3474 -14.1669 -14.0004
   -12.7193 -12.6084  -9.1895  -7.6790  -6.9011  -6.1400  -4.0152  -3.9257
    -3.0707  -2.9354  -2.7659  -2.7219  -2.6894  -2.6319  -2.5971  -2.5945
    -2.5634  -2.5479  -2.5098  -2.4944  -2.4899  -2.2111  -2.1423  -2.0686
    -1.9427  -1.8835  -1.8527  -1.8467  -1.8079  -1.7463  -1.7342  -1.7160
    -1.6672  -1.6499  -1.6263  -1.5996  -1.5526  -1.5307  -1.4975  -1.4786
    -1.4755  -1.4490  -1.4241  -1.4062  -1.3748  -1.3250  -1.2590  -1.1706
    -0.9942  -0.8688  -0.8492  -0.8417  -0.8323  -0.7905  -0.7664  -0.7185
    -0.7122  -0.6725  -0.6586  -0.5847  -0.5496  -0.5256  -0.4851  -0.4537
    -0.3692  -0.3555  -0.2255  -0.1596  -0.1301  -0.0267   0.0194   0.0522
     0.1246   0.1584   0.1742   0.2306   0.3115   0.3165   0.3219   0.3900
     0.4131   0.4478   0.4778   0.4994   0.5265   0.5510   0.6050   0.6494
     0.6947   0.7636   0.7684   0.8821   0.9490   0.9620   0.9914   1.1315
     1.2245   1.3758   1.3972   1.4441   1.7558   1.8325   1.9355   2.1290
     2.2764   3.8541   3.8961   3.9714   4.1436   4.1532   4.2007   4.2087
     4.2316   4.3215   4.4180   4.4306

          k =-0.0760 0.0419 0.0000 ( 17914 PWs)   bands (ev):

   -55.3854 -55.2410 -55.2169 -55.1159 -55.0907 -55.0798 -55.0703 -55.0465
   -55.0321 -54.9901 -54.9584 -54.9202 -54.8730 -54.7416 -54.2217 -54.1976
   -31.6893 -31.6794 -31.5983 -31.5844 -31.5626 -31.5375 -31.5319 -31.5155
   -31.4845 -31.4772 -31.4174 -31.4104 -31.4098 -31.3801 -31.3614 -31.3405
   -31.3342 -31.3196 -31.3169 -31.3019 -31.2840 -31.2761 -31.2726 -31.2684
   -31.2639 -31.2623 -31.2575 -31.2380 -31.2243 -31.2208 -31.2123 -31.1955
   -31.1930 -31.1898 -31.1446 -31.1380 -31.1119 -31.1084 -31.0918 -31.0788
   -31.0039 -30.9417 -30.5784 -30.5478 -30.5248 -30.4377 -30.3767 -30.3094
   -19.1844 -16.3048 -15.5871 -15.5514 -15.4013 -15.3489 -15.2154 -15.1535
   -15.1025 -15.0321 -15.0100 -14.9937 -14.9792 -14.9552 -14.9123 -14.8852
   -14.8409 -14.7848 -14.7411 -14.7359 -14.6662 -14.5912 -14.5699 -14.5573
   -14.5409 -14.5117 -14.4971 -14.4545 -14.4303 -14.4213 -14.2157 -14.0956
   -12.7252 -12.6492  -9.1859  -7.6785  -6.8970  -6.1430  -4.2329  -3.7059
    -2.9123  -2.8092  -2.5548  -2.5264  -2.4986  -2.4769  -2.4199  -2.3837
    -2.3420  -2.3317  -2.2941  -2.2913  -2.2089  -2.1995  -2.1850  -2.1146
    -2.0893  -1.9969  -1.9828  -1.9567  -1.9242  -1.8901  -1.8646  -1.8452
    -1.7889  -1.7638  -1.7508  -1.7368  -1.7028  -1.6650  -1.6365  -1.5520
    -1.4847  -1.4294  -1.3548  -1.3089  -1.2528  -1.2399  -1.1976  -1.1732
    -1.0348  -0.9755  -0.8656  -0.8321  -0.8020  -0.7579  -0.7155  -0.6342
    -0.5998  -0.5777  -0.5595  -0.5169  -0.4901  -0.4836  -0.4748  -0.4345
    -0.4242  -0.3826  -0.3584  -0.3060  -0.2550  -0.2051  -0.1628  -0.1369
    -0.0433  -0.0181   0.0302   0.0696   0.1082   0.1350   0.1735   0.2084
     0.2809   0.3636   0.4161   0.4923   0.5383   0.5644   0.6118   0.6358
     0.7667   0.7893   0.8830   0.9394   1.0484   1.0929   1.1139   1.1824
     1.2520   1.2638   1.2793   1.3690   1.4516   2.0118   2.0849   2.1684
     2.2954   3.8667   4.0473   4.0626   4.0838   4.1897   4.2467   4.2592
     4.3119   4.3846   4.5258   4.5437

          k =-0.0760-0.0839 0.0000 ( 17948 PWs)   bands (ev):

   -55.3852 -55.2291 -55.2289 -55.1065 -55.1002 -55.0802 -55.0589 -55.0580
   -55.0284 -54.9939 -54.9578 -54.9172 -54.8760 -54.7422 -54.2101 -54.2093
   -31.6545 -31.5960 -31.5871 -31.5469 -31.5467 -31.5225 -31.5222 -31.5017
   -31.4406 -31.4153 -31.3940 -31.3819 -31.3784 -31.3747 -31.3672 -31.3490
   -31.3484 -31.3445 -31.3417 -31.3312 -31.3278 -31.3092 -31.3019 -31.2806
   -31.2679 -31.2605 -31.2541 -31.2445 -31.2357 -31.2339 -31.2304 -31.2227
   -31.2152 -31.2098 -31.1833 -31.1457 -31.1199 -31.1067 -31.0937 -31.0828
   -31.0040 -30.9806 -30.5364 -30.5359 -30.4465 -30.4453 -30.4076 -30.4070
   -19.1830 -16.3004 -15.4563 -15.4086 -15.2223 -15.2190 -15.1930 -15.1306
   -15.0918 -15.0403 -15.0240 -14.9882 -14.9497 -14.9333 -14.9082 -14.8370
   -14.7934 -14.7671 -14.7557 -14.7195 -14.7036 -14.7029 -14.6713 -14.6489
   -14.6386 -14.5726 -14.5602 -14.4909 -14.4368 -14.4113 -14.2830 -14.2382
   -12.7111 -12.7106  -9.1823  -7.6780  -6.8933  -6.1461  -4.3393  -3.5957
    -2.6464  -2.6420  -2.4439  -2.4109  -2.3451  -2.2745  -2.2410  -2.2210
    -2.1738  -2.1668  -2.1273  -2.1050  -2.0683  -2.0397  -2.0326  -2.0151
    -1.9987  -1.9758  -1.9541  -1.9369  -1.9311  -1.9015  -1.8804  -1.8701
    -1.8274  -1.8201  -1.7955  -1.7771  -1.7425  -1.6791  -1.6179  -1.4989
    -1.4598  -1.4322  -1.4115  -1.3966  -1.3684  -1.3328  -1.3172  -1.3033
    -1.2735  -1.2606  -1.1516  -1.0036  -0.9922  -0.8978  -0.8634  -0.8581
    -0.7525  -0.7206  -0.6869  -0.6610  -0.6089  -0.5664  -0.4675  -0.4558
    -0.4141  -0.3462  -0.2493  -0.2393  -0.2237  -0.1950  -0.1716  -0.1651
    -0.1069  -0.0688  -0.0323   0.0192   0.0394   0.0617   0.0941   0.1886
     0.2177   0.3324   0.4546   0.4925   0.5182   0.5482   0.6823   0.7370
     0.7809   0.8547   0.9179   0.9381   1.0412   1.0595   1.0911   1.1475
     1.2175   1.2665   1.2825   1.3108   1.3235   2.1606   2.1687   2.2336
     2.2340   3.7968   4.0032   4.2546   4.3277   4.3490   4.3784   4.4006
     4.4330   4.4588   4.5023   4.5179

     the Fermi energy is     3.8757 ev

!    total energy              =   -2975.12442851 Ry
     estimated scf accuracy    <       0.00000003 Ry
     smearing contrib. (-TS)   =      -0.03101828 Ry
     internal energy E=F+TS    =   -2975.09341023 Ry

     The total energy is F=E-TS. E is the sum of the following terms:
     one-electron contribution =  -23509.76745377 Ry
     hartree contribution      =   11853.19484987 Ry
     xc contribution           =    -494.85671237 Ry
     ewald contribution        =    9176.33233219 Ry
     electric field correction =       0.00357387 Ry

     convergence has been achieved in  68 iterations

     Forces acting on atoms (cartesian axes, Ry/au):

     atom    1 type  1   force =     0.00014131   -0.00021017    0.09453220
     atom    2 type  1   force =    -0.00007650    0.00039860   -0.17562966
     atom    3 type  2   force =     0.00003471   -0.00002881   -0.02142937
     atom    4 type  2   force =     0.00000363   -0.00223250    0.05510143
     atom    5 type  2   force =    -0.00785067   -0.00313683    0.00369613
     atom    6 type  2   force =     0.00957364   -0.00256559    0.00358624
     atom    7 type  1   force =     0.00002937   -0.00298181    0.00577498
     atom    8 type  1   force =    -0.00022987    0.00256561    0.00566173
     atom    9 type  2   force =    -0.00035166   -0.00026678    0.00001491
     atom   10 type  2   force =    -0.00116076   -0.00256839   -0.00856544
     atom   11 type  2   force =    -0.00072463   -0.00070163   -0.00016519
     atom   12 type  2   force =     0.00032316   -0.00070535   -0.00008054
     atom   13 type  1   force =     0.00008110    0.00006738    0.00045356
     atom   14 type  1   force =    -0.00015821   -0.00033516    0.00015576
     atom   15 type  2   force =     0.00012429   -0.00041167    0.00000934
     atom   16 type  2   force =     0.00006129   -0.00072029   -0.00029451
     atom   17 type  2   force =     0.00007136    0.00032317   -0.00027597
     atom   18 type  2   force =    -0.00043272    0.00032556   -0.00042620
     atom   19 type  1   force =     0.00030837    0.00033076   -0.00008319
     atom   20 type  1   force =     0.00019913   -0.00071881    0.00004874
     atom   21 type  2   force =     0.00005640    0.00002486    0.10326803
     atom   22 type  2   force =     0.00010849    0.00113675   -0.00111713
     atom   23 type  2   force =    -0.07177042   -0.00019309   -0.02725652
     atom   24 type  2   force =     0.07160690    0.00024427   -0.02731912
     atom   25 type  1   force =     0.00006516   -0.00033650    0.09391723
     atom   26 type  1   force =    -0.00016304   -0.00123874   -0.17591122
     atom   27 type  2   force =     0.00013762   -0.00024419   -0.02015939
     atom   28 type  2   force =     0.00003682   -0.00056219    0.05062835
     atom   29 type  2   force =    -0.00680128    0.00147900    0.00205634
     atom   30 type  2   force =     0.00850050    0.00183476    0.00197134
     atom   31 type  1   force =     0.00015051    0.00701558   -0.00368049
     atom   32 type  1   force =    -0.00028305   -0.00257471    0.00512225
     atom   33 type  2   force =    -0.00000325    0.00031166   -0.00012968
     atom   34 type  2   force =    -0.00011835    0.00278796   -0.00829412
     atom   35 type  2   force =     0.00025057    0.00066857   -0.00031777
     atom   36 type  2   force =    -0.00100641    0.00054310   -0.00046275
     atom   37 type  1   force =     0.00013609   -0.00045354    0.00015559
     atom   38 type  1   force =    -0.00015483   -0.00010432   -0.00009555
     atom   39 type  2   force =    -0.00007912   -0.00002271    0.00008924
     atom   40 type  2   force =    -0.00046807    0.00012931   -0.00006671
     atom   41 type  2   force =    -0.00009071    0.00024783   -0.00027416
     atom   42 type  2   force =     0.00045434    0.00027071    0.00025307
     atom   43 type  1   force =     0.00030265    0.00059862    0.00007226
     atom   44 type  1   force =    -0.00013633   -0.00017229    0.00031171
     atom   45 type  2   force =     0.00001547   -0.00011223    0.10303149
     atom   46 type  2   force =    -0.07183431   -0.00004719   -0.02731165
     atom   47 type  2   force =     0.07167336    0.00034854   -0.02735161
     atom   48 type  3   force =     0.00025127    0.00061137   -0.00081585
     atom   49 type  4   force =     0.00038093    0.00002219   -0.00010854
     atom   50 type  5   force =     0.00029027   -0.00037919   -0.00070580
     atom   51 type  5   force =    -0.00123041    0.00028264   -0.00033639
     atom   52 type  3   force =     0.00070338    0.00119136    0.00122527
     atom   53 type  5   force =    -0.00135026   -0.00127149   -0.00260462
     atom   54 type  5   force =     0.00083362    0.00115940    0.00095483
     atom   55 type  5   force =    -0.00015847   -0.00078176   -0.00006902
     atom   56 type  2   force =     0.00040207    0.00144152    0.00029263
     atom   57 type  5   force =    -0.00067444   -0.00028315   -0.00104649

     Total force =     0.362708     Total SCF correction =     0.000532
  @ DRIVER MODE: Message from server: STATUS
  @ DRIVER MODE: Message from server: GETFORCE
  @ DRIVER MODE: Returning v,forces,stress,ensemble 

     Writing output data file ./calc.save/
  @ DRIVER MODE: Message from server: EXIT
  @ DRIVE MODE: Exiting  
 
     init_run     :     13.82s CPU     14.18s WALL (       1 calls)
     electrons    :   1412.64s CPU   1445.75s WALL (       1 calls)
     forces       :      2.95s CPU      3.13s WALL (       1 calls)

     Called by init_run:
     wfcinit      :      5.97s CPU      6.12s WALL (       1 calls)
     potinit      :      6.89s CPU      6.98s WALL (       1 calls)
     hinit0       :      0.51s CPU      0.52s WALL (       1 calls)

     Called by electrons:
     c_bands      :   1207.04s CPU   1225.56s WALL (      68 calls)
     sum_band     :    140.03s CPU    147.11s WALL (      68 calls)
     v_of_rho     :     49.98s CPU     51.95s WALL (      69 calls)
     newd         :     19.76s CPU     25.28s WALL (      69 calls)
     mix_rho      :      1.81s CPU      1.87s WALL (      68 calls)
     vdW_kernel   :      5.85s CPU      5.87s WALL (       1 calls)

     Called by c_bands:
     init_us_2    :      8.48s CPU      8.54s WALL (    1380 calls)
     cegterg      :   1183.93s CPU   1201.93s WALL (     695 calls)

     Called by *egterg:
     cdiaghg      :    191.38s CPU    192.71s WALL (    7224 calls)
     h_psi        :    639.22s CPU    649.97s WALL (    7239 calls)
     s_psi        :     84.62s CPU     85.05s WALL (    7239 calls)
     g_psi        :      2.38s CPU      2.40s WALL (    6534 calls)

     Called by h_psi:
     h_psi:calbec :     78.87s CPU     80.31s WALL (    7239 calls)
     vloc_psi     :    471.25s CPU    476.34s WALL (    7239 calls)
     add_vuspsi   :     85.42s CPU     87.39s WALL (    7239 calls)

     General routines
     calbec       :    103.20s CPU    104.77s WALL (    7959 calls)
     fft          :     25.41s CPU     25.60s WALL (    4347 calls)
     ffts         :      0.19s CPU      0.19s WALL (     137 calls)
     fftw         :    523.57s CPU    529.21s WALL (  971698 calls)
     interpolate  :      0.51s CPU      0.51s WALL (      69 calls)
     davcio       :      0.00s CPU      0.47s WALL (      10 calls)
 
     Parallel routines
 
     PWSCF        :  23m49.67s CPU  24m24.87s WALL

 
   This run was terminated on:   3: 7:36  24Sep2021            

=------------------------------------------------------------------------------=
   JOB DONE.
=------------------------------------------------------------------------------=
