
     Program PWSCF v.6.7GPU starts on  9Sep2021 at 10:16:51 

     This program is part of the open-source Quantum ESPRESSO suite
     for quantum simulation of materials; please cite
         "P. Giannozzi et al., J. Phys.:Condens. Matter 21 395502 (2009);
         "P. Giannozzi et al., J. Phys.:Condens. Matter 29 465901 (2017);
         "P. Giannozzi et al., J. Chem. Phys. 152 154105 (2020);
          URL http://www.quantum-espresso.org", 
     in publications or presentations arising from this work. More details at
     http://www.quantum-espresso.org/quote

     Parallel version (MPI), running on    10 processors

     MPI processes distributed on     1 nodes
     R & G space division:  proc/nbgrp/npool/nimage =      10
     Reading input from /storage/home/hcoda1/3/ntian30/research/carbon/CxH_vib/CH3_calc/ads_slab/CH3NNHHH_a/out_0037/pw.inp
Warning: card &CELL ignored
Warning: card   CELL_DYNAMICS='IPI', ignored
Warning: card / ignored

     Current dimensions of program PWSCF are:
     Max number of different atomic species (ntypx) = 10
     Max number of k-points (npk) =  40000
     Max angular momentum in pseudopotentials (lmaxx) =  3
     Presently no symmetry can be used with electric field

     Message from routine cell_base_init:
     DEPRECATED: use true lattice parameter, not A to a.u. conversion factor

     **************************************************************************
     Initializing libbeef V0.1.2 with the BEEF-vdW functional.
     Citation: Wellendorff et al., PRB 85, 235149 (2012).
     **************************************************************************


     IMPORTANT: XC functional enforced from input :
     Exchange-correlation= BEEF-VDW
                           (   1   4  43  14   2   0   0)
     Any further DFT definition will be discarded
     Please, verify this is what you really want


     Subspace diagonalization in iterative solution of the eigenvalue problem:
     one sub-group per band group will be used
     scalapack distributed-memory algorithm (size of sub-group:  3*  3 procs)

  @ DRIVER MODE: Connecting to 
 qe_1139763_2767399.sched-torque.pace.gatech.edu9niciiyk_scratch
  using UNIX socket
  @ DRIVER MODE: Message from server: STATUS
  @ DRIVER MODE: Message from server: INIT
  @ DRIVER MODE: Receiving replica           0          -1
  @ DRIVER MODE: Receiving encoded integer          25
  @ DRIVER MODE:  SCF:  T  FORCE:  T  STRESS:  F  VC:  F  ENSEMBLE:  F
  @ DRIVER MODE:  SCF:  T  FORCE:  T  STRESS:  F  VC:  F  ENSEMBLE:  F
 
     Parallelization info
     --------------------
     sticks:   dense  smooth     PW     G-vecs:    dense   smooth      PW
     Min         327     131     37                56683    14340    2191
     Max         328     133     38                56694    14346    2206
     Sum        3275    1317    379               566857   143421   21985
 
     Using Slab Decomposition
 


     bravais-lattice index     =            0
     lattice parameter (alat)  =       1.8897  a.u.
     unit-cell volume          =    6658.9804 (a.u.)^3
     number of atoms/cell      =           56
     number of atomic types    =            5
     number of electrons       =       398.00
     number of Kohn-Sham states=          209
     kinetic-energy cutoff     =      29.3995  Ry
     charge density cutoff     =     293.9946  Ry
     scf convergence threshold =      7.3E-08
     mixing beta               =       0.0500
     number of iterations used =            8  plain     mixing
     Exchange-correlation= BEEF-VDW
                           (   1   4  43  14   2   0   0)

     celldm(1)=   1.889726  celldm(2)=   0.000000  celldm(3)=   0.000000
     celldm(4)=   0.000000  celldm(5)=   0.000000  celldm(6)=   0.000000

     crystal axes: (cart. coord. in units of alat)
               a(1) = (   6.579727   0.000000   0.000000 )  
               a(2) = (  -0.000775   5.961596   0.000000 )  
               a(3) = (   0.000000   0.000000  25.155947 )  

     reciprocal axes: (cart. coord. in units 2 pi/alat)
               b(1) = (  0.151982  0.000020  0.000000 )  
               b(2) = (  0.000000  0.167740  0.000000 )  
               b(3) = (  0.000000  0.000000  0.039752 )  


     PseudoPot. # 1 for Ti read from file:
     /storage/coda1/p-amedford6/0/shared/rich_project_chbe-medford/medford-share/data/pseudos_module/espresso/nninc/pbe/van/Ti.UPF
     MD5 check sum: 8e4df49b7f0d34bbd5052bf3f5ea0213
     Pseudo is Ultrasoft, Zval = 12.0
     Generated by new atomic code, or converted to UPF format
     Using radial grid of  851 points,  6 beta functions with: 
                l(1) =   0
                l(2) =   0
                l(3) =   1
                l(4) =   1
                l(5) =   2
                l(6) =   2
     Q(r) pseudized with  8 coefficients,  rinner =    1.000   1.000   1.000
                                                       1.000   1.000

     PseudoPot. # 2 for O  read from file:
     /storage/coda1/p-amedford6/0/shared/rich_project_chbe-medford/medford-share/data/pseudos_module/espresso/nninc/pbe/van/O.UPF
     MD5 check sum: 78c19812648e8988a0fe644b0f25305e
     Pseudo is Ultrasoft, Zval =  6.0
     Generated by new atomic code, or converted to UPF format
     Using radial grid of  737 points,  4 beta functions with: 
                l(1) =   0
                l(2) =   0
                l(3) =   1
                l(4) =   1
     Q(r) pseudized with  8 coefficients,  rinner =    0.800   0.800   0.800


     PseudoPot. # 3 for N  read from file:
     /storage/coda1/p-amedford6/0/shared/rich_project_chbe-medford/medford-share/data/pseudos_module/espresso/nninc/pbe/van/N.UPF
     MD5 check sum: 90d10febe142ad51ac9d5be1deb811c4
     Pseudo is Ultrasoft, Zval =  5.0
     Generated by new atomic code, or converted to UPF format
     Using radial grid of  729 points,  4 beta functions with: 
                l(1) =   0
                l(2) =   0
                l(3) =   1
                l(4) =   1
     Q(r) pseudized with  8 coefficients,  rinner =    0.800   0.800   0.800


     PseudoPot. # 4 for C  read from file:
     /storage/coda1/p-amedford6/0/shared/rich_project_chbe-medford/medford-share/data/pseudos_module/espresso/nninc/pbe/van/C.UPF
     MD5 check sum: 1a69bf6b8db32088f5b2163dbdb77a27
     Pseudo is Ultrasoft, Zval =  4.0
     Generated by new atomic code, or converted to UPF format
     Using radial grid of  721 points,  4 beta functions with: 
                l(1) =   0
                l(2) =   0
                l(3) =   1
                l(4) =   1
     Q(r) pseudized with  8 coefficients,  rinner =    0.800   0.800   0.800


     PseudoPot. # 5 for H  read from file:
     /storage/coda1/p-amedford6/0/shared/rich_project_chbe-medford/medford-share/data/pseudos_module/espresso/nninc/pbe/van/H.UPF
     MD5 check sum: b5ee9d7bfd3a09ee7748110bda690ff7
     Pseudo is Ultrasoft, Zval =  1.0
     Generated by new atomic code, or converted to UPF format
     Using radial grid of  615 points,  1 beta functions with: 
                l(1) =   0
     Q(r) pseudized with  8 coefficients,  rinner =    0.800

     atomic species   valence    mass     pseudopotential
        Ti1           12.00    47.86700     Ti( 1.00)
        O1             6.00    15.99900     O ( 1.00)
        N1             5.00    14.00700     N ( 1.00)
        C1             4.00    12.01100     C ( 1.00)
        H1             1.00     1.00800     H ( 1.00)

     No symmetry found



   Cartesian axes

     site n.     atom                  positions (alat units)
         1           Ti1 tau(   1) = (   0.0004258   2.9801865   6.0000000  )
         2           Ti1 tau(   2) = (   3.2906075   1.4906267   6.0002472  )
         3           O1  tau(   3) = (   0.0006271   0.0005054   7.9858123  )
         4           O1  tau(   4) = (   3.2906025   0.0005020   7.3038282  )
         5           O1  tau(   5) = (   4.5942328   1.4918067   9.2879030  )
         6           O1  tau(   6) = (   1.9868534   1.4903216   9.2879459  )
         7           Ti1 tau(   7) = (   3.2907910   2.8959150   9.1758416  )
         8           Ti1 tau(   8) = (   0.0015273   1.4827037   9.2680791  )
         9           O1  tau(   9) = (   3.3120675   0.0079458  11.3762204  )
        10           O1  tau(  10) = (   0.0116148   5.9584955  10.6183126  )
        11           O1  tau(  11) = (   1.3148726   1.5133626  12.6447579  )
        12           O1  tau(  12) = (   5.3140862   1.5122126  12.6508301  )
        13           Ti1 tau(  13) = (   0.0289753   2.9995974  12.5105963  )
        14           Ti1 tau(  14) = (   3.3300932   1.5144954  12.5190352  )
        15           O1  tau(  15) = (   0.0303621   0.0967028  14.6836000  )
        16           O1  tau(  16) = (   3.3188409   0.0235386  14.0025835  )
        17           O1  tau(  17) = (   4.5661268   1.5053193  16.2317874  )
        18           O1  tau(  18) = (   2.0488868   1.5039614  16.2002260  )
        19           Ti1 tau(  19) = (   3.3211226   2.9745325  15.7560014  )
        20           Ti1 tau(  20) = (   0.0641794   1.4487855  16.0607878  )
        21           O1  tau(  21) = (   3.2904802   0.0005063   4.7018136  )
        22           O1  tau(  22) = (   0.0207051   5.8381987  17.2232637  )
        23           O1  tau(  23) = (   1.3043587   1.4918075   6.0039043  )
        24           O1  tau(  24) = (   5.2767064   1.4903225   6.0039473  )
        25           Ti1 tau(  25) = (   0.0000382   5.9609847   6.0000000  )
        26           Ti1 tau(  26) = (   3.2902200   4.4714249   6.0002472  )
        27           O1  tau(  27) = (   0.0002396   2.9813036   7.9858123  )
        28           O1  tau(  28) = (   3.2902150   2.9813002   7.3038282  )
        29           O1  tau(  29) = (   4.5938453   4.4726049   9.2879030  )
        30           O1  tau(  30) = (   1.9864658   4.4711199   9.2879459  )
        31           Ti1 tau(  31) = (   3.2891106   5.8743827   9.1763621  )
        32           Ti1 tau(  32) = (   0.0006254   4.4649316   9.2693709  )
        33           O1  tau(  33) = (   3.3137607   3.0039157  11.3695003  )
        34           O1  tau(  34) = (   0.0092240   2.9805883  10.6323155  )
        35           O1  tau(  35) = (   1.3103219   4.4840529  12.6837359  )
        36           O1  tau(  36) = (   5.3166572   4.4842854  12.6901167  )
        37           Ti1 tau(  37) = (   0.0376818   0.0300362  12.4998423  )
        38           Ti1 tau(  38) = (   3.3279277   4.4933691  12.5326681  )
        39           O1  tau(  39) = (   0.0236785   2.9473731  14.9547601  )
        40           O1  tau(  40) = (   3.3158584   2.9778716  13.9675922  )
        41           O1  tau(  41) = (   4.5769684   4.4551829  16.1482216  )
        42           O1  tau(  42) = (   2.0574928   4.4544973  16.1629196  )
        43           Ti1 tau(  43) = (   3.3270828   0.0048838  15.7999907  )
        44           Ti1 tau(  44) = (   0.0216784   4.6657176  15.8371636  )
        45           O1  tau(  45) = (   3.2900926   2.9813045   4.7018136  )
        46           O1  tau(  46) = (   1.3039711   4.4726057   6.0039043  )
        47           O1  tau(  47) = (   5.2763189   4.4711207   6.0039473  )
        48           N1  tau(  48) = (   1.0300599   3.1028741  18.8625222  )
        49           N1  tau(  49) = (   6.4529598   2.6395754  18.1308714  )
        50           C1  tau(  50) = (   0.6566364   3.8075245  20.0867497  )
        51           H1  tau(  51) = (   6.5334193   4.6337433  19.9095685  )
        52           H1  tau(  52) = (   0.2127083   3.1054723  20.7945791  )
        53           H1  tau(  53) = (   1.5644534   4.2160081  20.5287796  )
        54           H1  tau(  54) = (   5.6812064   3.3271340  18.1715891  )
        55           H1  tau(  55) = (   6.1153184   1.7991689  18.5966666  )
        56           H1  tau(  56) = (   1.4989484   3.7555826  18.2384742  )

     number of k points=    10  Fermi-Dirac smearing, width (Ry)=  0.0073
                       cart. coord. in units 2pi/alat
        k(    1) = (   0.0000000   0.0000000   0.0000000), wk =   0.1250000
        k(    2) = (   0.0000000   0.0419351   0.0000000), wk =   0.2500000
        k(    3) = (   0.0000000  -0.0838702   0.0000000), wk =   0.1250000
        k(    4) = (   0.0379955   0.0000049   0.0000000), wk =   0.2500000
        k(    5) = (   0.0379955   0.0419400   0.0000000), wk =   0.2500000
        k(    6) = (   0.0379955  -0.0838652   0.0000000), wk =   0.2500000
        k(    7) = (   0.0379955  -0.0419301   0.0000000), wk =   0.2500000
        k(    8) = (  -0.0759910  -0.0000099   0.0000000), wk =   0.1250000
        k(    9) = (  -0.0759910   0.0419252   0.0000000), wk =   0.2500000
        k(   10) = (  -0.0759910  -0.0838800   0.0000000), wk =   0.1250000

     Dense  grid:   566857 G-vectors     FFT dimensions: (  72,  64, 270)

     Smooth grid:   143421 G-vectors     FFT dimensions: (  45,  40, 180)

     Estimated max dynamical RAM per process >     364.09 MB

     Estimated total dynamical RAM >       3.56 GB
     Cannot read rho : file not found

     Initial potential from superposition of free atoms

     starting charge  381.99914, renormalised to  398.00000

     negative rho (up, down):  1.340E-02 0.000E+00


     %%%%%%%%%%%%%%%%%%%%%%%%%%%%%%%%%%%%%%%%%%%%%%%%%%%%%%%%%%%%%%%%%%%%%%%%
     %                                                                      %
     % You are using vdW-DF, which was implemented by the Thonhauser group. %
     % Please cite the following two papers that made this development      %
     % possible and the two reviews that describe the various versions:     %
     %                                                                      %
     %   T. Thonhauser et al., PRL 115, 136402 (2015).                      %
     %   T. Thonhauser et al., PRB 76, 125112 (2007).                       %
     %   K. Berland et al., Rep. Prog. Phys. 78, 066501 (2015).             %
     %   D.C. Langreth et al., J. Phys.: Condens. Matter 21, 084203 (2009). %
     %                                                                      %
     %                                                                      %
     % If you are calculating the stress with vdW-DF, please also cite:     %
     %                                                                      %
     %   R. Sabatini et al., J. Phys.: Condens. Matter 24, 424209 (2012).   %
     %                                                                      %
     %%%%%%%%%%%%%%%%%%%%%%%%%%%%%%%%%%%%%%%%%%%%%%%%%%%%%%%%%%%%%%%%%%%%%%%%


 
     Adding external electric field

     Computed dipole along edir(3) : 
        Dipole              -11.7464 Ry au,        -29.8564 Debye
        Dipole field         -0.0222 Ry au, 
 
        Potential amp.        2.0549 Ry
        Total length         46.3494 bohr
 
     Starting wfcs are  302 atomic wfcs
  @ DRIVER MODE: Message from server: STATUS
  @ DRIVER MODE: Message from server: POSDATA
  @ DRIVER MODE: Reading and sharing cell 
  @ DRIVER MODE: Reading and sharing positions 
  @ DRIVER MODE: Received positions 

     total cpu time spent up to now is       11.5 secs

     Self-consistent Calculation

     iteration #  1     ecut=    29.40 Ry     beta= 0.05
     Davidson diagonalization with overlap
     c_bands:  1 eigenvalues not converged
     c_bands:  1 eigenvalues not converged
     c_bands:  1 eigenvalues not converged
     c_bands:  3 eigenvalues not converged
     c_bands:  3 eigenvalues not converged
     c_bands:  3 eigenvalues not converged
     c_bands:  3 eigenvalues not converged
     c_bands:  2 eigenvalues not converged
     ethr =  1.00E-05,  avg # of iterations = 21.6

     negative rho (up, down):  9.716E-03 0.000E+00
 
     Adding external electric field

     Computed dipole along edir(3) : 
        Dipole               48.7715 Ry au,        123.9647 Debye
        Dipole field          0.0920 Ry au, 
 
        Potential amp.       -8.5318 Ry
        Total length         46.3494 bohr
 

     total cpu time spent up to now is       54.6 secs

     total energy              =   -2428.10531759 Ry
     estimated scf accuracy    <    5789.73932284 Ry

     iteration #  2     ecut=    29.40 Ry     beta= 0.05
     Davidson diagonalization with overlap
     ethr =  1.00E-02,  avg # of iterations = 22.3

     negative rho (up, down):  1.769E-03 0.000E+00
 
     Adding external electric field

     Computed dipole along edir(3) : 
        Dipole               -2.1450 Ry au,         -5.4521 Debye
        Dipole field         -0.0040 Ry au, 
 
        Potential amp.        0.3752 Ry
        Total length         46.3494 bohr
 

     total cpu time spent up to now is      134.5 secs

     total energy              =   -2424.36484380 Ry
     estimated scf accuracy    <   72370.89265571 Ry

     iteration #  3     ecut=    29.40 Ry     beta= 0.05
     Davidson diagonalization with overlap
     ethr =  1.00E-02,  avg # of iterations = 16.6

     negative rho (up, down):  1.835E-03 0.000E+00
 
     Adding external electric field

     Computed dipole along edir(3) : 
        Dipole               -4.5223 Ry au,        -11.4946 Debye
        Dipole field         -0.0085 Ry au, 
 
        Potential amp.        0.7911 Ry
        Total length         46.3494 bohr
 

     total cpu time spent up to now is      184.3 secs

     total energy              =   -2931.47885781 Ry
     estimated scf accuracy    <    5089.60715051 Ry

     iteration #  4     ecut=    29.40 Ry     beta= 0.05
     Davidson diagonalization with overlap
     ethr =  1.00E-02,  avg # of iterations = 11.2

     negative rho (up, down):  1.873E-03 0.000E+00
 
     Adding external electric field

     Computed dipole along edir(3) : 
        Dipole               -6.1104 Ry au,        -15.5310 Debye
        Dipole field         -0.0115 Ry au, 
 
        Potential amp.        1.0689 Ry
        Total length         46.3494 bohr
 

     total cpu time spent up to now is      203.5 secs

     total energy              =   -2928.67992312 Ry
     estimated scf accuracy    <    1973.11031077 Ry

     iteration #  5     ecut=    29.40 Ry     beta= 0.05
     Davidson diagonalization with overlap
     c_bands:  2 eigenvalues not converged
     c_bands:  5 eigenvalues not converged
     c_bands:  4 eigenvalues not converged
     c_bands:  3 eigenvalues not converged
     ethr =  1.00E-02,  avg # of iterations =  9.7

     negative rho (up, down):  1.933E-03 0.000E+00
 
     Adding external electric field

     Computed dipole along edir(3) : 
        Dipole               -6.8396 Ry au,        -17.3845 Debye
        Dipole field         -0.0129 Ry au, 
 
        Potential amp.        1.1965 Ry
        Total length         46.3494 bohr
 

     total cpu time spent up to now is      218.3 secs

     total energy              =   -2927.26910733 Ry
     estimated scf accuracy    <     840.71786892 Ry

     iteration #  6     ecut=    29.40 Ry     beta= 0.05
     Davidson diagonalization with overlap
     ethr =  1.00E-02,  avg # of iterations =  8.4

     negative rho (up, down):  1.922E-03 0.000E+00
 
     Adding external electric field

     Computed dipole along edir(3) : 
        Dipole               -6.2479 Ry au,        -15.8806 Debye
        Dipole field         -0.0118 Ry au, 
 
        Potential amp.        1.0930 Ry
        Total length         46.3494 bohr
 

     total cpu time spent up to now is      235.6 secs

     total energy              =   -2945.82559605 Ry
     estimated scf accuracy    <      24.71401963 Ry

     iteration #  7     ecut=    29.40 Ry     beta= 0.05
     Davidson diagonalization with overlap
     ethr =  6.21E-03,  avg # of iterations =  1.9

     negative rho (up, down):  1.964E-03 0.000E+00
 
     Adding external electric field

     Computed dipole along edir(3) : 
        Dipole               -4.2261 Ry au,        -10.7418 Debye
        Dipole field         -0.0080 Ry au, 
 
        Potential amp.        0.7393 Ry
        Total length         46.3494 bohr
 

     total cpu time spent up to now is      246.2 secs

     total energy              =   -2944.89573789 Ry
     estimated scf accuracy    <      18.71325428 Ry

     iteration #  8     ecut=    29.40 Ry     beta= 0.05
     Davidson diagonalization with overlap
     ethr =  4.70E-03,  avg # of iterations =  3.5

     negative rho (up, down):  2.062E-03 0.000E+00
 
     Adding external electric field

     Computed dipole along edir(3) : 
        Dipole               -0.9084 Ry au,         -2.3089 Debye
        Dipole field         -0.0017 Ry au, 
 
        Potential amp.        0.1589 Ry
        Total length         46.3494 bohr
 

     total cpu time spent up to now is      257.4 secs

     total energy              =   -2945.60265108 Ry
     estimated scf accuracy    <      20.43250052 Ry

     iteration #  9     ecut=    29.40 Ry     beta= 0.05
     Davidson diagonalization with overlap
     c_bands:  1 eigenvalues not converged
     ethr =  4.70E-03,  avg # of iterations = 15.2

     negative rho (up, down):  2.136E-03 0.000E+00
 
     Adding external electric field

     Computed dipole along edir(3) : 
        Dipole               -1.1748 Ry au,         -2.9859 Debye
        Dipole field         -0.0022 Ry au, 
 
        Potential amp.        0.2055 Ry
        Total length         46.3494 bohr
 

     total cpu time spent up to now is      277.3 secs

     total energy              =   -2958.38780337 Ry
     estimated scf accuracy    <    2188.59554908 Ry

     iteration # 10     ecut=    29.40 Ry     beta= 0.05
     Davidson diagonalization with overlap
     ethr =  4.70E-03,  avg # of iterations =  1.4

     negative rho (up, down):  2.540E-03 0.000E+00
 
     Adding external electric field

     Computed dipole along edir(3) : 
        Dipole                1.8439 Ry au,          4.6866 Debye
        Dipole field          0.0035 Ry au, 
 
        Potential amp.       -0.3226 Ry
        Total length         46.3494 bohr
 

     total cpu time spent up to now is      287.7 secs

     total energy              =   -2978.45911295 Ry
     estimated scf accuracy    <    1912.18779999 Ry

     iteration # 11     ecut=    29.40 Ry     beta= 0.05
     Davidson diagonalization with overlap
     ethr =  4.70E-03,  avg # of iterations =  6.5

     negative rho (up, down):  2.641E-03 0.000E+00
 
     Adding external electric field

     Computed dipole along edir(3) : 
        Dipole                0.4250 Ry au,          1.0803 Debye
        Dipole field          0.0008 Ry au, 
 
        Potential amp.       -0.0744 Ry
        Total length         46.3494 bohr
 

     total cpu time spent up to now is      300.1 secs

     total energy              =   -2961.54078789 Ry
     estimated scf accuracy    <    3343.58891758 Ry

     iteration # 12     ecut=    29.40 Ry     beta= 0.05
     Davidson diagonalization with overlap
     ethr =  4.70E-03,  avg # of iterations =  1.9

     negative rho (up, down):  2.789E-03 0.000E+00
 
     Adding external electric field

     Computed dipole along edir(3) : 
        Dipole               -2.3608 Ry au,         -6.0007 Debye
        Dipole field         -0.0045 Ry au, 
 
        Potential amp.        0.4130 Ry
        Total length         46.3494 bohr
 

     total cpu time spent up to now is      311.1 secs

     total energy              =   -2931.15001256 Ry
     estimated scf accuracy    <    2341.06138217 Ry

     iteration # 13     ecut=    29.40 Ry     beta= 0.05
     Davidson diagonalization with overlap
     ethr =  4.70E-03,  avg # of iterations = 17.8

     negative rho (up, down):  2.620E-03 0.000E+00
 
     Adding external electric field

     Computed dipole along edir(3) : 
        Dipole               -1.3986 Ry au,         -3.5549 Debye
        Dipole field         -0.0026 Ry au, 
 
        Potential amp.        0.2447 Ry
        Total length         46.3494 bohr
 

     total cpu time spent up to now is      334.9 secs

     total energy              =   -2943.57793438 Ry
     estimated scf accuracy    <      17.30392781 Ry

     iteration # 14     ecut=    29.40 Ry     beta= 0.05
     Davidson diagonalization with overlap
     ethr =  4.35E-03,  avg # of iterations =  6.7

     negative rho (up, down):  2.622E-03 0.000E+00
 
     Adding external electric field

     Computed dipole along edir(3) : 
        Dipole               -2.2235 Ry au,         -5.6516 Debye
        Dipole field         -0.0042 Ry au, 
 
        Potential amp.        0.3890 Ry
        Total length         46.3494 bohr
 

     total cpu time spent up to now is      347.2 secs

     total energy              =   -2942.62755238 Ry
     estimated scf accuracy    <     328.65806785 Ry

     iteration # 15     ecut=    29.40 Ry     beta= 0.05
     Davidson diagonalization with overlap
     ethr =  4.35E-03,  avg # of iterations =  1.0

     negative rho (up, down):  2.688E-03 0.000E+00
 
     Adding external electric field

     Computed dipole along edir(3) : 
        Dipole               -2.8927 Ry au,         -7.3525 Debye
        Dipole field         -0.0055 Ry au, 
 
        Potential amp.        0.5060 Ry
        Total length         46.3494 bohr
 

     total cpu time spent up to now is      357.2 secs

     total energy              =   -2941.67753567 Ry
     estimated scf accuracy    <      91.72697045 Ry

     iteration # 16     ecut=    29.40 Ry     beta= 0.05
     Davidson diagonalization with overlap
     ethr =  4.35E-03,  avg # of iterations =  5.7

     negative rho (up, down):  2.759E-03 0.000E+00
 
     Adding external electric field

     Computed dipole along edir(3) : 
        Dipole               -3.2472 Ry au,         -8.2535 Debye
        Dipole field         -0.0061 Ry au, 
 
        Potential amp.        0.5680 Ry
        Total length         46.3494 bohr
 

     total cpu time spent up to now is      369.3 secs

     total energy              =   -2942.63806509 Ry
     estimated scf accuracy    <       8.17327655 Ry

     iteration # 17     ecut=    29.40 Ry     beta= 0.05
     Davidson diagonalization with overlap
     ethr =  2.05E-03,  avg # of iterations =  7.9

     negative rho (up, down):  2.860E-03 0.000E+00
 
     Adding external electric field

     Computed dipole along edir(3) : 
        Dipole               -3.1967 Ry au,         -8.1252 Debye
        Dipole field         -0.0060 Ry au, 
 
        Potential amp.        0.5592 Ry
        Total length         46.3494 bohr
 

     total cpu time spent up to now is      383.1 secs

     total energy              =   -2943.34153463 Ry
     estimated scf accuracy    <      22.27559957 Ry

     iteration # 18     ecut=    29.40 Ry     beta= 0.05
     Davidson diagonalization with overlap
     ethr =  2.05E-03,  avg # of iterations =  4.8

     negative rho (up, down):  2.744E-03 0.000E+00
 
     Adding external electric field

     Computed dipole along edir(3) : 
        Dipole               -3.3385 Ry au,         -8.4857 Debye
        Dipole field         -0.0063 Ry au, 
 
        Potential amp.        0.5840 Ry
        Total length         46.3494 bohr
 

     total cpu time spent up to now is      394.9 secs

     total energy              =   -2943.26998889 Ry
     estimated scf accuracy    <      45.59688664 Ry

     iteration # 19     ecut=    29.40 Ry     beta= 0.05
     Davidson diagonalization with overlap
     ethr =  2.05E-03,  avg # of iterations =  1.9

     negative rho (up, down):  2.766E-03 0.000E+00
 
     Adding external electric field

     Computed dipole along edir(3) : 
        Dipole               -3.2063 Ry au,         -8.1496 Debye
        Dipole field         -0.0061 Ry au, 
 
        Potential amp.        0.5609 Ry
        Total length         46.3494 bohr
 

     total cpu time spent up to now is      405.4 secs

     total energy              =   -2943.28718274 Ry
     estimated scf accuracy    <      24.09271507 Ry

     iteration # 20     ecut=    29.40 Ry     beta= 0.05
     Davidson diagonalization with overlap
     ethr =  2.05E-03,  avg # of iterations =  1.4

     negative rho (up, down):  2.866E-03 0.000E+00
 
     Adding external electric field

     Computed dipole along edir(3) : 
        Dipole               -2.8145 Ry au,         -7.1538 Debye
        Dipole field         -0.0053 Ry au, 
 
        Potential amp.        0.4924 Ry
        Total length         46.3494 bohr
 

     total cpu time spent up to now is      415.9 secs

     total energy              =   -2943.25294900 Ry
     estimated scf accuracy    <       7.51996744 Ry

     iteration # 21     ecut=    29.40 Ry     beta= 0.05
     Davidson diagonalization with overlap
     ethr =  1.89E-03,  avg # of iterations =  1.0

     negative rho (up, down):  3.250E-03 0.000E+00
 
     Adding external electric field

     Computed dipole along edir(3) : 
        Dipole               -1.7923 Ry au,         -4.5555 Debye
        Dipole field         -0.0034 Ry au, 
 
        Potential amp.        0.3135 Ry
        Total length         46.3494 bohr
 

     total cpu time spent up to now is      425.9 secs

     total energy              =   -2943.00590460 Ry
     estimated scf accuracy    <       4.75706748 Ry

     iteration # 22     ecut=    29.40 Ry     beta= 0.05
     Davidson diagonalization with overlap
     ethr =  1.20E-03,  avg # of iterations =  6.5

     negative rho (up, down):  3.196E-03 0.000E+00
 
     Adding external electric field

     Computed dipole along edir(3) : 
        Dipole               -1.8182 Ry au,         -4.6215 Debye
        Dipole field         -0.0034 Ry au, 
 
        Potential amp.        0.3181 Ry
        Total length         46.3494 bohr
 

     total cpu time spent up to now is      438.2 secs

     total energy              =   -2943.07812965 Ry
     estimated scf accuracy    <       2.98105639 Ry

     iteration # 23     ecut=    29.40 Ry     beta= 0.05
     Davidson diagonalization with overlap
     ethr =  7.49E-04,  avg # of iterations =  1.3

     negative rho (up, down):  3.499E-03 0.000E+00
 
     Adding external electric field

     Computed dipole along edir(3) : 
        Dipole               -0.7790 Ry au,         -1.9800 Debye
        Dipole field         -0.0015 Ry au, 
 
        Potential amp.        0.1363 Ry
        Total length         46.3494 bohr
 

     total cpu time spent up to now is      448.5 secs

     total energy              =   -2942.77097982 Ry
     estimated scf accuracy    <       2.95898080 Ry

     iteration # 24     ecut=    29.40 Ry     beta= 0.05
     Davidson diagonalization with overlap
     ethr =  7.43E-04,  avg # of iterations =  4.7

     negative rho (up, down):  4.014E-03 0.000E+00
 
     Adding external electric field

     Computed dipole along edir(3) : 
        Dipole                0.3763 Ry au,          0.9564 Debye
        Dipole field          0.0007 Ry au, 
 
        Potential amp.       -0.0658 Ry
        Total length         46.3494 bohr
 

     total cpu time spent up to now is      460.2 secs

     total energy              =   -2942.73701717 Ry
     estimated scf accuracy    <       1.31094859 Ry

     iteration # 25     ecut=    29.40 Ry     beta= 0.05
     Davidson diagonalization with overlap
     c_bands:  4 eigenvalues not converged
     c_bands:  1 eigenvalues not converged
     c_bands:  4 eigenvalues not converged
     c_bands:  1 eigenvalues not converged
     c_bands:  1 eigenvalues not converged
     c_bands:  1 eigenvalues not converged
     c_bands:  1 eigenvalues not converged
     c_bands:  1 eigenvalues not converged
     ethr =  3.29E-04,  avg # of iterations = 20.3

     negative rho (up, down):  3.964E-03 0.000E+00
 
     Adding external electric field

     Computed dipole along edir(3) : 
        Dipole                0.2056 Ry au,          0.5226 Debye
        Dipole field          0.0004 Ry au, 
 
        Potential amp.       -0.0360 Ry
        Total length         46.3494 bohr
 

     total cpu time spent up to now is      483.6 secs

     total energy              =   -2942.93644708 Ry
     estimated scf accuracy    <      16.32985575 Ry

     iteration # 26     ecut=    29.40 Ry     beta= 0.05
     Davidson diagonalization with overlap
     ethr =  3.29E-04,  avg # of iterations =  3.7

     negative rho (up, down):  3.912E-03 0.000E+00
 
     Adding external electric field

     Computed dipole along edir(3) : 
        Dipole                0.1609 Ry au,          0.4090 Debye
        Dipole field          0.0003 Ry au, 
 
        Potential amp.       -0.0281 Ry
        Total length         46.3494 bohr
 

     total cpu time spent up to now is      494.6 secs

     total energy              =   -2943.04457617 Ry
     estimated scf accuracy    <       3.06978999 Ry

     iteration # 27     ecut=    29.40 Ry     beta= 0.05
     Davidson diagonalization with overlap
     ethr =  3.29E-04,  avg # of iterations =  1.0

     negative rho (up, down):  3.860E-03 0.000E+00
 
     Adding external electric field

     Computed dipole along edir(3) : 
        Dipole               -0.0890 Ry au,         -0.2263 Debye
        Dipole field         -0.0002 Ry au, 
 
        Potential amp.        0.0156 Ry
        Total length         46.3494 bohr
 

     total cpu time spent up to now is      504.7 secs

     total energy              =   -2942.75648965 Ry
     estimated scf accuracy    <       3.51986168 Ry

     iteration # 28     ecut=    29.40 Ry     beta= 0.05
     Davidson diagonalization with overlap
     c_bands:  2 eigenvalues not converged
     ethr =  3.29E-04,  avg # of iterations =  8.9

     negative rho (up, down):  3.857E-03 0.000E+00
 
     Adding external electric field

     Computed dipole along edir(3) : 
        Dipole               -0.0693 Ry au,         -0.1761 Debye
        Dipole field         -0.0001 Ry au, 
 
        Potential amp.        0.0121 Ry
        Total length         46.3494 bohr
 

     total cpu time spent up to now is      517.6 secs

     total energy              =   -2942.83668217 Ry
     estimated scf accuracy    <       0.54365446 Ry

     iteration # 29     ecut=    29.40 Ry     beta= 0.05
     Davidson diagonalization with overlap
     c_bands:  2 eigenvalues not converged
     ethr =  1.37E-04,  avg # of iterations = 15.9

     negative rho (up, down):  3.977E-03 0.000E+00
 
     Adding external electric field

     Computed dipole along edir(3) : 
        Dipole                0.1927 Ry au,          0.4897 Debye
        Dipole field          0.0004 Ry au, 
 
        Potential amp.       -0.0337 Ry
        Total length         46.3494 bohr
 

     total cpu time spent up to now is      534.5 secs

     total energy              =   -2942.86484616 Ry
     estimated scf accuracy    <       0.36214388 Ry

     iteration # 30     ecut=    29.40 Ry     beta= 0.05
     Davidson diagonalization with overlap
     c_bands:  1 eigenvalues not converged
     ethr =  9.10E-05,  avg # of iterations =  5.4

     negative rho (up, down):  3.995E-03 0.000E+00
 
     Adding external electric field

     Computed dipole along edir(3) : 
        Dipole                0.2403 Ry au,          0.6109 Debye
        Dipole field          0.0005 Ry au, 
 
        Potential amp.       -0.0420 Ry
        Total length         46.3494 bohr
 

     total cpu time spent up to now is      546.3 secs

     total energy              =   -2942.88755891 Ry
     estimated scf accuracy    <       0.52008870 Ry

     iteration # 31     ecut=    29.40 Ry     beta= 0.05
     Davidson diagonalization with overlap
     ethr =  9.10E-05,  avg # of iterations =  3.5

     negative rho (up, down):  4.082E-03 0.000E+00
 
     Adding external electric field

     Computed dipole along edir(3) : 
        Dipole                0.3013 Ry au,          0.7658 Debye
        Dipole field          0.0006 Ry au, 
 
        Potential amp.       -0.0527 Ry
        Total length         46.3494 bohr
 

     total cpu time spent up to now is      557.7 secs

     total energy              =   -2942.87928492 Ry
     estimated scf accuracy    <       0.73270274 Ry

     iteration # 32     ecut=    29.40 Ry     beta= 0.05
     Davidson diagonalization with overlap
     c_bands:  2 eigenvalues not converged
     c_bands:  1 eigenvalues not converged
     ethr =  9.10E-05,  avg # of iterations = 12.2

     negative rho (up, down):  4.815E-03 0.000E+00
 
     Adding external electric field

     Computed dipole along edir(3) : 
        Dipole                1.0466 Ry au,          2.6601 Debye
        Dipole field          0.0020 Ry au, 
 
        Potential amp.       -0.1831 Ry
        Total length         46.3494 bohr
 

     total cpu time spent up to now is      572.0 secs

     total energy              =   -2942.89116568 Ry
     estimated scf accuracy    <       0.39141272 Ry

     iteration # 33     ecut=    29.40 Ry     beta= 0.05
     Davidson diagonalization with overlap
     c_bands:  2 eigenvalues not converged
     c_bands:  2 eigenvalues not converged
     c_bands:  3 eigenvalues not converged
     ethr =  9.10E-05,  avg # of iterations = 12.8

     negative rho (up, down):  4.765E-03 0.000E+00
 
     Adding external electric field

     Computed dipole along edir(3) : 
        Dipole                1.1473 Ry au,          2.9161 Debye
        Dipole field          0.0022 Ry au, 
 
        Potential amp.       -0.2007 Ry
        Total length         46.3494 bohr
 

     total cpu time spent up to now is      587.1 secs

     total energy              =   -2942.93029614 Ry
     estimated scf accuracy    <       0.66839580 Ry

     iteration # 34     ecut=    29.40 Ry     beta= 0.05
     Davidson diagonalization with overlap
     c_bands:  1 eigenvalues not converged
     c_bands:  2 eigenvalues not converged
     c_bands:  3 eigenvalues not converged
     ethr =  9.10E-05,  avg # of iterations = 12.0

     negative rho (up, down):  4.730E-03 0.000E+00
 
     Adding external electric field

     Computed dipole along edir(3) : 
        Dipole                1.1836 Ry au,          3.0083 Debye
        Dipole field          0.0022 Ry au, 
 
        Potential amp.       -0.2070 Ry
        Total length         46.3494 bohr
 

     total cpu time spent up to now is      600.9 secs

     total energy              =   -2942.94481570 Ry
     estimated scf accuracy    <       2.80688496 Ry

     iteration # 35     ecut=    29.40 Ry     beta= 0.05
     Davidson diagonalization with overlap
     c_bands:  1 eigenvalues not converged
     c_bands:  2 eigenvalues not converged
     ethr =  9.10E-05,  avg # of iterations =  7.8

     negative rho (up, down):  4.903E-03 0.000E+00
 
     Adding external electric field

     Computed dipole along edir(3) : 
        Dipole                1.1201 Ry au,          2.8470 Debye
        Dipole field          0.0021 Ry au, 
 
        Potential amp.       -0.1959 Ry
        Total length         46.3494 bohr
 

     total cpu time spent up to now is      613.3 secs

     total energy              =   -2942.93488457 Ry
     estimated scf accuracy    <       3.36990986 Ry

     iteration # 36     ecut=    29.40 Ry     beta= 0.05
     Davidson diagonalization with overlap
     c_bands:  1 eigenvalues not converged
     ethr =  9.10E-05,  avg # of iterations =  6.0

     negative rho (up, down):  5.128E-03 0.000E+00
 
     Adding external electric field

     Computed dipole along edir(3) : 
        Dipole                1.3818 Ry au,          3.5122 Debye
        Dipole field          0.0026 Ry au, 
 
        Potential amp.       -0.2417 Ry
        Total length         46.3494 bohr
 

     total cpu time spent up to now is      625.4 secs

     total energy              =   -2943.01155101 Ry
     estimated scf accuracy    <       1.24657180 Ry

     iteration # 37     ecut=    29.40 Ry     beta= 0.05
     Davidson diagonalization with overlap
     ethr =  9.10E-05,  avg # of iterations =  6.9

     negative rho (up, down):  4.018E-03 0.000E+00
 
     Adding external electric field

     Computed dipole along edir(3) : 
        Dipole                0.4486 Ry au,          1.1402 Debye
        Dipole field          0.0008 Ry au, 
 
        Potential amp.       -0.0785 Ry
        Total length         46.3494 bohr
 

     total cpu time spent up to now is      637.8 secs

     total energy              =   -2942.63507319 Ry
     estimated scf accuracy    <      12.27813389 Ry

     iteration # 38     ecut=    29.40 Ry     beta= 0.05
     Davidson diagonalization with overlap
     ethr =  9.10E-05,  avg # of iterations = 12.1

     negative rho (up, down):  4.514E-03 0.000E+00
 
     Adding external electric field

     Computed dipole along edir(3) : 
        Dipole                0.7833 Ry au,          1.9910 Debye
        Dipole field          0.0015 Ry au, 
 
        Potential amp.       -0.1370 Ry
        Total length         46.3494 bohr
 

     total cpu time spent up to now is      656.3 secs

     total energy              =   -2942.85104237 Ry
     estimated scf accuracy    <       0.37581702 Ry

     iteration # 39     ecut=    29.40 Ry     beta= 0.05
     Davidson diagonalization with overlap
     c_bands:  1 eigenvalues not converged
     c_bands:  2 eigenvalues not converged
     c_bands:  2 eigenvalues not converged
     ethr =  9.10E-05,  avg # of iterations = 14.6

     negative rho (up, down):  5.922E-03 0.000E+00
 
     Adding external electric field

     Computed dipole along edir(3) : 
        Dipole                1.3281 Ry au,          3.3757 Debye
        Dipole field          0.0025 Ry au, 
 
        Potential amp.       -0.2323 Ry
        Total length         46.3494 bohr
 

     total cpu time spent up to now is      671.5 secs

     total energy              =   -2942.87709238 Ry
     estimated scf accuracy    <       0.31247146 Ry

     iteration # 40     ecut=    29.40 Ry     beta= 0.05
     Davidson diagonalization with overlap
     ethr =  7.85E-05,  avg # of iterations =  5.8

     negative rho (up, down):  6.174E-03 0.000E+00
 
     Adding external electric field

     Computed dipole along edir(3) : 
        Dipole                1.5355 Ry au,          3.9028 Debye
        Dipole field          0.0029 Ry au, 
 
        Potential amp.       -0.2686 Ry
        Total length         46.3494 bohr
 

     total cpu time spent up to now is      683.6 secs

     total energy              =   -2942.86340332 Ry
     estimated scf accuracy    <       0.21753480 Ry

     iteration # 41     ecut=    29.40 Ry     beta= 0.05
     Davidson diagonalization with overlap
     c_bands:  2 eigenvalues not converged
     c_bands:  1 eigenvalues not converged
     ethr =  5.47E-05,  avg # of iterations = 10.8

     negative rho (up, down):  6.303E-03 0.000E+00
 
     Adding external electric field

     Computed dipole along edir(3) : 
        Dipole                1.5501 Ry au,          3.9399 Debye
        Dipole field          0.0029 Ry au, 
 
        Potential amp.       -0.2712 Ry
        Total length         46.3494 bohr
 

     total cpu time spent up to now is      697.1 secs

     total energy              =   -2942.87505385 Ry
     estimated scf accuracy    <       0.67132420 Ry

     iteration # 42     ecut=    29.40 Ry     beta= 0.05
     Davidson diagonalization with overlap
     ethr =  5.47E-05,  avg # of iterations =  4.7

     negative rho (up, down):  6.628E-03 0.000E+00
 
     Adding external electric field

     Computed dipole along edir(3) : 
        Dipole                1.5834 Ry au,          4.0247 Debye
        Dipole field          0.0030 Ry au, 
 
        Potential amp.       -0.2770 Ry
        Total length         46.3494 bohr
 

     total cpu time spent up to now is      708.8 secs

     total energy              =   -2942.88233909 Ry
     estimated scf accuracy    <       0.35354213 Ry

     iteration # 43     ecut=    29.40 Ry     beta= 0.05
     Davidson diagonalization with overlap
     ethr =  5.47E-05,  avg # of iterations =  1.2

     negative rho (up, down):  7.987E-03 0.000E+00
 
     Adding external electric field

     Computed dipole along edir(3) : 
        Dipole                1.6322 Ry au,          4.1487 Debye
        Dipole field          0.0031 Ry au, 
 
        Potential amp.       -0.2855 Ry
        Total length         46.3494 bohr
 

     total cpu time spent up to now is      719.1 secs

     total energy              =   -2942.88509413 Ry
     estimated scf accuracy    <       0.43594200 Ry

     iteration # 44     ecut=    29.40 Ry     beta= 0.05
     Davidson diagonalization with overlap
     ethr =  5.47E-05,  avg # of iterations =  2.2

     negative rho (up, down):  9.055E-03 0.000E+00
 
     Adding external electric field

     Computed dipole along edir(3) : 
        Dipole                1.6071 Ry au,          4.0849 Debye
        Dipole field          0.0030 Ry au, 
 
        Potential amp.       -0.2811 Ry
        Total length         46.3494 bohr
 

     total cpu time spent up to now is      729.8 secs

     total energy              =   -2942.88548081 Ry
     estimated scf accuracy    <       0.39977707 Ry

     iteration # 45     ecut=    29.40 Ry     beta= 0.05
     Davidson diagonalization with overlap
     ethr =  5.47E-05,  avg # of iterations =  2.5

     negative rho (up, down):  8.257E-03 0.000E+00
 
     Adding external electric field

     Computed dipole along edir(3) : 
        Dipole                1.4989 Ry au,          3.8097 Debye
        Dipole field          0.0028 Ry au, 
 
        Potential amp.       -0.2622 Ry
        Total length         46.3494 bohr
 

     total cpu time spent up to now is      740.5 secs

     total energy              =   -2942.88062720 Ry
     estimated scf accuracy    <       0.31818700 Ry

     iteration # 46     ecut=    29.40 Ry     beta= 0.05
     Davidson diagonalization with overlap
     ethr =  5.47E-05,  avg # of iterations =  1.1

     negative rho (up, down):  4.974E-03 0.000E+00
 
     Adding external electric field

     Computed dipole along edir(3) : 
        Dipole                0.9502 Ry au,          2.4152 Debye
        Dipole field          0.0018 Ry au, 
 
        Potential amp.       -0.1662 Ry
        Total length         46.3494 bohr
 

     total cpu time spent up to now is      750.6 secs

     total energy              =   -2942.85145826 Ry
     estimated scf accuracy    <       0.25804599 Ry

     iteration # 47     ecut=    29.40 Ry     beta= 0.05
     Davidson diagonalization with overlap
     ethr =  5.47E-05,  avg # of iterations =  5.9

     negative rho (up, down):  5.027E-03 0.000E+00
 
     Adding external electric field

     Computed dipole along edir(3) : 
        Dipole                0.9124 Ry au,          2.3192 Debye
        Dipole field          0.0017 Ry au, 
 
        Potential amp.       -0.1596 Ry
        Total length         46.3494 bohr
 

     total cpu time spent up to now is      762.9 secs

     total energy              =   -2942.85564822 Ry
     estimated scf accuracy    <       0.17653529 Ry

     iteration # 48     ecut=    29.40 Ry     beta= 0.05
     Davidson diagonalization with overlap
     ethr =  4.44E-05,  avg # of iterations =  3.6

     negative rho (up, down):  5.686E-03 0.000E+00
 
     Adding external electric field

     Computed dipole along edir(3) : 
        Dipole                0.7115 Ry au,          1.8084 Debye
        Dipole field          0.0013 Ry au, 
 
        Potential amp.       -0.1245 Ry
        Total length         46.3494 bohr
 

     total cpu time spent up to now is      774.2 secs

     total energy              =   -2942.84553868 Ry
     estimated scf accuracy    <       0.07539852 Ry

     iteration # 49     ecut=    29.40 Ry     beta= 0.05
     Davidson diagonalization with overlap
     c_bands:  5 eigenvalues not converged
     c_bands:  2 eigenvalues not converged
     c_bands:  5 eigenvalues not converged
     c_bands:  1 eigenvalues not converged
     c_bands:  2 eigenvalues not converged
     c_bands:  3 eigenvalues not converged
     ethr =  1.89E-05,  avg # of iterations = 22.8

     negative rho (up, down):  5.383E-03 0.000E+00
 
     Adding external electric field

     Computed dipole along edir(3) : 
        Dipole                1.0505 Ry au,          2.6701 Debye
        Dipole field          0.0020 Ry au, 
 
        Potential amp.       -0.1838 Ry
        Total length         46.3494 bohr
 

     total cpu time spent up to now is      800.6 secs

     total energy              =   -2942.79018554 Ry
     estimated scf accuracy    <       1.31946404 Ry

     iteration # 50     ecut=    29.40 Ry     beta= 0.05
     Davidson diagonalization with overlap
     c_bands:  3 eigenvalues not converged
     c_bands:  2 eigenvalues not converged
     c_bands:  2 eigenvalues not converged
     c_bands:  4 eigenvalues not converged
     c_bands:  3 eigenvalues not converged
     c_bands:  4 eigenvalues not converged
     c_bands:  1 eigenvalues not converged
     c_bands:  3 eigenvalues not converged
     c_bands:  4 eigenvalues not converged
     ethr =  1.89E-05,  avg # of iterations = 19.6

     negative rho (up, down):  6.207E-03 0.000E+00
 
     Adding external electric field

     Computed dipole along edir(3) : 
        Dipole                0.8778 Ry au,          2.2311 Debye
        Dipole field          0.0017 Ry au, 
 
        Potential amp.       -0.1536 Ry
        Total length         46.3494 bohr
 

     total cpu time spent up to now is      823.2 secs

     total energy              =   -2942.83545131 Ry
     estimated scf accuracy    <       0.15413769 Ry

     iteration # 51     ecut=    29.40 Ry     beta= 0.05
     Davidson diagonalization with overlap
     c_bands:  1 eigenvalues not converged
     c_bands:  1 eigenvalues not converged
     c_bands:  1 eigenvalues not converged
     c_bands:  1 eigenvalues not converged
     c_bands:  2 eigenvalues not converged
     ethr =  1.89E-05,  avg # of iterations = 18.5

     negative rho (up, down):  7.291E-03 0.000E+00
 
     Adding external electric field

     Computed dipole along edir(3) : 
        Dipole                1.2713 Ry au,          3.2314 Debye
        Dipole field          0.0024 Ry au, 
 
        Potential amp.       -0.2224 Ry
        Total length         46.3494 bohr
 

     total cpu time spent up to now is      844.9 secs

     total energy              =   -2942.83618456 Ry
     estimated scf accuracy    <       0.91939126 Ry

     iteration # 52     ecut=    29.40 Ry     beta= 0.05
     Davidson diagonalization with overlap
     c_bands:  1 eigenvalues not converged
     c_bands:  2 eigenvalues not converged
     c_bands:  2 eigenvalues not converged
     c_bands:  4 eigenvalues not converged
     c_bands:  2 eigenvalues not converged
     c_bands:  4 eigenvalues not converged
     c_bands:  1 eigenvalues not converged
     c_bands:  1 eigenvalues not converged
     ethr =  1.89E-05,  avg # of iterations = 18.5

     negative rho (up, down):  9.135E-03 0.000E+00
 
     Adding external electric field

     Computed dipole along edir(3) : 
        Dipole                1.2276 Ry au,          3.1202 Debye
        Dipole field          0.0023 Ry au, 
 
        Potential amp.       -0.2147 Ry
        Total length         46.3494 bohr
 

     total cpu time spent up to now is      862.8 secs

     total energy              =   -2942.85484648 Ry
     estimated scf accuracy    <       0.10145377 Ry

     iteration # 53     ecut=    29.40 Ry     beta= 0.05
     Davidson diagonalization with overlap
     ethr =  1.89E-05,  avg # of iterations =  9.4

     negative rho (up, down):  9.207E-03 0.000E+00
 
     Adding external electric field

     Computed dipole along edir(3) : 
        Dipole                1.2212 Ry au,          3.1039 Debye
        Dipole field          0.0023 Ry au, 
 
        Potential amp.       -0.2136 Ry
        Total length         46.3494 bohr
 

     total cpu time spent up to now is      876.4 secs

     total energy              =   -2942.86016212 Ry
     estimated scf accuracy    <       0.10460155 Ry

     iteration # 54     ecut=    29.40 Ry     beta= 0.05
     Davidson diagonalization with overlap
     ethr =  1.89E-05,  avg # of iterations =  1.6

     negative rho (up, down):  9.406E-03 0.000E+00
 
     Adding external electric field

     Computed dipole along edir(3) : 
        Dipole                1.2268 Ry au,          3.1182 Debye
        Dipole field          0.0023 Ry au, 
 
        Potential amp.       -0.2146 Ry
        Total length         46.3494 bohr
 

     total cpu time spent up to now is      886.9 secs

     total energy              =   -2942.85980063 Ry
     estimated scf accuracy    <       0.06191898 Ry

     iteration # 55     ecut=    29.40 Ry     beta= 0.05
     Davidson diagonalization with overlap
     ethr =  1.56E-05,  avg # of iterations =  2.5

     negative rho (up, down):  1.128E-02 0.000E+00
 
     Adding external electric field

     Computed dipole along edir(3) : 
        Dipole                1.1991 Ry au,          3.0478 Debye
        Dipole field          0.0023 Ry au, 
 
        Potential amp.       -0.2098 Ry
        Total length         46.3494 bohr
 

     total cpu time spent up to now is      898.0 secs

     total energy              =   -2942.85808080 Ry
     estimated scf accuracy    <       0.05334791 Ry

     iteration # 56     ecut=    29.40 Ry     beta= 0.05
     Davidson diagonalization with overlap
     ethr =  1.34E-05,  avg # of iterations =  6.3

     negative rho (up, down):  1.257E-02 0.000E+00
 
     Adding external electric field

     Computed dipole along edir(3) : 
        Dipole                1.1873 Ry au,          3.0178 Debye
        Dipole field          0.0022 Ry au, 
 
        Potential amp.       -0.2077 Ry
        Total length         46.3494 bohr
 

     total cpu time spent up to now is      910.2 secs

     total energy              =   -2942.85953113 Ry
     estimated scf accuracy    <       0.02124672 Ry

     iteration # 57     ecut=    29.40 Ry     beta= 0.05
     Davidson diagonalization with overlap
     c_bands:  1 eigenvalues not converged
     c_bands:  1 eigenvalues not converged
     c_bands:  2 eigenvalues not converged
     c_bands:  1 eigenvalues not converged
     ethr =  5.34E-06,  avg # of iterations = 16.7

     negative rho (up, down):  1.278E-02 0.000E+00
 
     Adding external electric field

     Computed dipole along edir(3) : 
        Dipole                1.2037 Ry au,          3.0594 Debye
        Dipole field          0.0023 Ry au, 
 
        Potential amp.       -0.2106 Ry
        Total length         46.3494 bohr
 

     total cpu time spent up to now is      927.2 secs

     total energy              =   -2942.85964978 Ry
     estimated scf accuracy    <       0.01099364 Ry

     iteration # 58     ecut=    29.40 Ry     beta= 0.05
     Davidson diagonalization with overlap
     ethr =  2.76E-06,  avg # of iterations =  7.9

     negative rho (up, down):  1.176E-02 0.000E+00
 
     Adding external electric field

     Computed dipole along edir(3) : 
        Dipole                1.1697 Ry au,          2.9731 Debye
        Dipole field          0.0022 Ry au, 
 
        Potential amp.       -0.2046 Ry
        Total length         46.3494 bohr
 

     total cpu time spent up to now is      940.0 secs

     total energy              =   -2942.85893228 Ry
     estimated scf accuracy    <       0.00757266 Ry

     iteration # 59     ecut=    29.40 Ry     beta= 0.05
     Davidson diagonalization with overlap
     c_bands:  1 eigenvalues not converged
     c_bands:  1 eigenvalues not converged
     c_bands:  1 eigenvalues not converged
     ethr =  1.90E-06,  avg # of iterations = 11.8

     negative rho (up, down):  1.190E-02 0.000E+00
 
     Adding external electric field

     Computed dipole along edir(3) : 
        Dipole                1.1562 Ry au,          2.9388 Debye
        Dipole field          0.0022 Ry au, 
 
        Potential amp.       -0.2023 Ry
        Total length         46.3494 bohr
 

     total cpu time spent up to now is      955.2 secs

     total energy              =   -2942.85957114 Ry
     estimated scf accuracy    <       0.00110006 Ry

     iteration # 60     ecut=    29.40 Ry     beta= 0.05
     Davidson diagonalization with overlap
     c_bands:  1 eigenvalues not converged
     c_bands:  1 eigenvalues not converged
     ethr =  2.76E-07,  avg # of iterations = 17.1

     negative rho (up, down):  1.247E-02 0.000E+00
 
     Adding external electric field

     Computed dipole along edir(3) : 
        Dipole                1.1874 Ry au,          3.0180 Debye
        Dipole field          0.0022 Ry au, 
 
        Potential amp.       -0.2077 Ry
        Total length         46.3494 bohr
 

     total cpu time spent up to now is      972.7 secs

     total energy              =   -2942.85958906 Ry
     estimated scf accuracy    <       0.00263586 Ry

     iteration # 61     ecut=    29.40 Ry     beta= 0.05
     Davidson diagonalization with overlap
     ethr =  2.76E-07,  avg # of iterations = 12.8

     negative rho (up, down):  1.308E-02 0.000E+00
 
     Adding external electric field

     Computed dipole along edir(3) : 
        Dipole                1.2038 Ry au,          3.0597 Debye
        Dipole field          0.0023 Ry au, 
 
        Potential amp.       -0.2106 Ry
        Total length         46.3494 bohr
 

     total cpu time spent up to now is      987.3 secs

     total energy              =   -2942.85947237 Ry
     estimated scf accuracy    <       0.00092140 Ry

     iteration # 62     ecut=    29.40 Ry     beta= 0.05
     Davidson diagonalization with overlap
     ethr =  2.32E-07,  avg # of iterations =  9.4

     negative rho (up, down):  1.332E-02 0.000E+00
 
     Adding external electric field

     Computed dipole along edir(3) : 
        Dipole                1.2020 Ry au,          3.0553 Debye
        Dipole field          0.0023 Ry au, 
 
        Potential amp.       -0.2103 Ry
        Total length         46.3494 bohr
 

     total cpu time spent up to now is     1002.8 secs

     total energy              =   -2942.85961447 Ry
     estimated scf accuracy    <       0.00029907 Ry

     iteration # 63     ecut=    29.40 Ry     beta= 0.05
     Davidson diagonalization with overlap
     ethr =  7.51E-08,  avg # of iterations = 10.9

     negative rho (up, down):  1.364E-02 0.000E+00
 
     Adding external electric field

     Computed dipole along edir(3) : 
        Dipole                1.2097 Ry au,          3.0747 Debye
        Dipole field          0.0023 Ry au, 
 
        Potential amp.       -0.2116 Ry
        Total length         46.3494 bohr
 

     total cpu time spent up to now is     1016.5 secs

     total energy              =   -2942.85960424 Ry
     estimated scf accuracy    <       0.00036353 Ry

     iteration # 64     ecut=    29.40 Ry     beta= 0.05
     Davidson diagonalization with overlap
     c_bands:  1 eigenvalues not converged
     ethr =  7.51E-08,  avg # of iterations = 11.5

     negative rho (up, down):  1.400E-02 0.000E+00
 
     Adding external electric field

     Computed dipole along edir(3) : 
        Dipole                1.2169 Ry au,          3.0931 Debye
        Dipole field          0.0023 Ry au, 
 
        Potential amp.       -0.2129 Ry
        Total length         46.3494 bohr
 

     total cpu time spent up to now is     1033.2 secs

     total energy              =   -2942.85960743 Ry
     estimated scf accuracy    <       0.00039492 Ry

     iteration # 65     ecut=    29.40 Ry     beta= 0.05
     Davidson diagonalization with overlap
     ethr =  7.51E-08,  avg # of iterations =  6.1

     negative rho (up, down):  1.418E-02 0.000E+00
 
     Adding external electric field

     Computed dipole along edir(3) : 
        Dipole                1.2218 Ry au,          3.1055 Debye
        Dipole field          0.0023 Ry au, 
 
        Potential amp.       -0.2137 Ry
        Total length         46.3494 bohr
 

     total cpu time spent up to now is     1045.9 secs

     total energy              =   -2942.85965153 Ry
     estimated scf accuracy    <       0.00005058 Ry

     iteration # 66     ecut=    29.40 Ry     beta= 0.05
     Davidson diagonalization with overlap
     c_bands:  1 eigenvalues not converged
     c_bands:  1 eigenvalues not converged
     ethr =  1.27E-08,  avg # of iterations = 16.8

     negative rho (up, down):  1.430E-02 0.000E+00
 
     Adding external electric field

     Computed dipole along edir(3) : 
        Dipole                1.2214 Ry au,          3.1045 Debye
        Dipole field          0.0023 Ry au, 
 
        Potential amp.       -0.2137 Ry
        Total length         46.3494 bohr
 

     total cpu time spent up to now is     1066.0 secs

     total energy              =   -2942.85966061 Ry
     estimated scf accuracy    <       0.00003738 Ry

     iteration # 67     ecut=    29.40 Ry     beta= 0.05
     Davidson diagonalization with overlap
     ethr =  9.39E-09,  avg # of iterations =  8.6

     negative rho (up, down):  1.441E-02 0.000E+00
 
     Adding external electric field

     Computed dipole along edir(3) : 
        Dipole                1.2229 Ry au,          3.1082 Debye
        Dipole field          0.0023 Ry au, 
 
        Potential amp.       -0.2139 Ry
        Total length         46.3494 bohr
 

     total cpu time spent up to now is     1079.5 secs

     total energy              =   -2942.85966881 Ry
     estimated scf accuracy    <       0.00001170 Ry

     iteration # 68     ecut=    29.40 Ry     beta= 0.05
     Davidson diagonalization with overlap
     c_bands:  1 eigenvalues not converged
     c_bands:  1 eigenvalues not converged
     ethr =  2.94E-09,  avg # of iterations = 13.0

     negative rho (up, down):  1.451E-02 0.000E+00
 
     Adding external electric field

     Computed dipole along edir(3) : 
        Dipole                1.2246 Ry au,          3.1127 Debye
        Dipole field          0.0023 Ry au, 
 
        Potential amp.       -0.2142 Ry
        Total length         46.3494 bohr
 

     total cpu time spent up to now is     1097.0 secs

     total energy              =   -2942.85967372 Ry
     estimated scf accuracy    <       0.00000792 Ry

     iteration # 69     ecut=    29.40 Ry     beta= 0.05
     Davidson diagonalization with overlap
     ethr =  1.99E-09,  avg # of iterations =  8.2

     negative rho (up, down):  1.458E-02 0.000E+00
 
     Adding external electric field

     Computed dipole along edir(3) : 
        Dipole                1.2246 Ry au,          3.1125 Debye
        Dipole field          0.0023 Ry au, 
 
        Potential amp.       -0.2142 Ry
        Total length         46.3494 bohr
 

     total cpu time spent up to now is     1110.3 secs

     total energy              =   -2942.85967757 Ry
     estimated scf accuracy    <       0.00000451 Ry

     iteration # 70     ecut=    29.40 Ry     beta= 0.05
     Davidson diagonalization with overlap
     ethr =  1.13E-09,  avg # of iterations = 13.0

     negative rho (up, down):  1.458E-02 0.000E+00
 
     Adding external electric field

     Computed dipole along edir(3) : 
        Dipole                1.2237 Ry au,          3.1104 Debye
        Dipole field          0.0023 Ry au, 
 
        Potential amp.       -0.2141 Ry
        Total length         46.3494 bohr
 

     total cpu time spent up to now is     1126.9 secs

     total energy              =   -2942.85968031 Ry
     estimated scf accuracy    <       0.00000298 Ry

     iteration # 71     ecut=    29.40 Ry     beta= 0.05
     Davidson diagonalization with overlap
     c_bands:  1 eigenvalues not converged
     ethr =  7.49E-10,  avg # of iterations =  9.2

     negative rho (up, down):  1.461E-02 0.000E+00
 
     Adding external electric field

     Computed dipole along edir(3) : 
        Dipole                1.2233 Ry au,          3.1092 Debye
        Dipole field          0.0023 Ry au, 
 
        Potential amp.       -0.2140 Ry
        Total length         46.3494 bohr
 

     total cpu time spent up to now is     1140.2 secs

     total energy              =   -2942.85968299 Ry
     estimated scf accuracy    <       0.00000362 Ry

     iteration # 72     ecut=    29.40 Ry     beta= 0.05
     Davidson diagonalization with overlap
     c_bands:  1 eigenvalues not converged
     ethr =  7.49E-10,  avg # of iterations = 11.9

     negative rho (up, down):  1.463E-02 0.000E+00
 
     Adding external electric field

     Computed dipole along edir(3) : 
        Dipole                1.2235 Ry au,          3.1099 Debye
        Dipole field          0.0023 Ry au, 
 
        Potential amp.       -0.2140 Ry
        Total length         46.3494 bohr
 

     total cpu time spent up to now is     1155.6 secs

     total energy              =   -2942.85968518 Ry
     estimated scf accuracy    <       0.00000176 Ry

     iteration # 73     ecut=    29.40 Ry     beta= 0.05
     Davidson diagonalization with overlap
     ethr =  4.43E-10,  avg # of iterations =  3.5

     negative rho (up, down):  1.464E-02 0.000E+00
 
     Adding external electric field

     Computed dipole along edir(3) : 
        Dipole                1.2240 Ry au,          3.1111 Debye
        Dipole field          0.0023 Ry au, 
 
        Potential amp.       -0.2141 Ry
        Total length         46.3494 bohr
 

     total cpu time spent up to now is     1167.0 secs

     total energy              =   -2942.85968687 Ry
     estimated scf accuracy    <       0.00000119 Ry

     iteration # 74     ecut=    29.40 Ry     beta= 0.05
     Davidson diagonalization with overlap
     c_bands:  2 eigenvalues not converged
     c_bands:  1 eigenvalues not converged
     c_bands:  1 eigenvalues not converged
     c_bands:  1 eigenvalues not converged
     ethr =  3.00E-10,  avg # of iterations = 17.9

     negative rho (up, down):  1.463E-02 0.000E+00
 
     Adding external electric field

     Computed dipole along edir(3) : 
        Dipole                1.2234 Ry au,          3.1095 Debye
        Dipole field          0.0023 Ry au, 
 
        Potential amp.       -0.2140 Ry
        Total length         46.3494 bohr
 

     total cpu time spent up to now is     1189.3 secs

     total energy              =   -2942.85968866 Ry
     estimated scf accuracy    <       0.00000196 Ry

     iteration # 75     ecut=    29.40 Ry     beta= 0.05
     Davidson diagonalization with overlap
     c_bands:  1 eigenvalues not converged
     ethr =  3.00E-10,  avg # of iterations = 12.6

     negative rho (up, down):  1.463E-02 0.000E+00
 
     Adding external electric field

     Computed dipole along edir(3) : 
        Dipole                1.2232 Ry au,          3.1091 Debye
        Dipole field          0.0023 Ry au, 
 
        Potential amp.       -0.2140 Ry
        Total length         46.3494 bohr
 

     total cpu time spent up to now is     1208.9 secs

     total energy              =   -2942.85969049 Ry
     estimated scf accuracy    <       0.00000034 Ry

     iteration # 76     ecut=    29.40 Ry     beta= 0.05
     Davidson diagonalization with overlap
     ethr =  8.65E-11,  avg # of iterations =  7.2

     negative rho (up, down):  1.463E-02 0.000E+00
 
     Adding external electric field

     Computed dipole along edir(3) : 
        Dipole                1.2233 Ry au,          3.1094 Debye
        Dipole field          0.0023 Ry au, 
 
        Potential amp.       -0.2140 Ry
        Total length         46.3494 bohr
 

     total cpu time spent up to now is     1221.5 secs

     total energy              =   -2942.85969179 Ry
     estimated scf accuracy    <       0.00000029 Ry

     iteration # 77     ecut=    29.40 Ry     beta= 0.05
     Davidson diagonalization with overlap
     c_bands:  2 eigenvalues not converged
     c_bands:  1 eigenvalues not converged
     ethr =  7.23E-11,  avg # of iterations = 13.8

     negative rho (up, down):  1.462E-02 0.000E+00
 
     Adding external electric field

     Computed dipole along edir(3) : 
        Dipole                1.2231 Ry au,          3.1088 Debye
        Dipole field          0.0023 Ry au, 
 
        Potential amp.       -0.2140 Ry
        Total length         46.3494 bohr
 

     total cpu time spent up to now is     1241.2 secs

     total energy              =   -2942.85969306 Ry
     estimated scf accuracy    <       0.00000024 Ry

     iteration # 78     ecut=    29.40 Ry     beta= 0.05
     Davidson diagonalization with overlap
     ethr =  6.00E-11,  avg # of iterations =  9.0

     negative rho (up, down):  1.464E-02 0.000E+00
 
     Adding external electric field

     Computed dipole along edir(3) : 
        Dipole                1.2232 Ry au,          3.1089 Debye
        Dipole field          0.0023 Ry au, 
 
        Potential amp.       -0.2140 Ry
        Total length         46.3494 bohr
 

     total cpu time spent up to now is     1255.3 secs

     End of self-consistent calculation

          k = 0.0000 0.0000 0.0000 ( 18029 PWs)   bands (ev):

   -55.3482 -55.3112 -55.3002 -55.2691 -55.2661 -55.2321 -55.2249 -55.1896
   -55.1685 -55.1446 -55.1340 -55.1321 -55.0984 -55.0261 -54.3300 -54.2960
   -31.9166 -31.8008 -31.7927 -31.7135 -31.6639 -31.6578 -31.6511 -31.6377
   -31.5895 -31.5889 -31.5577 -31.5523 -31.5453 -31.5292 -31.5181 -31.5105
   -31.5034 -31.4882 -31.4856 -31.4657 -31.4528 -31.4450 -31.4181 -31.4141
   -31.4030 -31.4005 -31.3994 -31.3712 -31.3574 -31.3555 -31.3505 -31.3310
   -31.3278 -31.3195 -31.3185 -31.3162 -31.2822 -31.2681 -31.2604 -31.2434
   -31.2325 -31.2078 -30.7395 -30.6451 -30.6231 -30.5557 -30.4690 -30.3582
   -17.7853 -16.1844 -15.9168 -15.7768 -15.6670 -15.5479 -15.4294 -15.4100
   -15.2779 -15.1950 -15.0749 -15.0519 -15.0256 -15.0068 -14.9941 -14.9793
   -14.8937 -14.8876 -14.8703 -14.8428 -14.8365 -14.7938 -14.7864 -14.7468
   -14.7254 -14.7238 -14.5955 -14.5078 -14.4359 -14.1992 -13.1664 -12.8327
   -12.7153  -9.7309  -6.3371  -5.3876  -4.8856  -3.5362  -3.4940  -3.3682
    -3.2779  -3.2630  -3.2411  -3.1050  -2.9517  -2.7816  -2.7694  -2.7551
    -2.6382  -2.5605  -2.5543  -2.5295  -2.3780  -2.3565  -2.3054  -2.2401
    -2.2123  -2.1644  -2.1534  -2.1322  -2.1128  -2.0929  -2.0846  -1.9703
    -1.9198  -1.8271  -1.7712  -1.7440  -1.7083  -1.6804  -1.6652  -1.6380
    -1.6298  -1.5874  -1.5605  -1.5386  -1.4873  -1.3753  -1.2665  -1.2362
    -1.1389  -0.9867  -0.9524  -0.9406  -0.9293  -0.8527  -0.8356  -0.7874
    -0.7343  -0.7265  -0.6957  -0.5850  -0.5265  -0.4615  -0.3949  -0.3829
    -0.3364  -0.2747  -0.1620  -0.1381  -0.1155  -0.0902   0.0031   0.0427
     0.0876   0.1625   0.1818   0.1954   0.3022   0.3101   0.3899   0.4020
     0.4479   0.5342   0.5685   0.5908   0.5946   0.6082   0.6382   0.7053
     0.7295   0.7558   0.8309   0.9546   1.0202   1.1869   1.2499   1.2635
     1.5932   1.5974   1.6926   1.8764   2.2688   2.3170   3.7492   3.8187
     3.8937   3.9003   3.9122   3.9860   4.2232   4.2394   4.2519   4.2581
     4.2928

          k = 0.0000 0.0419 0.0000 ( 17933 PWs)   bands (ev):

   -55.3430 -55.3162 -55.2952 -55.2710 -55.2684 -55.2303 -55.2200 -55.1944
   -55.1634 -55.1462 -55.1389 -55.1271 -55.1033 -55.0266 -54.3250 -54.3009
   -31.8595 -31.7639 -31.7387 -31.6589 -31.6514 -31.6048 -31.6038 -31.5955
   -31.5945 -31.5844 -31.5769 -31.5464 -31.5409 -31.5379 -31.5215 -31.5200
   -31.5042 -31.4952 -31.4838 -31.4707 -31.4511 -31.4494 -31.4388 -31.4181
   -31.4089 -31.3969 -31.3952 -31.3854 -31.3746 -31.3729 -31.3710 -31.3629
   -31.3381 -31.3290 -31.3221 -31.3207 -31.3156 -31.3114 -31.2974 -31.2709
   -31.2458 -31.2305 -30.6853 -30.6417 -30.6261 -30.5431 -30.4815 -30.4153
   -17.7831 -16.0555 -15.8021 -15.6847 -15.5972 -15.4412 -15.3893 -15.3704
   -15.2641 -15.2117 -15.1581 -15.1119 -15.0389 -15.0290 -14.9779 -14.9495
   -14.9245 -14.9082 -14.8590 -14.8489 -14.8316 -14.8287 -14.8038 -14.7834
   -14.7661 -14.7182 -14.6514 -14.5629 -14.4957 -14.3201 -13.1661 -12.8363
   -12.7545  -9.7285  -6.3327  -5.3876  -4.8875  -3.4843  -3.3300  -3.2008
    -3.1330  -3.1067  -3.0647  -2.9612  -2.7726  -2.7233  -2.6974  -2.6558
    -2.5928  -2.5241  -2.5032  -2.4568  -2.4286  -2.3690  -2.3619  -2.3206
    -2.3137  -2.2911  -2.2457  -2.2308  -2.1478  -2.1277  -2.0918  -2.0685
    -1.9806  -1.9474  -1.9094  -1.9016  -1.8956  -1.8400  -1.7756  -1.7413
    -1.6583  -1.6300  -1.5099  -1.3909  -1.3242  -1.2910  -1.2016  -1.1624
    -1.1031  -1.0311  -0.9472  -0.9359  -0.7661  -0.7199  -0.6885  -0.6727
    -0.6632  -0.6031  -0.5507  -0.5202  -0.5124  -0.3798  -0.3576  -0.3444
    -0.2816  -0.2755  -0.2091  -0.1822  -0.1706  -0.1528  -0.0492   0.0250
     0.0491   0.0587   0.1174   0.1440   0.2043   0.2612   0.2951   0.3656
     0.3899   0.4031   0.4532   0.4604   0.4720   0.5925   0.6072   0.6707
     0.6796   0.7539   0.8342   0.9475   0.9586   0.9998   1.0447   1.1253
     1.3005   1.4672   1.8760   1.9516   2.2237   2.2273   3.9428   3.9566
     3.9835   4.0403   4.1223   4.1270   4.1641   4.1856   4.2361   4.2468
     4.3193

          k = 0.0000-0.0839 0.0000 ( 17884 PWs)   bands (ev):

   -55.3339 -55.3252 -55.2832 -55.2829 -55.2677 -55.2286 -55.2112 -55.2031
   -55.1530 -55.1492 -55.1479 -55.1154 -55.1149 -55.0273 -54.3129 -54.3128
   -31.7233 -31.7204 -31.7168 -31.6333 -31.6063 -31.6061 -31.6046 -31.5745
   -31.5744 -31.5465 -31.5363 -31.5306 -31.5213 -31.5205 -31.5190 -31.5092
   -31.4991 -31.4875 -31.4838 -31.4761 -31.4737 -31.4689 -31.4311 -31.4266
   -31.4219 -31.4173 -31.4169 -31.4154 -31.4130 -31.4051 -31.4049 -31.3865
   -31.3836 -31.3822 -31.3772 -31.3350 -31.3119 -31.3101 -31.2964 -31.2962
   -31.2870 -31.2287 -30.6337 -30.6336 -30.5521 -30.5520 -30.5124 -30.5123
   -17.7810 -15.8003 -15.6940 -15.5570 -15.5004 -15.4463 -15.3657 -15.3604
   -15.2509 -15.2185 -15.2086 -15.1778 -15.1327 -15.1014 -14.9604 -14.9529
   -14.9448 -14.9397 -14.8934 -14.8487 -14.7984 -14.7767 -14.7589 -14.7555
   -14.7466 -14.6998 -14.6939 -14.6408 -14.6386 -14.5202 -13.1661 -12.8172
   -12.8172  -9.7261  -6.3294  -5.3879  -4.8892  -3.4631  -2.9216  -2.8822
    -2.8305  -2.8110  -2.8046  -2.7827  -2.7629  -2.7479  -2.6956  -2.6592
    -2.6226  -2.6206  -2.5458  -2.5371  -2.5051  -2.5036  -2.4739  -2.4062
    -2.3527  -2.3359  -2.2980  -2.2350  -2.2247  -2.2026  -2.1889  -2.1754
    -2.0813  -2.0672  -1.9844  -1.9600  -1.8535  -1.7922  -1.7461  -1.7235
    -1.5737  -1.4885  -1.4541  -1.4082  -1.2658  -1.1787  -1.1682  -1.1226
    -1.1149  -0.8961  -0.8713  -0.8544  -0.8366  -0.8115  -0.7878  -0.7517
    -0.7363  -0.7191  -0.6031  -0.5720  -0.5361  -0.5006  -0.4120  -0.3675
    -0.2029  -0.1626  -0.1468  -0.0971  -0.0625  -0.0043   0.0310   0.0420
     0.0448   0.0833   0.1305   0.1690   0.1756   0.2132   0.2450   0.2769
     0.2921   0.3131   0.3302   0.3942   0.4345   0.4395   0.4403   0.4640
     0.4873   0.7756   0.8435   0.8633   0.8637   0.9819   1.0321   1.0724
     1.2102   1.2182   2.0179   2.0186   2.1593   2.1594   3.9977   4.0240
     4.0521   4.0719   4.1689   4.2031   4.2308   4.2354   4.3246   4.3419
     4.3504

          k = 0.0380 0.0000 0.0000 ( 17913 PWs)   bands (ev):

   -55.3480 -55.3111 -55.3001 -55.2690 -55.2660 -55.2320 -55.2249 -55.1896
   -55.1682 -55.1445 -55.1339 -55.1321 -55.0983 -55.0260 -54.3299 -54.2959
   -31.9167 -31.8008 -31.7936 -31.7189 -31.6646 -31.6618 -31.6542 -31.6380
   -31.5892 -31.5889 -31.5524 -31.5452 -31.5406 -31.5291 -31.5180 -31.5031
   -31.4947 -31.4879 -31.4790 -31.4506 -31.4451 -31.4449 -31.4258 -31.4204
   -31.4138 -31.4003 -31.3991 -31.3712 -31.3571 -31.3547 -31.3430 -31.3384
   -31.3308 -31.3277 -31.3192 -31.3180 -31.2808 -31.2676 -31.2603 -31.2438
   -31.2352 -31.2079 -30.7390 -30.6487 -30.6210 -30.5555 -30.4688 -30.3579
   -17.7847 -16.1058 -15.8298 -15.7716 -15.6287 -15.4549 -15.4358 -15.4091
   -15.2988 -15.1990 -15.1488 -15.1302 -15.0980 -15.0651 -15.0436 -15.0177
   -14.9915 -14.9439 -14.8917 -14.8372 -14.7894 -14.7524 -14.7465 -14.7131
   -14.6706 -14.6048 -14.5828 -14.5696 -14.5223 -14.1974 -13.1677 -12.8294
   -12.7150  -9.7318  -6.3339  -5.3851  -4.8886  -3.5031  -3.4043  -3.2407
    -3.1356  -3.0584  -2.9968  -2.9538  -2.9307  -2.8815  -2.7856  -2.7741
    -2.7588  -2.6867  -2.6465  -2.5005  -2.4247  -2.4156  -2.3215  -2.2926
    -2.1405  -2.1247  -2.0900  -2.0830  -2.0282  -2.0158  -1.9576  -1.9200
    -1.8824  -1.7631  -1.7337  -1.7018  -1.6800  -1.6644  -1.6521  -1.6103
    -1.5908  -1.5246  -1.4620  -1.4449  -1.4076  -1.3280  -1.2927  -1.1820
    -1.1556  -1.0278  -0.9986  -0.9783  -0.9349  -0.8713  -0.8632  -0.8201
    -0.7637  -0.7610  -0.7022  -0.6787  -0.6701  -0.4469  -0.4103  -0.3611
    -0.3104  -0.2454  -0.2318  -0.2056  -0.1996  -0.0506  -0.0390   0.0188
     0.0425   0.0819   0.1533   0.1793   0.1976   0.2682   0.3050   0.3411
     0.3814   0.3927   0.4234   0.4706   0.5065   0.5656   0.6017   0.6385
     0.6705   0.6797   0.7638   0.8468   0.9465   1.0273   1.0808   1.3147
     1.4540   1.6027   1.7045   1.8453   2.1561   2.2342   3.7651   3.8520
     4.0016   4.0518   4.0783   4.1416   4.1889   4.2006   4.2365   4.2405
     4.2633

          k = 0.0380 0.0419 0.0000 ( 17878 PWs)   bands (ev):

   -55.3429 -55.3162 -55.2951 -55.2710 -55.2683 -55.2303 -55.2200 -55.1944
   -55.1632 -55.1461 -55.1388 -55.1271 -55.1033 -55.0266 -54.3249 -54.3008
   -31.8597 -31.7640 -31.7395 -31.6653 -31.6514 -31.6091 -31.6076 -31.5959
   -31.5950 -31.5842 -31.5771 -31.5411 -31.5385 -31.5322 -31.5214 -31.5202
   -31.4901 -31.4857 -31.4833 -31.4708 -31.4495 -31.4372 -31.4327 -31.4231
   -31.4134 -31.4088 -31.3948 -31.3828 -31.3749 -31.3708 -31.3652 -31.3602
   -31.3479 -31.3298 -31.3244 -31.3211 -31.3201 -31.3178 -31.2971 -31.2710
   -31.2457 -31.2335 -30.6849 -30.6445 -30.6251 -30.5429 -30.4816 -30.4152
   -17.7827 -15.9837 -15.7262 -15.6959 -15.5371 -15.3962 -15.3763 -15.3374
   -15.2718 -15.2309 -15.1574 -15.1355 -15.0957 -15.0411 -15.0242 -15.0053
   -14.9945 -14.9492 -14.9032 -14.8776 -14.8232 -14.7981 -14.7707 -14.7607
   -14.7230 -14.6729 -14.6396 -14.6311 -14.5762 -14.3192 -13.1673 -12.8340
   -12.7548  -9.7293  -6.3293  -5.3849  -4.8894  -3.4827  -3.2292  -3.0884
    -2.9695  -2.8961  -2.8428  -2.7829  -2.7713  -2.7467  -2.7052  -2.6643
    -2.6109  -2.5494  -2.4806  -2.4377  -2.3938  -2.3810  -2.3469  -2.2900
    -2.2584  -2.2212  -2.1771  -2.1590  -2.1413  -2.1080  -2.0542  -2.0458
    -1.9884  -1.9549  -1.9303  -1.8590  -1.8178  -1.7973  -1.7578  -1.7117
    -1.6369  -1.5596  -1.4216  -1.3733  -1.3511  -1.3043  -1.1696  -1.1406
    -1.0801  -1.0543  -0.9393  -0.9023  -0.8411  -0.8137  -0.7730  -0.7432
    -0.7031  -0.6775  -0.6401  -0.6023  -0.5313  -0.4922  -0.4610  -0.4271
    -0.3239  -0.2970  -0.2861  -0.2473  -0.1851  -0.1433  -0.1187  -0.0674
    -0.0442  -0.0039   0.0248   0.0318   0.0741   0.1199   0.2036   0.2077
     0.2619   0.3023   0.3740   0.3957   0.4616   0.5440   0.6016   0.6451
     0.7140   0.7570   0.8047   0.8998   0.9433   1.0333   1.0690   1.0716
     1.2452   1.4239   1.8869   1.9550   2.1459   2.2091   3.9295   3.9508
     3.9740   4.0919   4.1113   4.1565   4.1802   4.2537   4.3051   4.3278
     4.3567

          k = 0.0380-0.0839 0.0000 ( 17916 PWs)   bands (ev):

   -55.3339 -55.3252 -55.2832 -55.2829 -55.2677 -55.2286 -55.2113 -55.2032
   -55.1530 -55.1491 -55.1479 -55.1155 -55.1150 -55.0273 -54.3129 -54.3129
   -31.7235 -31.7207 -31.7170 -31.6335 -31.6071 -31.6069 -31.6049 -31.5746
   -31.5745 -31.5486 -31.5466 -31.5416 -31.5386 -31.5106 -31.5022 -31.4931
   -31.4918 -31.4834 -31.4805 -31.4785 -31.4773 -31.4740 -31.4312 -31.4271
   -31.4236 -31.4189 -31.4156 -31.4043 -31.4041 -31.3949 -31.3934 -31.3917
   -31.3864 -31.3855 -31.3821 -31.3361 -31.3236 -31.3220 -31.2964 -31.2962
   -31.2863 -31.2328 -30.6348 -30.6347 -30.5520 -30.5520 -30.5124 -30.5123
   -17.7808 -15.7604 -15.6502 -15.5372 -15.4510 -15.4333 -15.3234 -15.3055
   -15.2321 -15.2173 -15.2150 -15.1647 -15.0907 -15.0598 -14.9784 -14.9728
   -14.9703 -14.9390 -14.9320 -14.9286 -14.8476 -14.8296 -14.7836 -14.7807
   -14.7285 -14.7191 -14.7134 -14.6917 -14.6908 -14.5097 -13.1667 -12.8170
   -12.8170  -9.7267  -6.3272  -5.3876  -4.8902  -3.4644  -2.8756  -2.8358
    -2.8078  -2.7841  -2.6412  -2.6240  -2.6111  -2.5664  -2.5375  -2.5311
    -2.4864  -2.4633  -2.4567  -2.4267  -2.4242  -2.4055  -2.3905  -2.3484
    -2.3307  -2.2852  -2.2539  -2.2348  -2.2104  -2.1864  -2.1199  -2.0912
    -2.0580  -2.0270  -2.0105  -1.9757  -1.9202  -1.8510  -1.6421  -1.5932
    -1.5299  -1.5016  -1.4132  -1.3611  -1.3169  -1.2840  -1.2466  -1.2163
    -1.1439  -1.1017  -1.0847  -1.0301  -1.0284  -0.9602  -0.9146  -0.8209
    -0.7780  -0.6994  -0.6769  -0.6521  -0.6226  -0.5355  -0.4401  -0.3950
    -0.3793  -0.3247  -0.2874  -0.2053  -0.1761  -0.1606  -0.1446  -0.1161
    -0.0645   0.0098   0.0140   0.0388   0.0807   0.1213   0.1354   0.1544
     0.1790   0.3475   0.3766   0.3888   0.4074   0.5249   0.5484   0.7134
     0.7161   0.7384   0.7896   0.8753   0.8891   0.9690   0.9804   1.0517
     1.2014   1.2080   2.0314   2.0320   2.1498   2.1505   3.9157   4.0041
     4.0412   4.0671   4.1546   4.2067   4.2217   4.2330   4.3322   4.3640
     4.4088

          k = 0.0380-0.0419 0.0000 ( 17876 PWs)   bands (ev):

   -55.3429 -55.3162 -55.2951 -55.2710 -55.2683 -55.2303 -55.2200 -55.1944
   -55.1632 -55.1461 -55.1388 -55.1271 -55.1033 -55.0266 -54.3249 -54.3008
   -31.8597 -31.7640 -31.7395 -31.6653 -31.6514 -31.6091 -31.6077 -31.5959
   -31.5950 -31.5842 -31.5772 -31.5411 -31.5385 -31.5323 -31.5214 -31.5202
   -31.4897 -31.4857 -31.4833 -31.4708 -31.4495 -31.4372 -31.4327 -31.4238
   -31.4132 -31.4087 -31.3949 -31.3829 -31.3749 -31.3708 -31.3652 -31.3601
   -31.3481 -31.3294 -31.3241 -31.3212 -31.3203 -31.3177 -31.2971 -31.2710
   -31.2455 -31.2337 -30.6849 -30.6445 -30.6250 -30.5429 -30.4816 -30.4152
   -17.7827 -15.9838 -15.7267 -15.6953 -15.5345 -15.3950 -15.3763 -15.3372
   -15.2731 -15.2305 -15.1546 -15.1431 -15.0961 -15.0421 -15.0233 -15.0046
   -14.9947 -14.9473 -14.9031 -14.8774 -14.8231 -14.7981 -14.7708 -14.7623
   -14.7233 -14.6722 -14.6394 -14.6314 -14.5765 -14.3178 -13.1669 -12.8340
   -12.7548  -9.7291  -6.3305  -5.3874  -4.8897  -3.4806  -3.2294  -3.0883
    -2.9693  -2.9155  -2.8429  -2.7825  -2.7701  -2.7326  -2.7017  -2.6654
    -2.6106  -2.5474  -2.4768  -2.4374  -2.3944  -2.3788  -2.3485  -2.2935
    -2.2575  -2.2181  -2.1800  -2.1610  -2.1327  -2.1082  -2.0541  -2.0461
    -1.9887  -1.9524  -1.9299  -1.8630  -1.8356  -1.7821  -1.7484  -1.7139
    -1.6447  -1.5602  -1.4188  -1.3634  -1.3536  -1.3112  -1.1788  -1.1406
    -1.0754  -1.0374  -0.9493  -0.9084  -0.8320  -0.7991  -0.7835  -0.7348
    -0.7049  -0.6843  -0.6393  -0.6079  -0.5297  -0.4809  -0.4597  -0.4287
    -0.3248  -0.3074  -0.2885  -0.2409  -0.1831  -0.1516  -0.1122  -0.0629
    -0.0469  -0.0095   0.0117   0.0318   0.0758   0.1227   0.2008   0.2159
     0.2639   0.2988   0.3737   0.3886   0.4633   0.5420   0.6015   0.6413
     0.7198   0.7584   0.8045   0.8897   0.9343   1.0337   1.0707   1.0830
     1.2457   1.4244   1.8869   1.9550   2.1456   2.2097   3.9298   3.9507
     3.9735   4.0914   4.1150   4.1585   4.1793   4.2522   4.3051   4.3282
     4.3539

          k =-0.0760-0.0000 0.0000 ( 17886 PWs)   bands (ev):

   -55.3479 -55.3111 -55.3001 -55.2689 -55.2660 -55.2320 -55.2249 -55.1896
   -55.1680 -55.1445 -55.1339 -55.1322 -55.0983 -55.0259 -54.3299 -54.2958
   -31.9169 -31.8011 -31.7946 -31.7241 -31.6662 -31.6654 -31.6565 -31.6384
   -31.5890 -31.5889 -31.5525 -31.5452 -31.5295 -31.5180 -31.5155 -31.5030
   -31.4877 -31.4734 -31.4704 -31.4470 -31.4459 -31.4450 -31.4424 -31.4137
   -31.4109 -31.4002 -31.3995 -31.3732 -31.3711 -31.3574 -31.3545 -31.3349
   -31.3310 -31.3278 -31.3213 -31.3194 -31.2799 -31.2674 -31.2602 -31.2446
   -31.2380 -31.2080 -30.7386 -30.6521 -30.6197 -30.5555 -30.4687 -30.3580
   -17.7841 -15.9733 -15.8604 -15.6799 -15.5720 -15.4284 -15.3990 -15.3862
   -15.2560 -15.2344 -15.2077 -15.1934 -15.1591 -15.1266 -15.1011 -15.0693
   -15.0602 -14.9756 -14.8470 -14.8344 -14.7799 -14.7606 -14.7584 -14.7571
   -14.6795 -14.6309 -14.5936 -14.5149 -14.4814 -14.1960 -13.1691 -12.8263
   -12.7147  -9.7328  -6.3309  -5.3827  -4.8916  -3.4993  -3.3713  -3.2179
    -2.9947  -2.9141  -2.8522  -2.8421  -2.8381  -2.8230  -2.7791  -2.7760
    -2.7331  -2.6625  -2.5948  -2.5790  -2.4182  -2.2877  -2.2788  -2.1942
    -2.1010  -2.0825  -1.9928  -1.9660  -1.9354  -1.9103  -1.8996  -1.8636
    -1.8301  -1.7981  -1.7461  -1.7205  -1.7022  -1.6808  -1.6703  -1.6517
    -1.6374  -1.5523  -1.4915  -1.4545  -1.3616  -1.3257  -1.1737  -1.0958
    -1.0507  -1.0024  -0.9991  -0.9669  -0.9633  -0.9476  -0.9135  -0.8848
    -0.8455  -0.7900  -0.7542  -0.7056  -0.6460  -0.6235  -0.6032  -0.5528
    -0.3358  -0.3267  -0.2693  -0.2583  -0.2257  -0.1276  -0.0665  -0.0478
    -0.0106   0.0445   0.0801   0.1400   0.1439   0.1712   0.2350   0.2464
     0.3052   0.3369   0.3952   0.4231   0.4513   0.4812   0.4972   0.5476
     0.5993   0.6592   0.7755   0.8966   0.9095   1.0392   1.1363   1.1773
     1.3406   1.6073   1.7259   1.8203   2.0259   2.1792   3.7649   3.8095
     3.8940   4.0234   4.0585   4.1344   4.1924   4.2130   4.2388   4.2619
     4.3291

          k =-0.0760 0.0419 0.0000 ( 17914 PWs)   bands (ev):

   -55.3429 -55.3162 -55.2951 -55.2710 -55.2683 -55.2304 -55.2200 -55.1944
   -55.1631 -55.1462 -55.1388 -55.1273 -55.1033 -55.0266 -54.3249 -54.3009
   -31.8600 -31.7642 -31.7406 -31.6714 -31.6516 -31.6134 -31.6117 -31.5961
   -31.5957 -31.5842 -31.5772 -31.5413 -31.5383 -31.5223 -31.5204 -31.5145
   -31.4836 -31.4761 -31.4711 -31.4699 -31.4496 -31.4357 -31.4343 -31.4327
   -31.4089 -31.3990 -31.3957 -31.3822 -31.3797 -31.3751 -31.3705 -31.3679
   -31.3386 -31.3343 -31.3292 -31.3253 -31.3221 -31.3206 -31.2978 -31.2710
   -31.2455 -31.2371 -30.6846 -30.6475 -30.6243 -30.5430 -30.4816 -30.4153
   -17.7823 -15.8568 -15.7838 -15.5959 -15.4805 -15.3834 -15.3260 -15.3076
   -15.2719 -15.2008 -15.1579 -15.1489 -15.1401 -15.1125 -15.0806 -15.0537
   -15.0428 -14.9688 -14.9311 -14.8971 -14.8173 -14.8119 -14.7773 -14.7762
   -14.7276 -14.7268 -14.6376 -14.6028 -14.5885 -14.3174 -13.1681 -12.8318
   -12.7551  -9.7301  -6.3273  -5.3849  -4.8916  -3.4812  -3.2051  -3.0688
    -2.7894  -2.7659  -2.7370  -2.6842  -2.6450  -2.6203  -2.5867  -2.5682
    -2.5570  -2.4975  -2.4571  -2.3789  -2.3651  -2.3258  -2.3003  -2.2954
    -2.2349  -2.1696  -2.1555  -2.0745  -2.0681  -2.0311  -1.9909  -1.9523
    -1.9406  -1.9063  -1.9018  -1.8753  -1.8461  -1.8102  -1.7494  -1.5787
    -1.5607  -1.5205  -1.5029  -1.4271  -1.3331  -1.2294  -1.1293  -1.1145
    -1.0956  -1.0337  -0.9871  -0.9517  -0.9371  -0.9121  -0.8528  -0.7830
    -0.7637  -0.7378  -0.7076  -0.6894  -0.6254  -0.6111  -0.5714  -0.5556
    -0.5403  -0.5068  -0.4427  -0.4120  -0.3450  -0.3134  -0.2664  -0.1521
    -0.1472  -0.1116  -0.0959  -0.0490  -0.0262   0.0941   0.1280   0.1851
     0.2061   0.3005   0.3788   0.4059   0.4707   0.5369   0.5684   0.6111
     0.7442   0.8584   0.8726   0.9211   0.9881   1.0483   1.0642   1.1483
     1.1643   1.3054   1.9022   1.9572   2.0679   2.1982   3.9238   3.9529
     3.9651   3.9773   4.0622   4.1118   4.1521   4.2156   4.2702   4.3609
     4.3878

          k =-0.0760-0.0839 0.0000 ( 17948 PWs)   bands (ev):

   -55.3339 -55.3252 -55.2832 -55.2830 -55.2676 -55.2287 -55.2113 -55.2032
   -55.1529 -55.1490 -55.1479 -55.1156 -55.1151 -55.0273 -54.3130 -54.3129
   -31.7238 -31.7209 -31.7173 -31.6337 -31.6079 -31.6077 -31.6052 -31.5747
   -31.5746 -31.5565 -31.5492 -31.5467 -31.5407 -31.5107 -31.5039 -31.4858
   -31.4855 -31.4815 -31.4783 -31.4729 -31.4698 -31.4691 -31.4319 -31.4270
   -31.4249 -31.4200 -31.4159 -31.4046 -31.4029 -31.4027 -31.3961 -31.3865
   -31.3822 -31.3660 -31.3624 -31.3467 -31.3458 -31.3364 -31.2964 -31.2962
   -31.2857 -31.2372 -30.6358 -30.6357 -30.5520 -30.5519 -30.5124 -30.5123
   -17.7805 -15.7077 -15.5958 -15.5497 -15.3764 -15.3541 -15.3316 -15.3169
   -15.1889 -15.1706 -15.1425 -15.1161 -15.0911 -15.0635 -15.0522 -15.0473
   -14.9649 -14.9530 -14.9455 -14.9294 -14.8614 -14.8585 -14.8542 -14.8483
   -14.7975 -14.7950 -14.7143 -14.7012 -14.6997 -14.5013 -13.1674 -12.8168
   -12.8168  -9.7273  -6.3249  -5.3873  -4.8912  -3.4658  -2.8644  -2.8289
    -2.8055  -2.7853  -2.5920  -2.5539  -2.5169  -2.5045  -2.4053  -2.3632
    -2.3456  -2.3383  -2.2678  -2.2644  -2.2336  -2.2036  -2.1826  -2.1655
    -2.1517  -2.1298  -2.1051  -2.0757  -2.0696  -2.0544  -2.0004  -1.9976
    -1.9817  -1.9600  -1.9424  -1.9215  -1.9048  -1.8482  -1.7260  -1.7158
    -1.6617  -1.5553  -1.5508  -1.4705  -1.4653  -1.4213  -1.3936  -1.3814
    -1.3540  -1.1742  -1.1207  -1.0943  -1.0868  -1.0743  -0.9662  -0.9323
    -0.8741  -0.8586  -0.8324  -0.7346  -0.6840  -0.6797  -0.5978  -0.5666
    -0.5271  -0.4858  -0.3847  -0.3551  -0.3353  -0.3061  -0.3027  -0.2492
    -0.2438  -0.1671  -0.1192  -0.0832  -0.0688  -0.0377   0.1619   0.1713
     0.1896   0.3365   0.3597   0.4994   0.5434   0.5854   0.6461   0.6977
     0.7638   0.8044   0.9313   0.9591   0.9599   1.0299   1.0494   1.0526
     1.1083   1.1102   2.0490   2.0497   2.1369   2.1372   3.8922   3.9967
     4.0116   4.0570   4.1666   4.2410   4.2638   4.2907   4.3336   4.3364
     4.4010

     the Fermi energy is     3.8120 ev

!    total energy              =   -2942.85970407 Ry
     estimated scf accuracy    <       0.00000006 Ry
     smearing contrib. (-TS)   =      -0.03701321 Ry
     internal energy E=F+TS    =   -2942.82269086 Ry

     The total energy is F=E-TS. E is the sum of the following terms:
     one-electron contribution =  -23389.38911789 Ry
     hartree contribution      =   11787.24143104 Ry
     xc contribution           =    -487.74999699 Ry
     ewald contribution        =    9147.07216965 Ry
     electric field correction =       0.00282333 Ry

     convergence has been achieved in  78 iterations

     Forces acting on atoms (cartesian axes, Ry/au):

     atom    1 type  1   force =     0.00000279   -0.00026439    0.09308011
     atom    2 type  1   force =    -0.00014823   -0.00043158   -0.17827458
     atom    3 type  2   force =     0.00007443   -0.00009653   -0.02025661
     atom    4 type  2   force =     0.00001635   -0.00187003    0.05883655
     atom    5 type  2   force =    -0.01019089   -0.00054499    0.00773865
     atom    6 type  2   force =     0.01224323    0.00007362    0.00819910
     atom    7 type  1   force =     0.00038751    0.00328191   -0.01424474
     atom    8 type  1   force =    -0.00045589    0.00046515   -0.00455273
     atom    9 type  2   force =    -0.00002657   -0.00061749   -0.00036991
     atom   10 type  2   force =    -0.00059626    0.00089839   -0.00141753
     atom   11 type  2   force =    -0.00038166   -0.00011723    0.00023335
     atom   12 type  2   force =     0.00007319   -0.00006451    0.00004099
     atom   13 type  1   force =     0.00005233   -0.00032054    0.00018015
     atom   14 type  1   force =    -0.00036675    0.00013928    0.00040888
     atom   15 type  2   force =    -0.00016038    0.00080591    0.00022950
     atom   16 type  2   force =    -0.00008700   -0.00018656    0.00032427
     atom   17 type  2   force =    -0.00045934    0.00005541    0.00043589
     atom   18 type  2   force =     0.00014654   -0.00019525   -0.00007256
     atom   19 type  1   force =     0.00031477    0.00025999    0.00083180
     atom   20 type  1   force =    -0.00063341   -0.00067268    0.00037029
     atom   21 type  2   force =     0.00000231   -0.00010491    0.10392593
     atom   22 type  2   force =    -0.00017269    0.00006600   -0.00068756
     atom   23 type  2   force =    -0.07035865   -0.00023068   -0.02686661
     atom   24 type  2   force =     0.07025473    0.00019755   -0.02694629
     atom   25 type  1   force =     0.00002065   -0.00026011    0.09274692
     atom   26 type  1   force =    -0.00012078   -0.00044776   -0.17830710
     atom   27 type  2   force =     0.00013884   -0.00032277   -0.01928049
     atom   28 type  2   force =     0.00008156   -0.00155023    0.05823095
     atom   29 type  2   force =    -0.01019292   -0.00033158    0.00695886
     atom   30 type  2   force =     0.01214158   -0.00008943    0.00749267
     atom   31 type  1   force =     0.00040143    0.00495821   -0.01538344
     atom   32 type  1   force =    -0.00037625   -0.00033866   -0.00466188
     atom   33 type  2   force =    -0.00021981   -0.00047805    0.00016138
     atom   34 type  2   force =    -0.00014054    0.00365368   -0.00059833
     atom   35 type  2   force =     0.00002711   -0.00056435    0.00031947
     atom   36 type  2   force =    -0.00018374   -0.00053213   -0.00003067
     atom   37 type  1   force =    -0.00025724   -0.00049383    0.00049252
     atom   38 type  1   force =    -0.00019565   -0.00090734    0.00044348
     atom   39 type  2   force =    -0.00047619   -0.00053474    0.00049603
     atom   40 type  2   force =     0.00001462   -0.00048800   -0.00042079
     atom   41 type  2   force =    -0.00083628   -0.00011668   -0.00011365
     atom   42 type  2   force =     0.00031662   -0.00026663   -0.00028712
     atom   43 type  1   force =     0.00003884   -0.00029649   -0.00007682
     atom   44 type  1   force =    -0.00008570   -0.00070315    0.00087178
     atom   45 type  2   force =     0.00000946   -0.00014366    0.10390484
     atom   46 type  2   force =    -0.07041625   -0.00017957   -0.02688709
     atom   47 type  2   force =     0.07028082    0.00026243   -0.02695875
     atom   48 type  3   force =    -0.00061852    0.00207631   -0.00061985
     atom   49 type  3   force =    -0.00761621    0.00673301   -0.00007982
     atom   50 type  4   force =    -0.00172839   -0.00001807    0.00011929
     atom   51 type  5   force =    -0.00051527    0.00000667    0.00000909
     atom   52 type  5   force =     0.00028467   -0.00011732    0.00032027
     atom   53 type  5   force =     0.00104275    0.00024314    0.00094982
     atom   54 type  5   force =     0.00872190   -0.00637367   -0.00055733
     atom   55 type  5   force =     0.00088344   -0.00206033   -0.00023813
     atom   56 type  5   force =     0.00004497   -0.00084477   -0.00016247

     Total force =     0.366444     Total SCF correction =     0.000560
  @ DRIVER MODE: Message from server: STATUS
  @ DRIVER MODE: Message from server: GETFORCE
  @ DRIVER MODE: Returning v,forces,stress,ensemble 

     Writing output data file ./calc.save/
  @ DRIVER MODE: Message from server: EXIT
  @ DRIVE MODE: Exiting  
 
     init_run     :     10.94s CPU     11.16s WALL (       1 calls)
     electrons    :   1226.02s CPU   1243.86s WALL (       1 calls)
     forces       :      2.48s CPU      2.58s WALL (       1 calls)

     Called by init_run:
     wfcinit      :      4.88s CPU      4.94s WALL (       1 calls)
     potinit      :      5.39s CPU      5.46s WALL (       1 calls)
     hinit0       :      0.29s CPU      0.31s WALL (       1 calls)

     Called by electrons:
     c_bands      :   1035.84s CPU   1043.03s WALL (      78 calls)
     sum_band     :    128.10s CPU    132.31s WALL (      78 calls)
     v_of_rho     :     45.93s CPU     48.21s WALL (      79 calls)
     newd         :     18.97s CPU     23.07s WALL (      79 calls)
     mix_rho      :      1.73s CPU      1.78s WALL (      78 calls)
     vdW_kernel   :      4.55s CPU      4.56s WALL (       1 calls)

     Called by c_bands:
     init_us_2    :      8.79s CPU      8.83s WALL (    1580 calls)
     cegterg      :   1013.43s CPU   1020.27s WALL (     796 calls)

     Called by *egterg:
     cdiaghg      :    158.74s CPU    159.48s WALL (    7894 calls)
     h_psi        :    541.24s CPU    545.91s WALL (    7905 calls)
     s_psi        :     74.57s CPU     74.80s WALL (    7905 calls)
     g_psi        :      2.06s CPU      2.08s WALL (    7099 calls)

     Called by h_psi:
     h_psi:calbec :     71.46s CPU     71.81s WALL (    7905 calls)
     vloc_psi     :    389.53s CPU    393.21s WALL (    7905 calls)
     add_vuspsi   :     75.99s CPU     76.37s WALL (    7905 calls)

     General routines
     calbec       :     94.52s CPU     94.95s WALL (    8725 calls)
     fft          :     24.10s CPU     24.27s WALL (    4977 calls)
     ffts         :      0.16s CPU      0.16s WALL (     157 calls)
     fftw         :    438.85s CPU    442.96s WALL ( 1043680 calls)
     interpolate  :      0.50s CPU      0.50s WALL (      79 calls)
     davcio       :      0.00s CPU      0.10s WALL (      10 calls)
 
     Parallel routines
 
     PWSCF        :  20m39.72s CPU  20m58.22s WALL

 
   This run was terminated on:  10:37:50   9Sep2021            

=------------------------------------------------------------------------------=
   JOB DONE.
=------------------------------------------------------------------------------=
