
     Program PWSCF v.6.7GPU starts on 16Sep2021 at  2:58:48 

     This program is part of the open-source Quantum ESPRESSO suite
     for quantum simulation of materials; please cite
         "P. Giannozzi et al., J. Phys.:Condens. Matter 21 395502 (2009);
         "P. Giannozzi et al., J. Phys.:Condens. Matter 29 465901 (2017);
         "P. Giannozzi et al., J. Chem. Phys. 152 154105 (2020);
          URL http://www.quantum-espresso.org", 
     in publications or presentations arising from this work. More details at
     http://www.quantum-espresso.org/quote

     Parallel version (MPI), running on    10 processors

     MPI processes distributed on     1 nodes
     R & G space division:  proc/nbgrp/npool/nimage =      10
     Reading input from /storage/home/hcoda1/3/ntian30/research/carbon/CxH_vib/H2O_calc/ads_slab/CH3NHH2O_a/out_0036/pw.inp
Warning: card &CELL ignored
Warning: card   CELL_DYNAMICS='IPI', ignored
Warning: card / ignored

     Current dimensions of program PWSCF are:
     Max number of different atomic species (ntypx) = 10
     Max number of k-points (npk) =  40000
     Max angular momentum in pseudopotentials (lmaxx) =  3
     Presently no symmetry can be used with electric field

     Message from routine cell_base_init:
     DEPRECATED: use true lattice parameter, not A to a.u. conversion factor

     **************************************************************************
     Initializing libbeef V0.1.2 with the BEEF-vdW functional.
     Citation: Wellendorff et al., PRB 85, 235149 (2012).
     **************************************************************************


     IMPORTANT: XC functional enforced from input :
     Exchange-correlation= BEEF-VDW
                           (   1   4  43  14   2   0   0)
     Any further DFT definition will be discarded
     Please, verify this is what you really want


     Subspace diagonalization in iterative solution of the eigenvalue problem:
     one sub-group per band group will be used
     scalapack distributed-memory algorithm (size of sub-group:  3*  3 procs)

  @ DRIVER MODE: Connecting to 
 qe_1139763_2852633.sched-torque.pace.gatech.eduq6kw1wd7_scratch
  using UNIX socket
  @ DRIVER MODE: Message from server: STATUS
  @ DRIVER MODE: Message from server: INIT
  @ DRIVER MODE: Receiving replica           0          -1
  @ DRIVER MODE: Receiving encoded integer          25
  @ DRIVER MODE:  SCF:  T  FORCE:  T  STRESS:  F  VC:  F  ENSEMBLE:  F
  @ DRIVER MODE:  SCF:  T  FORCE:  T  STRESS:  F  VC:  F  ENSEMBLE:  F
 
     Parallelization info
     --------------------
     sticks:   dense  smooth     PW     G-vecs:    dense   smooth      PW
     Min         327     131     37                56683    14340    2191
     Max         328     133     38                56694    14346    2206
     Sum        3275    1317    379               566857   143421   21985
 
     Using Slab Decomposition
 


     bravais-lattice index     =            0
     lattice parameter (alat)  =       1.8897  a.u.
     unit-cell volume          =    6658.9804 (a.u.)^3
     number of atoms/cell      =           56
     number of atomic types    =            5
     number of electrons       =       399.00
     number of Kohn-Sham states=          209
     kinetic-energy cutoff     =      29.3995  Ry
     charge density cutoff     =     293.9946  Ry
     scf convergence threshold =      7.3E-08
     mixing beta               =       0.0500
     number of iterations used =            8  plain     mixing
     Exchange-correlation= BEEF-VDW
                           (   1   4  43  14   2   0   0)

     celldm(1)=   1.889726  celldm(2)=   0.000000  celldm(3)=   0.000000
     celldm(4)=   0.000000  celldm(5)=   0.000000  celldm(6)=   0.000000

     crystal axes: (cart. coord. in units of alat)
               a(1) = (   6.579727   0.000000   0.000000 )  
               a(2) = (  -0.000775   5.961596   0.000000 )  
               a(3) = (   0.000000   0.000000  25.155947 )  

     reciprocal axes: (cart. coord. in units 2 pi/alat)
               b(1) = (  0.151982  0.000020  0.000000 )  
               b(2) = (  0.000000  0.167740  0.000000 )  
               b(3) = (  0.000000  0.000000  0.039752 )  


     PseudoPot. # 1 for Ti read from file:
     /storage/coda1/p-amedford6/0/shared/rich_project_chbe-medford/medford-share/data/pseudos_module/espresso/nninc/pbe/van/Ti.UPF
     MD5 check sum: 8e4df49b7f0d34bbd5052bf3f5ea0213
     Pseudo is Ultrasoft, Zval = 12.0
     Generated by new atomic code, or converted to UPF format
     Using radial grid of  851 points,  6 beta functions with: 
                l(1) =   0
                l(2) =   0
                l(3) =   1
                l(4) =   1
                l(5) =   2
                l(6) =   2
     Q(r) pseudized with  8 coefficients,  rinner =    1.000   1.000   1.000
                                                       1.000   1.000

     PseudoPot. # 2 for O  read from file:
     /storage/coda1/p-amedford6/0/shared/rich_project_chbe-medford/medford-share/data/pseudos_module/espresso/nninc/pbe/van/O.UPF
     MD5 check sum: 78c19812648e8988a0fe644b0f25305e
     Pseudo is Ultrasoft, Zval =  6.0
     Generated by new atomic code, or converted to UPF format
     Using radial grid of  737 points,  4 beta functions with: 
                l(1) =   0
                l(2) =   0
                l(3) =   1
                l(4) =   1
     Q(r) pseudized with  8 coefficients,  rinner =    0.800   0.800   0.800


     PseudoPot. # 3 for H  read from file:
     /storage/coda1/p-amedford6/0/shared/rich_project_chbe-medford/medford-share/data/pseudos_module/espresso/nninc/pbe/van/H.UPF
     MD5 check sum: b5ee9d7bfd3a09ee7748110bda690ff7
     Pseudo is Ultrasoft, Zval =  1.0
     Generated by new atomic code, or converted to UPF format
     Using radial grid of  615 points,  1 beta functions with: 
                l(1) =   0
     Q(r) pseudized with  8 coefficients,  rinner =    0.800

     PseudoPot. # 4 for N  read from file:
     /storage/coda1/p-amedford6/0/shared/rich_project_chbe-medford/medford-share/data/pseudos_module/espresso/nninc/pbe/van/N.UPF
     MD5 check sum: 90d10febe142ad51ac9d5be1deb811c4
     Pseudo is Ultrasoft, Zval =  5.0
     Generated by new atomic code, or converted to UPF format
     Using radial grid of  729 points,  4 beta functions with: 
                l(1) =   0
                l(2) =   0
                l(3) =   1
                l(4) =   1
     Q(r) pseudized with  8 coefficients,  rinner =    0.800   0.800   0.800


     PseudoPot. # 5 for C  read from file:
     /storage/coda1/p-amedford6/0/shared/rich_project_chbe-medford/medford-share/data/pseudos_module/espresso/nninc/pbe/van/C.UPF
     MD5 check sum: 1a69bf6b8db32088f5b2163dbdb77a27
     Pseudo is Ultrasoft, Zval =  4.0
     Generated by new atomic code, or converted to UPF format
     Using radial grid of  721 points,  4 beta functions with: 
                l(1) =   0
                l(2) =   0
                l(3) =   1
                l(4) =   1
     Q(r) pseudized with  8 coefficients,  rinner =    0.800   0.800   0.800


     atomic species   valence    mass     pseudopotential
        Ti1           12.00    47.86700     Ti( 1.00)
        O1             6.00    15.99900     O ( 1.00)
        H1             1.00     1.00800     H ( 1.00)
        N1             5.00    14.00700     N ( 1.00)
        C1             4.00    12.01100     C ( 1.00)

     No symmetry found



   Cartesian axes

     site n.     atom                  positions (alat units)
         1           Ti1 tau(   1) = (   0.0004258   2.9801865   6.0000000  )
         2           Ti1 tau(   2) = (   3.2906075   1.4906267   6.0002472  )
         3           O1  tau(   3) = (   0.0006271   0.0005054   7.9858123  )
         4           O1  tau(   4) = (   3.2906025   0.0005020   7.3038282  )
         5           O1  tau(   5) = (   4.5942328   1.4918067   9.2879030  )
         6           O1  tau(   6) = (   1.9868534   1.4903216   9.2879459  )
         7           Ti1 tau(   7) = (   3.2907910   2.8959150   9.1758416  )
         8           Ti1 tau(   8) = (   0.0015273   1.4827037   9.2680791  )
         9           O1  tau(   9) = (   3.2896571   0.0076959  11.3233140  )
        10           O1  tau(  10) = (   0.0116148   5.9584955  10.6183126  )
        11           O1  tau(  11) = (   1.3168077   1.5009220  12.6157425  )
        12           O1  tau(  12) = (   5.2956243   1.4929856  12.6075824  )
        13           Ti1 tau(  13) = (   6.5239244   2.9540340  12.6210794  )
        14           Ti1 tau(  14) = (   3.2085880   1.4976218  12.4699624  )
        15           O1  tau(  15) = (   6.5712616   0.0419518  14.6436513  )
        16           O1  tau(  16) = (   3.3111435   0.0202601  13.9161875  )
        17           O1  tau(  17) = (   4.5291760   1.5523016  16.0784362  )
        18           O1  tau(  18) = (   2.0445308   1.5488630  16.0432715  )
        19           Ti1 tau(  19) = (   3.3059752   3.0257308  15.6838679  )
        20           Ti1 tau(  20) = (   0.0592185   1.5662548  15.8694889  )
        21           O1  tau(  21) = (   3.2904802   0.0005063   4.7018136  )
        22           O1  tau(  22) = (   0.0264932   0.0561689  17.2024660  )
        23           O1  tau(  23) = (   1.3043587   1.4918075   6.0039043  )
        24           O1  tau(  24) = (   5.2767064   1.4903225   6.0039473  )
        25           Ti1 tau(  25) = (   0.0000382   5.9609847   6.0000000  )
        26           Ti1 tau(  26) = (   3.2902200   4.4714249   6.0002472  )
        27           O1  tau(  27) = (   0.0002396   2.9813036   7.9858123  )
        28           O1  tau(  28) = (   3.2902150   2.9813002   7.3038282  )
        29           O1  tau(  29) = (   4.5938453   4.4726049   9.2879030  )
        30           O1  tau(  30) = (   1.9864658   4.4711199   9.2879459  )
        31           Ti1 tau(  31) = (   3.2891106   5.8743827   9.1763621  )
        32           Ti1 tau(  32) = (   0.0006254   4.4649316   9.2693709  )
        33           O1  tau(  33) = (   3.2898653   2.9926188  11.3210358  )
        34           O1  tau(  34) = (   0.0092240   2.9805883  10.6323155  )
        35           O1  tau(  35) = (   1.3106253   4.4883450  12.6271249  )
        36           O1  tau(  36) = (   5.2968722   4.4793810  12.6200386  )
        37           Ti1 tau(  37) = (   6.5212985   5.9329073  12.5685303  )
        38           Ti1 tau(  38) = (   3.2059443   4.4781599  12.4721232  )
        39           O1  tau(  39) = (   6.5764971   2.9600267  14.6431433  )
        40           O1  tau(  40) = (   3.3056941   3.0038382  13.8936370  )
        41           O1  tau(  41) = (   4.5394310   4.5052612  16.0827012  )
        42           O1  tau(  42) = (   2.0570581   4.5113261  16.0718816  )
        43           Ti1 tau(  43) = (   3.3383738   0.0382055  15.7109988  )
        44           Ti1 tau(  44) = (   0.0469139   4.6840235  16.0886640  )
        45           O1  tau(  45) = (   3.2900926   2.9813045   4.7018136  )
        46           O1  tau(  46) = (   1.3039711   4.4726057   6.0039043  )
        47           O1  tau(  47) = (   5.2763189   4.4711207   6.0039473  )
        48           H1  tau(  48) = (   5.6101632   2.9904038  17.7880820  )
        49           N1  tau(  49) = (   6.5649722   3.0046358  17.4438072  )
        50           C1  tau(  50) = (   0.8874553   2.9889031  18.6120612  )
        51           H1  tau(  51) = (   1.3591778   3.9628686  18.7739097  )
        52           H1  tau(  52) = (   0.3310755   2.7322232  19.5165709  )
        53           H1  tau(  53) = (   1.6717793   2.2402645  18.5014768  )
        54           O1  tau(  54) = (   3.2567199   5.9268012  21.6217354  )
        55           H1  tau(  55) = (   4.0245811   5.9269051  22.2091127  )
        56           H1  tau(  56) = (   2.4887544   5.9269923  22.2092946  )

     number of k points=    10  Fermi-Dirac smearing, width (Ry)=  0.0073
                       cart. coord. in units 2pi/alat
        k(    1) = (   0.0000000   0.0000000   0.0000000), wk =   0.1250000
        k(    2) = (   0.0000000   0.0419351   0.0000000), wk =   0.2500000
        k(    3) = (   0.0000000  -0.0838702   0.0000000), wk =   0.1250000
        k(    4) = (   0.0379955   0.0000049   0.0000000), wk =   0.2500000
        k(    5) = (   0.0379955   0.0419400   0.0000000), wk =   0.2500000
        k(    6) = (   0.0379955  -0.0838652   0.0000000), wk =   0.2500000
        k(    7) = (   0.0379955  -0.0419301   0.0000000), wk =   0.2500000
        k(    8) = (  -0.0759910  -0.0000099   0.0000000), wk =   0.1250000
        k(    9) = (  -0.0759910   0.0419252   0.0000000), wk =   0.2500000
        k(   10) = (  -0.0759910  -0.0838800   0.0000000), wk =   0.1250000

     Dense  grid:   566857 G-vectors     FFT dimensions: (  72,  64, 270)

     Smooth grid:   143421 G-vectors     FFT dimensions: (  45,  40, 180)

     Estimated max dynamical RAM per process >     366.69 MB

     Estimated total dynamical RAM >       3.58 GB
     Cannot read rho : file not found

     Initial potential from superposition of free atoms

     starting charge  382.99914, renormalised to  399.00000

     negative rho (up, down):  9.625E-03 0.000E+00


     %%%%%%%%%%%%%%%%%%%%%%%%%%%%%%%%%%%%%%%%%%%%%%%%%%%%%%%%%%%%%%%%%%%%%%%%
     %                                                                      %
     % You are using vdW-DF, which was implemented by the Thonhauser group. %
     % Please cite the following two papers that made this development      %
     % possible and the two reviews that describe the various versions:     %
     %                                                                      %
     %   T. Thonhauser et al., PRL 115, 136402 (2015).                      %
     %   T. Thonhauser et al., PRB 76, 125112 (2007).                       %
     %   K. Berland et al., Rep. Prog. Phys. 78, 066501 (2015).             %
     %   D.C. Langreth et al., J. Phys.: Condens. Matter 21, 084203 (2009). %
     %                                                                      %
     %                                                                      %
     % If you are calculating the stress with vdW-DF, please also cite:     %
     %                                                                      %
     %   R. Sabatini et al., J. Phys.: Condens. Matter 24, 424209 (2012).   %
     %                                                                      %
     %%%%%%%%%%%%%%%%%%%%%%%%%%%%%%%%%%%%%%%%%%%%%%%%%%%%%%%%%%%%%%%%%%%%%%%%


 
     Adding external electric field

     Computed dipole along edir(3) : 
        Dipole              -12.5501 Ry au,        -31.8992 Debye
        Dipole field         -0.0237 Ry au, 
 
        Potential amp.        2.1955 Ry
        Total length         46.3494 bohr
 
     Starting wfcs are  302 atomic wfcs
  @ DRIVER MODE: Message from server: STATUS
  @ DRIVER MODE: Message from server: POSDATA
  @ DRIVER MODE: Reading and sharing cell 
  @ DRIVER MODE: Reading and sharing positions 
  @ DRIVER MODE: Received positions 

     total cpu time spent up to now is       11.2 secs

     Self-consistent Calculation

     iteration #  1     ecut=    29.40 Ry     beta= 0.05
     Davidson diagonalization with overlap
     c_bands:  2 eigenvalues not converged
     c_bands:  2 eigenvalues not converged
     c_bands:  4 eigenvalues not converged
     c_bands:  3 eigenvalues not converged
     c_bands:  3 eigenvalues not converged
     c_bands:  3 eigenvalues not converged
     c_bands:  5 eigenvalues not converged
     c_bands:  4 eigenvalues not converged
     c_bands:  5 eigenvalues not converged
     ethr =  1.00E-05,  avg # of iterations = 22.0

     negative rho (up, down):  7.500E-03 0.000E+00
 
     Adding external electric field

     Computed dipole along edir(3) : 
        Dipole               48.7314 Ry au,        123.8629 Debye
        Dipole field          0.0920 Ry au, 
 
        Potential amp.       -8.5248 Ry
        Total length         46.3494 bohr
 

     total cpu time spent up to now is       53.3 secs

     total energy              =   -2445.25473876 Ry
     estimated scf accuracy    <    5721.90769839 Ry

     iteration #  2     ecut=    29.40 Ry     beta= 0.05
     Davidson diagonalization with overlap
     ethr =  1.00E-02,  avg # of iterations = 22.3

     negative rho (up, down):  1.224E-03 0.000E+00
 
     Adding external electric field

     Computed dipole along edir(3) : 
        Dipole               -3.1171 Ry au,         -7.9228 Debye
        Dipole field         -0.0059 Ry au, 
 
        Potential amp.        0.5453 Ry
        Total length         46.3494 bohr
 

     total cpu time spent up to now is      131.0 secs

     total energy              =   -2420.34442314 Ry
     estimated scf accuracy    <   74982.61817226 Ry

     iteration #  3     ecut=    29.40 Ry     beta= 0.05
     Davidson diagonalization with overlap
     ethr =  1.00E-02,  avg # of iterations = 16.3

     negative rho (up, down):  1.293E-03 0.000E+00
 
     Adding external electric field

     Computed dipole along edir(3) : 
        Dipole               -5.1682 Ry au,        -13.1361 Debye
        Dipole field         -0.0098 Ry au, 
 
        Potential amp.        0.9041 Ry
        Total length         46.3494 bohr
 

     total cpu time spent up to now is      179.3 secs

     total energy              =   -2943.10724161 Ry
     estimated scf accuracy    <    5341.43640416 Ry

     iteration #  4     ecut=    29.40 Ry     beta= 0.05
     Davidson diagonalization with overlap
     ethr =  1.00E-02,  avg # of iterations = 13.2

     negative rho (up, down):  1.314E-03 0.000E+00
 
     Adding external electric field

     Computed dipole along edir(3) : 
        Dipole               -6.1116 Ry au,        -15.5340 Debye
        Dipole field         -0.0115 Ry au, 
 
        Potential amp.        1.0691 Ry
        Total length         46.3494 bohr
 

     total cpu time spent up to now is      199.1 secs

     total energy              =   -2944.45389276 Ry
     estimated scf accuracy    <    1931.08246554 Ry

     iteration #  5     ecut=    29.40 Ry     beta= 0.05
     Davidson diagonalization with overlap
     ethr =  1.00E-02,  avg # of iterations =  3.2

     negative rho (up, down):  1.464E-03 0.000E+00
 
     Adding external electric field

     Computed dipole along edir(3) : 
        Dipole               -9.0749 Ry au,        -23.0662 Debye
        Dipole field         -0.0171 Ry au, 
 
        Potential amp.        1.5875 Ry
        Total length         46.3494 bohr
 

     total cpu time spent up to now is      209.8 secs

     total energy              =   -2884.64414962 Ry
     estimated scf accuracy    <    1768.67239389 Ry

     iteration #  6     ecut=    29.40 Ry     beta= 0.05
     Davidson diagonalization with overlap
     ethr =  1.00E-02,  avg # of iterations = 15.0

     negative rho (up, down):  1.744E-04 0.000E+00
 
     Adding external electric field

     Computed dipole along edir(3) : 
        Dipole               -5.9719 Ry au,        -15.1790 Debye
        Dipole field         -0.0113 Ry au, 
 
        Potential amp.        1.0447 Ry
        Total length         46.3494 bohr
 

     total cpu time spent up to now is      241.1 secs

     total energy              =   -2933.93073583 Ry
     estimated scf accuracy    <    3487.96538535 Ry

     iteration #  7     ecut=    29.40 Ry     beta= 0.05
     Davidson diagonalization with overlap
     ethr =  1.00E-02,  avg # of iterations = 16.2

     negative rho (up, down):  2.949E-04 0.000E+00
 
     Adding external electric field

     Computed dipole along edir(3) : 
        Dipole               -5.4644 Ry au,        -13.8890 Debye
        Dipole field         -0.0103 Ry au, 
 
        Potential amp.        0.9559 Ry
        Total length         46.3494 bohr
 

     total cpu time spent up to now is      261.3 secs

     total energy              =   -2958.54914181 Ry
     estimated scf accuracy    <      34.17449232 Ry

     iteration #  8     ecut=    29.40 Ry     beta= 0.05
     Davidson diagonalization with overlap
     ethr =  8.57E-03,  avg # of iterations =  2.4

     negative rho (up, down):  7.593E-04 0.000E+00
 
     Adding external electric field

     Computed dipole along edir(3) : 
        Dipole               -4.5924 Ry au,        -11.6727 Debye
        Dipole field         -0.0087 Ry au, 
 
        Potential amp.        0.8034 Ry
        Total length         46.3494 bohr
 

     total cpu time spent up to now is      271.4 secs

     total energy              =   -2956.46553394 Ry
     estimated scf accuracy    <      26.06825594 Ry

     iteration #  9     ecut=    29.40 Ry     beta= 0.05
     Davidson diagonalization with overlap
     c_bands:  2 eigenvalues not converged
     c_bands:  1 eigenvalues not converged
     c_bands:  1 eigenvalues not converged
     ethr =  6.53E-03,  avg # of iterations = 17.1

     negative rho (up, down):  6.070E-04 0.000E+00
 
     Adding external electric field

     Computed dipole along edir(3) : 
        Dipole               -5.2590 Ry au,        -13.3669 Debye
        Dipole field         -0.0099 Ry au, 
 
        Potential amp.        0.9200 Ry
        Total length         46.3494 bohr
 

     total cpu time spent up to now is      287.9 secs

     total energy              =   -2958.96999043 Ry
     estimated scf accuracy    <      40.59668138 Ry

     iteration # 10     ecut=    29.40 Ry     beta= 0.05
     Davidson diagonalization with overlap
     ethr =  6.53E-03,  avg # of iterations =  1.2

     negative rho (up, down):  1.143E-03 0.000E+00
 
     Adding external electric field

     Computed dipole along edir(3) : 
        Dipole               -2.8189 Ry au,         -7.1650 Debye
        Dipole field         -0.0053 Ry au, 
 
        Potential amp.        0.4931 Ry
        Total length         46.3494 bohr
 

     total cpu time spent up to now is      297.8 secs

     total energy              =   -2959.28294862 Ry
     estimated scf accuracy    <      22.02062176 Ry

     iteration # 11     ecut=    29.40 Ry     beta= 0.05
     Davidson diagonalization with overlap
     c_bands:  4 eigenvalues not converged
     c_bands:  2 eigenvalues not converged
     c_bands:  5 eigenvalues not converged
     c_bands:  4 eigenvalues not converged
     ethr =  5.52E-03,  avg # of iterations = 19.7

     negative rho (up, down):  3.402E-04 0.000E+00
 
     Adding external electric field

     Computed dipole along edir(3) : 
        Dipole               -3.6335 Ry au,         -9.2354 Debye
        Dipole field         -0.0069 Ry au, 
 
        Potential amp.        0.6356 Ry
        Total length         46.3494 bohr
 

     total cpu time spent up to now is      321.4 secs

     total energy              =   -2938.15643791 Ry
     estimated scf accuracy    <    1631.90804562 Ry

     iteration # 12     ecut=    29.40 Ry     beta= 0.05
     Davidson diagonalization with overlap
     ethr =  5.52E-03,  avg # of iterations = 14.2

     negative rho (up, down):  1.561E-04 0.000E+00
 
     Adding external electric field

     Computed dipole along edir(3) : 
        Dipole               -3.2608 Ry au,         -8.2880 Debye
        Dipole field         -0.0062 Ry au, 
 
        Potential amp.        0.5704 Ry
        Total length         46.3494 bohr
 

     total cpu time spent up to now is      340.8 secs

     total energy              =   -2953.62258706 Ry
     estimated scf accuracy    <      32.08923663 Ry

     iteration # 13     ecut=    29.40 Ry     beta= 0.05
     Davidson diagonalization with overlap
     c_bands:  1 eigenvalues not converged
     ethr =  5.52E-03,  avg # of iterations = 11.8

     negative rho (up, down):  1.095E-04 0.000E+00
 
     Adding external electric field

     Computed dipole along edir(3) : 
        Dipole               -2.5521 Ry au,         -6.4869 Debye
        Dipole field         -0.0048 Ry au, 
 
        Potential amp.        0.4465 Ry
        Total length         46.3494 bohr
 

     total cpu time spent up to now is      355.4 secs

     total energy              =   -2955.72926481 Ry
     estimated scf accuracy    <      29.72864276 Ry

     iteration # 14     ecut=    29.40 Ry     beta= 0.05
     Davidson diagonalization with overlap
     ethr =  5.52E-03,  avg # of iterations =  1.4

     negative rho (up, down):  1.009E-04 0.000E+00
 
     Adding external electric field

     Computed dipole along edir(3) : 
        Dipole               -2.2351 Ry au,         -5.6811 Debye
        Dipole field         -0.0042 Ry au, 
 
        Potential amp.        0.3910 Ry
        Total length         46.3494 bohr
 

     total cpu time spent up to now is      365.5 secs

     total energy              =   -2955.85440019 Ry
     estimated scf accuracy    <      43.07347119 Ry

     iteration # 15     ecut=    29.40 Ry     beta= 0.05
     Davidson diagonalization with overlap
     ethr =  5.52E-03,  avg # of iterations =  1.2

     negative rho (up, down):  7.296E-05 0.000E+00
 
     Adding external electric field

     Computed dipole along edir(3) : 
        Dipole               -0.9498 Ry au,         -2.4142 Debye
        Dipole field         -0.0018 Ry au, 
 
        Potential amp.        0.1662 Ry
        Total length         46.3494 bohr
 

     total cpu time spent up to now is      375.4 secs

     total energy              =   -2955.76585200 Ry
     estimated scf accuracy    <      24.47192754 Ry

     iteration # 16     ecut=    29.40 Ry     beta= 0.05
     Davidson diagonalization with overlap
     ethr =  5.52E-03,  avg # of iterations =  1.9

     negative rho (up, down):  7.223E-05 0.000E+00
 
     Adding external electric field

     Computed dipole along edir(3) : 
        Dipole               -0.7620 Ry au,         -1.9368 Debye
        Dipole field         -0.0014 Ry au, 
 
        Potential amp.        0.1333 Ry
        Total length         46.3494 bohr
 

     total cpu time spent up to now is      385.6 secs

     total energy              =   -2955.91442728 Ry
     estimated scf accuracy    <      31.86862990 Ry

     iteration # 17     ecut=    29.40 Ry     beta= 0.05
     Davidson diagonalization with overlap
     ethr =  5.52E-03,  avg # of iterations =  1.5

     negative rho (up, down):  7.615E-05 0.000E+00
 
     Adding external electric field

     Computed dipole along edir(3) : 
        Dipole                1.3096 Ry au,          3.3287 Debye
        Dipole field          0.0025 Ry au, 
 
        Potential amp.       -0.2291 Ry
        Total length         46.3494 bohr
 

     total cpu time spent up to now is      395.6 secs

     total energy              =   -2955.70087627 Ry
     estimated scf accuracy    <      25.35694660 Ry

     iteration # 18     ecut=    29.40 Ry     beta= 0.05
     Davidson diagonalization with overlap
     ethr =  5.52E-03,  avg # of iterations =  7.0

     negative rho (up, down):  7.150E-05 0.000E+00
 
     Adding external electric field

     Computed dipole along edir(3) : 
        Dipole                1.3973 Ry au,          3.5515 Debye
        Dipole field          0.0026 Ry au, 
 
        Potential amp.       -0.2444 Ry
        Total length         46.3494 bohr
 

     total cpu time spent up to now is      408.0 secs

     total energy              =   -2955.97328552 Ry
     estimated scf accuracy    <     133.64153115 Ry

     iteration # 19     ecut=    29.40 Ry     beta= 0.05
     Davidson diagonalization with overlap
     ethr =  5.52E-03,  avg # of iterations =  2.2

     negative rho (up, down):  8.204E-05 0.000E+00
 
     Adding external electric field

     Computed dipole along edir(3) : 
        Dipole               -0.4567 Ry au,         -1.1609 Debye
        Dipole field         -0.0009 Ry au, 
 
        Potential amp.        0.0799 Ry
        Total length         46.3494 bohr
 

     total cpu time spent up to now is      418.6 secs

     total energy              =   -2955.84007009 Ry
     estimated scf accuracy    <      29.08646551 Ry

     iteration # 20     ecut=    29.40 Ry     beta= 0.05
     Davidson diagonalization with overlap
     ethr =  5.52E-03,  avg # of iterations =  1.3

     negative rho (up, down):  9.104E-04 0.000E+00
 
     Adding external electric field

     Computed dipole along edir(3) : 
        Dipole               -3.0737 Ry au,         -7.8125 Debye
        Dipole field         -0.0058 Ry au, 
 
        Potential amp.        0.5377 Ry
        Total length         46.3494 bohr
 

     total cpu time spent up to now is      428.5 secs

     total energy              =   -2955.14310898 Ry
     estimated scf accuracy    <       6.23181728 Ry

     iteration # 21     ecut=    29.40 Ry     beta= 0.05
     Davidson diagonalization with overlap
     ethr =  1.56E-03,  avg # of iterations =  6.7

     negative rho (up, down):  8.478E-03 0.000E+00
 
     Adding external electric field

     Computed dipole along edir(3) : 
        Dipole               -2.9851 Ry au,         -7.5872 Debye
        Dipole field         -0.0056 Ry au, 
 
        Potential amp.        0.5222 Ry
        Total length         46.3494 bohr
 

     total cpu time spent up to now is      440.8 secs

     total energy              =   -2955.41139722 Ry
     estimated scf accuracy    <      11.45198948 Ry

     iteration # 22     ecut=    29.40 Ry     beta= 0.05
     Davidson diagonalization with overlap
     c_bands:  3 eigenvalues not converged
     c_bands:  1 eigenvalues not converged
     c_bands:  1 eigenvalues not converged
     c_bands:  2 eigenvalues not converged
     c_bands:  1 eigenvalues not converged
     ethr =  1.56E-03,  avg # of iterations = 13.1

     negative rho (up, down):  1.278E-03 0.000E+00
 
     Adding external electric field

     Computed dipole along edir(3) : 
        Dipole               -1.2107 Ry au,         -3.0773 Debye
        Dipole field         -0.0023 Ry au, 
 
        Potential amp.        0.2118 Ry
        Total length         46.3494 bohr
 

     total cpu time spent up to now is      455.3 secs

     total energy              =   -2954.65944706 Ry
     estimated scf accuracy    <      24.03255326 Ry

     iteration # 23     ecut=    29.40 Ry     beta= 0.05
     Davidson diagonalization with overlap
     ethr =  1.56E-03,  avg # of iterations =  1.4

     negative rho (up, down):  4.248E-04 0.000E+00
 
     Adding external electric field

     Computed dipole along edir(3) : 
        Dipole               -0.4592 Ry au,         -1.1673 Debye
        Dipole field         -0.0009 Ry au, 
 
        Potential amp.        0.0803 Ry
        Total length         46.3494 bohr
 

     total cpu time spent up to now is      465.3 secs

     total energy              =   -2954.90438798 Ry
     estimated scf accuracy    <       4.42119790 Ry

     iteration # 24     ecut=    29.40 Ry     beta= 0.05
     Davidson diagonalization with overlap
     ethr =  1.11E-03,  avg # of iterations =  4.3

     negative rho (up, down):  2.182E-04 0.000E+00
 
     Adding external electric field

     Computed dipole along edir(3) : 
        Dipole                2.0497 Ry au,          5.2098 Debye
        Dipole field          0.0039 Ry au, 
 
        Potential amp.       -0.3586 Ry
        Total length         46.3494 bohr
 

     total cpu time spent up to now is      476.3 secs

     total energy              =   -2954.81230450 Ry
     estimated scf accuracy    <       4.35426868 Ry

     iteration # 25     ecut=    29.40 Ry     beta= 0.05
     Davidson diagonalization with overlap
     c_bands:  3 eigenvalues not converged
     c_bands:  1 eigenvalues not converged
     ethr =  1.09E-03,  avg # of iterations = 10.6

     negative rho (up, down):  2.628E-04 0.000E+00
 
     Adding external electric field

     Computed dipole along edir(3) : 
        Dipole                1.3160 Ry au,          3.3449 Debye
        Dipole field          0.0025 Ry au, 
 
        Potential amp.       -0.2302 Ry
        Total length         46.3494 bohr
 

     total cpu time spent up to now is      491.3 secs

     total energy              =   -2955.23424683 Ry
     estimated scf accuracy    <       2.66670763 Ry

     iteration # 26     ecut=    29.40 Ry     beta= 0.05
     Davidson diagonalization with overlap
     ethr =  6.68E-04,  avg # of iterations =  1.6

     negative rho (up, down):  9.532E-04 0.000E+00
 
     Adding external electric field

     Computed dipole along edir(3) : 
        Dipole                0.5486 Ry au,          1.3943 Debye
        Dipole field          0.0010 Ry au, 
 
        Potential amp.       -0.0960 Ry
        Total length         46.3494 bohr
 

     total cpu time spent up to now is      501.5 secs

     total energy              =   -2955.15703678 Ry
     estimated scf accuracy    <       0.76380600 Ry

     iteration # 27     ecut=    29.40 Ry     beta= 0.05
     Davidson diagonalization with overlap
     c_bands:  2 eigenvalues not converged
     c_bands:  3 eigenvalues not converged
     c_bands:  2 eigenvalues not converged
     c_bands:  2 eigenvalues not converged
     c_bands:  2 eigenvalues not converged
     c_bands:  2 eigenvalues not converged
     c_bands:  1 eigenvalues not converged
     c_bands:  2 eigenvalues not converged
     c_bands:  1 eigenvalues not converged
     ethr =  1.91E-04,  avg # of iterations = 19.4

     negative rho (up, down):  6.521E-04 0.000E+00
 
     Adding external electric field

     Computed dipole along edir(3) : 
        Dipole               -0.0474 Ry au,         -0.1204 Debye
        Dipole field         -0.0001 Ry au, 
 
        Potential amp.        0.0083 Ry
        Total length         46.3494 bohr
 

     total cpu time spent up to now is      522.9 secs

     total energy              =   -2955.21833120 Ry
     estimated scf accuracy    <       0.67426570 Ry

     iteration # 28     ecut=    29.40 Ry     beta= 0.05
     Davidson diagonalization with overlap
     c_bands:  1 eigenvalues not converged
     ethr =  1.69E-04,  avg # of iterations = 10.3

     negative rho (up, down):  7.750E-04 0.000E+00
 
     Adding external electric field

     Computed dipole along edir(3) : 
        Dipole               -0.1968 Ry au,         -0.5003 Debye
        Dipole field         -0.0004 Ry au, 
 
        Potential amp.        0.0344 Ry
        Total length         46.3494 bohr
 

     total cpu time spent up to now is      536.1 secs

     total energy              =   -2955.22954848 Ry
     estimated scf accuracy    <       0.29690927 Ry

     iteration # 29     ecut=    29.40 Ry     beta= 0.05
     Davidson diagonalization with overlap
     c_bands:  1 eigenvalues not converged
     c_bands:  1 eigenvalues not converged
     ethr =  7.44E-05,  avg # of iterations = 10.3

     negative rho (up, down):  5.960E-04 0.000E+00
 
     Adding external electric field

     Computed dipole along edir(3) : 
        Dipole                0.5585 Ry au,          1.4196 Debye
        Dipole field          0.0011 Ry au, 
 
        Potential amp.       -0.0977 Ry
        Total length         46.3494 bohr
 

     total cpu time spent up to now is      549.1 secs

     total energy              =   -2955.19223602 Ry
     estimated scf accuracy    <       0.19691937 Ry

     iteration # 30     ecut=    29.40 Ry     beta= 0.05
     Davidson diagonalization with overlap
     c_bands:  3 eigenvalues not converged
     c_bands:  1 eigenvalues not converged
     c_bands:  1 eigenvalues not converged
     c_bands:  1 eigenvalues not converged
     c_bands:  3 eigenvalues not converged
     ethr =  4.94E-05,  avg # of iterations = 18.4

     negative rho (up, down):  7.519E-04 0.000E+00
 
     Adding external electric field

     Computed dipole along edir(3) : 
        Dipole               -0.0558 Ry au,         -0.1419 Debye
        Dipole field         -0.0001 Ry au, 
 
        Potential amp.        0.0098 Ry
        Total length         46.3494 bohr
 

     total cpu time spent up to now is      570.6 secs

     total energy              =   -2955.22719906 Ry
     estimated scf accuracy    <       0.29550050 Ry

     iteration # 31     ecut=    29.40 Ry     beta= 0.05
     Davidson diagonalization with overlap
     ethr =  4.94E-05,  avg # of iterations =  6.4

     negative rho (up, down):  8.612E-04 0.000E+00
 
     Adding external electric field

     Computed dipole along edir(3) : 
        Dipole               -0.1385 Ry au,         -0.3521 Debye
        Dipole field         -0.0003 Ry au, 
 
        Potential amp.        0.0242 Ry
        Total length         46.3494 bohr
 

     total cpu time spent up to now is      582.5 secs

     total energy              =   -2955.23211881 Ry
     estimated scf accuracy    <       0.22047645 Ry

     iteration # 32     ecut=    29.40 Ry     beta= 0.05
     Davidson diagonalization with overlap
     ethr =  4.94E-05,  avg # of iterations =  4.1

     negative rho (up, down):  3.218E-03 0.000E+00
 
     Adding external electric field

     Computed dipole along edir(3) : 
        Dipole               -0.2189 Ry au,         -0.5565 Debye
        Dipole field         -0.0004 Ry au, 
 
        Potential amp.        0.0383 Ry
        Total length         46.3494 bohr
 

     total cpu time spent up to now is      593.4 secs

     total energy              =   -2955.21495973 Ry
     estimated scf accuracy    <       0.19061911 Ry

     iteration # 33     ecut=    29.40 Ry     beta= 0.05
     Davidson diagonalization with overlap
     c_bands:  5 eigenvalues not converged
     c_bands:  1 eigenvalues not converged
     c_bands:  3 eigenvalues not converged
     c_bands:  3 eigenvalues not converged
     c_bands:  3 eigenvalues not converged
     c_bands:  1 eigenvalues not converged
     c_bands:  1 eigenvalues not converged
     ethr =  4.78E-05,  avg # of iterations = 19.4

     negative rho (up, down):  2.937E-03 0.000E+00
 
     Adding external electric field

     Computed dipole along edir(3) : 
        Dipole               -0.2361 Ry au,         -0.6002 Debye
        Dipole field         -0.0004 Ry au, 
 
        Potential amp.        0.0413 Ry
        Total length         46.3494 bohr
 

     total cpu time spent up to now is      612.9 secs

     total energy              =   -2955.23593502 Ry
     estimated scf accuracy    <       0.14995898 Ry

     iteration # 34     ecut=    29.40 Ry     beta= 0.05
     Davidson diagonalization with overlap
     ethr =  3.76E-05,  avg # of iterations =  3.7

     negative rho (up, down):  1.774E-03 0.000E+00
 
     Adding external electric field

     Computed dipole along edir(3) : 
        Dipole               -0.0452 Ry au,         -0.1150 Debye
        Dipole field         -0.0001 Ry au, 
 
        Potential amp.        0.0079 Ry
        Total length         46.3494 bohr
 

     total cpu time spent up to now is      623.7 secs

     total energy              =   -2955.21672312 Ry
     estimated scf accuracy    <       0.10617517 Ry

     iteration # 35     ecut=    29.40 Ry     beta= 0.05
     Davidson diagonalization with overlap
     c_bands:  1 eigenvalues not converged
     ethr =  2.66E-05,  avg # of iterations = 11.0

     negative rho (up, down):  1.953E-03 0.000E+00
 
     Adding external electric field

     Computed dipole along edir(3) : 
        Dipole                0.7569 Ry au,          1.9240 Debye
        Dipole field          0.0014 Ry au, 
 
        Potential amp.       -0.1324 Ry
        Total length         46.3494 bohr
 

     total cpu time spent up to now is      637.3 secs

     total energy              =   -2955.21281416 Ry
     estimated scf accuracy    <       0.08887916 Ry

     iteration # 36     ecut=    29.40 Ry     beta= 0.05
     Davidson diagonalization with overlap
     ethr =  2.23E-05,  avg # of iterations = 11.2

     negative rho (up, down):  2.874E-03 0.000E+00
 
     Adding external electric field

     Computed dipole along edir(3) : 
        Dipole                0.8314 Ry au,          2.1132 Debye
        Dipole field          0.0016 Ry au, 
 
        Potential amp.       -0.1454 Ry
        Total length         46.3494 bohr
 

     total cpu time spent up to now is      653.3 secs

     total energy              =   -2955.21853602 Ry
     estimated scf accuracy    <       0.09655169 Ry

     iteration # 37     ecut=    29.40 Ry     beta= 0.05
     Davidson diagonalization with overlap
     ethr =  2.23E-05,  avg # of iterations =  1.3

     negative rho (up, down):  4.221E-03 0.000E+00
 
     Adding external electric field

     Computed dipole along edir(3) : 
        Dipole                0.7093 Ry au,          1.8028 Debye
        Dipole field          0.0013 Ry au, 
 
        Potential amp.       -0.1241 Ry
        Total length         46.3494 bohr
 

     total cpu time spent up to now is      663.3 secs

     total energy              =   -2955.21226334 Ry
     estimated scf accuracy    <       0.04942203 Ry

     iteration # 38     ecut=    29.40 Ry     beta= 0.05
     Davidson diagonalization with overlap
     c_bands:  4 eigenvalues not converged
     c_bands:  2 eigenvalues not converged
     c_bands:  2 eigenvalues not converged
     ethr =  1.24E-05,  avg # of iterations = 15.9

     negative rho (up, down):  4.383E-03 0.000E+00
 
     Adding external electric field

     Computed dipole along edir(3) : 
        Dipole                0.8363 Ry au,          2.1256 Debye
        Dipole field          0.0016 Ry au, 
 
        Potential amp.       -0.1463 Ry
        Total length         46.3494 bohr
 

     total cpu time spent up to now is      680.7 secs

     total energy              =   -2955.21561877 Ry
     estimated scf accuracy    <       0.01569073 Ry

     iteration # 39     ecut=    29.40 Ry     beta= 0.05
     Davidson diagonalization with overlap
     c_bands:  1 eigenvalues not converged
     c_bands:  2 eigenvalues not converged
     ethr =  3.93E-06,  avg # of iterations = 13.0

     negative rho (up, down):  4.826E-03 0.000E+00
 
     Adding external electric field

     Computed dipole along edir(3) : 
        Dipole                0.9765 Ry au,          2.4820 Debye
        Dipole field          0.0018 Ry au, 
 
        Potential amp.       -0.1708 Ry
        Total length         46.3494 bohr
 

     total cpu time spent up to now is      695.2 secs

     total energy              =   -2955.21579740 Ry
     estimated scf accuracy    <       0.02226621 Ry

     iteration # 40     ecut=    29.40 Ry     beta= 0.05
     Davidson diagonalization with overlap
     ethr =  3.93E-06,  avg # of iterations =  6.8

     negative rho (up, down):  4.807E-03 0.000E+00
 
     Adding external electric field

     Computed dipole along edir(3) : 
        Dipole                1.1333 Ry au,          2.8805 Debye
        Dipole field          0.0021 Ry au, 
 
        Potential amp.       -0.1982 Ry
        Total length         46.3494 bohr
 

     total cpu time spent up to now is      707.3 secs

     total energy              =   -2955.21496262 Ry
     estimated scf accuracy    <       0.00945738 Ry

     iteration # 41     ecut=    29.40 Ry     beta= 0.05
     Davidson diagonalization with overlap
     c_bands:  1 eigenvalues not converged
     c_bands:  1 eigenvalues not converged
     ethr =  2.37E-06,  avg # of iterations = 14.5

     negative rho (up, down):  5.359E-03 0.000E+00
 
     Adding external electric field

     Computed dipole along edir(3) : 
        Dipole                1.1609 Ry au,          2.9507 Debye
        Dipole field          0.0022 Ry au, 
 
        Potential amp.       -0.2031 Ry
        Total length         46.3494 bohr
 

     total cpu time spent up to now is      722.7 secs

     total energy              =   -2955.21527069 Ry
     estimated scf accuracy    <       0.00461456 Ry

     iteration # 42     ecut=    29.40 Ry     beta= 0.05
     Davidson diagonalization with overlap
     ethr =  1.16E-06,  avg # of iterations =  7.8

     negative rho (up, down):  7.089E-03 0.000E+00
 
     Adding external electric field

     Computed dipole along edir(3) : 
        Dipole                1.2094 Ry au,          3.0740 Debye
        Dipole field          0.0023 Ry au, 
 
        Potential amp.       -0.2116 Ry
        Total length         46.3494 bohr
 

     total cpu time spent up to now is      737.1 secs

     total energy              =   -2955.21493976 Ry
     estimated scf accuracy    <       0.00531890 Ry

     iteration # 43     ecut=    29.40 Ry     beta= 0.05
     Davidson diagonalization with overlap
     c_bands:  1 eigenvalues not converged
     c_bands:  1 eigenvalues not converged
     c_bands:  1 eigenvalues not converged
     c_bands:  3 eigenvalues not converged
     c_bands:  3 eigenvalues not converged
     ethr =  1.16E-06,  avg # of iterations = 16.8

     negative rho (up, down):  7.896E-03 0.000E+00
 
     Adding external electric field

     Computed dipole along edir(3) : 
        Dipole                1.2300 Ry au,          3.1263 Debye
        Dipole field          0.0023 Ry au, 
 
        Potential amp.       -0.2152 Ry
        Total length         46.3494 bohr
 

     total cpu time spent up to now is      753.9 secs

     total energy              =   -2955.21552069 Ry
     estimated scf accuracy    <       0.00311297 Ry

     iteration # 44     ecut=    29.40 Ry     beta= 0.05
     Davidson diagonalization with overlap
     c_bands:  1 eigenvalues not converged
     ethr =  7.80E-07,  avg # of iterations =  5.5

     negative rho (up, down):  8.678E-03 0.000E+00
 
     Adding external electric field

     Computed dipole along edir(3) : 
        Dipole                1.2718 Ry au,          3.2325 Debye
        Dipole field          0.0024 Ry au, 
 
        Potential amp.       -0.2225 Ry
        Total length         46.3494 bohr
 

     total cpu time spent up to now is      765.5 secs

     total energy              =   -2955.21531321 Ry
     estimated scf accuracy    <       0.00196246 Ry

     iteration # 45     ecut=    29.40 Ry     beta= 0.05
     Davidson diagonalization with overlap
     c_bands:  2 eigenvalues not converged
     c_bands:  1 eigenvalues not converged
     c_bands:  2 eigenvalues not converged
     c_bands:  1 eigenvalues not converged
     ethr =  4.92E-07,  avg # of iterations = 16.2

     negative rho (up, down):  9.270E-03 0.000E+00
 
     Adding external electric field

     Computed dipole along edir(3) : 
        Dipole                1.2715 Ry au,          3.2319 Debye
        Dipole field          0.0024 Ry au, 
 
        Potential amp.       -0.2224 Ry
        Total length         46.3494 bohr
 

     total cpu time spent up to now is      782.3 secs

     total energy              =   -2955.21541681 Ry
     estimated scf accuracy    <       0.00233622 Ry

     iteration # 46     ecut=    29.40 Ry     beta= 0.05
     Davidson diagonalization with overlap
     ethr =  4.92E-07,  avg # of iterations = 10.0

     negative rho (up, down):  9.529E-03 0.000E+00
 
     Adding external electric field

     Computed dipole along edir(3) : 
        Dipole                1.2883 Ry au,          3.2746 Debye
        Dipole field          0.0024 Ry au, 
 
        Potential amp.       -0.2254 Ry
        Total length         46.3494 bohr
 

     total cpu time spent up to now is      794.9 secs

     total energy              =   -2955.21546351 Ry
     estimated scf accuracy    <       0.00025973 Ry

     iteration # 47     ecut=    29.40 Ry     beta= 0.05
     Davidson diagonalization with overlap
     c_bands:  1 eigenvalues not converged
     c_bands:  1 eigenvalues not converged
     c_bands:  3 eigenvalues not converged
     ethr =  6.51E-08,  avg # of iterations = 17.6

     negative rho (up, down):  9.621E-03 0.000E+00
 
     Adding external electric field

     Computed dipole along edir(3) : 
        Dipole                1.2940 Ry au,          3.2890 Debye
        Dipole field          0.0024 Ry au, 
 
        Potential amp.       -0.2264 Ry
        Total length         46.3494 bohr
 

     total cpu time spent up to now is      815.5 secs

     total energy              =   -2955.21551557 Ry
     estimated scf accuracy    <       0.00053271 Ry

     iteration # 48     ecut=    29.40 Ry     beta= 0.05
     Davidson diagonalization with overlap
     ethr =  6.51E-08,  avg # of iterations =  6.0

     negative rho (up, down):  1.034E-02 0.000E+00
 
     Adding external electric field

     Computed dipole along edir(3) : 
        Dipole                1.3198 Ry au,          3.3545 Debye
        Dipole field          0.0025 Ry au, 
 
        Potential amp.       -0.2309 Ry
        Total length         46.3494 bohr
 

     total cpu time spent up to now is      827.7 secs

     total energy              =   -2955.21550120 Ry
     estimated scf accuracy    <       0.00020011 Ry

     iteration # 49     ecut=    29.40 Ry     beta= 0.05
     Davidson diagonalization with overlap
     c_bands:  2 eigenvalues not converged
     ethr =  5.02E-08,  avg # of iterations = 15.2

     negative rho (up, down):  1.042E-02 0.000E+00
 
     Adding external electric field

     Computed dipole along edir(3) : 
        Dipole                1.3203 Ry au,          3.3558 Debye
        Dipole field          0.0025 Ry au, 
 
        Potential amp.       -0.2310 Ry
        Total length         46.3494 bohr
 

     total cpu time spent up to now is      847.5 secs

     total energy              =   -2955.21556108 Ry
     estimated scf accuracy    <       0.00024959 Ry

     iteration # 50     ecut=    29.40 Ry     beta= 0.05
     Davidson diagonalization with overlap
     ethr =  5.02E-08,  avg # of iterations =  1.5

     negative rho (up, down):  1.061E-02 0.000E+00
 
     Adding external electric field

     Computed dipole along edir(3) : 
        Dipole                1.3244 Ry au,          3.3662 Debye
        Dipole field          0.0025 Ry au, 
 
        Potential amp.       -0.2317 Ry
        Total length         46.3494 bohr
 

     total cpu time spent up to now is      857.6 secs

     total energy              =   -2955.21554257 Ry
     estimated scf accuracy    <       0.00015060 Ry

     iteration # 51     ecut=    29.40 Ry     beta= 0.05
     Davidson diagonalization with overlap
     c_bands:  1 eigenvalues not converged
     ethr =  3.77E-08,  avg # of iterations = 10.1

     negative rho (up, down):  1.087E-02 0.000E+00
 
     Adding external electric field

     Computed dipole along edir(3) : 
        Dipole                1.3309 Ry au,          3.3829 Debye
        Dipole field          0.0025 Ry au, 
 
        Potential amp.       -0.2328 Ry
        Total length         46.3494 bohr
 

     total cpu time spent up to now is      873.5 secs

     total energy              =   -2955.21557239 Ry
     estimated scf accuracy    <       0.00004300 Ry

     iteration # 52     ecut=    29.40 Ry     beta= 0.05
     Davidson diagonalization with overlap
     ethr =  1.08E-08,  avg # of iterations =  7.5

     negative rho (up, down):  1.095E-02 0.000E+00
 
     Adding external electric field

     Computed dipole along edir(3) : 
        Dipole                1.3335 Ry au,          3.3894 Debye
        Dipole field          0.0025 Ry au, 
 
        Potential amp.       -0.2333 Ry
        Total length         46.3494 bohr
 

     total cpu time spent up to now is      886.2 secs

     total energy              =   -2955.21558303 Ry
     estimated scf accuracy    <       0.00001241 Ry

     iteration # 53     ecut=    29.40 Ry     beta= 0.05
     Davidson diagonalization with overlap
     c_bands:  1 eigenvalues not converged
     ethr =  3.11E-09,  avg # of iterations = 10.7

     negative rho (up, down):  1.084E-02 0.000E+00
 
     Adding external electric field

     Computed dipole along edir(3) : 
        Dipole                1.3304 Ry au,          3.3816 Debye
        Dipole field          0.0025 Ry au, 
 
        Potential amp.       -0.2327 Ry
        Total length         46.3494 bohr
 

     total cpu time spent up to now is      904.3 secs

     total energy              =   -2955.21559024 Ry
     estimated scf accuracy    <       0.00002659 Ry

     iteration # 54     ecut=    29.40 Ry     beta= 0.05
     Davidson diagonalization with overlap
     ethr =  3.11E-09,  avg # of iterations =  4.5

     negative rho (up, down):  1.080E-02 0.000E+00
 
     Adding external electric field

     Computed dipole along edir(3) : 
        Dipole                1.3282 Ry au,          3.3759 Debye
        Dipole field          0.0025 Ry au, 
 
        Potential amp.       -0.2323 Ry
        Total length         46.3494 bohr
 

     total cpu time spent up to now is      916.2 secs

     total energy              =   -2955.21559541 Ry
     estimated scf accuracy    <       0.00001101 Ry

     iteration # 55     ecut=    29.40 Ry     beta= 0.05
     Davidson diagonalization with overlap
     ethr =  2.76E-09,  avg # of iterations =  8.5

     negative rho (up, down):  1.086E-02 0.000E+00
 
     Adding external electric field

     Computed dipole along edir(3) : 
        Dipole                1.3289 Ry au,          3.3777 Debye
        Dipole field          0.0025 Ry au, 
 
        Potential amp.       -0.2325 Ry
        Total length         46.3494 bohr
 

     total cpu time spent up to now is      933.4 secs

     total energy              =   -2955.21560377 Ry
     estimated scf accuracy    <       0.00001015 Ry

     iteration # 56     ecut=    29.40 Ry     beta= 0.05
     Davidson diagonalization with overlap
     ethr =  2.54E-09,  avg # of iterations =  2.2

     negative rho (up, down):  1.086E-02 0.000E+00
 
     Adding external electric field

     Computed dipole along edir(3) : 
        Dipole                1.3281 Ry au,          3.3758 Debye
        Dipole field          0.0025 Ry au, 
 
        Potential amp.       -0.2323 Ry
        Total length         46.3494 bohr
 

     total cpu time spent up to now is      944.3 secs

     total energy              =   -2955.21560972 Ry
     estimated scf accuracy    <       0.00000412 Ry

     iteration # 57     ecut=    29.40 Ry     beta= 0.05
     Davidson diagonalization with overlap
     ethr =  1.03E-09,  avg # of iterations = 10.4

     negative rho (up, down):  1.086E-02 0.000E+00
 
     Adding external electric field

     Computed dipole along edir(3) : 
        Dipole                1.3279 Ry au,          3.3753 Debye
        Dipole field          0.0025 Ry au, 
 
        Potential amp.       -0.2323 Ry
        Total length         46.3494 bohr
 

     total cpu time spent up to now is      958.4 secs

     total energy              =   -2955.21561497 Ry
     estimated scf accuracy    <       0.00000181 Ry

     iteration # 58     ecut=    29.40 Ry     beta= 0.05
     Davidson diagonalization with overlap
     ethr =  4.55E-10,  avg # of iterations =  6.7

     negative rho (up, down):  1.091E-02 0.000E+00
 
     Adding external electric field

     Computed dipole along edir(3) : 
        Dipole                1.3285 Ry au,          3.3767 Debye
        Dipole field          0.0025 Ry au, 
 
        Potential amp.       -0.2324 Ry
        Total length         46.3494 bohr
 

     total cpu time spent up to now is      972.1 secs

     total energy              =   -2955.21561992 Ry
     estimated scf accuracy    <       0.00000073 Ry

     iteration # 59     ecut=    29.40 Ry     beta= 0.05
     Davidson diagonalization with overlap
     ethr =  1.82E-10,  avg # of iterations =  9.4

     negative rho (up, down):  1.096E-02 0.000E+00
 
     Adding external electric field

     Computed dipole along edir(3) : 
        Dipole                1.3281 Ry au,          3.3756 Debye
        Dipole field          0.0025 Ry au, 
 
        Potential amp.       -0.2323 Ry
        Total length         46.3494 bohr
 

     total cpu time spent up to now is      985.5 secs

     total energy              =   -2955.21562411 Ry
     estimated scf accuracy    <       0.00000066 Ry

     iteration # 60     ecut=    29.40 Ry     beta= 0.05
     Davidson diagonalization with overlap
     ethr =  1.64E-10,  avg # of iterations =  4.8

     negative rho (up, down):  1.097E-02 0.000E+00
 
     Adding external electric field

     Computed dipole along edir(3) : 
        Dipole                1.3278 Ry au,          3.3749 Debye
        Dipole field          0.0025 Ry au, 
 
        Potential amp.       -0.2323 Ry
        Total length         46.3494 bohr
 

     total cpu time spent up to now is      996.9 secs

     total energy              =   -2955.21562779 Ry
     estimated scf accuracy    <       0.00000034 Ry

     iteration # 61     ecut=    29.40 Ry     beta= 0.05
     Davidson diagonalization with overlap
     ethr =  8.49E-11,  avg # of iterations = 10.1

     negative rho (up, down):  1.098E-02 0.000E+00
 
     Adding external electric field

     Computed dipole along edir(3) : 
        Dipole                1.3277 Ry au,          3.3747 Debye
        Dipole field          0.0025 Ry au, 
 
        Potential amp.       -0.2323 Ry
        Total length         46.3494 bohr
 

     total cpu time spent up to now is     1012.4 secs

     total energy              =   -2955.21563122 Ry
     estimated scf accuracy    <       0.00000011 Ry

     iteration # 62     ecut=    29.40 Ry     beta= 0.05
     Davidson diagonalization with overlap
     c_bands:  1 eigenvalues not converged
     ethr =  2.70E-11,  avg # of iterations =  9.8

     negative rho (up, down):  1.110E-02 0.000E+00
 
     Adding external electric field

     Computed dipole along edir(3) : 
        Dipole                1.3279 Ry au,          3.3751 Debye
        Dipole field          0.0025 Ry au, 
 
        Potential amp.       -0.2323 Ry
        Total length         46.3494 bohr
 

     total cpu time spent up to now is     1025.8 secs

     End of self-consistent calculation

          k = 0.0000 0.0000 0.0000 ( 18029 PWs)   bands (ev):

   -55.4957 -55.4872 -55.4617 -55.4512 -55.4062 -55.3373 -55.3342 -55.3002
   -55.2995 -55.2663 -55.2585 -55.2248 -55.0714 -54.7890 -54.4675 -54.4334
   -32.0455 -31.9771 -31.8509 -31.8359 -31.8152 -31.7996 -31.7889 -31.7496
   -31.7371 -31.7370 -31.7104 -31.7027 -31.6696 -31.6479 -31.6396 -31.6364
   -31.6293 -31.5990 -31.5777 -31.5529 -31.5455 -31.5409 -31.5251 -31.5042
   -31.4946 -31.4900 -31.4863 -31.4781 -31.4616 -31.4588 -31.4537 -31.4495
   -31.4359 -31.4304 -31.4119 -31.4072 -31.3712 -31.3353 -31.2409 -31.0630
   -31.0570 -30.9877 -30.8743 -30.7867 -30.7642 -30.6911 -30.6046 -30.4936
   -18.5818 -16.2541 -15.9723 -15.7923 -15.6497 -15.6175 -15.5295 -15.3316
   -15.2060 -15.1907 -15.0864 -15.0542 -15.0296 -15.0229 -14.9945 -14.9910
   -14.9357 -14.9286 -14.9195 -14.9065 -14.8477 -14.8237 -14.7832 -14.6922
   -14.6681 -14.6526 -14.6251 -14.5428 -14.5372 -14.0944 -13.6312 -12.9700
   -12.8537  -8.4812  -6.3850  -3.9110  -3.6246  -3.4507  -3.4127  -3.3978
    -3.3474  -3.0970  -3.0793  -2.8455  -2.7162  -2.6956  -2.6800  -2.6671
    -2.6495  -2.6310  -2.4161  -2.3939  -2.3262  -2.3102  -2.2883  -2.2800
    -2.2739  -2.2643  -2.2605  -2.2160  -2.1604  -2.0462  -2.0290  -1.9228
    -1.8791  -1.8540  -1.8048  -1.7605  -1.7544  -1.7441  -1.7248  -1.7132
    -1.6905  -1.6729  -1.5376  -1.4750  -1.3430  -1.2967  -1.2891  -1.0952
    -1.0572  -0.9648  -0.9383  -0.9217  -0.9136  -0.8814  -0.7997  -0.7081
    -0.6541  -0.6420  -0.5881  -0.5091  -0.4954  -0.4002  -0.3861  -0.3808
    -0.3255  -0.2644  -0.2545  -0.2456  -0.2007  -0.1313  -0.0571   0.0190
     0.0713   0.0926   0.1191   0.1981   0.2272   0.3222   0.3431   0.3878
     0.3949   0.4412   0.4833   0.4920   0.4976   0.5134   0.5327   0.6807
     0.7885   0.8442   0.8769   0.8880   1.0453   1.0812   1.1690   1.2560
     1.4817   1.5544   1.6488   1.7476   1.8012   2.1251   2.1705   3.6475
     3.7265   3.7803   3.7894   3.8850   3.8923   4.0972   4.1062   4.1172
     4.1892

          k = 0.0000 0.0419 0.0000 ( 17933 PWs)   bands (ev):

   -55.4907 -55.4818 -55.4666 -55.4564 -55.4039 -55.3394 -55.3291 -55.3045
   -55.2952 -55.2712 -55.2535 -55.2296 -55.0709 -54.7894 -54.4624 -54.4383
   -31.9880 -31.9231 -31.8034 -31.7972 -31.7842 -31.7813 -31.7750 -31.7436
   -31.7217 -31.7135 -31.6976 -31.6967 -31.6754 -31.6712 -31.6556 -31.6488
   -31.6341 -31.6251 -31.5668 -31.5645 -31.5409 -31.5373 -31.5313 -31.5153
   -31.5062 -31.5024 -31.4998 -31.4899 -31.4853 -31.4761 -31.4652 -31.4589
   -31.4448 -31.4322 -31.4320 -31.4272 -31.4149 -31.3344 -31.2380 -31.0883
   -31.0573 -31.0021 -30.8202 -30.7832 -30.7672 -30.6785 -30.6171 -30.5507
   -18.5817 -16.1185 -15.8527 -15.6818 -15.5424 -15.5193 -15.4919 -15.3790
   -15.2772 -15.2458 -15.1094 -15.1037 -15.0301 -15.0109 -14.9989 -14.9716
   -14.9659 -14.9474 -14.9438 -14.8798 -14.8719 -14.8300 -14.7536 -14.7429
   -14.7075 -14.6857 -14.6837 -14.5993 -14.5516 -14.1661 -13.6447 -12.9742
   -12.8933  -8.4812  -6.3847  -3.9180  -3.4339  -3.2858  -3.2455  -3.2216
    -3.1884  -2.9382  -2.8756  -2.7922  -2.7546  -2.6808  -2.6220  -2.5773
    -2.5458  -2.5272  -2.4659  -2.4629  -2.4372  -2.4141  -2.3780  -2.3603
    -2.3404  -2.2895  -2.2426  -2.2291  -2.1797  -2.1684  -2.1512  -2.1242
    -1.9953  -1.9835  -1.9500  -1.9098  -1.8593  -1.7705  -1.7446  -1.7245
    -1.6432  -1.5735  -1.4677  -1.4187  -1.2700  -1.2308  -1.1653  -1.1414
    -1.0895  -0.9702  -0.8619  -0.8278  -0.8041  -0.7318  -0.7053  -0.6050
    -0.5476  -0.5188  -0.4449  -0.4360  -0.4168  -0.4102  -0.3887  -0.3811
    -0.3415  -0.3034  -0.2481  -0.2138  -0.1833  -0.1543  -0.0820  -0.0537
     0.0025   0.0139   0.0398   0.0522   0.2034   0.2389   0.2658   0.2953
     0.3263   0.3569   0.3790   0.4195   0.4760   0.5303   0.5523   0.6224
     0.6985   0.7631   0.7877   0.8453   0.8589   0.8932   1.0330   1.1738
     1.1877   1.5192   1.7242   1.7440   1.8286   2.0791   2.0825   3.8372
     3.8607   3.8974   3.9412   3.9970   4.0468   4.0893   4.1182   4.1763
     4.1917

          k = 0.0000-0.0839 0.0000 ( 17884 PWs)   bands (ev):

   -55.4790 -55.4782 -55.4693 -55.4689 -55.4015 -55.3418 -55.3189 -55.3147
   -55.2841 -55.2822 -55.2419 -55.2412 -55.0704 -54.7899 -54.4504 -54.4502
   -31.8492 -31.8474 -31.7912 -31.7905 -31.7826 -31.7746 -31.7736 -31.7582
   -31.6975 -31.6964 -31.6736 -31.6722 -31.6640 -31.6502 -31.6442 -31.6299
   -31.6092 -31.6009 -31.6001 -31.6001 -31.5944 -31.5639 -31.5612 -31.5528
   -31.5326 -31.5323 -31.5203 -31.5193 -31.5110 -31.4971 -31.4749 -31.4746
   -31.4567 -31.4530 -31.4231 -31.4230 -31.4042 -31.3334 -31.2361 -31.1261
   -31.0573 -31.0126 -30.7751 -30.7749 -30.6873 -30.6871 -30.6479 -30.6478
   -18.5817 -15.7807 -15.7687 -15.5763 -15.5703 -15.4339 -15.4240 -15.3253
   -15.3088 -15.2811 -15.2552 -15.2163 -15.2146 -15.0532 -15.0478 -14.8820
   -14.8733 -14.8712 -14.8658 -14.8514 -14.8376 -14.8357 -14.8265 -14.8245
   -14.7489 -14.7416 -14.7297 -14.6972 -14.5333 -14.2698 -13.6572 -12.9561
   -12.9558  -8.4813  -6.3845  -3.9261  -3.0050  -2.9704  -2.8933  -2.8859
    -2.8816  -2.8729  -2.8641  -2.8490  -2.7835  -2.7833  -2.7263  -2.6155
    -2.6113  -2.6010  -2.5775  -2.5452  -2.5214  -2.4657  -2.4392  -2.4345
    -2.4128  -2.3350  -2.2992  -2.2897  -2.2412  -2.2176  -2.1581  -2.1261
    -2.0863  -2.0558  -1.9510  -1.8836  -1.8665  -1.8501  -1.8231  -1.5545
    -1.5029  -1.3952  -1.3565  -1.3246  -1.2127  -1.1856  -1.1330  -1.0882
    -1.0024  -0.9295  -0.9238  -0.8873  -0.8722  -0.8434  -0.8105  -0.7163
    -0.6807  -0.6750  -0.6232  -0.5801  -0.4206  -0.3633  -0.3000  -0.2160
    -0.1784  -0.1468  -0.1277  -0.1226  -0.0995  -0.0782  -0.0562  -0.0228
     0.0232   0.0600   0.0760   0.0876   0.1248   0.1462   0.1910   0.2246
     0.2382   0.2557   0.3057   0.3235   0.3577   0.3752   0.4078   0.4890
     0.5127   0.5866   0.7532   0.7550   0.7607   0.7855   1.1014   1.1414
     1.2069   1.2463   1.7068   1.8875   1.8879   2.0161   2.0169   3.9220
     3.9489   3.9798   4.0019   4.0770   4.0864   4.1572   4.1894   4.2373
     4.2440

          k = 0.0380 0.0000 0.0000 ( 17913 PWs)   bands (ev):

   -55.4956 -55.4870 -55.4616 -55.4511 -55.4061 -55.3372 -55.3341 -55.3000
   -55.2994 -55.2662 -55.2585 -55.2247 -55.0713 -54.7890 -54.4674 -54.4333
   -32.0456 -31.9779 -31.8524 -31.8422 -31.8151 -31.7997 -31.7886 -31.7543
   -31.7371 -31.7368 -31.7055 -31.6916 -31.6695 -31.6450 -31.6323 -31.6316
   -31.6289 -31.5987 -31.5618 -31.5572 -31.5528 -31.5408 -31.5284 -31.5003
   -31.4939 -31.4896 -31.4794 -31.4782 -31.4615 -31.4585 -31.4568 -31.4531
   -31.4493 -31.4303 -31.4120 -31.4063 -31.3714 -31.3377 -31.2407 -31.0629
   -31.0573 -30.9875 -30.8739 -30.7900 -30.7622 -30.6909 -30.6045 -30.4933
   -18.5818 -16.1857 -15.8857 -15.7112 -15.6297 -15.5470 -15.5285 -15.3758
   -15.2035 -15.1963 -15.1878 -15.1844 -15.1514 -15.1038 -15.0815 -15.0365
   -15.0131 -14.8737 -14.8498 -14.8054 -14.7577 -14.7442 -14.7376 -14.6955
   -14.6860 -14.6768 -14.6640 -14.6217 -14.5245 -14.0916 -13.6267 -12.9668
   -12.8534  -8.4841  -6.3859  -3.9606  -3.5569  -3.2384  -3.1861  -3.1276
    -3.1170  -3.0647  -3.0256  -2.9663  -2.8436  -2.7401  -2.7296  -2.6960
    -2.6097  -2.5693  -2.5077  -2.4651  -2.4151  -2.3663  -2.2720  -2.2680
    -2.2189  -2.2054  -2.1355  -2.0985  -2.0740  -2.0318  -1.9994  -1.9519
    -1.8833  -1.8366  -1.8305  -1.7652  -1.7196  -1.6993  -1.6619  -1.5384
    -1.5126  -1.4780  -1.4251  -1.3847  -1.3636  -1.3095  -1.2807  -1.1748
    -1.0918  -1.0644  -1.0466  -0.9520  -0.9271  -0.8992  -0.7959  -0.7793
    -0.7690  -0.7357  -0.6741  -0.6284  -0.5214  -0.4001  -0.3976  -0.3645
    -0.3520  -0.3233  -0.2980  -0.2547  -0.2207  -0.1400  -0.0743  -0.0168
     0.0368   0.0776   0.1281   0.1578   0.2196   0.2392   0.2680   0.3020
     0.3215   0.3572   0.3689   0.3852   0.3980   0.4297   0.5848   0.6393
     0.6947   0.7156   0.8099   0.8691   0.9150   0.9628   1.1396   1.2023
     1.4848   1.5142   1.5663   1.7172   1.7983   2.0138   2.0876   3.6855
     3.7017   3.9846   4.0027   4.0228   4.0538   4.0716   4.0969   4.1224
     4.1492

          k = 0.0380 0.0419 0.0000 ( 17878 PWs)   bands (ev):

   -55.4906 -55.4817 -55.4666 -55.4563 -55.4039 -55.3394 -55.3291 -55.3044
   -55.2950 -55.2711 -55.2535 -55.2296 -55.0708 -54.7894 -54.4623 -54.4383
   -31.9882 -31.9239 -31.8033 -31.7986 -31.7890 -31.7840 -31.7751 -31.7436
   -31.7216 -31.7137 -31.7019 -31.6849 -31.6753 -31.6715 -31.6557 -31.6380
   -31.6316 -31.6212 -31.5665 -31.5553 -31.5472 -31.5368 -31.5309 -31.5158
   -31.5051 -31.5041 -31.4894 -31.4887 -31.4850 -31.4762 -31.4652 -31.4594
   -31.4534 -31.4443 -31.4317 -31.4229 -31.4195 -31.3366 -31.2379 -31.0882
   -31.0580 -31.0019 -30.8199 -30.7858 -30.7662 -30.6783 -30.6172 -30.5505
   -18.5817 -16.0569 -15.7729 -15.6075 -15.5244 -15.4936 -15.4448 -15.3788
   -15.3115 -15.2472 -15.1491 -15.1474 -15.1101 -15.1015 -15.0716 -14.9843
   -14.9722 -14.9444 -14.9074 -14.8730 -14.8178 -14.8034 -14.7758 -14.7393
   -14.7353 -14.7178 -14.6894 -14.6525 -14.5413 -14.1641 -13.6413 -12.9719
   -12.8935  -8.4835  -6.3857  -3.9421  -3.3805  -3.0704  -3.0260  -2.9785
    -2.9460  -2.8732  -2.8697  -2.8071  -2.7847  -2.6841  -2.6198  -2.5826
    -2.5271  -2.5037  -2.4732  -2.4145  -2.3848  -2.3762  -2.3571  -2.3016
    -2.2773  -2.2517  -2.2175  -2.2023  -2.2002  -2.1433  -2.1172  -2.1110
    -2.0388  -1.9768  -1.9524  -1.8528  -1.8013  -1.7752  -1.6954  -1.6367
    -1.5630  -1.5013  -1.4772  -1.4502  -1.2659  -1.2292  -1.1921  -1.1028
    -1.0405  -0.9478  -0.9357  -0.9103  -0.8219  -0.7989  -0.7730  -0.7404
    -0.6617  -0.6266  -0.6131  -0.5568  -0.4858  -0.4505  -0.4245  -0.4095
    -0.3849  -0.3314  -0.2977  -0.2523  -0.2119  -0.1905  -0.1721  -0.1529
    -0.1140  -0.0744  -0.0587   0.0049   0.0451   0.0870   0.1772   0.2033
     0.2134   0.2615   0.3122   0.4042   0.4430   0.4720   0.5865   0.6453
     0.6975   0.7451   0.8204   0.8683   0.8999   0.9368   0.9594   1.0969
     1.1619   1.4570   1.7327   1.7549   1.8332   2.0016   2.0633   3.8262
     3.8952   3.9266   4.0028   4.0665   4.0875   4.1521   4.1823   4.2099
     4.2369

          k = 0.0380-0.0839 0.0000 ( 17916 PWs)   bands (ev):

   -55.4791 -55.4782 -55.4693 -55.4689 -55.4015 -55.3418 -55.3189 -55.3147
   -55.2840 -55.2821 -55.2419 -55.2413 -55.0704 -54.7899 -54.4505 -54.4502
   -31.8495 -31.8477 -31.7920 -31.7912 -31.7827 -31.7746 -31.7737 -31.7583
   -31.6984 -31.6967 -31.6842 -31.6812 -31.6650 -31.6318 -31.6314 -31.6276
   -31.6067 -31.6007 -31.5997 -31.5989 -31.5951 -31.5751 -31.5727 -31.5501
   -31.5280 -31.5268 -31.5115 -31.5089 -31.5087 -31.4971 -31.4749 -31.4745
   -31.4568 -31.4530 -31.4349 -31.4346 -31.4039 -31.3357 -31.2361 -31.1260
   -31.0583 -31.0126 -30.7760 -30.7759 -30.6872 -30.6870 -30.6479 -30.6478
   -18.5817 -15.7452 -15.7257 -15.5251 -15.5189 -15.3975 -15.3903 -15.2908
   -15.2823 -15.2638 -15.2484 -15.1888 -15.1824 -15.0672 -15.0614 -14.9687
   -14.9523 -14.9195 -14.9135 -14.9021 -14.8993 -14.8538 -14.8450 -14.8097
   -14.7895 -14.7808 -14.7315 -14.6729 -14.5273 -14.2662 -13.6549 -12.9559
   -12.9556  -8.4831  -6.3855  -3.9245  -2.9994  -2.9611  -2.8368  -2.7591
    -2.7447  -2.7284  -2.6787  -2.6633  -2.6228  -2.5937  -2.5720  -2.5597
    -2.5450  -2.5028  -2.4916  -2.4624  -2.4315  -2.4129  -2.3943  -2.3341
    -2.3265  -2.3171  -2.2969  -2.2568  -2.2103  -2.2031  -2.1790  -2.1375
    -2.1073  -2.0761  -2.0212  -1.9643  -1.8046  -1.6138  -1.5889  -1.5789
    -1.4725  -1.4084  -1.3884  -1.3418  -1.3300  -1.2808  -1.2501  -1.2272
    -1.1947  -1.1443  -1.1242  -1.0696  -0.9936  -0.9611  -0.9213  -0.7662
    -0.7043  -0.6613  -0.6215  -0.5191  -0.4983  -0.4369  -0.4198  -0.4161
    -0.3471  -0.2902  -0.2603  -0.2472  -0.2297  -0.2071  -0.1846  -0.1458
    -0.1057  -0.0931  -0.0663  -0.0423  -0.0327   0.0490   0.0793   0.1365
     0.1617   0.2276   0.3397   0.3619   0.4632   0.5232   0.6007   0.6074
     0.6483   0.6624   0.6818   0.7276   0.8652   0.8888   1.0477   1.0622
     1.1897   1.2472   1.7284   1.9006   1.9012   2.0051   2.0059   3.9003
     3.9140   3.9948   4.0164   4.0617   4.0703   4.2124   4.2436   4.2696
     4.2743

          k = 0.0380-0.0419 0.0000 ( 17876 PWs)   bands (ev):

   -55.4906 -55.4817 -55.4666 -55.4563 -55.4039 -55.3394 -55.3291 -55.3044
   -55.2950 -55.2711 -55.2535 -55.2296 -55.0708 -54.7894 -54.4623 -54.4383
   -31.9882 -31.9239 -31.8032 -31.7986 -31.7890 -31.7840 -31.7751 -31.7436
   -31.7215 -31.7137 -31.7019 -31.6854 -31.6749 -31.6715 -31.6557 -31.6382
   -31.6316 -31.6212 -31.5665 -31.5549 -31.5472 -31.5372 -31.5310 -31.5156
   -31.5054 -31.5040 -31.4895 -31.4886 -31.4850 -31.4762 -31.4652 -31.4592
   -31.4535 -31.4442 -31.4317 -31.4229 -31.4194 -31.3367 -31.2379 -31.0881
   -31.0581 -31.0019 -30.8198 -30.7858 -30.7662 -30.6783 -30.6172 -30.5505
   -18.5817 -16.0567 -15.7728 -15.6077 -15.5236 -15.4939 -15.4442 -15.3801
   -15.3114 -15.2477 -15.1479 -15.1456 -15.1107 -15.1021 -15.0718 -14.9848
   -14.9728 -14.9469 -14.9056 -14.8727 -14.8175 -14.8052 -14.7741 -14.7392
   -14.7344 -14.7180 -14.6897 -14.6527 -14.5414 -14.1639 -13.6414 -12.9719
   -12.8936  -8.4836  -6.3857  -3.9400  -3.3812  -3.0680  -3.0255  -2.9778
    -2.9452  -2.8726  -2.8684  -2.8136  -2.7865  -2.6828  -2.6217  -2.5840
    -2.5313  -2.5052  -2.4720  -2.4143  -2.3845  -2.3739  -2.3399  -2.3096
    -2.2806  -2.2390  -2.2173  -2.2014  -2.1942  -2.1448  -2.1279  -2.0954
    -2.0392  -1.9775  -1.9522  -1.8643  -1.8108  -1.7549  -1.6921  -1.6311
    -1.5514  -1.4950  -1.4830  -1.4441  -1.2943  -1.2407  -1.1956  -1.1188
    -1.0486  -0.9524  -0.9296  -0.9097  -0.8245  -0.8100  -0.7761  -0.7269
    -0.6576  -0.6269  -0.6145  -0.5615  -0.5004  -0.4567  -0.4224  -0.4097
    -0.3907  -0.3385  -0.2986  -0.2772  -0.2189  -0.1974  -0.1726  -0.1437
    -0.1204  -0.0893  -0.0262   0.0134   0.0597   0.0956   0.1770   0.2014
     0.2132   0.2676   0.3099   0.4344   0.4486   0.4753   0.6107   0.6383
     0.6921   0.7473   0.8252   0.8581   0.9047   0.9293   0.9614   1.0997
     1.1631   1.4586   1.7354   1.7550   1.8330   2.0013   2.0639   3.8269
     3.8942   3.9225   4.0219   4.0479   4.0721   4.1400   4.1882   4.2015
     4.2350

          k =-0.0760-0.0000 0.0000 ( 17886 PWs)   bands (ev):

   -55.4956 -55.4869 -55.4616 -55.4510 -55.4061 -55.3372 -55.3341 -55.2998
   -55.2994 -55.2662 -55.2586 -55.2247 -55.0713 -54.7889 -54.4673 -54.4333
   -32.0457 -31.9788 -31.8539 -31.8480 -31.8149 -31.7999 -31.7885 -31.7589
   -31.7372 -31.7367 -31.7050 -31.6707 -31.6695 -31.6422 -31.6289 -31.6269
   -31.6260 -31.5987 -31.5836 -31.5531 -31.5406 -31.5311 -31.5134 -31.5019
   -31.4974 -31.4938 -31.4887 -31.4784 -31.4732 -31.4613 -31.4584 -31.4527
   -31.4493 -31.4302 -31.4128 -31.4056 -31.3719 -31.3407 -31.2407 -31.0630
   -31.0579 -30.9875 -30.8735 -30.7932 -30.7609 -30.6908 -30.6044 -30.4934
   -18.5818 -16.0998 -15.7893 -15.6319 -15.5810 -15.5307 -15.4838 -15.3450
   -15.2767 -15.2675 -15.2087 -15.2002 -15.1867 -15.1863 -15.1716 -15.1471
   -15.0568 -14.8523 -14.8348 -14.8210 -14.8100 -14.7653 -14.7382 -14.6890
   -14.6669 -14.6482 -14.6450 -14.5760 -14.5213 -14.0894 -13.6225 -12.9638
   -12.8531  -8.4870  -6.3870  -3.9939  -3.5379  -3.1643  -3.0961  -3.0502
    -2.8877  -2.8849  -2.8409  -2.8259  -2.7736  -2.7528  -2.7386  -2.7079
    -2.7007  -2.5250  -2.4969  -2.4153  -2.3737  -2.2929  -2.2575  -2.2412
    -2.1415  -2.1330  -2.0587  -2.0557  -1.9947  -1.9896  -1.9214  -1.8738
    -1.8233  -1.7996  -1.7875  -1.7536  -1.7227  -1.7200  -1.6669  -1.6473
    -1.6237  -1.5840  -1.5081  -1.3111  -1.3005  -1.2931  -1.1472  -1.1337
    -1.1061  -1.0854  -1.0755  -1.0621  -0.9775  -0.9570  -0.8737  -0.8511
    -0.8221  -0.7700  -0.7227  -0.6983  -0.6498  -0.6465  -0.5738  -0.3998
    -0.3708  -0.3383  -0.3251  -0.2412  -0.1782  -0.1632  -0.1432  -0.1062
    -0.0397  -0.0095   0.0137   0.0749   0.1042   0.1869   0.2291   0.2483
     0.2736   0.3130   0.3241   0.3594   0.4116   0.4881   0.5231   0.5647
     0.6210   0.7617   0.7700   0.8147   0.9935   1.0063   1.1271   1.2022
     1.2508   1.4968   1.5874   1.6929   1.7935   1.8845   2.0319   3.6850
     3.6922   3.8085   3.9287   3.9761   4.0559   4.0963   4.1486   4.1691
     4.1773

          k =-0.0760 0.0419 0.0000 ( 17914 PWs)   bands (ev):

   -55.4906 -55.4817 -55.4666 -55.4564 -55.4039 -55.3394 -55.3291 -55.3045
   -55.2949 -55.2711 -55.2536 -55.2297 -55.0708 -54.7894 -54.4623 -54.4383
   -31.9885 -31.9249 -31.8035 -31.8001 -31.7962 -31.7840 -31.7753 -31.7436
   -31.7216 -31.7139 -31.7069 -31.6760 -31.6721 -31.6686 -31.6560 -31.6295
   -31.6283 -31.6175 -31.5721 -31.5664 -31.5369 -31.5309 -31.5166 -31.5148
   -31.5069 -31.5045 -31.4921 -31.4885 -31.4843 -31.4766 -31.4747 -31.4650
   -31.4568 -31.4437 -31.4315 -31.4259 -31.4227 -31.3393 -31.2379 -31.0882
   -31.0590 -31.0020 -30.8196 -30.7886 -30.7655 -30.6783 -30.6172 -30.5506
   -18.5817 -15.9806 -15.6762 -15.5435 -15.4924 -15.4742 -15.3944 -15.3805
   -15.2482 -15.2404 -15.2291 -15.1777 -15.1560 -15.1468 -15.1197 -15.1018
   -15.0516 -14.9242 -14.9047 -14.8880 -14.8716 -14.8183 -14.7751 -14.7580
   -14.7453 -14.6932 -14.6672 -14.6489 -14.5380 -14.1623 -13.6383 -12.9698
   -12.8939  -8.4860  -6.3868  -3.9575  -3.3677  -3.0015  -2.8771  -2.8248
    -2.7968  -2.7458  -2.6865  -2.6437  -2.6074  -2.5848  -2.5658  -2.5383
    -2.4964  -2.4800  -2.4533  -2.4366  -2.4137  -2.3597  -2.3043  -2.2693
    -2.2514  -2.2130  -2.1948  -2.1807  -2.1538  -2.0974  -2.0748  -1.9818
    -1.9697  -1.9664  -1.9494  -1.8543  -1.7419  -1.7079  -1.6237  -1.6158
    -1.5801  -1.5322  -1.4644  -1.4449  -1.2794  -1.2535  -1.1429  -1.1005
    -1.0537  -1.0458  -0.9825  -0.9703  -0.9274  -0.8995  -0.8204  -0.8040
    -0.7756  -0.7297  -0.7176  -0.7060  -0.6565  -0.6328  -0.5953  -0.5387
    -0.5122  -0.4862  -0.4305  -0.4088  -0.3341  -0.2992  -0.2604  -0.2270
    -0.2129  -0.1781  -0.1212  -0.0857  -0.0410  -0.0064   0.0948   0.1669
     0.2033   0.2215   0.3414   0.4136   0.5034   0.5430   0.5899   0.7023
     0.7424   0.8142   0.8558   0.8963   0.9580   0.9684   1.0314   1.0814
     1.1074   1.3047   1.7422   1.7698   1.8365   1.9250   2.0526   3.8130
     3.8705   3.8927   3.9599   3.9749   4.0050   4.1300   4.1633   4.2151
     4.2722

          k =-0.0760-0.0839 0.0000 ( 17948 PWs)   bands (ev):

   -55.4791 -55.4782 -55.4693 -55.4689 -55.4016 -55.3418 -55.3189 -55.3147
   -55.2840 -55.2821 -55.2420 -55.2414 -55.0704 -54.7899 -54.4505 -54.4503
   -31.8498 -31.8480 -31.7927 -31.7920 -31.7829 -31.7747 -31.7737 -31.7585
   -31.6992 -31.6970 -31.6904 -31.6867 -31.6655 -31.6329 -31.6162 -31.6129
   -31.6046 -31.6006 -31.5985 -31.5977 -31.5951 -31.5824 -31.5801 -31.5475
   -31.5374 -31.5361 -31.5113 -31.4971 -31.4803 -31.4799 -31.4746 -31.4742
   -31.4574 -31.4570 -31.4567 -31.4529 -31.4037 -31.3380 -31.2361 -31.1259
   -31.0593 -31.0127 -30.7770 -30.7768 -30.6872 -30.6870 -30.6479 -30.6478
   -18.5817 -15.7053 -15.6730 -15.4347 -15.4288 -15.4189 -15.4042 -15.2625
   -15.2078 -15.1992 -15.1923 -15.1664 -15.1450 -15.0927 -15.0658 -15.0281
   -15.0223 -15.0168 -15.0140 -14.9520 -14.9461 -14.9249 -14.9175 -14.8036
   -14.8008 -14.7996 -14.7279 -14.6586 -14.5231 -14.2630 -13.6527 -12.9557
   -12.9554  -8.4849  -6.3866  -3.9224  -2.9989  -2.9613  -2.8162  -2.7208
    -2.6756  -2.6617  -2.6446  -2.5665  -2.4133  -2.4057  -2.3897  -2.3728
    -2.3582  -2.3210  -2.3144  -2.3019  -2.2895  -2.2821  -2.2638  -2.2279
    -2.1892  -2.1615  -2.1537  -2.1442  -2.1195  -2.1073  -2.0813  -2.0764
    -2.0420  -2.0339  -2.0174  -1.9935  -1.7382  -1.7136  -1.6948  -1.6244
    -1.6172  -1.5848  -1.5763  -1.5567  -1.5435  -1.4912  -1.3918  -1.2257
    -1.1924  -1.1843  -1.1651  -1.1000  -1.0790  -0.9297  -0.9026  -0.8834
    -0.8458  -0.7964  -0.7643  -0.7253  -0.6894  -0.6537  -0.5915  -0.5837
    -0.5036  -0.4548  -0.4538  -0.4284  -0.4192  -0.3576  -0.2784  -0.2600
    -0.2489  -0.2074  -0.1942  -0.1131  -0.0905   0.0074   0.0218   0.0878
     0.1205   0.1908   0.3864   0.4895   0.5487   0.5741   0.6275   0.7228
     0.7765   0.7908   0.8248   0.8300   0.8910   0.9323   1.0466   1.0536
     1.1213   1.2234   1.7472   1.9188   1.9196   1.9902   1.9904   3.9085
     3.9150   3.9660   3.9947   4.1473   4.1519   4.1747   4.1758   4.2961
     4.3142

     the Fermi energy is     3.6404 ev

!    total energy              =   -2955.21566222 Ry
     estimated scf accuracy    <       0.00000006 Ry
     smearing contrib. (-TS)   =      -0.02205226 Ry
     internal energy E=F+TS    =   -2955.19360997 Ry

     The total energy is F=E-TS. E is the sum of the following terms:
     one-electron contribution =  -23379.47304023 Ry
     hartree contribution      =   11781.63764329 Ry
     xc contribution           =    -489.67952767 Ry
     ewald contribution        =    9132.31798725 Ry
     electric field correction =       0.00332740 Ry

     convergence has been achieved in  62 iterations

     Forces acting on atoms (cartesian axes, Ry/au):

     atom    1 type  1   force =     0.00012965   -0.00019874    0.09687166
     atom    2 type  1   force =     0.00003735   -0.00046171   -0.17496676
     atom    3 type  2   force =     0.00013015    0.00001697   -0.02538849
     atom    4 type  2   force =    -0.00003083   -0.00126856    0.05224084
     atom    5 type  2   force =    -0.01215613    0.00000355    0.00288422
     atom    6 type  2   force =     0.01360402    0.00054597    0.00225792
     atom    7 type  1   force =     0.00059620    0.00032212   -0.01254546
     atom    8 type  1   force =     0.00044898    0.00706825    0.03083383
     atom    9 type  2   force =     0.00032373    0.00016401    0.00044131
     atom   10 type  2   force =    -0.00271510    0.00207513   -0.01689913
     atom   11 type  2   force =     0.00016760   -0.00036167    0.00013448
     atom   12 type  2   force =     0.00007491   -0.00035849    0.00023504
     atom   13 type  1   force =    -0.00019418    0.00036094   -0.00002723
     atom   14 type  1   force =    -0.00012359    0.00033064   -0.00035198
     atom   15 type  2   force =    -0.00002938   -0.00031386   -0.00003651
     atom   16 type  2   force =     0.00014593    0.00037990    0.00128995
     atom   17 type  2   force =    -0.00026528   -0.00035918    0.00028759
     atom   18 type  2   force =     0.00037515   -0.00034365    0.00002095
     atom   19 type  1   force =     0.00015517   -0.00044129    0.00046059
     atom   20 type  1   force =    -0.00036994    0.00021024    0.00033838
     atom   21 type  2   force =     0.00006028   -0.00002088    0.10303052
     atom   22 type  2   force =     0.00016734   -0.00082170    0.00027331
     atom   23 type  2   force =    -0.07165228   -0.00016121   -0.02782610
     atom   24 type  2   force =     0.07155004    0.00033848   -0.02788363
     atom   25 type  1   force =     0.00008534   -0.00016820    0.09666131
     atom   26 type  1   force =     0.00009506   -0.00024430   -0.17508549
     atom   27 type  2   force =     0.00011955   -0.00011043   -0.02444927
     atom   28 type  2   force =     0.00003979   -0.00101398    0.05207521
     atom   29 type  2   force =    -0.01235012    0.00066794    0.00265292
     atom   30 type  2   force =     0.01366916    0.00105556    0.00203397
     atom   31 type  1   force =     0.00049120    0.00307030   -0.01335762
     atom   32 type  1   force =     0.00031195   -0.00927397    0.03126135
     atom   33 type  2   force =    -0.00012632    0.00015935    0.00077903
     atom   34 type  2   force =    -0.00202574    0.00178978   -0.02552305
     atom   35 type  2   force =     0.00025611    0.00019000    0.00036347
     atom   36 type  2   force =     0.00022723    0.00010199    0.00034940
     atom   37 type  1   force =    -0.00025875   -0.00064080    0.00014738
     atom   38 type  1   force =    -0.00008574    0.00003264   -0.00021531
     atom   39 type  2   force =     0.00004808   -0.00079871    0.00030070
     atom   40 type  2   force =     0.00024588    0.00003226   -0.00010162
     atom   41 type  2   force =    -0.00037579    0.00008686   -0.00003232
     atom   42 type  2   force =     0.00037944   -0.00010976   -0.00032451
     atom   43 type  1   force =    -0.00036675    0.00054422   -0.00070118
     atom   44 type  1   force =    -0.00041552   -0.00056296    0.00120343
     atom   45 type  2   force =     0.00003940   -0.00004702    0.10306755
     atom   46 type  2   force =    -0.07164393   -0.00005405   -0.02782143
     atom   47 type  2   force =     0.07156397    0.00036405   -0.02789310
     atom   48 type  3   force =     0.00039182   -0.00050193    0.00020539
     atom   49 type  4   force =     0.00079755   -0.00099118   -0.00017180
     atom   50 type  5   force =    -0.00133642    0.00083447    0.00274963
     atom   51 type  3   force =    -0.00058780   -0.00033553    0.00040613
     atom   52 type  3   force =    -0.00021425    0.00002377   -0.00059787
     atom   53 type  3   force =     0.00110542   -0.00074325   -0.00221507
     atom   54 type  2   force =    -0.00067648   -0.00006328   -0.00024678
     atom   55 type  3   force =    -0.00057802   -0.00001788   -0.00044513
     atom   56 type  3   force =     0.00074488    0.00001880   -0.00075058

     Total force =     0.368280     Total SCF correction =     0.000633
  @ DRIVER MODE: Message from server: STATUS
  @ DRIVER MODE: Message from server: GETFORCE
  @ DRIVER MODE: Returning v,forces,stress,ensemble 

     Writing output data file ./calc.save/
  @ DRIVER MODE: Message from server: EXIT
  @ DRIVE MODE: Exiting  
 
     init_run     :     10.70s CPU     10.93s WALL (       1 calls)
     electrons    :   1000.66s CPU   1014.66s WALL (       1 calls)
     forces       :      2.33s CPU      2.41s WALL (       1 calls)

     Called by init_run:
     wfcinit      :      4.73s CPU      4.81s WALL (       1 calls)
     potinit      :      5.30s CPU      5.36s WALL (       1 calls)
     hinit0       :      0.29s CPU      0.31s WALL (       1 calls)

     Called by electrons:
     c_bands      :    856.63s CPU    862.49s WALL (      62 calls)
     sum_band     :     97.74s CPU    101.04s WALL (      62 calls)
     v_of_rho     :     35.40s CPU     37.15s WALL (      63 calls)
     newd         :     14.36s CPU     17.35s WALL (      63 calls)
     mix_rho      :      1.25s CPU      1.33s WALL (      62 calls)
     vdW_kernel   :      4.54s CPU      4.55s WALL (       1 calls)

     Called by c_bands:
     init_us_2    :      5.75s CPU      5.79s WALL (    1260 calls)
     cegterg      :    839.89s CPU    845.50s WALL (     636 calls)

     Called by *egterg:
     cdiaghg      :    135.50s CPU    136.09s WALL (    6493 calls)
     h_psi        :    448.66s CPU    452.60s WALL (    6504 calls)
     s_psi        :     59.13s CPU     59.32s WALL (    6504 calls)
     g_psi        :      1.66s CPU      1.68s WALL (    5858 calls)

     Called by h_psi:
     h_psi:calbec :     55.90s CPU     56.18s WALL (    6504 calls)
     vloc_psi     :    330.51s CPU    333.64s WALL (    6504 calls)
     add_vuspsi   :     59.33s CPU     59.63s WALL (    6504 calls)

     General routines
     calbec       :     73.41s CPU     73.75s WALL (    7164 calls)
     fft          :     17.52s CPU     17.65s WALL (    3969 calls)
     ffts         :      0.12s CPU      0.12s WALL (     125 calls)
     fftw         :    368.33s CPU    371.81s WALL (  881202 calls)
     interpolate  :      0.36s CPU      0.36s WALL (      63 calls)
     davcio       :      0.01s CPU      0.21s WALL (      10 calls)
 
     Parallel routines
 
     PWSCF        :  16m53.94s CPU  17m 8.67s WALL

 
   This run was terminated on:   3:15:57  16Sep2021            

=------------------------------------------------------------------------------=
   JOB DONE.
=------------------------------------------------------------------------------=
