
     Program PWSCF v.6.7GPU starts on 27Sep2021 at  5:43: 8 

     This program is part of the open-source Quantum ESPRESSO suite
     for quantum simulation of materials; please cite
         "P. Giannozzi et al., J. Phys.:Condens. Matter 21 395502 (2009);
         "P. Giannozzi et al., J. Phys.:Condens. Matter 29 465901 (2017);
         "P. Giannozzi et al., J. Chem. Phys. 152 154105 (2020);
          URL http://www.quantum-espresso.org", 
     in publications or presentations arising from this work. More details at
     http://www.quantum-espresso.org/quote

     Parallel version (MPI), running on     8 processors

     MPI processes distributed on     1 nodes
     R & G space division:  proc/nbgrp/npool/nimage =       8
     Reading input from /storage/home/hcoda1/3/ntian30/research/carbon/CxH_vib/CH_calc/ads_slab/CHONNHH_a/out_0031/pw.inp
Warning: card &CELL ignored
Warning: card   CELL_DYNAMICS='IPI', ignored
Warning: card / ignored

     Current dimensions of program PWSCF are:
     Max number of different atomic species (ntypx) = 10
     Max number of k-points (npk) =  40000
     Max angular momentum in pseudopotentials (lmaxx) =  3
     Presently no symmetry can be used with electric field

     Message from routine cell_base_init:
     DEPRECATED: use true lattice parameter, not A to a.u. conversion factor

     **************************************************************************
     Initializing libbeef V0.1.2 with the BEEF-vdW functional.
     Citation: Wellendorff et al., PRB 85, 235149 (2012).
     **************************************************************************


     IMPORTANT: XC functional enforced from input :
     Exchange-correlation= BEEF-VDW
                           (   1   4  43  14   2   0   0)
     Any further DFT definition will be discarded
     Please, verify this is what you really want


     Subspace diagonalization in iterative solution of the eigenvalue problem:
     one sub-group per band group will be used
     scalapack distributed-memory algorithm (size of sub-group:  2*  2 procs)

  @ DRIVER MODE: Connecting to 
 qe_1139763_2985878.sched-torque.pace.gatech.eduyyepkohr_scratch
  using UNIX socket
  @ DRIVER MODE: Message from server: STATUS
  @ DRIVER MODE: Message from server: INIT
  @ DRIVER MODE: Receiving replica           0          -1
  @ DRIVER MODE: Receiving encoded integer          25
  @ DRIVER MODE:  SCF:  T  FORCE:  T  STRESS:  F  VC:  F  ENSEMBLE:  F
  @ DRIVER MODE:  SCF:  T  FORCE:  T  STRESS:  F  VC:  F  ENSEMBLE:  F
 
     Parallelization info
     --------------------
     sticks:   dense  smooth     PW     G-vecs:    dense   smooth      PW
     Min         409     164     47                70857    17926    2743
     Max         411     165     48                70858    17931    2751
     Sum        3275    1317    379               566857   143421   21985
 
     Using Slab Decomposition
 


     bravais-lattice index     =            0
     lattice parameter (alat)  =       1.8897  a.u.
     unit-cell volume          =    6658.9804 (a.u.)^3
     number of atoms/cell      =           54
     number of atomic types    =            5
     number of electrons       =       401.00
     number of Kohn-Sham states=          210
     kinetic-energy cutoff     =      29.3995  Ry
     charge density cutoff     =     293.9946  Ry
     scf convergence threshold =      7.3E-08
     mixing beta               =       0.0500
     number of iterations used =            8  plain     mixing
     Exchange-correlation= BEEF-VDW
                           (   1   4  43  14   2   0   0)

     celldm(1)=   1.889726  celldm(2)=   0.000000  celldm(3)=   0.000000
     celldm(4)=   0.000000  celldm(5)=   0.000000  celldm(6)=   0.000000

     crystal axes: (cart. coord. in units of alat)
               a(1) = (   6.579727   0.000000   0.000000 )  
               a(2) = (  -0.000775   5.961596   0.000000 )  
               a(3) = (   0.000000   0.000000  25.155947 )  

     reciprocal axes: (cart. coord. in units 2 pi/alat)
               b(1) = (  0.151982  0.000020  0.000000 )  
               b(2) = (  0.000000  0.167740  0.000000 )  
               b(3) = (  0.000000  0.000000  0.039752 )  


     PseudoPot. # 1 for O  read from file:
     /storage/coda1/p-amedford6/0/shared/rich_project_chbe-medford/medford-share/data/pseudos_module/espresso/nninc/pbe/van/O.UPF
     MD5 check sum: 78c19812648e8988a0fe644b0f25305e
     Pseudo is Ultrasoft, Zval =  6.0
     Generated by new atomic code, or converted to UPF format
     Using radial grid of  737 points,  4 beta functions with: 
                l(1) =   0
                l(2) =   0
                l(3) =   1
                l(4) =   1
     Q(r) pseudized with  8 coefficients,  rinner =    0.800   0.800   0.800


     PseudoPot. # 2 for Ti read from file:
     /storage/coda1/p-amedford6/0/shared/rich_project_chbe-medford/medford-share/data/pseudos_module/espresso/nninc/pbe/van/Ti.UPF
     MD5 check sum: 8e4df49b7f0d34bbd5052bf3f5ea0213
     Pseudo is Ultrasoft, Zval = 12.0
     Generated by new atomic code, or converted to UPF format
     Using radial grid of  851 points,  6 beta functions with: 
                l(1) =   0
                l(2) =   0
                l(3) =   1
                l(4) =   1
                l(5) =   2
                l(6) =   2
     Q(r) pseudized with  8 coefficients,  rinner =    1.000   1.000   1.000
                                                       1.000   1.000

     PseudoPot. # 3 for N  read from file:
     /storage/coda1/p-amedford6/0/shared/rich_project_chbe-medford/medford-share/data/pseudos_module/espresso/nninc/pbe/van/N.UPF
     MD5 check sum: 90d10febe142ad51ac9d5be1deb811c4
     Pseudo is Ultrasoft, Zval =  5.0
     Generated by new atomic code, or converted to UPF format
     Using radial grid of  729 points,  4 beta functions with: 
                l(1) =   0
                l(2) =   0
                l(3) =   1
                l(4) =   1
     Q(r) pseudized with  8 coefficients,  rinner =    0.800   0.800   0.800


     PseudoPot. # 4 for H  read from file:
     /storage/coda1/p-amedford6/0/shared/rich_project_chbe-medford/medford-share/data/pseudos_module/espresso/nninc/pbe/van/H.UPF
     MD5 check sum: b5ee9d7bfd3a09ee7748110bda690ff7
     Pseudo is Ultrasoft, Zval =  1.0
     Generated by new atomic code, or converted to UPF format
     Using radial grid of  615 points,  1 beta functions with: 
                l(1) =   0
     Q(r) pseudized with  8 coefficients,  rinner =    0.800

     PseudoPot. # 5 for C  read from file:
     /storage/coda1/p-amedford6/0/shared/rich_project_chbe-medford/medford-share/data/pseudos_module/espresso/nninc/pbe/van/C.UPF
     MD5 check sum: 1a69bf6b8db32088f5b2163dbdb77a27
     Pseudo is Ultrasoft, Zval =  4.0
     Generated by new atomic code, or converted to UPF format
     Using radial grid of  721 points,  4 beta functions with: 
                l(1) =   0
                l(2) =   0
                l(3) =   1
                l(4) =   1
     Q(r) pseudized with  8 coefficients,  rinner =    0.800   0.800   0.800


     atomic species   valence    mass     pseudopotential
        O1             6.00    15.99900     O ( 1.00)
        Ti1           12.00    47.86700     Ti( 1.00)
        N1             5.00    14.00700     N ( 1.00)
        H1             1.00     1.00800     H ( 1.00)
        C1             4.00    12.01100     C ( 1.00)

     No symmetry found



   Cartesian axes

     site n.     atom                  positions (alat units)
         1           O1  tau(   1) = (   3.2904802   0.0005063   4.7018136  )
         2           O1  tau(   2) = (   3.2900926   2.9813045   4.7018136  )
         3           Ti1 tau(   3) = (   0.0004258   2.9801865   6.0000000  )
         4           Ti1 tau(   4) = (   0.0000382   5.9609847   6.0000000  )
         5           Ti1 tau(   5) = (   3.2906075   1.4906267   6.0002472  )
         6           Ti1 tau(   6) = (   3.2902200   4.4714249   6.0002472  )
         7           O1  tau(   7) = (   1.3043587   1.4918075   6.0039043  )
         8           O1  tau(   8) = (   1.3039711   4.4726057   6.0039043  )
         9           O1  tau(   9) = (   5.2767064   1.4903225   6.0039473  )
        10           O1  tau(  10) = (   5.2763189   4.4711207   6.0039473  )
        11           O1  tau(  11) = (   3.2906025   0.0005020   7.3038282  )
        12           O1  tau(  12) = (   3.2902150   2.9813002   7.3038282  )
        13           O1  tau(  13) = (   0.0006271   0.0005054   7.9858123  )
        14           O1  tau(  14) = (   0.0002396   2.9813036   7.9858123  )
        15           Ti1 tau(  15) = (   3.2907910   2.8959150   9.1758416  )
        16           Ti1 tau(  16) = (   3.2891106   5.8743827   9.1763621  )
        17           Ti1 tau(  17) = (   0.0015273   1.4827037   9.2680791  )
        18           Ti1 tau(  18) = (   0.0006254   4.4649316   9.2693709  )
        19           O1  tau(  19) = (   4.5942328   1.4918067   9.2879030  )
        20           O1  tau(  20) = (   4.5938453   4.4726049   9.2879030  )
        21           O1  tau(  21) = (   1.9868534   1.4903216   9.2879459  )
        22           O1  tau(  22) = (   1.9864658   4.4711199   9.2879459  )
        23           O1  tau(  23) = (   0.0116148   5.9584955  10.6183126  )
        24           O1  tau(  24) = (   0.0092240   2.9805883  10.6323155  )
        25           O1  tau(  25) = (   3.2871924   0.0092975  11.3134720  )
        26           O1  tau(  26) = (   3.2854473   2.9899114  11.3140924  )
        27           Ti1 tau(  27) = (   3.1645864   1.5001695  12.4631195  )
        28           Ti1 tau(  28) = (   3.1630299   4.4806833  12.4603605  )
        29           Ti1 tau(  29) = (   6.4825016   0.0268845  12.6761456  )
        30           O1  tau(  30) = (   5.2927839   4.4803479  12.6175172  )
        31           O1  tau(  31) = (   5.2917030   1.4958386  12.6158568  )
        32           O1  tau(  32) = (   1.3125566   4.4752595  12.6102184  )
        33           O1  tau(  33) = (   1.3147444   1.4884423  12.6074978  )
        34           Ti1 tau(  34) = (   6.4947133   3.0086745  12.6771613  )
        35           O1  tau(  35) = (   3.2927928   3.0034821  13.8909844  )
        36           O1  tau(  36) = (   3.2984538   0.0179784  13.8891953  )
        37           O1  tau(  37) = (   6.5782462   5.9542408  14.6113871  )
        38           O1  tau(  38) = (   0.0063130   2.9565225  14.5996091  )
        39           Ti1 tau(  39) = (   3.2946075   3.0248150  15.6873259  )
        40           Ti1 tau(  40) = (   3.3096140   0.0407809  15.6830396  )
        41           Ti1 tau(  41) = (   0.0052144   1.6347595  16.0230390  )
        42           O1  tau(  42) = (   2.0681981   1.5365669  16.0503333  )
        43           O1  tau(  43) = (   4.5323643   4.5197138  16.0585785  )
        44           O1  tau(  44) = (   2.0637162   4.5219542  16.0519313  )
        45           O1  tau(  45) = (   4.5361195   1.5375365  16.0414673  )
        46           Ti1 tau(  46) = (   0.0121038   4.6470822  16.0779317  )
        47           O1  tau(  47) = (   0.0166110   0.0790660  17.1873875  )
        48           N1  tau(  48) = (   3.1258632   2.7928715  18.8711073  )
        49           H1  tau(  49) = (   5.2135379   2.8994874  18.6379610  )
        50           N1  tau(  50) = (   1.8800116   2.5028027  19.3023652  )
        51           H1  tau(  51) = (   1.1979237   2.7808332  18.5810318  )
        52           C1  tau(  52) = (   4.2825308   2.7641870  19.1985473  )
        53           H1  tau(  53) = (   1.7850530   1.5048916  19.5010168  )
        54           O1  tau(  54) = (   0.0080391   3.0388675  17.2016835  )

     number of k points=    10  Fermi-Dirac smearing, width (Ry)=  0.0073
                       cart. coord. in units 2pi/alat
        k(    1) = (   0.0000000   0.0000000   0.0000000), wk =   0.1250000
        k(    2) = (   0.0000000   0.0419351   0.0000000), wk =   0.2500000
        k(    3) = (   0.0000000  -0.0838702   0.0000000), wk =   0.1250000
        k(    4) = (   0.0379955   0.0000049   0.0000000), wk =   0.2500000
        k(    5) = (   0.0379955   0.0419400   0.0000000), wk =   0.2500000
        k(    6) = (   0.0379955  -0.0838652   0.0000000), wk =   0.2500000
        k(    7) = (   0.0379955  -0.0419301   0.0000000), wk =   0.2500000
        k(    8) = (  -0.0759910  -0.0000099   0.0000000), wk =   0.1250000
        k(    9) = (  -0.0759910   0.0419252   0.0000000), wk =   0.2500000
        k(   10) = (  -0.0759910  -0.0838800   0.0000000), wk =   0.1250000

     Dense  grid:   566857 G-vectors     FFT dimensions: (  72,  64, 270)

     Smooth grid:   143421 G-vectors     FFT dimensions: (  45,  40, 180)

     Estimated max dynamical RAM per process >     457.22 MB

     Estimated total dynamical RAM >       3.57 GB
     Cannot read rho : file not found

     Initial potential from superposition of free atoms

     starting charge  384.99916, renormalised to  401.00000

     negative rho (up, down):  1.609E-02 0.000E+00


     %%%%%%%%%%%%%%%%%%%%%%%%%%%%%%%%%%%%%%%%%%%%%%%%%%%%%%%%%%%%%%%%%%%%%%%%
     %                                                                      %
     % You are using vdW-DF, which was implemented by the Thonhauser group. %
     % Please cite the following two papers that made this development      %
     % possible and the two reviews that describe the various versions:     %
     %                                                                      %
     %   T. Thonhauser et al., PRL 115, 136402 (2015).                      %
     %   T. Thonhauser et al., PRB 76, 125112 (2007).                       %
     %   K. Berland et al., Rep. Prog. Phys. 78, 066501 (2015).             %
     %   D.C. Langreth et al., J. Phys.: Condens. Matter 21, 084203 (2009). %
     %                                                                      %
     %                                                                      %
     % If you are calculating the stress with vdW-DF, please also cite:     %
     %                                                                      %
     %   R. Sabatini et al., J. Phys.: Condens. Matter 24, 424209 (2012).   %
     %                                                                      %
     %%%%%%%%%%%%%%%%%%%%%%%%%%%%%%%%%%%%%%%%%%%%%%%%%%%%%%%%%%%%%%%%%%%%%%%%


 
     Adding external electric field

     Computed dipole along edir(3) : 
        Dipole              -11.7434 Ry au,        -29.8489 Debye
        Dipole field         -0.0222 Ry au, 
 
        Potential amp.        2.0543 Ry
        Total length         46.3494 bohr
 
     Starting wfcs are  303 atomic wfcs
  @ DRIVER MODE: Message from server: STATUS
  @ DRIVER MODE: Message from server: POSDATA
  @ DRIVER MODE: Reading and sharing cell 
  @ DRIVER MODE: Reading and sharing positions 
  @ DRIVER MODE: Received positions 

     total cpu time spent up to now is       14.1 secs

     Self-consistent Calculation

     iteration #  1     ecut=    29.40 Ry     beta= 0.05
     Davidson diagonalization with overlap
     c_bands:  5 eigenvalues not converged
     c_bands:  1 eigenvalues not converged
     c_bands:  2 eigenvalues not converged
     c_bands:  4 eigenvalues not converged
     c_bands:  3 eigenvalues not converged
     c_bands:  1 eigenvalues not converged
     c_bands:  5 eigenvalues not converged
     ethr =  1.00E-05,  avg # of iterations = 22.9

     negative rho (up, down):  1.017E-02 0.000E+00
 
     Adding external electric field

     Computed dipole along edir(3) : 
        Dipole               50.2351 Ry au,        127.6850 Debye
        Dipole field          0.0948 Ry au, 
 
        Potential amp.       -8.7879 Ry
        Total length         46.3494 bohr
 

     total cpu time spent up to now is       69.2 secs

     total energy              =   -2426.93603758 Ry
     estimated scf accuracy    <    6126.63043474 Ry

     iteration #  2     ecut=    29.40 Ry     beta= 0.05
     Davidson diagonalization with overlap
     ethr =  1.00E-02,  avg # of iterations = 23.8

     negative rho (up, down):  1.549E-03 0.000E+00
 
     Adding external electric field

     Computed dipole along edir(3) : 
        Dipole               -0.9795 Ry au,         -2.4895 Debye
        Dipole field         -0.0018 Ry au, 
 
        Potential amp.        0.1713 Ry
        Total length         46.3494 bohr
 

     total cpu time spent up to now is      166.5 secs

     total energy              =   -2465.19508512 Ry
     estimated scf accuracy    <   71001.93318024 Ry

     iteration #  3     ecut=    29.40 Ry     beta= 0.05
     Davidson diagonalization with overlap
     ethr =  1.00E-02,  avg # of iterations = 15.9

     negative rho (up, down):  1.611E-03 0.000E+00
 
     Adding external electric field

     Computed dipole along edir(3) : 
        Dipole               -3.6632 Ry au,         -9.3110 Debye
        Dipole field         -0.0069 Ry au, 
 
        Potential amp.        0.6408 Ry
        Total length         46.3494 bohr
 

     total cpu time spent up to now is      227.1 secs

     total energy              =   -2960.25418016 Ry
     estimated scf accuracy    <    5223.61873598 Ry

     iteration #  4     ecut=    29.40 Ry     beta= 0.05
     Davidson diagonalization with overlap
     ethr =  1.00E-02,  avg # of iterations = 10.7

     negative rho (up, down):  1.654E-03 0.000E+00
 
     Adding external electric field

     Computed dipole along edir(3) : 
        Dipole               -5.5968 Ry au,        -14.2256 Debye
        Dipole field         -0.0106 Ry au, 
 
        Potential amp.        0.9791 Ry
        Total length         46.3494 bohr
 

     total cpu time spent up to now is      250.4 secs

     total energy              =   -2955.96412747 Ry
     estimated scf accuracy    <    2125.39233633 Ry

     iteration #  5     ecut=    29.40 Ry     beta= 0.05
     Davidson diagonalization with overlap
     c_bands:  3 eigenvalues not converged
     ethr =  1.00E-02,  avg # of iterations = 12.6

     negative rho (up, down):  1.704E-03 0.000E+00
 
     Adding external electric field

     Computed dipole along edir(3) : 
        Dipole               -6.0597 Ry au,        -15.4023 Debye
        Dipole field         -0.0114 Ry au, 
 
        Potential amp.        1.0601 Ry
        Total length         46.3494 bohr
 

     total cpu time spent up to now is      272.2 secs

     total energy              =   -2962.13984501 Ry
     estimated scf accuracy    <     574.12827124 Ry

     iteration #  6     ecut=    29.40 Ry     beta= 0.05
     Davidson diagonalization with overlap
     ethr =  1.00E-02,  avg # of iterations =  5.6

     negative rho (up, down):  1.712E-03 0.000E+00
 
     Adding external electric field

     Computed dipole along edir(3) : 
        Dipole               -5.7857 Ry au,        -14.7058 Debye
        Dipole field         -0.0109 Ry au, 
 
        Potential amp.        1.0121 Ry
        Total length         46.3494 bohr
 

     total cpu time spent up to now is      288.5 secs

     total energy              =   -2969.45957130 Ry
     estimated scf accuracy    <     116.20264932 Ry

     iteration #  7     ecut=    29.40 Ry     beta= 0.05
     Davidson diagonalization with overlap
     ethr =  1.00E-02,  avg # of iterations =  2.3

     negative rho (up, down):  1.731E-03 0.000E+00
 
     Adding external electric field

     Computed dipole along edir(3) : 
        Dipole               -4.6260 Ry au,        -11.7582 Debye
        Dipole field         -0.0087 Ry au, 
 
        Potential amp.        0.8093 Ry
        Total length         46.3494 bohr
 

     total cpu time spent up to now is      302.1 secs

     total energy              =   -2972.59053164 Ry
     estimated scf accuracy    <      42.45871706 Ry

     iteration #  8     ecut=    29.40 Ry     beta= 0.05
     Davidson diagonalization with overlap
     ethr =  1.00E-02,  avg # of iterations =  2.2

     negative rho (up, down):  1.801E-03 0.000E+00
 
     Adding external electric field

     Computed dipole along edir(3) : 
        Dipole               -1.8011 Ry au,         -4.5779 Debye
        Dipole field         -0.0034 Ry au, 
 
        Potential amp.        0.3151 Ry
        Total length         46.3494 bohr
 

     total cpu time spent up to now is      315.2 secs

     total energy              =   -2973.12521439 Ry
     estimated scf accuracy    <      30.04729113 Ry

     iteration #  9     ecut=    29.40 Ry     beta= 0.05
     Davidson diagonalization with overlap
     ethr =  7.49E-03,  avg # of iterations =  1.1

     negative rho (up, down):  1.923E-03 0.000E+00
 
     Adding external electric field

     Computed dipole along edir(3) : 
        Dipole               -0.1938 Ry au,         -0.4925 Debye
        Dipole field         -0.0004 Ry au, 
 
        Potential amp.        0.0339 Ry
        Total length         46.3494 bohr
 

     total cpu time spent up to now is      327.7 secs

     total energy              =   -2977.91236443 Ry
     estimated scf accuracy    <     483.27114299 Ry

     iteration # 10     ecut=    29.40 Ry     beta= 0.05
     Davidson diagonalization with overlap
     ethr =  7.49E-03,  avg # of iterations =  3.5

     negative rho (up, down):  2.493E-03 0.000E+00
 
     Adding external electric field

     Computed dipole along edir(3) : 
        Dipole                2.4313 Ry au,          6.1799 Debye
        Dipole field          0.0046 Ry au, 
 
        Potential amp.       -0.4253 Ry
        Total length         46.3494 bohr
 

     total cpu time spent up to now is      341.4 secs

     total energy              =   -2982.03725032 Ry
     estimated scf accuracy    <     708.43736937 Ry

     iteration # 11     ecut=    29.40 Ry     beta= 0.05
     Davidson diagonalization with overlap
     c_bands:  1 eigenvalues not converged
     ethr =  7.49E-03,  avg # of iterations = 16.0

     negative rho (up, down):  2.539E-03 0.000E+00
 
     Adding external electric field

     Computed dipole along edir(3) : 
        Dipole                0.9290 Ry au,          2.3612 Debye
        Dipole field          0.0018 Ry au, 
 
        Potential amp.       -0.1625 Ry
        Total length         46.3494 bohr
 

     total cpu time spent up to now is      366.5 secs

     total energy              =   -2976.02980344 Ry
     estimated scf accuracy    <    2931.20289073 Ry

     iteration # 12     ecut=    29.40 Ry     beta= 0.05
     Davidson diagonalization with overlap
     ethr =  7.49E-03,  avg # of iterations =  2.0

     negative rho (up, down):  2.594E-03 0.000E+00
 
     Adding external electric field

     Computed dipole along edir(3) : 
        Dipole                1.1849 Ry au,          3.0116 Debye
        Dipole field          0.0022 Ry au, 
 
        Potential amp.       -0.2073 Ry
        Total length         46.3494 bohr
 

     total cpu time spent up to now is      380.0 secs

     total energy              =   -2978.95255434 Ry
     estimated scf accuracy    <    2034.76291267 Ry

     iteration # 13     ecut=    29.40 Ry     beta= 0.05
     Davidson diagonalization with overlap
     ethr =  7.49E-03,  avg # of iterations =  1.3

     negative rho (up, down):  2.563E-03 0.000E+00
 
     Adding external electric field

     Computed dipole along edir(3) : 
        Dipole                0.9207 Ry au,          2.3401 Debye
        Dipole field          0.0017 Ry au, 
 
        Potential amp.       -0.1611 Ry
        Total length         46.3494 bohr
 

     total cpu time spent up to now is      392.7 secs

     total energy              =   -2977.64369236 Ry
     estimated scf accuracy    <    2093.25624229 Ry

     iteration # 14     ecut=    29.40 Ry     beta= 0.05
     Davidson diagonalization with overlap
     ethr =  7.49E-03,  avg # of iterations =  1.0

     negative rho (up, down):  2.127E-03 0.000E+00
 
     Adding external electric field

     Computed dipole along edir(3) : 
        Dipole               -2.6791 Ry au,         -6.8097 Debye
        Dipole field         -0.0051 Ry au, 
 
        Potential amp.        0.4687 Ry
        Total length         46.3494 bohr
 

     total cpu time spent up to now is      405.2 secs

     total energy              =   -2957.70916745 Ry
     estimated scf accuracy    <    1934.31622536 Ry

     iteration # 15     ecut=    29.40 Ry     beta= 0.05
     Davidson diagonalization with overlap
     c_bands:  2 eigenvalues not converged
     c_bands:  2 eigenvalues not converged
     c_bands:  1 eigenvalues not converged
     c_bands:  1 eigenvalues not converged
     c_bands:  2 eigenvalues not converged
     ethr =  7.49E-03,  avg # of iterations = 17.4

     negative rho (up, down):  2.275E-03 0.000E+00
 
     Adding external electric field

     Computed dipole along edir(3) : 
        Dipole               -2.7620 Ry au,         -7.0204 Debye
        Dipole field         -0.0052 Ry au, 
 
        Potential amp.        0.4832 Ry
        Total length         46.3494 bohr
 

     total cpu time spent up to now is      429.9 secs

     total energy              =   -2969.02179608 Ry
     estimated scf accuracy    <      55.03156049 Ry

     iteration # 16     ecut=    29.40 Ry     beta= 0.05
     Davidson diagonalization with overlap
     ethr =  7.49E-03,  avg # of iterations =  4.0

     negative rho (up, down):  2.370E-03 0.000E+00
 
     Adding external electric field

     Computed dipole along edir(3) : 
        Dipole               -2.6468 Ry au,         -6.7276 Debye
        Dipole field         -0.0050 Ry au, 
 
        Potential amp.        0.4630 Ry
        Total length         46.3494 bohr
 

     total cpu time spent up to now is      443.9 secs

     total energy              =   -2970.02762673 Ry
     estimated scf accuracy    <      22.13626958 Ry

     iteration # 17     ecut=    29.40 Ry     beta= 0.05
     Davidson diagonalization with overlap
     c_bands:  2 eigenvalues not converged
     ethr =  5.52E-03,  avg # of iterations =  4.1

     negative rho (up, down):  2.646E-03 0.000E+00
 
     Adding external electric field

     Computed dipole along edir(3) : 
        Dipole               -1.7580 Ry au,         -4.4683 Debye
        Dipole field         -0.0033 Ry au, 
 
        Potential amp.        0.3075 Ry
        Total length         46.3494 bohr
 

     total cpu time spent up to now is      458.0 secs

     total energy              =   -2970.44694716 Ry
     estimated scf accuracy    <       6.85377931 Ry

     iteration # 18     ecut=    29.40 Ry     beta= 0.05
     Davidson diagonalization with overlap
     c_bands:  5 eigenvalues not converged
     c_bands:  5 eigenvalues not converged
     c_bands:  3 eigenvalues not converged
     c_bands:  5 eigenvalues not converged
     c_bands:  3 eigenvalues not converged
     c_bands:  3 eigenvalues not converged
     ethr =  1.71E-03,  avg # of iterations = 16.4

     negative rho (up, down):  2.604E-03 0.000E+00
 
     Adding external electric field

     Computed dipole along edir(3) : 
        Dipole               -1.5643 Ry au,         -3.9762 Debye
        Dipole field         -0.0030 Ry au, 
 
        Potential amp.        0.2737 Ry
        Total length         46.3494 bohr
 

     total cpu time spent up to now is      479.3 secs

     total energy              =   -2971.61607973 Ry
     estimated scf accuracy    <       2.23695924 Ry

     iteration # 19     ecut=    29.40 Ry     beta= 0.05
     Davidson diagonalization with overlap
     ethr =  5.58E-04,  avg # of iterations =  3.3

     negative rho (up, down):  2.551E-03 0.000E+00
 
     Adding external electric field

     Computed dipole along edir(3) : 
        Dipole               -1.6741 Ry au,         -4.2552 Debye
        Dipole field         -0.0032 Ry au, 
 
        Potential amp.        0.2929 Ry
        Total length         46.3494 bohr
 

     total cpu time spent up to now is      493.1 secs

     total energy              =   -2971.67901182 Ry
     estimated scf accuracy    <       1.70816515 Ry

     iteration # 20     ecut=    29.40 Ry     beta= 0.05
     Davidson diagonalization with overlap
     ethr =  4.26E-04,  avg # of iterations =  1.2

     negative rho (up, down):  2.487E-03 0.000E+00
 
     Adding external electric field

     Computed dipole along edir(3) : 
        Dipole               -1.6304 Ry au,         -4.1441 Debye
        Dipole field         -0.0031 Ry au, 
 
        Potential amp.        0.2852 Ry
        Total length         46.3494 bohr
 

     total cpu time spent up to now is      505.7 secs

     total energy              =   -2971.66082302 Ry
     estimated scf accuracy    <       1.52806576 Ry

     iteration # 21     ecut=    29.40 Ry     beta= 0.05
     Davidson diagonalization with overlap
     ethr =  3.81E-04,  avg # of iterations =  4.7

     negative rho (up, down):  2.701E-03 0.000E+00
 
     Adding external electric field

     Computed dipole along edir(3) : 
        Dipole               -0.9782 Ry au,         -2.4863 Debye
        Dipole field         -0.0018 Ry au, 
 
        Potential amp.        0.1711 Ry
        Total length         46.3494 bohr
 

     total cpu time spent up to now is      520.2 secs

     total energy              =   -2971.52823338 Ry
     estimated scf accuracy    <       1.44295515 Ry

     iteration # 22     ecut=    29.40 Ry     beta= 0.05
     Davidson diagonalization with overlap
     ethr =  3.60E-04,  avg # of iterations = 10.0

     negative rho (up, down):  3.715E-03 0.000E+00
 
     Adding external electric field

     Computed dipole along edir(3) : 
        Dipole                0.8585 Ry au,          2.1822 Debye
        Dipole field          0.0016 Ry au, 
 
        Potential amp.       -0.1502 Ry
        Total length         46.3494 bohr
 

     total cpu time spent up to now is      536.8 secs

     total energy              =   -2971.34628449 Ry
     estimated scf accuracy    <       1.21503689 Ry

     iteration # 23     ecut=    29.40 Ry     beta= 0.05
     Davidson diagonalization with overlap
     c_bands:  1 eigenvalues not converged
     ethr =  3.03E-04,  avg # of iterations = 15.8

     negative rho (up, down):  3.824E-03 0.000E+00
 
     Adding external electric field

     Computed dipole along edir(3) : 
        Dipole                1.0028 Ry au,          2.5487 Debye
        Dipole field          0.0019 Ry au, 
 
        Potential amp.       -0.1754 Ry
        Total length         46.3494 bohr
 

     total cpu time spent up to now is      562.8 secs

     total energy              =   -2972.36905051 Ry
     estimated scf accuracy    <      58.12455567 Ry

     iteration # 24     ecut=    29.40 Ry     beta= 0.05
     Davidson diagonalization with overlap
     c_bands:  2 eigenvalues not converged
     ethr =  3.03E-04,  avg # of iterations =  9.9

     negative rho (up, down):  3.571E-03 0.000E+00
 
     Adding external electric field

     Computed dipole along edir(3) : 
        Dipole                0.1854 Ry au,          0.4713 Debye
        Dipole field          0.0003 Ry au, 
 
        Potential amp.       -0.0324 Ry
        Total length         46.3494 bohr
 

     total cpu time spent up to now is      579.3 secs

     total energy              =   -2971.22124685 Ry
     estimated scf accuracy    <      57.02163543 Ry

     iteration # 25     ecut=    29.40 Ry     beta= 0.05
     Davidson diagonalization with overlap
     c_bands:  1 eigenvalues not converged
     c_bands:  1 eigenvalues not converged
     c_bands:  1 eigenvalues not converged
     ethr =  3.03E-04,  avg # of iterations = 16.5

     negative rho (up, down):  3.331E-03 0.000E+00
 
     Adding external electric field

     Computed dipole along edir(3) : 
        Dipole               -0.2908 Ry au,         -0.7392 Debye
        Dipole field         -0.0005 Ry au, 
 
        Potential amp.        0.0509 Ry
        Total length         46.3494 bohr
 

     total cpu time spent up to now is      600.5 secs

     total energy              =   -2971.40794430 Ry
     estimated scf accuracy    <       5.55758109 Ry

     iteration # 26     ecut=    29.40 Ry     beta= 0.05
     Davidson diagonalization with overlap
     ethr =  3.03E-04,  avg # of iterations =  2.9

     negative rho (up, down):  3.614E-03 0.000E+00
 
     Adding external electric field

     Computed dipole along edir(3) : 
        Dipole                0.1015 Ry au,          0.2581 Debye
        Dipole field          0.0002 Ry au, 
 
        Potential amp.       -0.0178 Ry
        Total length         46.3494 bohr
 

     total cpu time spent up to now is      614.1 secs

     total energy              =   -2971.57643914 Ry
     estimated scf accuracy    <       1.68151468 Ry

     iteration # 27     ecut=    29.40 Ry     beta= 0.05
     Davidson diagonalization with overlap
     ethr =  3.03E-04,  avg # of iterations =  1.2

     negative rho (up, down):  3.776E-03 0.000E+00
 
     Adding external electric field

     Computed dipole along edir(3) : 
        Dipole                0.0566 Ry au,          0.1439 Debye
        Dipole field          0.0001 Ry au, 
 
        Potential amp.       -0.0099 Ry
        Total length         46.3494 bohr
 

     total cpu time spent up to now is      626.7 secs

     total energy              =   -2971.26070239 Ry
     estimated scf accuracy    <       2.08807276 Ry

     iteration # 28     ecut=    29.40 Ry     beta= 0.05
     Davidson diagonalization with overlap
     ethr =  3.03E-04,  avg # of iterations =  8.0

     negative rho (up, down):  4.165E-03 0.000E+00
 
     Adding external electric field

     Computed dipole along edir(3) : 
        Dipole                0.1856 Ry au,          0.4718 Debye
        Dipole field          0.0004 Ry au, 
 
        Potential amp.       -0.0325 Ry
        Total length         46.3494 bohr
 

     total cpu time spent up to now is      647.7 secs

     total energy              =   -2971.53877129 Ry
     estimated scf accuracy    <       1.97687695 Ry

     iteration # 29     ecut=    29.40 Ry     beta= 0.05
     Davidson diagonalization with overlap
     ethr =  3.03E-04,  avg # of iterations =  1.3

     negative rho (up, down):  4.740E-03 0.000E+00
 
     Adding external electric field

     Computed dipole along edir(3) : 
        Dipole                0.3631 Ry au,          0.9229 Debye
        Dipole field          0.0007 Ry au, 
 
        Potential amp.       -0.0635 Ry
        Total length         46.3494 bohr
 

     total cpu time spent up to now is      660.5 secs

     total energy              =   -2971.51566008 Ry
     estimated scf accuracy    <       1.60799078 Ry

     iteration # 30     ecut=    29.40 Ry     beta= 0.05
     Davidson diagonalization with overlap
     ethr =  3.03E-04,  avg # of iterations =  6.5

     negative rho (up, down):  4.715E-03 0.000E+00
 
     Adding external electric field

     Computed dipole along edir(3) : 
        Dipole                0.3505 Ry au,          0.8910 Debye
        Dipole field          0.0007 Ry au, 
 
        Potential amp.       -0.0613 Ry
        Total length         46.3494 bohr
 

     total cpu time spent up to now is      675.4 secs

     total energy              =   -2971.54500111 Ry
     estimated scf accuracy    <       1.43544975 Ry

     iteration # 31     ecut=    29.40 Ry     beta= 0.05
     Davidson diagonalization with overlap
     ethr =  3.03E-04,  avg # of iterations =  1.0

     negative rho (up, down):  5.798E-03 0.000E+00
 
     Adding external electric field

     Computed dipole along edir(3) : 
        Dipole                0.3406 Ry au,          0.8656 Debye
        Dipole field          0.0006 Ry au, 
 
        Potential amp.       -0.0596 Ry
        Total length         46.3494 bohr
 

     total cpu time spent up to now is      687.9 secs

     total energy              =   -2971.50331974 Ry
     estimated scf accuracy    <       1.41986169 Ry

     iteration # 32     ecut=    29.40 Ry     beta= 0.05
     Davidson diagonalization with overlap
     ethr =  3.03E-04,  avg # of iterations =  2.9

     negative rho (up, down):  6.037E-03 0.000E+00
 
     Adding external electric field

     Computed dipole along edir(3) : 
        Dipole                0.2122 Ry au,          0.5392 Debye
        Dipole field          0.0004 Ry au, 
 
        Potential amp.       -0.0371 Ry
        Total length         46.3494 bohr
 

     total cpu time spent up to now is      701.7 secs

     total energy              =   -2971.45012507 Ry
     estimated scf accuracy    <       1.16395032 Ry

     iteration # 33     ecut=    29.40 Ry     beta= 0.05
     Davidson diagonalization with overlap
     c_bands:  2 eigenvalues not converged
     ethr =  2.90E-04,  avg # of iterations = 13.5

     negative rho (up, down):  4.327E-03 0.000E+00
 
     Adding external electric field

     Computed dipole along edir(3) : 
        Dipole               -0.0513 Ry au,         -0.1303 Debye
        Dipole field         -0.0001 Ry au, 
 
        Potential amp.        0.0090 Ry
        Total length         46.3494 bohr
 

     total cpu time spent up to now is      720.0 secs

     total energy              =   -2971.41751389 Ry
     estimated scf accuracy    <       0.48089273 Ry

     iteration # 34     ecut=    29.40 Ry     beta= 0.05
     Davidson diagonalization with overlap
     ethr =  1.20E-04,  avg # of iterations =  8.2

     negative rho (up, down):  4.151E-03 0.000E+00
 
     Adding external electric field

     Computed dipole along edir(3) : 
        Dipole               -0.0828 Ry au,         -0.2106 Debye
        Dipole field         -0.0002 Ry au, 
 
        Potential amp.        0.0145 Ry
        Total length         46.3494 bohr
 

     total cpu time spent up to now is      736.1 secs

     total energy              =   -2971.42722392 Ry
     estimated scf accuracy    <       0.25326063 Ry

     iteration # 35     ecut=    29.40 Ry     beta= 0.05
     Davidson diagonalization with overlap
     c_bands:  1 eigenvalues not converged
     c_bands:  1 eigenvalues not converged
     ethr =  6.32E-05,  avg # of iterations = 14.3

     negative rho (up, down):  4.674E-03 0.000E+00
 
     Adding external electric field

     Computed dipole along edir(3) : 
        Dipole                0.2025 Ry au,          0.5146 Debye
        Dipole field          0.0004 Ry au, 
 
        Potential amp.       -0.0354 Ry
        Total length         46.3494 bohr
 

     total cpu time spent up to now is      754.8 secs

     total energy              =   -2971.42175431 Ry
     estimated scf accuracy    <       0.14726902 Ry

     iteration # 36     ecut=    29.40 Ry     beta= 0.05
     Davidson diagonalization with overlap
     c_bands:  4 eigenvalues not converged
     c_bands:  3 eigenvalues not converged
     c_bands:  2 eigenvalues not converged
     c_bands:  1 eigenvalues not converged
     c_bands:  5 eigenvalues not converged
     c_bands:  3 eigenvalues not converged
     c_bands:  4 eigenvalues not converged
     c_bands:  1 eigenvalues not converged
     c_bands:  1 eigenvalues not converged
     c_bands:  1 eigenvalues not converged
     ethr =  3.67E-05,  avg # of iterations = 20.0

     negative rho (up, down):  5.568E-03 0.000E+00
 
     Adding external electric field

     Computed dipole along edir(3) : 
        Dipole                0.4045 Ry au,          1.0282 Debye
        Dipole field          0.0008 Ry au, 
 
        Potential amp.       -0.0708 Ry
        Total length         46.3494 bohr
 

     total cpu time spent up to now is      782.6 secs

     total energy              =   -2971.40638586 Ry
     estimated scf accuracy    <       0.28337273 Ry

     iteration # 37     ecut=    29.40 Ry     beta= 0.05
     Davidson diagonalization with overlap
     c_bands:  3 eigenvalues not converged
     c_bands:  2 eigenvalues not converged
     c_bands:  3 eigenvalues not converged
     c_bands:  3 eigenvalues not converged
     c_bands:  4 eigenvalues not converged
     c_bands:  3 eigenvalues not converged
     c_bands:  3 eigenvalues not converged
     c_bands:  3 eigenvalues not converged
     c_bands:  2 eigenvalues not converged
     ethr =  3.67E-05,  avg # of iterations = 22.0

     negative rho (up, down):  6.238E-03 0.000E+00
 
     Adding external electric field

     Computed dipole along edir(3) : 
        Dipole                0.5050 Ry au,          1.2835 Debye
        Dipole field          0.0010 Ry au, 
 
        Potential amp.       -0.0883 Ry
        Total length         46.3494 bohr
 

     total cpu time spent up to now is      810.7 secs

     total energy              =   -2971.44186371 Ry
     estimated scf accuracy    <       0.06418223 Ry

     iteration # 38     ecut=    29.40 Ry     beta= 0.05
     Davidson diagonalization with overlap
     ethr =  1.60E-05,  avg # of iterations =  9.2

     negative rho (up, down):  8.247E-03 0.000E+00
 
     Adding external electric field

     Computed dipole along edir(3) : 
        Dipole                0.6476 Ry au,          1.6460 Debye
        Dipole field          0.0012 Ry au, 
 
        Potential amp.       -0.1133 Ry
        Total length         46.3494 bohr
 

     total cpu time spent up to now is      826.5 secs

     total energy              =   -2971.43798823 Ry
     estimated scf accuracy    <       0.04098314 Ry

     iteration # 39     ecut=    29.40 Ry     beta= 0.05
     Davidson diagonalization with overlap
     c_bands:  1 eigenvalues not converged
     c_bands:  3 eigenvalues not converged
     c_bands:  2 eigenvalues not converged
     c_bands:  2 eigenvalues not converged
     c_bands:  1 eigenvalues not converged
     c_bands:  2 eigenvalues not converged
     c_bands:  3 eigenvalues not converged
     ethr =  1.02E-05,  avg # of iterations = 18.2

     negative rho (up, down):  8.613E-03 0.000E+00
 
     Adding external electric field

     Computed dipole along edir(3) : 
        Dipole                0.6322 Ry au,          1.6068 Debye
        Dipole field          0.0012 Ry au, 
 
        Potential amp.       -0.1106 Ry
        Total length         46.3494 bohr
 

     total cpu time spent up to now is      850.4 secs

     total energy              =   -2971.43886359 Ry
     estimated scf accuracy    <       0.01659455 Ry

     iteration # 40     ecut=    29.40 Ry     beta= 0.05
     Davidson diagonalization with overlap
     c_bands:  1 eigenvalues not converged
     c_bands:  3 eigenvalues not converged
     c_bands:  2 eigenvalues not converged
     c_bands:  1 eigenvalues not converged
     c_bands:  5 eigenvalues not converged
     c_bands:  1 eigenvalues not converged
     c_bands:  4 eigenvalues not converged
     c_bands:  1 eigenvalues not converged
     c_bands:  1 eigenvalues not converged
     ethr =  4.14E-06,  avg # of iterations = 19.5

     negative rho (up, down):  9.672E-03 0.000E+00
 
     Adding external electric field

     Computed dipole along edir(3) : 
        Dipole                0.5967 Ry au,          1.5166 Debye
        Dipole field          0.0011 Ry au, 
 
        Potential amp.       -0.1044 Ry
        Total length         46.3494 bohr
 

     total cpu time spent up to now is      877.6 secs

     total energy              =   -2971.43954661 Ry
     estimated scf accuracy    <       0.02311757 Ry

     iteration # 41     ecut=    29.40 Ry     beta= 0.05
     Davidson diagonalization with overlap
     c_bands:  2 eigenvalues not converged
     c_bands:  2 eigenvalues not converged
     c_bands:  2 eigenvalues not converged
     c_bands:  2 eigenvalues not converged
     c_bands:  1 eigenvalues not converged
     c_bands:  1 eigenvalues not converged
     ethr =  4.14E-06,  avg # of iterations = 18.1

     negative rho (up, down):  9.625E-03 0.000E+00
 
     Adding external electric field

     Computed dipole along edir(3) : 
        Dipole                0.6004 Ry au,          1.5262 Debye
        Dipole field          0.0011 Ry au, 
 
        Potential amp.       -0.1050 Ry
        Total length         46.3494 bohr
 

     total cpu time spent up to now is      904.7 secs

     total energy              =   -2971.43929916 Ry
     estimated scf accuracy    <       0.08258665 Ry

     iteration # 42     ecut=    29.40 Ry     beta= 0.05
     Davidson diagonalization with overlap
     c_bands:  1 eigenvalues not converged
     c_bands:  2 eigenvalues not converged
     c_bands:  2 eigenvalues not converged
     c_bands:  3 eigenvalues not converged
     ethr =  4.14E-06,  avg # of iterations = 15.3

     negative rho (up, down):  1.080E-02 0.000E+00
 
     Adding external electric field

     Computed dipole along edir(3) : 
        Dipole                0.6141 Ry au,          1.5610 Debye
        Dipole field          0.0012 Ry au, 
 
        Potential amp.       -0.1074 Ry
        Total length         46.3494 bohr
 

     total cpu time spent up to now is      924.2 secs

     total energy              =   -2971.44176102 Ry
     estimated scf accuracy    <       0.03191644 Ry

     iteration # 43     ecut=    29.40 Ry     beta= 0.05
     Davidson diagonalization with overlap
     ethr =  4.14E-06,  avg # of iterations =  5.4

     negative rho (up, down):  1.170E-02 0.000E+00
 
     Adding external electric field

     Computed dipole along edir(3) : 
        Dipole                0.6038 Ry au,          1.5347 Debye
        Dipole field          0.0011 Ry au, 
 
        Potential amp.       -0.1056 Ry
        Total length         46.3494 bohr
 

     total cpu time spent up to now is      938.9 secs

     total energy              =   -2971.44060367 Ry
     estimated scf accuracy    <       0.01331728 Ry

     iteration # 44     ecut=    29.40 Ry     beta= 0.05
     Davidson diagonalization with overlap
     c_bands:  1 eigenvalues not converged
     c_bands:  2 eigenvalues not converged
     c_bands:  2 eigenvalues not converged
     c_bands:  1 eigenvalues not converged
     c_bands:  1 eigenvalues not converged
     ethr =  3.32E-06,  avg # of iterations = 16.1

     negative rho (up, down):  1.184E-02 0.000E+00
 
     Adding external electric field

     Computed dipole along edir(3) : 
        Dipole                0.6153 Ry au,          1.5639 Debye
        Dipole field          0.0012 Ry au, 
 
        Potential amp.       -0.1076 Ry
        Total length         46.3494 bohr
 

     total cpu time spent up to now is      958.8 secs

     total energy              =   -2971.44166644 Ry
     estimated scf accuracy    <       0.00508128 Ry

     iteration # 45     ecut=    29.40 Ry     beta= 0.05
     Davidson diagonalization with overlap
     c_bands:  1 eigenvalues not converged
     ethr =  1.27E-06,  avg # of iterations =  5.1

     negative rho (up, down):  1.206E-02 0.000E+00
 
     Adding external electric field

     Computed dipole along edir(3) : 
        Dipole                0.6470 Ry au,          1.6446 Debye
        Dipole field          0.0012 Ry au, 
 
        Potential amp.       -0.1132 Ry
        Total length         46.3494 bohr
 

     total cpu time spent up to now is      973.1 secs

     total energy              =   -2971.44128286 Ry
     estimated scf accuracy    <       0.00327872 Ry

     iteration # 46     ecut=    29.40 Ry     beta= 0.05
     Davidson diagonalization with overlap
     ethr =  8.18E-07,  avg # of iterations =  7.7

     negative rho (up, down):  1.433E-02 0.000E+00
 
     Adding external electric field

     Computed dipole along edir(3) : 
        Dipole                0.6432 Ry au,          1.6348 Debye
        Dipole field          0.0012 Ry au, 
 
        Potential amp.       -0.1125 Ry
        Total length         46.3494 bohr
 

     total cpu time spent up to now is      991.0 secs

     total energy              =   -2971.44183109 Ry
     estimated scf accuracy    <       0.00202776 Ry

     iteration # 47     ecut=    29.40 Ry     beta= 0.05
     Davidson diagonalization with overlap
     ethr =  5.06E-07,  avg # of iterations = 10.9

     negative rho (up, down):  1.520E-02 0.000E+00
 
     Adding external electric field

     Computed dipole along edir(3) : 
        Dipole                0.6292 Ry au,          1.5992 Debye
        Dipole field          0.0012 Ry au, 
 
        Potential amp.       -0.1101 Ry
        Total length         46.3494 bohr
 

     total cpu time spent up to now is     1010.8 secs

     total energy              =   -2971.44204222 Ry
     estimated scf accuracy    <       0.00113270 Ry

     iteration # 48     ecut=    29.40 Ry     beta= 0.05
     Davidson diagonalization with overlap
     c_bands:  1 eigenvalues not converged
     c_bands:  1 eigenvalues not converged
     ethr =  2.82E-07,  avg # of iterations = 10.1

     negative rho (up, down):  1.448E-02 0.000E+00
 
     Adding external electric field

     Computed dipole along edir(3) : 
        Dipole                0.6297 Ry au,          1.6006 Debye
        Dipole field          0.0012 Ry au, 
 
        Potential amp.       -0.1102 Ry
        Total length         46.3494 bohr
 

     total cpu time spent up to now is     1032.1 secs

     total energy              =   -2971.44200124 Ry
     estimated scf accuracy    <       0.00167788 Ry

     iteration # 49     ecut=    29.40 Ry     beta= 0.05
     Davidson diagonalization with overlap
     c_bands:  1 eigenvalues not converged
     ethr =  2.82E-07,  avg # of iterations =  7.2

     negative rho (up, down):  1.426E-02 0.000E+00
 
     Adding external electric field

     Computed dipole along edir(3) : 
        Dipole                0.6250 Ry au,          1.5885 Debye
        Dipole field          0.0012 Ry au, 
 
        Potential amp.       -0.1093 Ry
        Total length         46.3494 bohr
 

     total cpu time spent up to now is     1047.6 secs

     total energy              =   -2971.44203572 Ry
     estimated scf accuracy    <       0.00049294 Ry

     iteration # 50     ecut=    29.40 Ry     beta= 0.05
     Davidson diagonalization with overlap
     c_bands:  1 eigenvalues not converged
     ethr =  1.23E-07,  avg # of iterations =  8.7

     negative rho (up, down):  1.433E-02 0.000E+00
 
     Adding external electric field

     Computed dipole along edir(3) : 
        Dipole                0.6284 Ry au,          1.5973 Debye
        Dipole field          0.0012 Ry au, 
 
        Potential amp.       -0.1099 Ry
        Total length         46.3494 bohr
 

     total cpu time spent up to now is     1066.6 secs

     total energy              =   -2971.44211720 Ry
     estimated scf accuracy    <       0.00019126 Ry

     iteration # 51     ecut=    29.40 Ry     beta= 0.05
     Davidson diagonalization with overlap
     ethr =  4.77E-08,  avg # of iterations =  6.5

     negative rho (up, down):  1.469E-02 0.000E+00
 
     Adding external electric field

     Computed dipole along edir(3) : 
        Dipole                0.6345 Ry au,          1.6126 Debye
        Dipole field          0.0012 Ry au, 
 
        Potential amp.       -0.1110 Ry
        Total length         46.3494 bohr
 

     total cpu time spent up to now is     1081.6 secs

     total energy              =   -2971.44214835 Ry
     estimated scf accuracy    <       0.00014471 Ry

     iteration # 52     ecut=    29.40 Ry     beta= 0.05
     Davidson diagonalization with overlap
     ethr =  3.61E-08,  avg # of iterations =  7.7

     negative rho (up, down):  1.493E-02 0.000E+00
 
     Adding external electric field

     Computed dipole along edir(3) : 
        Dipole                0.6384 Ry au,          1.6227 Debye
        Dipole field          0.0012 Ry au, 
 
        Potential amp.       -0.1117 Ry
        Total length         46.3494 bohr
 

     total cpu time spent up to now is     1097.1 secs

     total energy              =   -2971.44216851 Ry
     estimated scf accuracy    <       0.00011508 Ry

     iteration # 53     ecut=    29.40 Ry     beta= 0.05
     Davidson diagonalization with overlap
     ethr =  2.87E-08,  avg # of iterations =  9.8

     negative rho (up, down):  1.492E-02 0.000E+00
 
     Adding external electric field

     Computed dipole along edir(3) : 
        Dipole                0.6373 Ry au,          1.6198 Debye
        Dipole field          0.0012 Ry au, 
 
        Potential amp.       -0.1115 Ry
        Total length         46.3494 bohr
 

     total cpu time spent up to now is     1120.2 secs

     total energy              =   -2971.44221058 Ry
     estimated scf accuracy    <       0.00009530 Ry

     iteration # 54     ecut=    29.40 Ry     beta= 0.05
     Davidson diagonalization with overlap
     ethr =  2.38E-08,  avg # of iterations =  1.1

     negative rho (up, down):  1.494E-02 0.000E+00
 
     Adding external electric field

     Computed dipole along edir(3) : 
        Dipole                0.6383 Ry au,          1.6225 Debye
        Dipole field          0.0012 Ry au, 
 
        Potential amp.       -0.1117 Ry
        Total length         46.3494 bohr
 

     total cpu time spent up to now is     1132.7 secs

     total energy              =   -2971.44222356 Ry
     estimated scf accuracy    <       0.00007457 Ry

     iteration # 55     ecut=    29.40 Ry     beta= 0.05
     Davidson diagonalization with overlap
     ethr =  1.86E-08,  avg # of iterations =  1.0

     negative rho (up, down):  1.504E-02 0.000E+00
 
     Adding external electric field

     Computed dipole along edir(3) : 
        Dipole                0.6376 Ry au,          1.6206 Debye
        Dipole field          0.0012 Ry au, 
 
        Potential amp.       -0.1115 Ry
        Total length         46.3494 bohr
 

     total cpu time spent up to now is     1145.2 secs

     total energy              =   -2971.44222520 Ry
     estimated scf accuracy    <       0.00006978 Ry

     iteration # 56     ecut=    29.40 Ry     beta= 0.05
     Davidson diagonalization with overlap
     ethr =  1.74E-08,  avg # of iterations =  6.4

     negative rho (up, down):  1.511E-02 0.000E+00
 
     Adding external electric field

     Computed dipole along edir(3) : 
        Dipole                0.6364 Ry au,          1.6176 Debye
        Dipole field          0.0012 Ry au, 
 
        Potential amp.       -0.1113 Ry
        Total length         46.3494 bohr
 

     total cpu time spent up to now is     1160.4 secs

     total energy              =   -2971.44223667 Ry
     estimated scf accuracy    <       0.00003563 Ry

     iteration # 57     ecut=    29.40 Ry     beta= 0.05
     Davidson diagonalization with overlap
     ethr =  8.89E-09,  avg # of iterations =  8.7

     negative rho (up, down):  1.507E-02 0.000E+00
 
     Adding external electric field

     Computed dipole along edir(3) : 
        Dipole                0.6388 Ry au,          1.6236 Debye
        Dipole field          0.0012 Ry au, 
 
        Potential amp.       -0.1117 Ry
        Total length         46.3494 bohr
 

     total cpu time spent up to now is     1180.6 secs

     total energy              =   -2971.44224887 Ry
     estimated scf accuracy    <       0.00002238 Ry

     iteration # 58     ecut=    29.40 Ry     beta= 0.05
     Davidson diagonalization with overlap
     ethr =  5.58E-09,  avg # of iterations =  7.4

     negative rho (up, down):  1.484E-02 0.000E+00
 
     Adding external electric field

     Computed dipole along edir(3) : 
        Dipole                0.6354 Ry au,          1.6150 Debye
        Dipole field          0.0012 Ry au, 
 
        Potential amp.       -0.1112 Ry
        Total length         46.3494 bohr
 

     total cpu time spent up to now is     1198.6 secs

     total energy              =   -2971.44225844 Ry
     estimated scf accuracy    <       0.00001196 Ry

     iteration # 59     ecut=    29.40 Ry     beta= 0.05
     Davidson diagonalization with overlap
     ethr =  2.98E-09,  avg # of iterations =  9.8

     negative rho (up, down):  1.488E-02 0.000E+00
 
     Adding external electric field

     Computed dipole along edir(3) : 
        Dipole                0.6358 Ry au,          1.6160 Debye
        Dipole field          0.0012 Ry au, 
 
        Potential amp.       -0.1112 Ry
        Total length         46.3494 bohr
 

     total cpu time spent up to now is     1217.1 secs

     total energy              =   -2971.44226674 Ry
     estimated scf accuracy    <       0.00000620 Ry

     iteration # 60     ecut=    29.40 Ry     beta= 0.05
     Davidson diagonalization with overlap
     ethr =  1.55E-09,  avg # of iterations =  6.6

     negative rho (up, down):  1.486E-02 0.000E+00
 
     Adding external electric field

     Computed dipole along edir(3) : 
        Dipole                0.6349 Ry au,          1.6137 Debye
        Dipole field          0.0012 Ry au, 
 
        Potential amp.       -0.1111 Ry
        Total length         46.3494 bohr
 

     total cpu time spent up to now is     1232.7 secs

     total energy              =   -2971.44227343 Ry
     estimated scf accuracy    <       0.00000314 Ry

     iteration # 61     ecut=    29.40 Ry     beta= 0.05
     Davidson diagonalization with overlap
     ethr =  7.84E-10,  avg # of iterations = 10.2

     negative rho (up, down):  1.479E-02 0.000E+00
 
     Adding external electric field

     Computed dipole along edir(3) : 
        Dipole                0.6343 Ry au,          1.6123 Debye
        Dipole field          0.0012 Ry au, 
 
        Potential amp.       -0.1110 Ry
        Total length         46.3494 bohr
 

     total cpu time spent up to now is     1255.5 secs

     total energy              =   -2971.44228000 Ry
     estimated scf accuracy    <       0.00000395 Ry

     iteration # 62     ecut=    29.40 Ry     beta= 0.05
     Davidson diagonalization with overlap
     ethr =  7.84E-10,  avg # of iterations =  5.8

     negative rho (up, down):  1.477E-02 0.000E+00
 
     Adding external electric field

     Computed dipole along edir(3) : 
        Dipole                0.6343 Ry au,          1.6123 Debye
        Dipole field          0.0012 Ry au, 
 
        Potential amp.       -0.1110 Ry
        Total length         46.3494 bohr
 

     total cpu time spent up to now is     1271.3 secs

     total energy              =   -2971.44228598 Ry
     estimated scf accuracy    <       0.00000142 Ry

     iteration # 63     ecut=    29.40 Ry     beta= 0.05
     Davidson diagonalization with overlap
     ethr =  3.55E-10,  avg # of iterations =  7.5

     negative rho (up, down):  1.474E-02 0.000E+00
 
     Adding external electric field

     Computed dipole along edir(3) : 
        Dipole                0.6337 Ry au,          1.6108 Debye
        Dipole field          0.0012 Ry au, 
 
        Potential amp.       -0.1109 Ry
        Total length         46.3494 bohr
 

     total cpu time spent up to now is     1290.3 secs

     total energy              =   -2971.44229141 Ry
     estimated scf accuracy    <       0.00000081 Ry

     iteration # 64     ecut=    29.40 Ry     beta= 0.05
     Davidson diagonalization with overlap
     ethr =  2.02E-10,  avg # of iterations =  7.7

     negative rho (up, down):  1.473E-02 0.000E+00
 
     Adding external electric field

     Computed dipole along edir(3) : 
        Dipole                0.6338 Ry au,          1.6110 Debye
        Dipole field          0.0012 Ry au, 
 
        Potential amp.       -0.1109 Ry
        Total length         46.3494 bohr
 

     total cpu time spent up to now is     1307.8 secs

     total energy              =   -2971.44229608 Ry
     estimated scf accuracy    <       0.00000054 Ry

     iteration # 65     ecut=    29.40 Ry     beta= 0.05
     Davidson diagonalization with overlap
     ethr =  1.35E-10,  avg # of iterations =  6.7

     negative rho (up, down):  1.472E-02 0.000E+00
 
     Adding external electric field

     Computed dipole along edir(3) : 
        Dipole                0.6337 Ry au,          1.6108 Debye
        Dipole field          0.0012 Ry au, 
 
        Potential amp.       -0.1109 Ry
        Total length         46.3494 bohr
 

     total cpu time spent up to now is     1325.0 secs

     total energy              =   -2971.44230032 Ry
     estimated scf accuracy    <       0.00000023 Ry

     iteration # 66     ecut=    29.40 Ry     beta= 0.05
     Davidson diagonalization with overlap
     ethr =  5.61E-11,  avg # of iterations =  8.5

     negative rho (up, down):  1.472E-02 0.000E+00
 
     Adding external electric field

     Computed dipole along edir(3) : 
        Dipole                0.6337 Ry au,          1.6108 Debye
        Dipole field          0.0012 Ry au, 
 
        Potential amp.       -0.1109 Ry
        Total length         46.3494 bohr
 

     total cpu time spent up to now is     1346.3 secs

     total energy              =   -2971.44230413 Ry
     estimated scf accuracy    <       0.00000041 Ry

     iteration # 67     ecut=    29.40 Ry     beta= 0.05
     Davidson diagonalization with overlap
     ethr =  5.61E-11,  avg # of iterations =  1.0

     negative rho (up, down):  1.472E-02 0.000E+00
 
     Adding external electric field

     Computed dipole along edir(3) : 
        Dipole                0.6336 Ry au,          1.6105 Debye
        Dipole field          0.0012 Ry au, 
 
        Potential amp.       -0.1108 Ry
        Total length         46.3494 bohr
 

     total cpu time spent up to now is     1358.8 secs

     total energy              =   -2971.44230747 Ry
     estimated scf accuracy    <       0.00000042 Ry

     iteration # 68     ecut=    29.40 Ry     beta= 0.05
     Davidson diagonalization with overlap
     ethr =  5.61E-11,  avg # of iterations =  1.2

     negative rho (up, down):  1.472E-02 0.000E+00
 
     Adding external electric field

     Computed dipole along edir(3) : 
        Dipole                0.6336 Ry au,          1.6105 Debye
        Dipole field          0.0012 Ry au, 
 
        Potential amp.       -0.1108 Ry
        Total length         46.3494 bohr
 

     total cpu time spent up to now is     1371.4 secs

     total energy              =   -2971.44231050 Ry
     estimated scf accuracy    <       0.00000035 Ry

     iteration # 69     ecut=    29.40 Ry     beta= 0.05
     Davidson diagonalization with overlap
     ethr =  5.61E-11,  avg # of iterations =  3.4

     negative rho (up, down):  1.473E-02 0.000E+00
 
     Adding external electric field

     Computed dipole along edir(3) : 
        Dipole                0.6337 Ry au,          1.6107 Debye
        Dipole field          0.0012 Ry au, 
 
        Potential amp.       -0.1109 Ry
        Total length         46.3494 bohr
 

     total cpu time spent up to now is     1385.4 secs

     total energy              =   -2971.44231329 Ry
     estimated scf accuracy    <       0.00000028 Ry

     iteration # 70     ecut=    29.40 Ry     beta= 0.05
     Davidson diagonalization with overlap
     ethr =  5.61E-11,  avg # of iterations =  3.4

     negative rho (up, down):  1.471E-02 0.000E+00
 
     Adding external electric field

     Computed dipole along edir(3) : 
        Dipole                0.6333 Ry au,          1.6097 Debye
        Dipole field          0.0012 Ry au, 
 
        Potential amp.       -0.1108 Ry
        Total length         46.3494 bohr
 

     total cpu time spent up to now is     1399.1 secs

     total energy              =   -2971.44231574 Ry
     estimated scf accuracy    <       0.00000043 Ry

     iteration # 71     ecut=    29.40 Ry     beta= 0.05
     Davidson diagonalization with overlap
     ethr =  5.61E-11,  avg # of iterations =  8.3

     negative rho (up, down):  1.471E-02 0.000E+00
 
     Adding external electric field

     Computed dipole along edir(3) : 
        Dipole                0.6332 Ry au,          1.6094 Debye
        Dipole field          0.0012 Ry au, 
 
        Potential amp.       -0.1108 Ry
        Total length         46.3494 bohr
 

     total cpu time spent up to now is     1420.3 secs

     total energy              =   -2971.44231807 Ry
     estimated scf accuracy    <       0.00000015 Ry

     iteration # 72     ecut=    29.40 Ry     beta= 0.05
     Davidson diagonalization with overlap
     ethr =  3.80E-11,  avg # of iterations =  2.9

     negative rho (up, down):  1.475E-02 0.000E+00
 
     Adding external electric field

     Computed dipole along edir(3) : 
        Dipole                0.6338 Ry au,          1.6109 Debye
        Dipole field          0.0012 Ry au, 
 
        Potential amp.       -0.1109 Ry
        Total length         46.3494 bohr
 

     total cpu time spent up to now is     1434.3 secs

     End of self-consistent calculation

          k = 0.0000 0.0000 0.0000 ( 18029 PWs)   bands (ev):

   -55.9335 -55.8995 -55.7385 -55.7026 -55.6233 -55.6218 -55.5881 -55.5864
   -55.5696 -55.5359 -55.5128 -55.4770 -55.2695 -55.1671 -54.8399 -54.8059
   -32.3997 -32.2884 -32.2275 -32.2029 -32.0892 -32.0851 -32.0846 -32.0571
   -32.0570 -32.0239 -32.0224 -31.9952 -31.9666 -31.9543 -31.9483 -31.9263
   -31.9049 -31.8864 -31.8741 -31.8595 -31.8374 -31.7993 -31.7956 -31.7728
   -31.7626 -31.7552 -31.7508 -31.7451 -31.7396 -31.7237 -31.7211 -31.6921
   -31.6915 -31.6801 -31.6687 -31.6322 -31.6315 -31.5092 -31.5019 -31.4082
   -31.3917 -31.3145 -31.2443 -31.1630 -31.1400 -31.0612 -30.9751 -30.8642
   -19.1736 -16.4805 -16.2895 -16.0350 -15.9378 -15.8224 -15.7456 -15.6098
   -15.5105 -15.4280 -15.4237 -15.3337 -15.3083 -15.3053 -15.2545 -15.2122
   -15.2072 -15.1968 -15.1717 -15.1686 -15.1382 -15.0938 -15.0220 -14.8997
   -14.8926 -14.8419 -14.8180 -14.7455 -14.6895 -14.6334 -14.5075 -14.3939
   -13.3423 -13.2272  -8.5962  -6.6415  -5.7317  -4.0282  -3.8626  -3.7902
    -3.6796  -3.6099  -3.5852  -3.3121  -3.3076  -2.9841  -2.9289  -2.9194
    -2.8953  -2.8561  -2.6810  -2.6447  -2.6291  -2.5835  -2.5724  -2.5660
    -2.5638  -2.5246  -2.4702  -2.4688  -2.3756  -2.3629  -2.3141  -2.2112
    -2.2099  -2.1909  -2.1235  -2.0975  -2.0466  -2.0024  -1.9828  -1.9772
    -1.9433  -1.9201  -1.7896  -1.7321  -1.6767  -1.5859  -1.5210  -1.4576
    -1.4368  -1.3004  -1.1851  -1.1786  -1.1434  -1.1035  -1.0887  -1.0616
    -0.9392  -0.8751  -0.8601  -0.8073  -0.7490  -0.6919  -0.6851  -0.6319
    -0.5995  -0.5854  -0.5633  -0.5396  -0.4757  -0.3035  -0.2239  -0.1312
    -0.1215  -0.0765  -0.0637  -0.0487   0.0076   0.0312   0.0446   0.1046
     0.1203   0.1746   0.1992   0.2132   0.2234   0.3057   0.3941   0.4188
     0.5276   0.5374   0.5974   0.6150   0.7887   0.8436   0.8603   0.9056
     1.0216   1.0854   1.1277   1.1811   1.3844   1.4905   1.7480   1.7914
     3.2645   3.2667   3.3533   3.4808   3.5946   3.6476   3.6963   3.7044
     3.8777   3.9368

          k = 0.0000 0.0419 0.0000 ( 17933 PWs)   bands (ev):

   -55.9285 -55.9045 -55.7332 -55.7077 -55.6186 -55.6168 -55.5930 -55.5910
   -55.5646 -55.5407 -55.5079 -55.4818 -55.2678 -55.1686 -54.8349 -54.8108
   -32.3458 -32.2311 -32.2230 -32.2043 -32.0789 -32.0755 -32.0431 -32.0351
   -32.0304 -32.0089 -32.0042 -31.9722 -31.9698 -31.9660 -31.9509 -31.9246
   -31.9197 -31.9119 -31.8733 -31.8458 -31.8254 -31.8091 -31.7948 -31.7785
   -31.7768 -31.7762 -31.7632 -31.7502 -31.7492 -31.7413 -31.7363 -31.7242
   -31.7006 -31.6885 -31.6872 -31.6629 -31.6328 -31.5047 -31.5005 -31.4084
   -31.4023 -31.3666 -31.1904 -31.1594 -31.1432 -31.0486 -30.9876 -30.9212
   -19.1735 -16.3452 -16.1694 -15.9236 -15.8279 -15.7208 -15.7140 -15.6254
   -15.5608 -15.5530 -15.3854 -15.3684 -15.3433 -15.2836 -15.2779 -15.2356
   -15.2182 -15.1996 -15.1546 -15.1446 -15.1396 -15.1156 -15.0814 -14.9448
   -14.8934 -14.8733 -14.8523 -14.7736 -14.7033 -14.6485 -14.5696 -14.4647
   -13.3470 -13.2671  -8.5960  -6.6434  -5.7317  -4.0271  -3.6732  -3.6129
    -3.5152  -3.4528  -3.4132  -3.1536  -3.0887  -2.9644  -2.9088  -2.8735
    -2.8119  -2.8022  -2.7454  -2.7101  -2.6917  -2.6746  -2.5907  -2.5691
    -2.5613  -2.5331  -2.5046  -2.4907  -2.4884  -2.4529  -2.4201  -2.3352
    -2.2867  -2.2839  -2.2739  -2.2169  -2.1695  -2.1459  -2.0764  -2.0148
    -1.8951  -1.8222  -1.7681  -1.7299  -1.5606  -1.5125  -1.4399  -1.3905
    -1.3883  -1.3732  -1.1259  -1.1175  -1.0500  -0.9446  -0.8981  -0.8885
    -0.8341  -0.8202  -0.7260  -0.7157  -0.6974  -0.6814  -0.6646  -0.6310
    -0.6136  -0.5507  -0.4752  -0.4273  -0.3999  -0.3940  -0.3411  -0.2909
    -0.2510  -0.2389  -0.2099  -0.0722  -0.0552  -0.0394   0.0124   0.0433
     0.0503   0.1004   0.1590   0.1788   0.2313   0.2534   0.2885   0.3594
     0.4079   0.4498   0.5052   0.5975   0.6188   0.6696   0.7351   0.7955
     0.8285   0.9233   1.0294   1.3583   1.3781   1.4675   1.6999   1.7068
     3.2863   3.4744   3.5366   3.6237   3.6460   3.7021   3.7552   3.8326
     3.8562   3.9181

          k = 0.0000-0.0839 0.0000 ( 17884 PWs)   bands (ev):

   -55.9165 -55.9163 -55.7216 -55.7193 -55.6111 -55.6059 -55.6038 -55.5984
   -55.5531 -55.5521 -55.4993 -55.4903 -55.2662 -55.1702 -54.8229 -54.8227
   -32.2144 -32.2143 -32.2123 -32.2121 -32.0928 -32.0910 -32.0422 -32.0422
   -32.0093 -32.0061 -31.9401 -31.9381 -31.9316 -31.9302 -31.9113 -31.9075
   -31.8906 -31.8808 -31.8719 -31.8691 -31.8415 -31.8412 -31.8388 -31.8293
   -31.8169 -31.8060 -31.7956 -31.7935 -31.7849 -31.7834 -31.7326 -31.7323
   -31.7253 -31.7168 -31.6564 -31.6485 -31.5756 -31.5231 -31.5002 -31.4541
   -31.4087 -31.4019 -31.1512 -31.1510 -31.0577 -31.0575 -31.0182 -31.0181
   -19.1733 -16.0053 -16.0002 -15.8803 -15.8759 -15.6891 -15.6864 -15.5670
   -15.5643 -15.5126 -15.5100 -15.4576 -15.4516 -15.3391 -15.3345 -15.2250
   -15.2247 -15.1964 -15.1938 -15.0755 -15.0697 -15.0265 -15.0221 -15.0072
   -15.0028 -14.9307 -14.8792 -14.8042 -14.7093 -14.6749 -14.6208 -14.5676
   -13.3298 -13.3297  -8.5957  -6.6453  -5.7318  -4.0275  -3.2205  -3.2146
    -3.1789  -3.1781  -3.1389  -3.1343  -3.1027  -3.0976  -2.9948  -2.9758
    -2.8545  -2.8533  -2.8241  -2.8211  -2.7828  -2.7786  -2.7620  -2.7582
    -2.5873  -2.5857  -2.5605  -2.4960  -2.4815  -2.4667  -2.4096  -2.4035
    -2.3534  -2.3064  -2.2453  -2.1830  -2.1749  -2.1079  -2.0914  -1.8149
    -1.8095  -1.6805  -1.6711  -1.5760  -1.5549  -1.4978  -1.4922  -1.3246
    -1.3070  -1.2433  -1.2413  -1.1818  -1.1757  -1.0578  -1.0400  -0.9964
    -0.9591  -0.8894  -0.8754  -0.8236  -0.8083  -0.5036  -0.4856  -0.4632
    -0.4509  -0.4100  -0.3860  -0.3565  -0.3377  -0.3245  -0.3164  -0.2732
    -0.2596  -0.1816  -0.1786  -0.1381  -0.1153  -0.1006  -0.0982   0.0229
     0.0302   0.0452   0.0472   0.0995   0.1047   0.1220   0.1897   0.2591
     0.2963   0.4162   0.4180   0.4186   0.5005   0.5092   0.5368   0.5511
     0.9814   0.9901   1.0541   1.0610   1.5207   1.5210   1.6410   1.6411
     3.3019   3.6789   3.6825   3.7103   3.7319   3.8175   3.8248   3.8639
     3.8659   3.9061

          k = 0.0380 0.0000 0.0000 ( 17913 PWs)   bands (ev):

   -55.9334 -55.8994 -55.7384 -55.7025 -55.6232 -55.6216 -55.5880 -55.5863
   -55.5696 -55.5358 -55.5127 -55.4769 -55.2694 -55.1670 -54.8398 -54.8058
   -32.4005 -32.2884 -32.2273 -32.2029 -32.0865 -32.0865 -32.0849 -32.0619
   -32.0568 -32.0336 -32.0221 -31.9949 -31.9613 -31.9503 -31.9458 -31.9261
   -31.8943 -31.8738 -31.8662 -31.8548 -31.8369 -31.7993 -31.7887 -31.7726
   -31.7677 -31.7670 -31.7653 -31.7507 -31.7346 -31.7228 -31.7213 -31.6918
   -31.6908 -31.6802 -31.6685 -31.6320 -31.6313 -31.5092 -31.5041 -31.4084
   -31.3916 -31.3143 -31.2439 -31.1660 -31.1381 -31.0610 -30.9750 -30.8640
   -19.1726 -16.4099 -16.2011 -15.9444 -15.8633 -15.8186 -15.7450 -15.6564
   -15.5854 -15.5074 -15.4228 -15.3987 -15.3806 -15.3712 -15.3334 -15.3242
   -15.2803 -15.1712 -15.1380 -15.0760 -15.0461 -14.9751 -14.9687 -14.9406
   -14.9255 -14.9137 -14.8501 -14.7688 -14.6689 -14.6222 -14.4844 -14.3930
   -13.3392 -13.2269  -8.5713  -6.6258  -5.8058  -4.0239  -3.7902  -3.5213
    -3.4474  -3.4047  -3.3585  -3.2900  -3.2746  -3.1907  -3.0264  -2.9633
    -2.9175  -2.8915  -2.8202  -2.7516  -2.6357  -2.5998  -2.5569  -2.5469
    -2.4781  -2.4691  -2.4038  -2.3915  -2.3596  -2.2827  -2.2534  -2.2234
    -2.1976  -2.1719  -2.0938  -2.0548  -1.9782  -1.9469  -1.9045  -1.8228
    -1.7568  -1.7235  -1.6868  -1.6785  -1.6481  -1.6141  -1.5502  -1.5236
    -1.4363  -1.3255  -1.3045  -1.2715  -1.2547  -1.1792  -1.1177  -1.0690
    -1.0568  -1.0189  -0.9538  -0.8710  -0.8442  -0.7434  -0.7274  -0.6156
    -0.5758  -0.5585  -0.5307  -0.5115  -0.4467  -0.3048  -0.2733  -0.1821
    -0.1740  -0.1118  -0.0922  -0.0783  -0.0673  -0.0146   0.0178   0.0286
     0.0506   0.0835   0.1435   0.1590   0.2290   0.2794   0.3469   0.3808
     0.4088   0.4594   0.5871   0.6542   0.6649   0.6864   0.8073   0.8202
     0.8721   0.9492   1.1350   1.1929   1.3498   1.3616   1.6376   1.7077
     3.3104   3.3408   3.3727   3.6553   3.7029   3.7556   3.7688   3.8245
     3.8497   3.8894

          k = 0.0380 0.0419 0.0000 ( 17878 PWs)   bands (ev):

   -55.9284 -55.9044 -55.7331 -55.7077 -55.6185 -55.6167 -55.5929 -55.5910
   -55.5646 -55.5407 -55.5078 -55.4818 -55.2678 -55.1686 -54.8348 -54.8108
   -32.3466 -32.2312 -32.2228 -32.2044 -32.0791 -32.0731 -32.0429 -32.0354
   -32.0318 -32.0095 -32.0085 -31.9841 -31.9711 -31.9672 -31.9428 -31.9241
   -31.9196 -31.8953 -31.8561 -31.8417 -31.8249 -31.7980 -31.7949 -31.7785
   -31.7770 -31.7761 -31.7634 -31.7633 -31.7588 -31.7505 -31.7318 -31.7287
   -31.7017 -31.6876 -31.6861 -31.6627 -31.6329 -31.5052 -31.5018 -31.4091
   -31.4023 -31.3664 -31.1900 -31.1618 -31.1422 -31.0485 -30.9876 -30.9211
   -19.1724 -16.2811 -16.0885 -15.8397 -15.7618 -15.7116 -15.7105 -15.6274
   -15.5901 -15.5738 -15.5181 -15.3496 -15.3364 -15.3235 -15.3172 -15.3135
   -15.2254 -15.2212 -15.1832 -15.1230 -15.1223 -15.0884 -15.0241 -15.0122
   -14.9740 -14.9025 -14.8452 -14.7870 -14.6870 -14.6346 -14.5476 -14.4621
   -13.3449 -13.2673  -8.5712  -6.6278  -5.8048  -4.0228  -3.6157  -3.3444
    -3.2764  -3.2472  -3.1835  -3.1199  -3.0786  -3.0370  -2.9081  -2.8757
    -2.8185  -2.7511  -2.7459  -2.7000  -2.6395  -2.6146  -2.5825  -2.5521
    -2.5445  -2.5342  -2.4834  -2.4619  -2.4301  -2.4170  -2.3806  -2.3624
    -2.3350  -2.2509  -2.2424  -2.1700  -2.1034  -2.0787  -1.9712  -1.9513
    -1.8405  -1.7759  -1.7472  -1.6976  -1.5797  -1.5456  -1.4851  -1.4589
    -1.3028  -1.2255  -1.2200  -1.1631  -1.1368  -1.1192  -1.0306  -0.9834
    -0.9611  -0.8776  -0.8589  -0.8486  -0.8075  -0.7411  -0.6880  -0.6701
    -0.6029  -0.5878  -0.5614  -0.5445  -0.4969  -0.4614  -0.4135  -0.4065
    -0.3455  -0.3282  -0.2241  -0.1805  -0.1726  -0.0845  -0.0589  -0.0278
    -0.0089   0.0495   0.0977   0.1507   0.2026   0.2449   0.2931   0.3518
     0.4027   0.5097   0.5671   0.5758   0.6180   0.6614   0.7273   0.7681
     0.8164   0.8594   0.9676   1.2920   1.3899   1.4763   1.6228   1.6844
     3.3310   3.4632   3.5838   3.6979   3.7570   3.7847   3.8326   3.8374
     3.8674   3.8981

          k = 0.0380-0.0839 0.0000 ( 17916 PWs)   bands (ev):

   -55.9165 -55.9164 -55.7216 -55.7193 -55.6112 -55.6058 -55.6038 -55.5984
   -55.5532 -55.5521 -55.4993 -55.4903 -55.2662 -55.1702 -54.8229 -54.8227
   -32.2150 -32.2149 -32.2125 -32.2122 -32.0930 -32.0912 -32.0411 -32.0411
   -32.0094 -32.0062 -31.9405 -31.9385 -31.9326 -31.9311 -31.9119 -31.9081
   -31.8917 -31.8835 -31.8822 -31.8800 -31.8327 -31.8238 -31.8183 -31.8178
   -31.8146 -31.8038 -31.7953 -31.7931 -31.7853 -31.7838 -31.7443 -31.7439
   -31.7305 -31.7218 -31.6564 -31.6485 -31.5754 -31.5231 -31.5019 -31.4539
   -31.4099 -31.4019 -31.1520 -31.1519 -31.0576 -31.0574 -31.0182 -31.0181
   -19.1723 -15.9630 -15.9578 -15.8289 -15.8243 -15.6515 -15.6494 -15.5586
   -15.5544 -15.4875 -15.4755 -15.4351 -15.4284 -15.3567 -15.3535 -15.2676
   -15.2646 -15.1880 -15.1851 -15.1562 -15.1482 -15.1182 -15.1038 -15.0710
   -15.0596 -14.9215 -14.8508 -14.8017 -14.6995 -14.6544 -14.6047 -14.5591
   -13.3296 -13.3295  -8.5713  -6.6295  -5.8038  -4.0231  -3.2139  -3.2057
    -3.0027  -2.9991  -2.9626  -2.9611  -2.8986  -2.8930  -2.8596  -2.8566
    -2.7740  -2.7641  -2.7386  -2.7270  -2.7054  -2.6968  -2.6409  -2.6381
    -2.5699  -2.5678  -2.5125  -2.4878  -2.4700  -2.4480  -2.4308  -2.4160
    -2.3672  -2.3008  -2.2837  -2.2628  -2.2178  -1.8883  -1.8694  -1.8201
    -1.8151  -1.6686  -1.6648  -1.6365  -1.6305  -1.5424  -1.5364  -1.5119
    -1.4928  -1.4084  -1.4011  -1.3276  -1.3055  -1.1885  -1.1792  -1.0504
    -1.0138  -0.9482  -0.9292  -0.8336  -0.8226  -0.6985  -0.6788  -0.6388
    -0.6323  -0.5408  -0.5311  -0.4947  -0.4839  -0.4548  -0.4507  -0.3999
    -0.3908  -0.3411  -0.3300  -0.2688  -0.2474  -0.1643  -0.1466  -0.0810
    -0.0612   0.0462   0.0978   0.1783   0.2610   0.2682   0.3143   0.3307
     0.3448   0.3893   0.4154   0.4777   0.5826   0.6037   0.6480   0.6669
     0.9188   0.9283   1.0556   1.0618   1.5339   1.5343   1.6274   1.6281
     3.3449   3.6665   3.6777   3.6996   3.7084   3.8121   3.8225   3.8902
     3.8910   3.9882

          k = 0.0380-0.0419 0.0000 ( 17876 PWs)   bands (ev):

   -55.9284 -55.9044 -55.7331 -55.7077 -55.6185 -55.6167 -55.5929 -55.5910
   -55.5646 -55.5407 -55.5078 -55.4818 -55.2678 -55.1686 -54.8348 -54.8108
   -32.3466 -32.2312 -32.2228 -32.2044 -32.0790 -32.0732 -32.0429 -32.0354
   -32.0318 -32.0095 -32.0085 -31.9840 -31.9710 -31.9672 -31.9427 -31.9242
   -31.9198 -31.8954 -31.8561 -31.8417 -31.8249 -31.7980 -31.7949 -31.7784
   -31.7770 -31.7761 -31.7634 -31.7633 -31.7587 -31.7505 -31.7318 -31.7287
   -31.7017 -31.6875 -31.6861 -31.6627 -31.6329 -31.5050 -31.5020 -31.4091
   -31.4023 -31.3664 -31.1900 -31.1618 -31.1422 -31.0485 -30.9876 -30.9211
   -19.1725 -16.2813 -16.0884 -15.8398 -15.7617 -15.7122 -15.7100 -15.6273
   -15.5902 -15.5736 -15.5182 -15.3496 -15.3367 -15.3220 -15.3158 -15.3132
   -15.2246 -15.2229 -15.1836 -15.1237 -15.1225 -15.0906 -15.0236 -15.0116
   -14.9740 -14.8989 -14.8483 -14.7872 -14.6881 -14.6333 -14.5469 -14.4625
   -13.3449 -13.2673  -8.5714  -6.6274  -5.8048  -4.0230  -3.6149  -3.3438
    -3.2812  -3.2462  -3.1841  -3.1200  -3.0778  -3.0354  -2.9083  -2.8802
    -2.8187  -2.7609  -2.7465  -2.6992  -2.6382  -2.6135  -2.5693  -2.5529
    -2.5416  -2.5347  -2.4757  -2.4573  -2.4331  -2.4202  -2.3845  -2.3641
    -2.3263  -2.2617  -2.2431  -2.1681  -2.1003  -2.0786  -1.9761  -1.9558
    -1.8372  -1.7794  -1.7622  -1.6878  -1.5874  -1.5495  -1.4886  -1.4484
    -1.2930  -1.2235  -1.2197  -1.1582  -1.1303  -1.1179  -1.0328  -0.9788
    -0.9637  -0.8868  -0.8556  -0.8459  -0.7981  -0.7619  -0.6901  -0.6268
    -0.5917  -0.5885  -0.5624  -0.5438  -0.5049  -0.4840  -0.4408  -0.3794
    -0.3417  -0.3232  -0.2247  -0.1708  -0.1592  -0.0839  -0.0703  -0.0564
    -0.0117   0.0489   0.0844   0.1518   0.1978   0.2582   0.3033   0.3542
     0.4033   0.5044   0.5629   0.5817   0.5971   0.6575   0.7360   0.7672
     0.8157   0.8650   0.9630   1.2921   1.3898   1.4757   1.6225   1.6850
     3.3330   3.4650   3.5838   3.7046   3.7584   3.7696   3.8413   3.8611
     3.8813   3.9061

          k =-0.0760-0.0000 0.0000 ( 17886 PWs)   bands (ev):

   -55.9333 -55.8995 -55.7383 -55.7025 -55.6231 -55.6215 -55.5880 -55.5863
   -55.5696 -55.5358 -55.5127 -55.4769 -55.2693 -55.1670 -54.8398 -54.8058
   -32.4014 -32.2886 -32.2272 -32.2027 -32.0880 -32.0852 -32.0839 -32.0665
   -32.0566 -32.0420 -32.0221 -31.9953 -31.9595 -31.9491 -31.9355 -31.9260
   -31.8855 -31.8737 -31.8499 -31.8368 -31.8225 -31.8108 -31.7989 -31.7826
   -31.7804 -31.7725 -31.7706 -31.7506 -31.7309 -31.7223 -31.7221 -31.6918
   -31.6906 -31.6806 -31.6683 -31.6321 -31.6312 -31.5097 -31.5064 -31.4088
   -31.3915 -31.3144 -31.2435 -31.1691 -31.1368 -31.0609 -30.9749 -30.8640
   -19.1716 -16.3220 -16.0803 -15.8740 -15.8252 -15.7445 -15.7291 -15.6685
   -15.6626 -15.5042 -15.4981 -15.4793 -15.4628 -15.4501 -15.4207 -15.3813
   -15.2853 -15.1739 -15.1150 -15.0528 -15.0494 -15.0457 -14.9898 -14.9383
   -14.8812 -14.8530 -14.8527 -14.7843 -14.6570 -14.6170 -14.4622 -14.3923
   -13.3362 -13.2266  -8.5459  -6.6070  -5.8825  -4.0211  -3.7724  -3.3692
    -3.3142  -3.2706  -3.1472  -3.1440  -3.1382  -3.0733  -3.0628  -2.9793
    -2.9615  -2.9562  -2.8140  -2.6439  -2.6116  -2.6019  -2.5578  -2.4708
    -2.3983  -2.3769  -2.3583  -2.3376  -2.3340  -2.2586  -2.1987  -2.1305
    -2.1227  -2.0763  -2.0644  -2.0153  -2.0031  -1.9244  -1.9183  -1.9119
    -1.8994  -1.8094  -1.7924  -1.6685  -1.5952  -1.5130  -1.4714  -1.4307
    -1.4299  -1.3870  -1.3824  -1.3536  -1.3392  -1.1891  -1.1638  -1.1103
    -1.0883  -1.0819  -1.0552  -0.9640  -0.9402  -0.9168  -0.8329  -0.6601
    -0.5472  -0.5325  -0.4973  -0.4812  -0.4686  -0.4479  -0.4232  -0.3242
    -0.2159  -0.1737  -0.1696  -0.1295  -0.0941  -0.0411  -0.0201  -0.0113
     0.0013   0.0492   0.0912   0.1684   0.2029   0.2620   0.2974   0.3657
     0.3836   0.4709   0.5381   0.5794   0.6933   0.7259   0.7390   0.7937
     0.8327   0.9037   1.1050   1.1765   1.2140   1.3313   1.5082   1.6502
     3.3329   3.3605   3.3982   3.5435   3.6107   3.7011   3.7070   3.8078
     3.8148   3.9152

          k =-0.0760 0.0419 0.0000 ( 17914 PWs)   bands (ev):

   -55.9284 -55.9044 -55.7331 -55.7077 -55.6185 -55.6166 -55.5929 -55.5910
   -55.5647 -55.5408 -55.5079 -55.4818 -55.2678 -55.1686 -54.8348 -54.8108
   -32.3476 -32.2315 -32.2228 -32.2045 -32.0792 -32.0713 -32.0430 -32.0358
   -32.0334 -32.0148 -32.0085 -31.9949 -31.9709 -31.9671 -31.9334 -31.9241
   -31.9200 -31.8828 -31.8378 -31.8257 -31.8231 -31.8009 -31.7945 -31.7860
   -31.7775 -31.7759 -31.7749 -31.7698 -31.7635 -31.7512 -31.7351 -31.7314
   -31.7032 -31.6870 -31.6851 -31.6627 -31.6328 -31.5065 -31.5029 -31.4100
   -31.4023 -31.3664 -31.1898 -31.1645 -31.1415 -31.0485 -30.9877 -30.9212
   -19.1715 -16.2028 -15.9727 -15.7906 -15.7089 -15.7076 -15.6369 -15.6341
   -15.5943 -15.5752 -15.5599 -15.4631 -15.3885 -15.3774 -15.3651 -15.3424
   -15.3013 -15.1931 -15.1546 -15.1441 -15.1017 -15.0996 -15.0981 -15.0571
   -14.9471 -14.9206 -14.8398 -14.7863 -14.6766 -14.6292 -14.5258 -14.4588
   -13.3428 -13.2677  -8.5460  -6.6086  -5.8808  -4.0196  -3.6025  -3.2080
    -3.0873  -3.0501  -2.9364  -2.8871  -2.8818  -2.8694  -2.8573  -2.8494
    -2.8473  -2.7775  -2.7544  -2.6924  -2.6394  -2.6016  -2.5776  -2.5673
    -2.5370  -2.4702  -2.4650  -2.4384  -2.4064  -2.3572  -2.3518  -2.3274
    -2.2914  -2.2547  -2.1820  -2.1007  -1.9829  -1.9516  -1.9086  -1.8891
    -1.8405  -1.7766  -1.7461  -1.7088  -1.6718  -1.5917  -1.4100  -1.3861
    -1.3836  -1.3304  -1.3043  -1.2329  -1.1560  -1.1387  -1.1115  -1.0598
    -1.0499  -1.0229  -1.0151  -1.0006  -0.9188  -0.9089  -0.8757  -0.8512
    -0.7744  -0.7406  -0.7179  -0.6186  -0.5934  -0.5568  -0.5308  -0.5054
    -0.4118  -0.3948  -0.3677  -0.3155  -0.2628  -0.1073  -0.0702  -0.0572
    -0.0146  -0.0006   0.0755   0.1650   0.2470   0.2600   0.3187   0.4587
     0.5215   0.5606   0.5852   0.5971   0.6605   0.6822   0.7364   0.7745
     0.8199   0.8397   0.9190   1.1561   1.4050   1.4821   1.5484   1.6731
     3.3774   3.4482   3.5890   3.6149   3.6941   3.7307   3.7401   3.7767
     3.8820   3.9473

          k =-0.0760-0.0839 0.0000 ( 17948 PWs)   bands (ev):

   -55.9165 -55.9164 -55.7216 -55.7193 -55.6112 -55.6058 -55.6038 -55.5984
   -55.5533 -55.5522 -55.4994 -55.4904 -55.2663 -55.1702 -54.8229 -54.8228
   -32.2157 -32.2155 -32.2126 -32.2123 -32.0933 -32.0914 -32.0400 -32.0400
   -32.0096 -32.0064 -31.9409 -31.9388 -31.9337 -31.9320 -31.9121 -31.9084
   -31.8932 -31.8899 -31.8880 -31.8827 -31.8261 -31.8176 -31.8125 -31.8015
   -31.7950 -31.7929 -31.7892 -31.7889 -31.7856 -31.7840 -31.7664 -31.7656
   -31.7363 -31.7272 -31.6564 -31.6485 -31.5752 -31.5230 -31.5035 -31.4539
   -31.4111 -31.4020 -31.1529 -31.1528 -31.0576 -31.0574 -31.0182 -31.0182
   -19.1714 -15.9138 -15.9087 -15.7356 -15.7290 -15.6743 -15.6724 -15.5382
   -15.5374 -15.4346 -15.4321 -15.3756 -15.3729 -15.3584 -15.3474 -15.2870
   -15.2708 -15.2682 -15.2604 -15.2206 -15.2181 -15.2129 -15.2111 -15.1210
   -15.1143 -14.9371 -14.8336 -14.7935 -14.6927 -14.6448 -14.5913 -14.5447
   -13.3295 -13.3293  -8.5461  -6.6103  -5.8790  -4.0192  -3.2139  -3.2056
    -2.9219  -2.9201  -2.8771  -2.8714  -2.6673  -2.6666  -2.6441  -2.6360
    -2.6013  -2.5902  -2.5670  -2.5632  -2.5092  -2.4854  -2.4722  -2.4696
    -2.4669  -2.4569  -2.4465  -2.4370  -2.4096  -2.4001  -2.3960  -2.3907
    -2.3510  -2.2873  -2.2728  -2.1782  -2.1604  -1.9436  -1.9431  -1.9195
    -1.9152  -1.8989  -1.8856  -1.8597  -1.8502  -1.6997  -1.6553  -1.4899
    -1.4867  -1.4192  -1.4037  -1.3509  -1.3150  -1.2519  -1.2292  -1.1318
    -1.1197  -1.0492  -1.0409  -0.9832  -0.9398  -0.9320  -0.9213  -0.8288
    -0.8265  -0.8062  -0.7666  -0.7000  -0.6890  -0.6171  -0.6113  -0.5610
    -0.5595  -0.4925  -0.4854  -0.3167  -0.3133  -0.2212  -0.1946  -0.0985
    -0.0826   0.1232   0.2078   0.2355   0.2607   0.2662   0.4535   0.4665
     0.4834   0.4890   0.5167   0.5532   0.6767   0.6974   0.7632   0.7769
     0.8118   0.8183   1.0456   1.0619   1.5536   1.5539   1.6095   1.6097
     3.3887   3.6678   3.6834   3.7689   3.7694   3.7884   3.7890   3.8178
     3.8227   4.0648

     the Fermi energy is     3.2285 ev

!    total energy              =   -2971.44233881 Ry
     estimated scf accuracy    <       0.00000006 Ry
     smearing contrib. (-TS)   =      -0.01957581 Ry
     internal energy E=F+TS    =   -2971.42276300 Ry

     The total energy is F=E-TS. E is the sum of the following terms:
     one-electron contribution =  -23899.94358515 Ry
     hartree contribution      =   12042.10072100 Ry
     xc contribution           =    -492.30421160 Ry
     ewald contribution        =    9378.72355478 Ry
     electric field correction =       0.00075796 Ry

     convergence has been achieved in  72 iterations

     Forces acting on atoms (cartesian axes, Ry/au):

     atom    1 type  1   force =     0.00003511   -0.00007795    0.10231027
     atom    2 type  1   force =     0.00004379   -0.00006617    0.10231270
     atom    3 type  2   force =     0.00001462   -0.00024419    0.10286971
     atom    4 type  2   force =     0.00008039   -0.00018942    0.10229524
     atom    5 type  2   force =    -0.00009362   -0.00056281   -0.17191958
     atom    6 type  2   force =    -0.00009370   -0.00034175   -0.17209034
     atom    7 type  1   force =    -0.07285074   -0.00013435   -0.02896314
     atom    8 type  1   force =    -0.07286168   -0.00008224   -0.02896650
     atom    9 type  1   force =     0.07272239    0.00030335   -0.02904374
     atom   10 type  1   force =     0.07274748    0.00033577   -0.02905925
     atom   11 type  1   force =    -0.00003933   -0.00106154    0.04702559
     atom   12 type  1   force =    -0.00001355   -0.00087076    0.04698753
     atom   13 type  1   force =     0.00020282    0.00004765   -0.03513509
     atom   14 type  1   force =     0.00023507   -0.00007706   -0.03434055
     atom   15 type  2   force =     0.00066321   -0.00145007   -0.00639921
     atom   16 type  2   force =     0.00063319    0.00162372   -0.00652063
     atom   17 type  2   force =     0.00002017   -0.00076364    0.06350335
     atom   18 type  2   force =    -0.00004250   -0.00153619    0.06389326
     atom   19 type  1   force =    -0.01510815    0.00120272   -0.00075798
     atom   20 type  1   force =    -0.01544279    0.00064890   -0.00079534
     atom   21 type  1   force =     0.01664270    0.00174615   -0.00153563
     atom   22 type  1   force =     0.01686439    0.00105135   -0.00155044
     atom   23 type  1   force =    -0.00339194    0.00175183   -0.03964177
     atom   24 type  1   force =    -0.00233667    0.00099853   -0.04612700
     atom   25 type  1   force =     0.00003932   -0.00006850    0.00013747
     atom   26 type  1   force =     0.00030520   -0.00004504    0.00005303
     atom   27 type  2   force =    -0.00006463   -0.00009744    0.00000818
     atom   28 type  2   force =     0.00018694   -0.00002168    0.00038444
     atom   29 type  2   force =     0.00065032   -0.00029310    0.00056193
     atom   30 type  1   force =    -0.00038335   -0.00010122    0.00029969
     atom   31 type  1   force =    -0.00022930    0.00008969   -0.00019213
     atom   32 type  1   force =     0.00042726   -0.00013189    0.00016859
     atom   33 type  1   force =     0.00036618    0.00008176    0.00009404
     atom   34 type  2   force =    -0.00007268   -0.00018119    0.00055617
     atom   35 type  1   force =     0.00007372   -0.00025857   -0.00024729
     atom   36 type  1   force =    -0.00004112    0.00011836   -0.00030130
     atom   37 type  1   force =     0.00012281   -0.00021992   -0.00005816
     atom   38 type  1   force =    -0.00017249   -0.00032119   -0.00002554
     atom   39 type  2   force =    -0.00005844   -0.00037354   -0.00001063
     atom   40 type  2   force =    -0.00029714   -0.00000861    0.00055326
     atom   41 type  2   force =    -0.00023915    0.00024327    0.00021437
     atom   42 type  1   force =     0.00004822    0.00005001   -0.00017250
     atom   43 type  1   force =    -0.00014427   -0.00005032   -0.00053630
     atom   44 type  1   force =     0.00038836   -0.00042164    0.00019259
     atom   45 type  1   force =    -0.00011286   -0.00011530   -0.00036472
     atom   46 type  2   force =    -0.00012638   -0.00078552    0.00014621
     atom   47 type  1   force =     0.00014023   -0.00007611    0.00000459
     atom   48 type  3   force =    -0.00112844   -0.00155674    0.00170149
     atom   49 type  4   force =     0.00059694    0.00076016   -0.00038299
     atom   50 type  3   force =    -0.00050326   -0.00137121   -0.00126858
     atom   51 type  4   force =    -0.00075131    0.00094744    0.00022245
     atom   52 type  5   force =    -0.00020626   -0.00052312   -0.00026053
     atom   53 type  4   force =     0.00313053    0.00203544    0.00051719
     atom   54 type  1   force =    -0.00057563    0.00044391   -0.00034648

     Total force =     0.381513     Total SCF correction =     0.000528
  @ DRIVER MODE: Message from server: STATUS
  @ DRIVER MODE: Message from server: GETFORCE
  @ DRIVER MODE: Returning v,forces,stress,ensemble 

     Writing output data file ./calc.save/
  @ DRIVER MODE: Message from server: EXIT
  @ DRIVE MODE: Exiting  
 
     init_run     :     13.40s CPU     13.80s WALL (       1 calls)
     electrons    :   1389.47s CPU   1420.21s WALL (       1 calls)
     forces       :      2.86s CPU      2.98s WALL (       1 calls)

     Called by init_run:
     wfcinit      :      5.83s CPU      5.99s WALL (       1 calls)
     potinit      :      6.82s CPU      6.91s WALL (       1 calls)
     hinit0       :      0.36s CPU      0.38s WALL (       1 calls)

     Called by electrons:
     c_bands      :   1176.15s CPU   1191.74s WALL (      72 calls)
     sum_band     :    144.50s CPU    151.61s WALL (      72 calls)
     v_of_rho     :     52.18s CPU     54.21s WALL (      73 calls)
     newd         :     20.62s CPU     26.50s WALL (      73 calls)
     mix_rho      :      1.90s CPU      2.01s WALL (      72 calls)
     vdW_kernel   :      5.83s CPU      5.85s WALL (       1 calls)

     Called by c_bands:
     init_us_2    :      8.61s CPU      8.66s WALL (    1460 calls)
     cegterg      :   1151.88s CPU   1166.94s WALL (     735 calls)

     Called by *egterg:
     cdiaghg      :    184.03s CPU    184.86s WALL (    6824 calls)
     h_psi        :    627.29s CPU    636.75s WALL (    6836 calls)
     s_psi        :     82.53s CPU     82.80s WALL (    6836 calls)
     g_psi        :      2.35s CPU      2.36s WALL (    6091 calls)

     Called by h_psi:
     h_psi:calbec :     78.01s CPU     79.13s WALL (    6836 calls)
     vloc_psi     :    462.55s CPU    466.50s WALL (    6836 calls)
     add_vuspsi   :     83.07s CPU     85.40s WALL (    6836 calls)

     General routines
     calbec       :    103.35s CPU    104.55s WALL (    7596 calls)
     fft          :     27.03s CPU     27.17s WALL (    4599 calls)
     ffts         :      0.18s CPU      0.18s WALL (     145 calls)
     fftw         :    517.08s CPU    521.49s WALL (  986962 calls)
     interpolate  :      0.54s CPU      0.55s WALL (      73 calls)
     davcio       :      0.00s CPU      0.15s WALL (      10 calls)
 
     Parallel routines
 
     PWSCF        :  23m26.03s CPU  23m57.70s WALL

 
   This run was terminated on:   6: 7: 6  27Sep2021            

=------------------------------------------------------------------------------=
   JOB DONE.
=------------------------------------------------------------------------------=
