
     Program PWSCF v.6.7GPU starts on 20Sep2021 at 17: 2:41 

     This program is part of the open-source Quantum ESPRESSO suite
     for quantum simulation of materials; please cite
         "P. Giannozzi et al., J. Phys.:Condens. Matter 21 395502 (2009);
         "P. Giannozzi et al., J. Phys.:Condens. Matter 29 465901 (2017);
         "P. Giannozzi et al., J. Chem. Phys. 152 154105 (2020);
          URL http://www.quantum-espresso.org", 
     in publications or presentations arising from this work. More details at
     http://www.quantum-espresso.org/quote

     Parallel version (MPI), running on    10 processors

     MPI processes distributed on     1 nodes
     R & G space division:  proc/nbgrp/npool/nimage =      10
     Reading input from /storage/home/hcoda1/3/ntian30/research/carbon/CxH_vib/CH3_calc/ads_slab/CH3O_a/out_0027/pw.inp
Warning: card &CELL ignored
Warning: card   CELL_DYNAMICS='IPI', ignored
Warning: card / ignored

     Current dimensions of program PWSCF are:
     Max number of different atomic species (ntypx) = 10
     Max number of k-points (npk) =  40000
     Max angular momentum in pseudopotentials (lmaxx) =  3
     Presently no symmetry can be used with electric field

     Message from routine cell_base_init:
     DEPRECATED: use true lattice parameter, not A to a.u. conversion factor

     **************************************************************************
     Initializing libbeef V0.1.2 with the BEEF-vdW functional.
     Citation: Wellendorff et al., PRB 85, 235149 (2012).
     **************************************************************************


     IMPORTANT: XC functional enforced from input :
     Exchange-correlation= BEEF-VDW
                           (   1   4  43  14   2   0   0)
     Any further DFT definition will be discarded
     Please, verify this is what you really want


     Subspace diagonalization in iterative solution of the eigenvalue problem:
     one sub-group per band group will be used
     scalapack distributed-memory algorithm (size of sub-group:  3*  3 procs)

  @ DRIVER MODE: Connecting to 
 qe_1139763_2907627.sched-torque.pace.gatech.edulhynul8l_scratch
  using UNIX socket
  @ DRIVER MODE: Message from server: STATUS
  @ DRIVER MODE: Message from server: INIT
  @ DRIVER MODE: Receiving replica           0          -1
  @ DRIVER MODE: Receiving encoded integer          25
  @ DRIVER MODE:  SCF:  T  FORCE:  T  STRESS:  F  VC:  F  ENSEMBLE:  F
  @ DRIVER MODE:  SCF:  T  FORCE:  T  STRESS:  F  VC:  F  ENSEMBLE:  F
 
     Parallelization info
     --------------------
     sticks:   dense  smooth     PW     G-vecs:    dense   smooth      PW
     Min         327     131     37                56683    14340    2191
     Max         328     133     38                56694    14346    2206
     Sum        3275    1317    379               566857   143421   21985
 
     Using Slab Decomposition
 


     bravais-lattice index     =            0
     lattice parameter (alat)  =       1.8897  a.u.
     unit-cell volume          =    6658.9804 (a.u.)^3
     number of atoms/cell      =           52
     number of atomic types    =            4
     number of electrons       =       391.00
     number of Kohn-Sham states=          205
     kinetic-energy cutoff     =      29.3995  Ry
     charge density cutoff     =     293.9946  Ry
     scf convergence threshold =      7.3E-08
     mixing beta               =       0.0500
     number of iterations used =            8  plain     mixing
     Exchange-correlation= BEEF-VDW
                           (   1   4  43  14   2   0   0)

     celldm(1)=   1.889726  celldm(2)=   0.000000  celldm(3)=   0.000000
     celldm(4)=   0.000000  celldm(5)=   0.000000  celldm(6)=   0.000000

     crystal axes: (cart. coord. in units of alat)
               a(1) = (   6.579727   0.000000   0.000000 )  
               a(2) = (  -0.000775   5.961596   0.000000 )  
               a(3) = (   0.000000   0.000000  25.155947 )  

     reciprocal axes: (cart. coord. in units 2 pi/alat)
               b(1) = (  0.151982  0.000020  0.000000 )  
               b(2) = (  0.000000  0.167740  0.000000 )  
               b(3) = (  0.000000  0.000000  0.039752 )  


     PseudoPot. # 1 for Ti read from file:
     /storage/coda1/p-amedford6/0/shared/rich_project_chbe-medford/medford-share/data/pseudos_module/espresso/nninc/pbe/van/Ti.UPF
     MD5 check sum: 8e4df49b7f0d34bbd5052bf3f5ea0213
     Pseudo is Ultrasoft, Zval = 12.0
     Generated by new atomic code, or converted to UPF format
     Using radial grid of  851 points,  6 beta functions with: 
                l(1) =   0
                l(2) =   0
                l(3) =   1
                l(4) =   1
                l(5) =   2
                l(6) =   2
     Q(r) pseudized with  8 coefficients,  rinner =    1.000   1.000   1.000
                                                       1.000   1.000

     PseudoPot. # 2 for O  read from file:
     /storage/coda1/p-amedford6/0/shared/rich_project_chbe-medford/medford-share/data/pseudos_module/espresso/nninc/pbe/van/O.UPF
     MD5 check sum: 78c19812648e8988a0fe644b0f25305e
     Pseudo is Ultrasoft, Zval =  6.0
     Generated by new atomic code, or converted to UPF format
     Using radial grid of  737 points,  4 beta functions with: 
                l(1) =   0
                l(2) =   0
                l(3) =   1
                l(4) =   1
     Q(r) pseudized with  8 coefficients,  rinner =    0.800   0.800   0.800


     PseudoPot. # 3 for C  read from file:
     /storage/coda1/p-amedford6/0/shared/rich_project_chbe-medford/medford-share/data/pseudos_module/espresso/nninc/pbe/van/C.UPF
     MD5 check sum: 1a69bf6b8db32088f5b2163dbdb77a27
     Pseudo is Ultrasoft, Zval =  4.0
     Generated by new atomic code, or converted to UPF format
     Using radial grid of  721 points,  4 beta functions with: 
                l(1) =   0
                l(2) =   0
                l(3) =   1
                l(4) =   1
     Q(r) pseudized with  8 coefficients,  rinner =    0.800   0.800   0.800


     PseudoPot. # 4 for H  read from file:
     /storage/coda1/p-amedford6/0/shared/rich_project_chbe-medford/medford-share/data/pseudos_module/espresso/nninc/pbe/van/H.UPF
     MD5 check sum: b5ee9d7bfd3a09ee7748110bda690ff7
     Pseudo is Ultrasoft, Zval =  1.0
     Generated by new atomic code, or converted to UPF format
     Using radial grid of  615 points,  1 beta functions with: 
                l(1) =   0
     Q(r) pseudized with  8 coefficients,  rinner =    0.800

     atomic species   valence    mass     pseudopotential
        Ti1           12.00    47.86700     Ti( 1.00)
        O1             6.00    15.99900     O ( 1.00)
        C1             4.00    12.01100     C ( 1.00)
        H1             1.00     1.00800     H ( 1.00)

     No symmetry found



   Cartesian axes

     site n.     atom                  positions (alat units)
         1           Ti1 tau(   1) = (   0.0004258   2.9801865   6.0000000  )
         2           Ti1 tau(   2) = (   3.2906075   1.4906267   6.0002472  )
         3           O1  tau(   3) = (   0.0006271   0.0005054   7.9858123  )
         4           O1  tau(   4) = (   3.2906025   0.0005020   7.3038282  )
         5           O1  tau(   5) = (   4.5942328   1.4918067   9.2879030  )
         6           O1  tau(   6) = (   1.9868534   1.4903216   9.2879459  )
         7           Ti1 tau(   7) = (   3.3187032   3.0312427   9.1575206  )
         8           Ti1 tau(   8) = (   0.0282419   1.6147502   9.3704053  )
         9           O1  tau(   9) = (   3.3236385   0.0141534  11.3532293  )
        10           O1  tau(  10) = (   0.0104197   0.0125229  10.6127740  )
        11           O1  tau(  11) = (   1.3245732   1.5021988  12.6430083  )
        12           O1  tau(  12) = (   5.3244981   1.5061434  12.6562219  )
        13           Ti1 tau(  13) = (   0.0403031   3.0097444  12.8244759  )
        14           Ti1 tau(  14) = (   3.3296682   1.5108177  12.4986020  )
        15           O1  tau(  15) = (   0.0398480   0.0117783  14.7343716  )
        16           O1  tau(  16) = (   3.3300567   0.0146708  13.9469669  )
        17           O1  tau(  17) = (   4.5805658   1.5026465  16.1145873  )
        18           O1  tau(  18) = (   2.0880061   1.5021997  16.1152651  )
        19           Ti1 tau(  19) = (   3.3307167   2.9906167  15.7324548  )
        20           Ti1 tau(  20) = (   0.0579274   1.3843852  16.1188819  )
        21           O1  tau(  21) = (   3.2904802   0.0005063   4.7018136  )
        22           O1  tau(  22) = (   0.0436517   5.9586681  17.2572535  )
        23           O1  tau(  23) = (   1.3043587   1.4918075   6.0039043  )
        24           O1  tau(  24) = (   5.2767064   1.4903225   6.0039473  )
        25           Ti1 tau(  25) = (   0.0000382   5.9609847   6.0000000  )
        26           Ti1 tau(  26) = (   3.2902200   4.4714249   6.0002472  )
        27           O1  tau(  27) = (   0.0002396   2.9813036   7.9858123  )
        28           O1  tau(  28) = (   3.2902150   2.9813002   7.3038282  )
        29           O1  tau(  29) = (   4.5938453   4.4726049   9.2879030  )
        30           O1  tau(  30) = (   1.9864658   4.4711199   9.2879459  )
        31           Ti1 tau(  31) = (   3.3083866   0.0539517   9.1541167  )
        32           Ti1 tau(  32) = (   0.0315341   4.5377404   9.2709708  )
        33           O1  tau(  33) = (   3.3215087   2.9954721  11.3555336  )
        34           O1  tau(  34) = (   0.0112336   2.9957203  10.5730616  )
        35           O1  tau(  35) = (   1.3257220   4.4896437  12.6447561  )
        36           O1  tau(  36) = (   5.3225596   4.4851362  12.6583724  )
        37           Ti1 tau(  37) = (   0.0354833   0.0274604  12.5282598  )
        38           Ti1 tau(  38) = (   3.3297026   4.4921445  12.4963722  )
        39           O1  tau(  39) = (   0.0599690   3.0154325  14.7102929  )
        40           O1  tau(  40) = (   3.3251099   2.9889739  13.9402376  )
        41           O1  tau(  41) = (   4.5781535   4.4756942  16.0984728  )
        42           O1  tau(  42) = (   2.0867977   4.4764083  16.0997756  )
        43           Ti1 tau(  43) = (   3.3478802   0.0108728  15.7387323  )
        44           Ti1 tau(  44) = (   0.0598937   4.5429110  15.9843511  )
        45           O1  tau(  45) = (   3.2900926   2.9813045   4.7018136  )
        46           O1  tau(  46) = (   1.3039711   4.4726057   6.0039043  )
        47           O1  tau(  47) = (   5.2763189   4.4711207   6.0039473  )
        48           C1  tau(  48) = (   6.0696523   3.0631652  18.6664891  )
        49           O1  tau(  49) = (   0.0149881   2.9985468  17.3426271  )
        50           H1  tau(  50) = (   4.9903245   2.8753800  18.6581135  )
        51           H1  tau(  51) = (   6.5502243   2.3063723  19.2898855  )
        52           H1  tau(  52) = (   6.2508803   4.0460215  19.0798806  )

     number of k points=    10  Fermi-Dirac smearing, width (Ry)=  0.0073
                       cart. coord. in units 2pi/alat
        k(    1) = (   0.0000000   0.0000000   0.0000000), wk =   0.1250000
        k(    2) = (   0.0000000   0.0419351   0.0000000), wk =   0.2500000
        k(    3) = (   0.0000000  -0.0838702   0.0000000), wk =   0.1250000
        k(    4) = (   0.0379955   0.0000049   0.0000000), wk =   0.2500000
        k(    5) = (   0.0379955   0.0419400   0.0000000), wk =   0.2500000
        k(    6) = (   0.0379955  -0.0838652   0.0000000), wk =   0.2500000
        k(    7) = (   0.0379955  -0.0419301   0.0000000), wk =   0.2500000
        k(    8) = (  -0.0759910  -0.0000099   0.0000000), wk =   0.1250000
        k(    9) = (  -0.0759910   0.0419252   0.0000000), wk =   0.2500000
        k(   10) = (  -0.0759910  -0.0838800   0.0000000), wk =   0.1250000

     Dense  grid:   566857 G-vectors     FFT dimensions: (  72,  64, 270)

     Smooth grid:   143421 G-vectors     FFT dimensions: (  45,  40, 180)

     Estimated max dynamical RAM per process >     362.08 MB

     Estimated total dynamical RAM >       3.54 GB
     Cannot read rho : file not found

     Initial potential from superposition of free atoms

     starting charge  374.99918, renormalised to  391.00000

     negative rho (up, down):  1.819E-02 0.000E+00


     %%%%%%%%%%%%%%%%%%%%%%%%%%%%%%%%%%%%%%%%%%%%%%%%%%%%%%%%%%%%%%%%%%%%%%%%
     %                                                                      %
     % You are using vdW-DF, which was implemented by the Thonhauser group. %
     % Please cite the following two papers that made this development      %
     % possible and the two reviews that describe the various versions:     %
     %                                                                      %
     %   T. Thonhauser et al., PRL 115, 136402 (2015).                      %
     %   T. Thonhauser et al., PRB 76, 125112 (2007).                       %
     %   K. Berland et al., Rep. Prog. Phys. 78, 066501 (2015).             %
     %   D.C. Langreth et al., J. Phys.: Condens. Matter 21, 084203 (2009). %
     %                                                                      %
     %                                                                      %
     % If you are calculating the stress with vdW-DF, please also cite:     %
     %                                                                      %
     %   R. Sabatini et al., J. Phys.: Condens. Matter 24, 424209 (2012).   %
     %                                                                      %
     %%%%%%%%%%%%%%%%%%%%%%%%%%%%%%%%%%%%%%%%%%%%%%%%%%%%%%%%%%%%%%%%%%%%%%%%


 
     Adding external electric field

     Computed dipole along edir(3) : 
        Dipole               -5.5401 Ry au,        -14.0815 Debye
        Dipole field         -0.0105 Ry au, 
 
        Potential amp.        0.9692 Ry
        Total length         46.3494 bohr
 
     Starting wfcs are  295 atomic wfcs
  @ DRIVER MODE: Message from server: STATUS
  @ DRIVER MODE: Message from server: POSDATA
  @ DRIVER MODE: Reading and sharing cell 
  @ DRIVER MODE: Reading and sharing positions 
  @ DRIVER MODE: Received positions 

     total cpu time spent up to now is       11.3 secs

     Self-consistent Calculation

     iteration #  1     ecut=    29.40 Ry     beta= 0.05
     Davidson diagonalization with overlap
     c_bands:  3 eigenvalues not converged
     c_bands:  2 eigenvalues not converged
     c_bands:  3 eigenvalues not converged
     c_bands:  2 eigenvalues not converged
     c_bands:  3 eigenvalues not converged
     c_bands:  2 eigenvalues not converged
     c_bands:  1 eigenvalues not converged
     c_bands:  1 eigenvalues not converged
     c_bands:  2 eigenvalues not converged
     ethr =  1.00E-05,  avg # of iterations = 19.7

     negative rho (up, down):  1.749E-02 0.000E+00
 
     Adding external electric field

     Computed dipole along edir(3) : 
        Dipole               25.2369 Ry au,         64.1458 Debye
        Dipole field          0.0476 Ry au, 
 
        Potential amp.       -4.4148 Ry
        Total length         46.3494 bohr
 

     total cpu time spent up to now is       50.8 secs

     total energy              =   -2791.63659855 Ry
     estimated scf accuracy    <    1532.04246825 Ry

     iteration #  2     ecut=    29.40 Ry     beta= 0.05
     Davidson diagonalization with overlap
     ethr =  1.00E-02,  avg # of iterations = 18.1

     negative rho (up, down):  7.148E-03 0.000E+00
 
     Adding external electric field

     Computed dipole along edir(3) : 
        Dipole               -2.2985 Ry au,         -5.8422 Debye
        Dipole field         -0.0043 Ry au, 
 
        Potential amp.        0.4021 Ry
        Total length         46.3494 bohr
 

     total cpu time spent up to now is       97.1 secs

     total energy              =   -2650.83194867 Ry
     estimated scf accuracy    <   36679.56665043 Ry

     iteration #  3     ecut=    29.40 Ry     beta= 0.05
     Davidson diagonalization with overlap
     ethr =  1.00E-02,  avg # of iterations = 15.2

     negative rho (up, down):  7.188E-03 0.000E+00
 
     Adding external electric field

     Computed dipole along edir(3) : 
        Dipole               -3.4037 Ry au,         -8.6513 Debye
        Dipole field         -0.0064 Ry au, 
 
        Potential amp.        0.5954 Ry
        Total length         46.3494 bohr
 

     total cpu time spent up to now is      136.2 secs

     total energy              =   -2919.28762020 Ry
     estimated scf accuracy    <    1251.98553323 Ry

     iteration #  4     ecut=    29.40 Ry     beta= 0.05
     Davidson diagonalization with overlap
     c_bands:  5 eigenvalues not converged
     ethr =  1.00E-02,  avg # of iterations =  8.9

     negative rho (up, down):  7.285E-03 0.000E+00
 
     Adding external electric field

     Computed dipole along edir(3) : 
        Dipole               -4.3502 Ry au,        -11.0570 Debye
        Dipole field         -0.0082 Ry au, 
 
        Potential amp.        0.7610 Ry
        Total length         46.3494 bohr
 

     total cpu time spent up to now is      149.6 secs

     total energy              =   -2914.69201703 Ry
     estimated scf accuracy    <     811.56979473 Ry

     iteration #  5     ecut=    29.40 Ry     beta= 0.05
     Davidson diagonalization with overlap
     ethr =  1.00E-02,  avg # of iterations =  8.9

     negative rho (up, down):  7.130E-03 0.000E+00
 
     Adding external electric field

     Computed dipole along edir(3) : 
        Dipole               -4.1067 Ry au,        -10.4382 Debye
        Dipole field         -0.0077 Ry au, 
 
        Potential amp.        0.7184 Ry
        Total length         46.3494 bohr
 

     total cpu time spent up to now is      167.4 secs

     total energy              =   -2933.48309617 Ry
     estimated scf accuracy    <      12.17831520 Ry

     iteration #  6     ecut=    29.40 Ry     beta= 0.05
     Davidson diagonalization with overlap
     ethr =  3.11E-03,  avg # of iterations =  2.7

     negative rho (up, down):  7.261E-03 0.000E+00
 
     Adding external electric field

     Computed dipole along edir(3) : 
        Dipole               -2.1802 Ry au,         -5.5415 Debye
        Dipole field         -0.0041 Ry au, 
 
        Potential amp.        0.3814 Ry
        Total length         46.3494 bohr
 

     total cpu time spent up to now is      178.8 secs

     total energy              =   -2930.14880044 Ry
     estimated scf accuracy    <      11.22407902 Ry

     iteration #  7     ecut=    29.40 Ry     beta= 0.05
     Davidson diagonalization with overlap
     ethr =  2.87E-03,  avg # of iterations =  7.1

     negative rho (up, down):  7.287E-03 0.000E+00
 
     Adding external electric field

     Computed dipole along edir(3) : 
        Dipole               -1.8787 Ry au,         -4.7752 Debye
        Dipole field         -0.0035 Ry au, 
 
        Potential amp.        0.3287 Ry
        Total length         46.3494 bohr
 

     total cpu time spent up to now is      192.4 secs

     total energy              =   -2933.09451576 Ry
     estimated scf accuracy    <     136.10345396 Ry

     iteration #  8     ecut=    29.40 Ry     beta= 0.05
     Davidson diagonalization with overlap
     ethr =  2.87E-03,  avg # of iterations =  3.4

     negative rho (up, down):  7.228E-03 0.000E+00
 
     Adding external electric field

     Computed dipole along edir(3) : 
        Dipole               -1.9446 Ry au,         -4.9426 Debye
        Dipole field         -0.0037 Ry au, 
 
        Potential amp.        0.3402 Ry
        Total length         46.3494 bohr
 

     total cpu time spent up to now is      203.8 secs

     total energy              =   -2933.25500072 Ry
     estimated scf accuracy    <     207.57737118 Ry

     iteration #  9     ecut=    29.40 Ry     beta= 0.05
     Davidson diagonalization with overlap
     ethr =  2.87E-03,  avg # of iterations =  1.1

     negative rho (up, down):  7.057E-03 0.000E+00
 
     Adding external electric field

     Computed dipole along edir(3) : 
        Dipole               -3.4261 Ry au,         -8.7083 Debye
        Dipole field         -0.0065 Ry au, 
 
        Potential amp.        0.5993 Ry
        Total length         46.3494 bohr
 

     total cpu time spent up to now is      214.1 secs

     total energy              =   -2926.75207941 Ry
     estimated scf accuracy    <     201.89359581 Ry

     iteration # 10     ecut=    29.40 Ry     beta= 0.05
     Davidson diagonalization with overlap
     ethr =  2.87E-03,  avg # of iterations =  4.7

     negative rho (up, down):  7.111E-03 0.000E+00
 
     Adding external electric field

     Computed dipole along edir(3) : 
        Dipole               -2.9502 Ry au,         -7.4987 Debye
        Dipole field         -0.0056 Ry au, 
 
        Potential amp.        0.5161 Ry
        Total length         46.3494 bohr
 

     total cpu time spent up to now is      226.1 secs

     total energy              =   -2931.35700424 Ry
     estimated scf accuracy    <       3.14121685 Ry

     iteration # 11     ecut=    29.40 Ry     beta= 0.05
     Davidson diagonalization with overlap
     c_bands:  1 eigenvalues not converged
     c_bands:  1 eigenvalues not converged
     c_bands:  2 eigenvalues not converged
     ethr =  8.03E-04,  avg # of iterations = 14.9

     negative rho (up, down):  7.198E-03 0.000E+00
 
     Adding external electric field

     Computed dipole along edir(3) : 
        Dipole               -2.6437 Ry au,         -6.7195 Debye
        Dipole field         -0.0050 Ry au, 
 
        Potential amp.        0.4625 Ry
        Total length         46.3494 bohr
 

     total cpu time spent up to now is      243.4 secs

     total energy              =   -2931.56951590 Ry
     estimated scf accuracy    <       2.29508171 Ry

     iteration # 12     ecut=    29.40 Ry     beta= 0.05
     Davidson diagonalization with overlap
     c_bands:  1 eigenvalues not converged
     ethr =  5.87E-04,  avg # of iterations =  5.1

     negative rho (up, down):  7.229E-03 0.000E+00
 
     Adding external electric field

     Computed dipole along edir(3) : 
        Dipole               -2.3295 Ry au,         -5.9210 Debye
        Dipole field         -0.0044 Ry au, 
 
        Potential amp.        0.4075 Ry
        Total length         46.3494 bohr
 

     total cpu time spent up to now is      256.5 secs

     total energy              =   -2931.61458734 Ry
     estimated scf accuracy    <       2.14857887 Ry

     iteration # 13     ecut=    29.40 Ry     beta= 0.05
     Davidson diagonalization with overlap
     ethr =  5.50E-04,  avg # of iterations =  5.7

     negative rho (up, down):  7.349E-03 0.000E+00
 
     Adding external electric field

     Computed dipole along edir(3) : 
        Dipole               -1.6066 Ry au,         -4.0837 Debye
        Dipole field         -0.0030 Ry au, 
 
        Potential amp.        0.2811 Ry
        Total length         46.3494 bohr
 

     total cpu time spent up to now is      268.7 secs

     total energy              =   -2931.47178070 Ry
     estimated scf accuracy    <       1.65309172 Ry

     iteration # 14     ecut=    29.40 Ry     beta= 0.05
     Davidson diagonalization with overlap
     ethr =  4.23E-04,  avg # of iterations =  9.6

     negative rho (up, down):  7.357E-03 0.000E+00
 
     Adding external electric field

     Computed dipole along edir(3) : 
        Dipole               -1.5321 Ry au,         -3.8941 Debye
        Dipole field         -0.0029 Ry au, 
 
        Potential amp.        0.2680 Ry
        Total length         46.3494 bohr
 

     total cpu time spent up to now is      284.1 secs

     total energy              =   -2931.63449188 Ry
     estimated scf accuracy    <       1.05904451 Ry

     iteration # 15     ecut=    29.40 Ry     beta= 0.05
     Davidson diagonalization with overlap
     c_bands:  1 eigenvalues not converged
     ethr =  2.71E-04,  avg # of iterations =  7.3

     negative rho (up, down):  7.366E-03 0.000E+00
 
     Adding external electric field

     Computed dipole along edir(3) : 
        Dipole               -1.1299 Ry au,         -2.8719 Debye
        Dipole field         -0.0021 Ry au, 
 
        Potential amp.        0.1977 Ry
        Total length         46.3494 bohr
 

     total cpu time spent up to now is      296.7 secs

     total energy              =   -2931.68023102 Ry
     estimated scf accuracy    <       1.10425606 Ry

     iteration # 16     ecut=    29.40 Ry     beta= 0.05
     Davidson diagonalization with overlap
     ethr =  2.71E-04,  avg # of iterations =  9.0

     negative rho (up, down):  7.294E-03 0.000E+00
 
     Adding external electric field

     Computed dipole along edir(3) : 
        Dipole               -1.1115 Ry au,         -2.8250 Debye
        Dipole field         -0.0021 Ry au, 
 
        Potential amp.        0.1944 Ry
        Total length         46.3494 bohr
 

     total cpu time spent up to now is      310.3 secs

     total energy              =   -2931.65719358 Ry
     estimated scf accuracy    <       1.91177356 Ry

     iteration # 17     ecut=    29.40 Ry     beta= 0.05
     Davidson diagonalization with overlap
     ethr =  2.71E-04,  avg # of iterations =  1.3

     negative rho (up, down):  7.189E-03 0.000E+00
 
     Adding external electric field

     Computed dipole along edir(3) : 
        Dipole               -1.0437 Ry au,         -2.6527 Debye
        Dipole field         -0.0020 Ry au, 
 
        Potential amp.        0.1826 Ry
        Total length         46.3494 bohr
 

     total cpu time spent up to now is      320.7 secs

     total energy              =   -2931.23857357 Ry
     estimated scf accuracy    <       1.57503952 Ry

     iteration # 18     ecut=    29.40 Ry     beta= 0.05
     Davidson diagonalization with overlap
     c_bands:  1 eigenvalues not converged
     ethr =  2.71E-04,  avg # of iterations = 10.8

     negative rho (up, down):  7.433E-03 0.000E+00
 
     Adding external electric field

     Computed dipole along edir(3) : 
        Dipole               -0.6070 Ry au,         -1.5428 Debye
        Dipole field         -0.0011 Ry au, 
 
        Potential amp.        0.1062 Ry
        Total length         46.3494 bohr
 

     total cpu time spent up to now is      341.1 secs

     total energy              =   -2931.31147055 Ry
     estimated scf accuracy    <       1.11440446 Ry

     iteration # 19     ecut=    29.40 Ry     beta= 0.05
     Davidson diagonalization with overlap
     ethr =  2.71E-04,  avg # of iterations =  6.2

     negative rho (up, down):  7.692E-03 0.000E+00
 
     Adding external electric field

     Computed dipole along edir(3) : 
        Dipole               -0.3615 Ry au,         -0.9190 Debye
        Dipole field         -0.0007 Ry au, 
 
        Potential amp.        0.0632 Ry
        Total length         46.3494 bohr
 

     total cpu time spent up to now is      357.8 secs

     total energy              =   -2931.53697712 Ry
     estimated scf accuracy    <       0.82286138 Ry

     iteration # 20     ecut=    29.40 Ry     beta= 0.05
     Davidson diagonalization with overlap
     c_bands:  1 eigenvalues not converged
     c_bands:  2 eigenvalues not converged
     c_bands:  5 eigenvalues not converged
     c_bands:  1 eigenvalues not converged
     ethr =  2.10E-04,  avg # of iterations = 15.6

     negative rho (up, down):  7.890E-03 0.000E+00
 
     Adding external electric field

     Computed dipole along edir(3) : 
        Dipole                0.1153 Ry au,          0.2931 Debye
        Dipole field          0.0002 Ry au, 
 
        Potential amp.       -0.0202 Ry
        Total length         46.3494 bohr
 

     total cpu time spent up to now is      373.9 secs

     total energy              =   -2931.47721456 Ry
     estimated scf accuracy    <       0.98538789 Ry

     iteration # 21     ecut=    29.40 Ry     beta= 0.05
     Davidson diagonalization with overlap
     ethr =  2.10E-04,  avg # of iterations =  1.8

     negative rho (up, down):  8.036E-03 0.000E+00
 
     Adding external electric field

     Computed dipole along edir(3) : 
        Dipole                0.3167 Ry au,          0.8049 Debye
        Dipole field          0.0006 Ry au, 
 
        Potential amp.       -0.0554 Ry
        Total length         46.3494 bohr
 

     total cpu time spent up to now is      384.9 secs

     total energy              =   -2931.46294769 Ry
     estimated scf accuracy    <       0.32320285 Ry

     iteration # 22     ecut=    29.40 Ry     beta= 0.05
     Davidson diagonalization with overlap
     c_bands:  2 eigenvalues not converged
     ethr =  8.27E-05,  avg # of iterations = 16.4

     negative rho (up, down):  8.002E-03 0.000E+00
 
     Adding external electric field

     Computed dipole along edir(3) : 
        Dipole                0.3093 Ry au,          0.7862 Debye
        Dipole field          0.0006 Ry au, 
 
        Potential amp.       -0.0541 Ry
        Total length         46.3494 bohr
 

     total cpu time spent up to now is      403.6 secs

     total energy              =   -2931.49734482 Ry
     estimated scf accuracy    <       0.10965841 Ry

     iteration # 23     ecut=    29.40 Ry     beta= 0.05
     Davidson diagonalization with overlap
     c_bands:  1 eigenvalues not converged
     c_bands:  1 eigenvalues not converged
     ethr =  2.80E-05,  avg # of iterations = 11.4

     negative rho (up, down):  7.873E-03 0.000E+00
 
     Adding external electric field

     Computed dipole along edir(3) : 
        Dipole                0.2217 Ry au,          0.5635 Debye
        Dipole field          0.0004 Ry au, 
 
        Potential amp.       -0.0388 Ry
        Total length         46.3494 bohr
 

     total cpu time spent up to now is      417.6 secs

     total energy              =   -2931.49350655 Ry
     estimated scf accuracy    <       0.09228055 Ry

     iteration # 24     ecut=    29.40 Ry     beta= 0.05
     Davidson diagonalization with overlap
     c_bands:  2 eigenvalues not converged
     ethr =  2.36E-05,  avg # of iterations = 11.5

     negative rho (up, down):  9.038E-03 0.000E+00
 
     Adding external electric field

     Computed dipole along edir(3) : 
        Dipole                0.5349 Ry au,          1.3595 Debye
        Dipole field          0.0010 Ry au, 
 
        Potential amp.       -0.0936 Ry
        Total length         46.3494 bohr
 

     total cpu time spent up to now is      432.1 secs

     total energy              =   -2931.48810682 Ry
     estimated scf accuracy    <       0.11142756 Ry

     iteration # 25     ecut=    29.40 Ry     beta= 0.05
     Davidson diagonalization with overlap
     c_bands:  1 eigenvalues not converged
     ethr =  2.36E-05,  avg # of iterations = 10.9

     negative rho (up, down):  9.590E-03 0.000E+00
 
     Adding external electric field

     Computed dipole along edir(3) : 
        Dipole                0.6115 Ry au,          1.5542 Debye
        Dipole field          0.0012 Ry au, 
 
        Potential amp.       -0.1070 Ry
        Total length         46.3494 bohr
 

     total cpu time spent up to now is      447.4 secs

     total energy              =   -2931.49727309 Ry
     estimated scf accuracy    <       0.02546615 Ry

     iteration # 26     ecut=    29.40 Ry     beta= 0.05
     Davidson diagonalization with overlap
     c_bands:  1 eigenvalues not converged
     c_bands:  1 eigenvalues not converged
     c_bands:  2 eigenvalues not converged
     c_bands:  1 eigenvalues not converged
     ethr =  6.51E-06,  avg # of iterations = 16.5

     negative rho (up, down):  9.563E-03 0.000E+00
 
     Adding external electric field

     Computed dipole along edir(3) : 
        Dipole                0.5957 Ry au,          1.5141 Debye
        Dipole field          0.0011 Ry au, 
 
        Potential amp.       -0.1042 Ry
        Total length         46.3494 bohr
 

     total cpu time spent up to now is      468.9 secs

     total energy              =   -2931.50608996 Ry
     estimated scf accuracy    <       0.02886523 Ry

     iteration # 27     ecut=    29.40 Ry     beta= 0.05
     Davidson diagonalization with overlap
     c_bands:  1 eigenvalues not converged
     c_bands:  1 eigenvalues not converged
     ethr =  6.51E-06,  avg # of iterations =  5.1

     negative rho (up, down):  1.039E-02 0.000E+00
 
     Adding external electric field

     Computed dipole along edir(3) : 
        Dipole                0.6937 Ry au,          1.7631 Debye
        Dipole field          0.0013 Ry au, 
 
        Potential amp.       -0.1213 Ry
        Total length         46.3494 bohr
 

     total cpu time spent up to now is      480.3 secs

     total energy              =   -2931.49568638 Ry
     estimated scf accuracy    <       0.03989048 Ry

     iteration # 28     ecut=    29.40 Ry     beta= 0.05
     Davidson diagonalization with overlap
     ethr =  6.51E-06,  avg # of iterations =  7.8

     negative rho (up, down):  1.162E-02 0.000E+00
 
     Adding external electric field

     Computed dipole along edir(3) : 
        Dipole                0.7267 Ry au,          1.8471 Debye
        Dipole field          0.0014 Ry au, 
 
        Potential amp.       -0.1271 Ry
        Total length         46.3494 bohr
 

     total cpu time spent up to now is      496.2 secs

     total energy              =   -2931.50022226 Ry
     estimated scf accuracy    <       0.00877260 Ry

     iteration # 29     ecut=    29.40 Ry     beta= 0.05
     Davidson diagonalization with overlap
     c_bands:  3 eigenvalues not converged
     c_bands:  2 eigenvalues not converged
     c_bands:  3 eigenvalues not converged
     c_bands:  2 eigenvalues not converged
     c_bands:  1 eigenvalues not converged
     c_bands:  1 eigenvalues not converged
     c_bands:  1 eigenvalues not converged
     ethr =  2.24E-06,  avg # of iterations = 18.1

     negative rho (up, down):  1.151E-02 0.000E+00
 
     Adding external electric field

     Computed dipole along edir(3) : 
        Dipole                0.7086 Ry au,          1.8011 Debye
        Dipole field          0.0013 Ry au, 
 
        Potential amp.       -0.1240 Ry
        Total length         46.3494 bohr
 

     total cpu time spent up to now is      521.1 secs

     total energy              =   -2931.50208692 Ry
     estimated scf accuracy    <       0.01571613 Ry

     iteration # 30     ecut=    29.40 Ry     beta= 0.05
     Davidson diagonalization with overlap
     c_bands:  2 eigenvalues not converged
     ethr =  2.24E-06,  avg # of iterations =  5.8

     negative rho (up, down):  1.297E-02 0.000E+00
 
     Adding external electric field

     Computed dipole along edir(3) : 
        Dipole                0.7375 Ry au,          1.8746 Debye
        Dipole field          0.0014 Ry au, 
 
        Potential amp.       -0.1290 Ry
        Total length         46.3494 bohr
 

     total cpu time spent up to now is      533.1 secs

     total energy              =   -2931.49937157 Ry
     estimated scf accuracy    <       0.01093907 Ry

     iteration # 31     ecut=    29.40 Ry     beta= 0.05
     Davidson diagonalization with overlap
     c_bands:  1 eigenvalues not converged
     ethr =  2.24E-06,  avg # of iterations = 13.1

     negative rho (up, down):  1.501E-02 0.000E+00
 
     Adding external electric field

     Computed dipole along edir(3) : 
        Dipole                0.7274 Ry au,          1.8489 Debye
        Dipole field          0.0014 Ry au, 
 
        Potential amp.       -0.1272 Ry
        Total length         46.3494 bohr
 

     total cpu time spent up to now is      554.6 secs

     total energy              =   -2931.50262913 Ry
     estimated scf accuracy    <       0.00537239 Ry

     iteration # 32     ecut=    29.40 Ry     beta= 0.05
     Davidson diagonalization with overlap
     c_bands:  1 eigenvalues not converged
     ethr =  1.37E-06,  avg # of iterations = 11.2

     negative rho (up, down):  1.536E-02 0.000E+00
 
     Adding external electric field

     Computed dipole along edir(3) : 
        Dipole                0.6984 Ry au,          1.7751 Debye
        Dipole field          0.0013 Ry au, 
 
        Potential amp.       -0.1222 Ry
        Total length         46.3494 bohr
 

     total cpu time spent up to now is      569.0 secs

     total energy              =   -2931.50055501 Ry
     estimated scf accuracy    <       0.00699165 Ry

     iteration # 33     ecut=    29.40 Ry     beta= 0.05
     Davidson diagonalization with overlap
     c_bands:  1 eigenvalues not converged
     ethr =  1.37E-06,  avg # of iterations =  9.8

     negative rho (up, down):  1.526E-02 0.000E+00
 
     Adding external electric field

     Computed dipole along edir(3) : 
        Dipole                0.7069 Ry au,          1.7966 Debye
        Dipole field          0.0013 Ry au, 
 
        Potential amp.       -0.1237 Ry
        Total length         46.3494 bohr
 

     total cpu time spent up to now is      587.6 secs

     total energy              =   -2931.50191600 Ry
     estimated scf accuracy    <       0.00204630 Ry

     iteration # 34     ecut=    29.40 Ry     beta= 0.05
     Davidson diagonalization with overlap
     ethr =  5.23E-07,  avg # of iterations =  4.3

     negative rho (up, down):  1.672E-02 0.000E+00
 
     Adding external electric field

     Computed dipole along edir(3) : 
        Dipole                0.7706 Ry au,          1.9588 Debye
        Dipole field          0.0015 Ry au, 
 
        Potential amp.       -0.1348 Ry
        Total length         46.3494 bohr
 

     total cpu time spent up to now is      599.4 secs

     total energy              =   -2931.50190099 Ry
     estimated scf accuracy    <       0.00091250 Ry

     iteration # 35     ecut=    29.40 Ry     beta= 0.05
     Davidson diagonalization with overlap
     c_bands:  2 eigenvalues not converged
     c_bands:  1 eigenvalues not converged
     ethr =  2.33E-07,  avg # of iterations = 14.1

     negative rho (up, down):  1.652E-02 0.000E+00
 
     Adding external electric field

     Computed dipole along edir(3) : 
        Dipole                0.7226 Ry au,          1.8366 Debye
        Dipole field          0.0014 Ry au, 
 
        Potential amp.       -0.1264 Ry
        Total length         46.3494 bohr
 

     total cpu time spent up to now is      623.0 secs

     total energy              =   -2931.50201713 Ry
     estimated scf accuracy    <       0.00235914 Ry

     iteration # 36     ecut=    29.40 Ry     beta= 0.05
     Davidson diagonalization with overlap
     ethr =  2.33E-07,  avg # of iterations = 11.5

     negative rho (up, down):  1.678E-02 0.000E+00
 
     Adding external electric field

     Computed dipole along edir(3) : 
        Dipole                0.7169 Ry au,          1.8221 Debye
        Dipole field          0.0014 Ry au, 
 
        Potential amp.       -0.1254 Ry
        Total length         46.3494 bohr
 

     total cpu time spent up to now is      641.4 secs

     total energy              =   -2931.50216333 Ry
     estimated scf accuracy    <       0.00035569 Ry

     iteration # 37     ecut=    29.40 Ry     beta= 0.05
     Davidson diagonalization with overlap
     c_bands:  2 eigenvalues not converged
     ethr =  9.10E-08,  avg # of iterations = 13.9

     negative rho (up, down):  1.749E-02 0.000E+00
 
     Adding external electric field

     Computed dipole along edir(3) : 
        Dipole                0.7327 Ry au,          1.8623 Debye
        Dipole field          0.0014 Ry au, 
 
        Potential amp.       -0.1282 Ry
        Total length         46.3494 bohr
 

     total cpu time spent up to now is      666.4 secs

     total energy              =   -2931.50246837 Ry
     estimated scf accuracy    <       0.00084738 Ry

     iteration # 38     ecut=    29.40 Ry     beta= 0.05
     Davidson diagonalization with overlap
     ethr =  9.10E-08,  avg # of iterations =  3.6

     negative rho (up, down):  1.840E-02 0.000E+00
 
     Adding external electric field

     Computed dipole along edir(3) : 
        Dipole                0.7551 Ry au,          1.9192 Debye
        Dipole field          0.0014 Ry au, 
 
        Potential amp.       -0.1321 Ry
        Total length         46.3494 bohr
 

     total cpu time spent up to now is      677.9 secs

     total energy              =   -2931.50239418 Ry
     estimated scf accuracy    <       0.00077662 Ry

     iteration # 39     ecut=    29.40 Ry     beta= 0.05
     Davidson diagonalization with overlap
     ethr =  9.10E-08,  avg # of iterations =  7.4

     negative rho (up, down):  1.837E-02 0.000E+00
 
     Adding external electric field

     Computed dipole along edir(3) : 
        Dipole                0.7558 Ry au,          1.9211 Debye
        Dipole field          0.0014 Ry au, 
 
        Potential amp.       -0.1322 Ry
        Total length         46.3494 bohr
 

     total cpu time spent up to now is      692.3 secs

     total energy              =   -2931.50240929 Ry
     estimated scf accuracy    <       0.00030181 Ry

     iteration # 40     ecut=    29.40 Ry     beta= 0.05
     Davidson diagonalization with overlap
     ethr =  7.72E-08,  avg # of iterations =  9.3

     negative rho (up, down):  1.836E-02 0.000E+00
 
     Adding external electric field

     Computed dipole along edir(3) : 
        Dipole                0.7574 Ry au,          1.9251 Debye
        Dipole field          0.0014 Ry au, 
 
        Potential amp.       -0.1325 Ry
        Total length         46.3494 bohr
 

     total cpu time spent up to now is      708.2 secs

     total energy              =   -2931.50246970 Ry
     estimated scf accuracy    <       0.00006750 Ry

     iteration # 41     ecut=    29.40 Ry     beta= 0.05
     Davidson diagonalization with overlap
     ethr =  1.73E-08,  avg # of iterations = 10.9

     negative rho (up, down):  1.832E-02 0.000E+00
 
     Adding external electric field

     Computed dipole along edir(3) : 
        Dipole                0.7567 Ry au,          1.9234 Debye
        Dipole field          0.0014 Ry au, 
 
        Potential amp.       -0.1324 Ry
        Total length         46.3494 bohr
 

     total cpu time spent up to now is      728.5 secs

     total energy              =   -2931.50251515 Ry
     estimated scf accuracy    <       0.00004870 Ry

     iteration # 42     ecut=    29.40 Ry     beta= 0.05
     Davidson diagonalization with overlap
     ethr =  1.25E-08,  avg # of iterations =  2.0

     negative rho (up, down):  1.851E-02 0.000E+00
 
     Adding external electric field

     Computed dipole along edir(3) : 
        Dipole                0.7557 Ry au,          1.9209 Debye
        Dipole field          0.0014 Ry au, 
 
        Potential amp.       -0.1322 Ry
        Total length         46.3494 bohr
 

     total cpu time spent up to now is      739.5 secs

     total energy              =   -2931.50253864 Ry
     estimated scf accuracy    <       0.00002306 Ry

     iteration # 43     ecut=    29.40 Ry     beta= 0.05
     Davidson diagonalization with overlap
     ethr =  5.90E-09,  avg # of iterations = 12.1

     negative rho (up, down):  1.859E-02 0.000E+00
 
     Adding external electric field

     Computed dipole along edir(3) : 
        Dipole                0.7577 Ry au,          1.9258 Debye
        Dipole field          0.0014 Ry au, 
 
        Potential amp.       -0.1325 Ry
        Total length         46.3494 bohr
 

     total cpu time spent up to now is      760.8 secs

     total energy              =   -2931.50256939 Ry
     estimated scf accuracy    <       0.00004595 Ry

     iteration # 44     ecut=    29.40 Ry     beta= 0.05
     Davidson diagonalization with overlap
     ethr =  5.90E-09,  avg # of iterations =  1.2

     negative rho (up, down):  1.856E-02 0.000E+00
 
     Adding external electric field

     Computed dipole along edir(3) : 
        Dipole                0.7593 Ry au,          1.9298 Debye
        Dipole field          0.0014 Ry au, 
 
        Potential amp.       -0.1328 Ry
        Total length         46.3494 bohr
 

     total cpu time spent up to now is      771.0 secs

     total energy              =   -2931.50257537 Ry
     estimated scf accuracy    <       0.00002958 Ry

     iteration # 45     ecut=    29.40 Ry     beta= 0.05
     Davidson diagonalization with overlap
     c_bands:  1 eigenvalues not converged
     c_bands:  2 eigenvalues not converged
     ethr =  5.90E-09,  avg # of iterations = 14.7

     negative rho (up, down):  1.854E-02 0.000E+00
 
     Adding external electric field

     Computed dipole along edir(3) : 
        Dipole                0.7583 Ry au,          1.9275 Debye
        Dipole field          0.0014 Ry au, 
 
        Potential amp.       -0.1327 Ry
        Total length         46.3494 bohr
 

     total cpu time spent up to now is      797.1 secs

     total energy              =   -2931.50259961 Ry
     estimated scf accuracy    <       0.00007786 Ry

     iteration # 46     ecut=    29.40 Ry     beta= 0.05
     Davidson diagonalization with overlap
     ethr =  5.90E-09,  avg # of iterations =  8.4

     negative rho (up, down):  1.849E-02 0.000E+00
 
     Adding external electric field

     Computed dipole along edir(3) : 
        Dipole                0.7569 Ry au,          1.9237 Debye
        Dipole field          0.0014 Ry au, 
 
        Potential amp.       -0.1324 Ry
        Total length         46.3494 bohr
 

     total cpu time spent up to now is      814.0 secs

     total energy              =   -2931.50261878 Ry
     estimated scf accuracy    <       0.00001446 Ry

     iteration # 47     ecut=    29.40 Ry     beta= 0.05
     Davidson diagonalization with overlap
     ethr =  3.70E-09,  avg # of iterations =  6.6

     negative rho (up, down):  1.845E-02 0.000E+00
 
     Adding external electric field

     Computed dipole along edir(3) : 
        Dipole                0.7553 Ry au,          1.9197 Debye
        Dipole field          0.0014 Ry au, 
 
        Potential amp.       -0.1321 Ry
        Total length         46.3494 bohr
 

     total cpu time spent up to now is      828.1 secs

     total energy              =   -2931.50263542 Ry
     estimated scf accuracy    <       0.00000339 Ry

     iteration # 48     ecut=    29.40 Ry     beta= 0.05
     Davidson diagonalization with overlap
     ethr =  8.67E-10,  avg # of iterations = 11.8

     negative rho (up, down):  1.845E-02 0.000E+00
 
     Adding external electric field

     Computed dipole along edir(3) : 
        Dipole                0.7551 Ry au,          1.9192 Debye
        Dipole field          0.0014 Ry au, 
 
        Potential amp.       -0.1321 Ry
        Total length         46.3494 bohr
 

     total cpu time spent up to now is      846.2 secs

     total energy              =   -2931.50264932 Ry
     estimated scf accuracy    <       0.00000166 Ry

     iteration # 49     ecut=    29.40 Ry     beta= 0.05
     Davidson diagonalization with overlap
     ethr =  4.24E-10,  avg # of iterations =  3.6

     negative rho (up, down):  1.846E-02 0.000E+00
 
     Adding external electric field

     Computed dipole along edir(3) : 
        Dipole                0.7546 Ry au,          1.9181 Debye
        Dipole field          0.0014 Ry au, 
 
        Potential amp.       -0.1320 Ry
        Total length         46.3494 bohr
 

     total cpu time spent up to now is      857.6 secs

     total energy              =   -2931.50266117 Ry
     estimated scf accuracy    <       0.00000136 Ry

     iteration # 50     ecut=    29.40 Ry     beta= 0.05
     Davidson diagonalization with overlap
     ethr =  3.48E-10,  avg # of iterations = 10.5

     negative rho (up, down):  1.846E-02 0.000E+00
 
     Adding external electric field

     Computed dipole along edir(3) : 
        Dipole                0.7553 Ry au,          1.9198 Debye
        Dipole field          0.0014 Ry au, 
 
        Potential amp.       -0.1321 Ry
        Total length         46.3494 bohr
 

     total cpu time spent up to now is      875.9 secs

     total energy              =   -2931.50267207 Ry
     estimated scf accuracy    <       0.00000075 Ry

     iteration # 51     ecut=    29.40 Ry     beta= 0.05
     Davidson diagonalization with overlap
     ethr =  1.91E-10,  avg # of iterations = 12.3

     negative rho (up, down):  1.847E-02 0.000E+00
 
     Adding external electric field

     Computed dipole along edir(3) : 
        Dipole                0.7554 Ry au,          1.9200 Debye
        Dipole field          0.0014 Ry au, 
 
        Potential amp.       -0.1321 Ry
        Total length         46.3494 bohr
 

     total cpu time spent up to now is      895.2 secs

     total energy              =   -2931.50268192 Ry
     estimated scf accuracy    <       0.00000070 Ry

     iteration # 52     ecut=    29.40 Ry     beta= 0.05
     Davidson diagonalization with overlap
     c_bands:  1 eigenvalues not converged
     ethr =  1.80E-10,  avg # of iterations = 11.6

     negative rho (up, down):  1.848E-02 0.000E+00
 
     Adding external electric field

     Computed dipole along edir(3) : 
        Dipole                0.7559 Ry au,          1.9212 Debye
        Dipole field          0.0014 Ry au, 
 
        Potential amp.       -0.1322 Ry
        Total length         46.3494 bohr
 

     total cpu time spent up to now is      914.6 secs

     total energy              =   -2931.50269066 Ry
     estimated scf accuracy    <       0.00000078 Ry

     iteration # 53     ecut=    29.40 Ry     beta= 0.05
     Davidson diagonalization with overlap
     ethr =  1.80E-10,  avg # of iterations =  3.9

     negative rho (up, down):  1.847E-02 0.000E+00
 
     Adding external electric field

     Computed dipole along edir(3) : 
        Dipole                0.7561 Ry au,          1.9219 Debye
        Dipole field          0.0014 Ry au, 
 
        Potential amp.       -0.1323 Ry
        Total length         46.3494 bohr
 

     total cpu time spent up to now is      928.1 secs

     total energy              =   -2931.50269842 Ry
     estimated scf accuracy    <       0.00000030 Ry

     iteration # 54     ecut=    29.40 Ry     beta= 0.05
     Davidson diagonalization with overlap
     c_bands:  1 eigenvalues not converged
     ethr =  7.74E-11,  avg # of iterations = 11.9

     negative rho (up, down):  1.845E-02 0.000E+00
 
     Adding external electric field

     Computed dipole along edir(3) : 
        Dipole                0.7557 Ry au,          1.9209 Debye
        Dipole field          0.0014 Ry au, 
 
        Potential amp.       -0.1322 Ry
        Total length         46.3494 bohr
 

     total cpu time spent up to now is      949.6 secs

     total energy              =   -2931.50270566 Ry
     estimated scf accuracy    <       0.00000041 Ry

     iteration # 55     ecut=    29.40 Ry     beta= 0.05
     Davidson diagonalization with overlap
     ethr =  7.74E-11,  avg # of iterations =  8.0

     negative rho (up, down):  1.844E-02 0.000E+00
 
     Adding external electric field

     Computed dipole along edir(3) : 
        Dipole                0.7556 Ry au,          1.9204 Debye
        Dipole field          0.0014 Ry au, 
 
        Potential amp.       -0.1322 Ry
        Total length         46.3494 bohr
 

     total cpu time spent up to now is      963.9 secs

     total energy              =   -2931.50271207 Ry
     estimated scf accuracy    <       0.00000010 Ry

     iteration # 56     ecut=    29.40 Ry     beta= 0.05
     Davidson diagonalization with overlap
     ethr =  2.63E-11,  avg # of iterations = 11.4

     negative rho (up, down):  1.844E-02 0.000E+00
 
     Adding external electric field

     Computed dipole along edir(3) : 
        Dipole                0.7560 Ry au,          1.9216 Debye
        Dipole field          0.0014 Ry au, 
 
        Potential amp.       -0.1323 Ry
        Total length         46.3494 bohr
 

     total cpu time spent up to now is      983.2 secs

     End of self-consistent calculation

          k = 0.0000 0.0000 0.0000 ( 18029 PWs)   bands (ev):

   -55.9532 -55.9384 -55.9166 -55.9023 -55.8377 -55.8336 -55.8121 -55.7820
   -55.7780 -55.7273 -55.7177 -55.7120 -55.6779 -55.5948 -54.9661 -54.9320
   -32.5040 -32.4205 -32.3487 -32.2960 -32.2708 -32.2513 -32.2440 -32.2214
   -32.1904 -32.1776 -32.1575 -32.1521 -32.1487 -32.1190 -32.1138 -32.0918
   -32.0861 -32.0843 -32.0686 -32.0433 -32.0423 -32.0187 -32.0124 -31.9944
   -31.9940 -31.9936 -31.9650 -31.9643 -31.9524 -31.9426 -31.9360 -31.9330
   -31.9253 -31.9135 -31.8880 -31.8855 -31.8762 -31.8554 -31.8195 -31.8140
   -31.7914 -31.7834 -31.3761 -31.2787 -31.2563 -31.1927 -31.1067 -30.9955
   -17.6708 -16.6810 -16.3951 -16.2315 -16.0991 -16.0631 -15.9598 -15.7754
   -15.6366 -15.6191 -15.5554 -15.5162 -15.5008 -15.4749 -15.4711 -15.4578
   -15.4550 -15.4058 -15.3703 -15.3693 -15.3542 -15.3318 -15.2706 -15.2295
   -15.1475 -15.0941 -15.0697 -15.0140 -14.9525 -14.9333 -13.4672 -13.3490
    -9.5212  -4.3974  -4.1587  -4.0397  -3.8782  -3.8623  -3.8374  -3.8133
    -3.7522  -3.5015  -3.4865  -3.1673  -3.1080  -3.0838  -3.0698  -3.0637
    -2.8255  -2.8061  -2.7776  -2.7671  -2.7590  -2.7299  -2.7023  -2.6925
    -2.6689  -2.6528  -2.5548  -2.4777  -2.4688  -2.3604  -2.3145  -2.3032
    -2.2532  -2.2149  -2.2073  -2.1875  -2.1627  -2.1457  -2.1176  -2.1145
    -2.0185  -1.8887  -1.7838  -1.7541  -1.7128  -1.6528  -1.4466  -1.4010
    -1.3660  -1.3528  -1.2955  -1.2629  -1.2547  -1.1803  -1.1426  -1.1262
    -1.0191  -0.9582  -0.9340  -0.9064  -0.8435  -0.8079  -0.7610  -0.6888
    -0.6700  -0.6550  -0.4421  -0.4172  -0.4112  -0.4001  -0.2882  -0.2365
    -0.1809  -0.1692  -0.1571  -0.1260  -0.0545   0.0102   0.0214   0.0433
     0.0766   0.1030   0.1794   0.2070   0.2323   0.2566   0.2903   0.3770
     0.4233   0.5650   0.6941   0.7159   0.8168   0.9599   1.0579   1.1306
     1.2281   1.6473   1.7075   3.2324   3.2518   3.2964   3.3261   3.3844
     3.5058   3.6253   3.6604   3.6952   3.7173

          k = 0.0000 0.0419 0.0000 ( 17933 PWs)   bands (ev):

   -55.9487 -55.9331 -55.9210 -55.9075 -55.8352 -55.8321 -55.8071 -55.7844
   -55.7830 -55.7260 -55.7189 -55.7072 -55.6827 -55.5958 -54.9611 -54.9369
   -32.4463 -32.3667 -32.3058 -32.2454 -32.2393 -32.2379 -32.2169 -32.2117
   -32.1759 -32.1663 -32.1439 -32.1371 -32.1369 -32.1286 -32.1140 -32.1002
   -32.0991 -32.0804 -32.0796 -32.0770 -32.0413 -32.0324 -32.0090 -32.0079
   -32.0012 -31.9808 -31.9751 -31.9685 -31.9606 -31.9604 -31.9434 -31.9399
   -31.9387 -31.9355 -31.9214 -31.9064 -31.8978 -31.8714 -31.8584 -31.8483
   -31.8182 -31.7806 -31.3221 -31.2752 -31.2593 -31.1802 -31.1192 -31.0526
   -17.6528 -16.5476 -16.2753 -16.1262 -15.9976 -15.9603 -15.9282 -15.8131
   -15.7164 -15.6001 -15.5759 -15.5487 -15.5401 -15.5123 -15.4574 -15.4465
   -15.4170 -15.4126 -15.3966 -15.3753 -15.3614 -15.3321 -15.2778 -15.2617
   -15.1978 -15.1494 -15.1285 -15.0846 -15.0089 -15.0020 -13.4704 -13.3880
    -9.5217  -4.3333  -4.1431  -3.8785  -3.8498  -3.7004  -3.6659  -3.6623
    -3.5981  -3.3328  -3.2543  -3.1865  -3.1017  -3.0229  -2.9723  -2.9267
    -2.9179  -2.9002  -2.8797  -2.8394  -2.8327  -2.7860  -2.7726  -2.7114
    -2.6996  -2.6862  -2.6637  -2.6454  -2.6303  -2.5003  -2.4524  -2.4056
    -2.3593  -2.3363  -2.3161  -2.2141  -2.1970  -2.1528  -2.0652  -2.0031
    -1.8787  -1.7779  -1.6995  -1.6616  -1.6273  -1.6075  -1.5096  -1.3172
    -1.3067  -1.2586  -1.2270  -1.1444  -1.0799  -1.0403  -1.0029  -0.9885
    -0.9710  -0.9010  -0.8876  -0.8499  -0.8319  -0.7627  -0.7272  -0.6982
    -0.6669  -0.6423  -0.5885  -0.4861  -0.4462  -0.4263  -0.4079  -0.3741
    -0.2846  -0.2526  -0.2327  -0.1844  -0.1259  -0.1129  -0.0744  -0.0489
    -0.0473  -0.0193   0.0569   0.1374   0.1596   0.2437   0.2626   0.3686
     0.3763   0.4383   0.4689   0.5308   0.6663   0.7360   1.0091   1.2464
     1.3175   1.5949   1.6198   3.3827   3.4174   3.4938   3.5025   3.5646
     3.5875   3.6023   3.6367   3.7120   3.7445

          k = 0.0000-0.0839 0.0000 ( 17884 PWs)   bands (ev):

   -55.9417 -55.9279 -55.9206 -55.9199 -55.8324 -55.8308 -55.7954 -55.7947
   -55.7871 -55.7247 -55.7201 -55.6981 -55.6919 -55.5969 -54.9496 -54.9483
   -32.3075 -32.3033 -32.2479 -32.2428 -32.2329 -32.2279 -32.2116 -32.2059
   -32.2022 -32.1408 -32.1372 -32.1302 -32.1127 -32.1030 -32.1023 -32.0758
   -32.0746 -32.0708 -32.0670 -32.0633 -32.0618 -32.0591 -32.0381 -32.0252
   -32.0143 -32.0078 -32.0036 -32.0011 -31.9740 -31.9702 -31.9651 -31.9607
   -31.9506 -31.9486 -31.9417 -31.9377 -31.9183 -31.9178 -31.9055 -31.8596
   -31.8271 -31.7783 -31.2678 -31.2663 -31.1896 -31.1887 -31.1502 -31.1492
   -17.6349 -16.2138 -16.2038 -16.0029 -15.9936 -15.8736 -15.8531 -15.7925
   -15.7575 -15.7436 -15.7076 -15.6433 -15.6308 -15.4712 -15.4682 -15.4205
   -15.3822 -15.3699 -15.3514 -15.3289 -15.3143 -15.2871 -15.2786 -15.2731
   -15.2681 -15.2236 -15.1974 -15.1450 -15.1400 -15.1312 -13.4519 -13.4494
    -9.5223  -4.2663  -4.1361  -3.8821  -3.4197  -3.4071  -3.3222  -3.3154
    -3.2833  -3.2698  -3.2552  -3.2498  -3.2240  -3.2137  -3.0684  -3.0487
    -3.0401  -3.0220  -2.9712  -2.9030  -2.8704  -2.8472  -2.8274  -2.7737
    -2.7559  -2.7044  -2.6982  -2.6802  -2.6320  -2.5840  -2.5095  -2.4882
    -2.4364  -2.3933  -2.2840  -2.2687  -2.0126  -1.9756  -1.8713  -1.8376
    -1.8307  -1.7108  -1.6825  -1.6498  -1.5940  -1.4221  -1.3836  -1.3783
    -1.3419  -1.3328  -1.3051  -1.2900  -1.2199  -1.1849  -1.1605  -1.0690
    -1.0190  -0.8816  -0.7477  -0.7365  -0.7346  -0.6413  -0.6261  -0.5880
    -0.5562  -0.5468  -0.5229  -0.5075  -0.4568  -0.4137  -0.3804  -0.3745
    -0.3531  -0.3377  -0.3195  -0.2776  -0.2462  -0.2232  -0.1940  -0.1491
    -0.1304  -0.1059  -0.0930  -0.0264   0.0328   0.0749   0.1487   0.2758
     0.2800   0.2840   0.3142   0.6435   0.6584   0.7438   0.7955   1.3823
     1.3837   1.5368   1.5392   3.4845   3.4902   3.5104   3.5458   3.6265
     3.6495   3.7753   3.7993   3.8173   3.8483

          k = 0.0380 0.0000 0.0000 ( 17913 PWs)   bands (ev):

   -55.9531 -55.9383 -55.9165 -55.9022 -55.8377 -55.8333 -55.8121 -55.7819
   -55.7779 -55.7270 -55.7176 -55.7121 -55.6779 -55.5947 -54.9660 -54.9319
   -32.5041 -32.4214 -32.3489 -32.3011 -32.2742 -32.2512 -32.2439 -32.2214
   -32.1939 -32.1778 -32.1575 -32.1521 -32.1304 -32.1190 -32.1109 -32.0865
   -32.0839 -32.0740 -32.0624 -32.0430 -32.0421 -32.0300 -32.0185 -32.0027
   -31.9937 -31.9757 -31.9647 -31.9642 -31.9515 -31.9427 -31.9359 -31.9333
   -31.9254 -31.9172 -31.8946 -31.8862 -31.8776 -31.8545 -31.8185 -31.8137
   -31.7921 -31.7880 -31.3756 -31.2821 -31.2543 -31.1925 -31.1066 -30.9952
   -17.6683 -16.6124 -16.3046 -16.1534 -16.0987 -15.9819 -15.9589 -15.8287
   -15.6690 -15.6313 -15.6299 -15.6224 -15.6136 -15.5707 -15.5218 -15.5006
   -15.4651 -15.4053 -15.3802 -15.3276 -15.2728 -15.2134 -15.1937 -15.1831
   -15.1756 -15.1444 -15.0727 -15.0341 -15.0078 -14.9317 -13.4638 -13.3487
    -9.5208  -4.3755  -4.1580  -3.9707  -3.9390  -3.6561  -3.5856  -3.5588
    -3.5549  -3.4829  -3.4304  -3.3878  -3.1561  -3.1346  -3.0512  -3.0395
    -3.0240  -2.9418  -2.8234  -2.7744  -2.7666  -2.6928  -2.6336  -2.6289
    -2.5446  -2.5269  -2.4915  -2.4690  -2.4325  -2.3610  -2.2741  -2.2662
    -2.2146  -2.2027  -2.1516  -2.1286  -2.0793  -1.9883  -1.9726  -1.9161
    -1.9030  -1.8868  -1.8115  -1.7629  -1.7058  -1.6456  -1.5369  -1.5000
    -1.4244  -1.3790  -1.3446  -1.3258  -1.3180  -1.2386  -1.2185  -1.1940
    -1.1310  -0.9909  -0.9830  -0.8637  -0.8117  -0.7852  -0.7780  -0.7283
    -0.7026  -0.5705  -0.5531  -0.4956  -0.4621  -0.4013  -0.3035  -0.2889
    -0.2526  -0.2289  -0.2255  -0.1725  -0.1584  -0.0979  -0.0738  -0.0516
    -0.0283   0.0629   0.0964   0.1638   0.1935   0.2228   0.2787   0.3214
     0.3493   0.3960   0.4918   0.6879   0.7384   0.9626   1.0001   1.0698
     1.1958   1.5306   1.6187   3.2865   3.3487   3.4898   3.5085   3.5551
     3.5690   3.5975   3.6288   3.6975   3.7149

          k = 0.0380 0.0419 0.0000 ( 17878 PWs)   bands (ev):

   -55.9486 -55.9329 -55.9209 -55.9075 -55.8352 -55.8320 -55.8071 -55.7844
   -55.7829 -55.7258 -55.7188 -55.7073 -55.6827 -55.5958 -54.9610 -54.9369
   -32.4464 -32.3676 -32.3060 -32.2513 -32.2392 -32.2378 -32.2207 -32.2117
   -32.1760 -32.1665 -32.1444 -32.1403 -32.1297 -32.1211 -32.1142 -32.0999
   -32.0971 -32.0776 -32.0698 -32.0647 -32.0413 -32.0321 -32.0257 -32.0067
   -32.0024 -31.9742 -31.9717 -31.9654 -31.9651 -31.9593 -31.9415 -31.9408
   -31.9395 -31.9359 -31.9231 -31.9085 -31.8994 -31.8724 -31.8625 -31.8478
   -31.8182 -31.7856 -31.3217 -31.2779 -31.2583 -31.1800 -31.1192 -31.0525
   -17.6513 -16.4848 -16.1905 -16.0547 -15.9966 -15.9259 -15.8808 -15.8093
   -15.7605 -15.6377 -15.6224 -15.5889 -15.5515 -15.5453 -15.5373 -15.5118
   -15.4362 -15.4048 -15.3996 -15.3709 -15.3131 -15.2780 -15.2538 -15.2384
   -15.2272 -15.1980 -15.1461 -15.0853 -15.0746 -15.0005 -13.4681 -13.3883
    -9.5214  -4.3221  -4.1403  -3.9098  -3.7918  -3.4938  -3.4200  -3.4028
    -3.3897  -3.2815  -3.2498  -3.2266  -3.1154  -3.0065  -2.9694  -2.9420
    -2.9020  -2.8747  -2.8392  -2.8096  -2.7958  -2.7459  -2.7330  -2.7017
    -2.6785  -2.6674  -2.6295  -2.5845  -2.5508  -2.5179  -2.4382  -2.4211
    -2.3451  -2.2815  -2.2637  -2.1747  -2.1442  -2.1019  -1.9819  -1.9523
    -1.8747  -1.8498  -1.7209  -1.6787  -1.6252  -1.5126  -1.4252  -1.4017
    -1.3781  -1.3348  -1.2741  -1.2254  -1.2135  -1.1710  -1.1313  -1.0586
    -1.0140  -0.9732  -0.9467  -0.9374  -0.8554  -0.8127  -0.7845  -0.7068
    -0.6789  -0.6604  -0.6463  -0.6007  -0.5605  -0.5359  -0.4998  -0.4484
    -0.4183  -0.3851  -0.3300  -0.2866  -0.2566  -0.2398  -0.1699  -0.1216
    -0.0929  -0.0393   0.0522   0.1826   0.1967   0.2374   0.3151   0.3456
     0.3741   0.4326   0.4672   0.5205   0.6128   0.6782   0.9535   1.2592
     1.3217   1.5164   1.5949   3.3941   3.4782   3.5131   3.5398   3.6020
     3.6271   3.6853   3.7227   3.7380   3.7655

          k = 0.0380-0.0839 0.0000 ( 17916 PWs)   bands (ev):

   -55.9417 -55.9279 -55.9206 -55.9199 -55.8324 -55.8307 -55.7954 -55.7947
   -55.7871 -55.7247 -55.7202 -55.6981 -55.6919 -55.5969 -54.9496 -54.9484
   -32.3078 -32.3035 -32.2482 -32.2435 -32.2331 -32.2286 -32.2116 -32.2060
   -32.2024 -32.1524 -32.1380 -32.1312 -32.1231 -32.0864 -32.0851 -32.0830
   -32.0789 -32.0696 -32.0650 -32.0606 -32.0586 -32.0408 -32.0382 -32.0255
   -32.0145 -32.0132 -32.0075 -32.0043 -31.9825 -31.9781 -31.9671 -31.9505
   -31.9484 -31.9441 -31.9391 -31.9375 -31.9192 -31.9115 -31.9074 -31.8706
   -31.8271 -31.7845 -31.2687 -31.2673 -31.1895 -31.1886 -31.1502 -31.1492
   -17.6341 -16.1672 -16.1658 -15.9485 -15.9406 -15.8364 -15.8085 -15.7845
   -15.7350 -15.7205 -15.6972 -15.6215 -15.6112 -15.5047 -15.4887 -15.4613
   -15.4341 -15.4101 -15.3593 -15.3454 -15.3376 -15.3242 -15.3150 -15.3114
   -15.3086 -15.2231 -15.2064 -15.1854 -15.1756 -15.1148 -13.4517 -13.4492
    -9.5221  -4.2664  -4.1315  -3.8808  -3.4115  -3.3938  -3.1601  -3.1383
    -3.1061  -3.1019  -3.0739  -3.0488  -3.0095  -3.0021  -3.0014  -2.9896
    -2.9566  -2.9335  -2.8912  -2.8662  -2.8039  -2.7910  -2.7726  -2.7366
    -2.7239  -2.7121  -2.7017  -2.6686  -2.6179  -2.5893  -2.5598  -2.4762
    -2.4663  -2.3941  -2.0992  -2.0667  -2.0483  -1.9661  -1.8581  -1.8493
    -1.8164  -1.7942  -1.7523  -1.7134  -1.6950  -1.6755  -1.6452  -1.5740
    -1.5403  -1.4961  -1.4598  -1.4219  -1.2328  -1.2247  -1.1230  -1.1026
    -1.0118  -0.9891  -0.9186  -0.8829  -0.8543  -0.7890  -0.7345  -0.7091
    -0.6803  -0.6766  -0.6442  -0.6069  -0.5906  -0.5747  -0.5253  -0.5024
    -0.4826  -0.4613  -0.4202  -0.4120  -0.3155  -0.2266  -0.1515  -0.1328
    -0.0754   0.0250   0.0846   0.1100   0.1223   0.1661   0.1943   0.2514
     0.3137   0.3502   0.4028   0.5855   0.5939   0.7308   0.7715   1.3978
     1.3987   1.5268   1.5314   3.4359   3.4522   3.5376   3.5602   3.6135
     3.6255   3.7983   3.8146   3.8389   3.8669

          k = 0.0380-0.0419 0.0000 ( 17876 PWs)   bands (ev):

   -55.9486 -55.9329 -55.9209 -55.9075 -55.8351 -55.8320 -55.8071 -55.7844
   -55.7829 -55.7258 -55.7188 -55.7072 -55.6827 -55.5958 -54.9610 -54.9369
   -32.4464 -32.3676 -32.3060 -32.2513 -32.2392 -32.2378 -32.2208 -32.2117
   -32.1760 -32.1665 -32.1442 -32.1404 -32.1297 -32.1211 -32.1141 -32.0995
   -32.0975 -32.0777 -32.0698 -32.0640 -32.0413 -32.0320 -32.0258 -32.0077
   -32.0026 -31.9741 -31.9718 -31.9655 -31.9650 -31.9593 -31.9447 -31.9398
   -31.9384 -31.9351 -31.9209 -31.9103 -31.8992 -31.8708 -31.8639 -31.8478
   -31.8182 -31.7856 -31.3217 -31.2779 -31.2583 -31.1800 -31.1192 -31.0525
   -17.6512 -16.4848 -16.1905 -16.0547 -15.9965 -15.9259 -15.8807 -15.8094
   -15.7602 -15.6385 -15.6237 -15.5877 -15.5510 -15.5458 -15.5391 -15.5091
   -15.4370 -15.4042 -15.4007 -15.3686 -15.3143 -15.2782 -15.2534 -15.2381
   -15.2269 -15.1982 -15.1457 -15.0852 -15.0764 -15.0000 -13.4681 -13.3883
    -9.5214  -4.3227  -4.1389  -3.9093  -3.7916  -3.4947  -3.4198  -3.4035
    -3.3879  -3.2798  -3.2499  -3.2271  -3.1153  -3.0055  -2.9689  -2.9421
    -2.9017  -2.8767  -2.8404  -2.8056  -2.7982  -2.7455  -2.7336  -2.7023
    -2.6799  -2.6654  -2.6307  -2.5820  -2.5536  -2.5154  -2.4356  -2.4201
    -2.3479  -2.2785  -2.2623  -2.1669  -2.1493  -2.1009  -1.9756  -1.9537
    -1.8797  -1.8471  -1.7206  -1.6890  -1.6288  -1.5123  -1.4275  -1.4061
    -1.3746  -1.3414  -1.2771  -1.2232  -1.2105  -1.1706  -1.1323  -1.0624
    -1.0104  -0.9691  -0.9554  -0.9405  -0.8565  -0.8148  -0.7805  -0.7002
    -0.6807  -0.6588  -0.6530  -0.6099  -0.5669  -0.5419  -0.5010  -0.4435
    -0.4217  -0.3838  -0.3268  -0.2879  -0.2562  -0.2336  -0.1675  -0.1202
    -0.0921  -0.0368   0.0508   0.1870   0.2027   0.2434   0.3258   0.3427
     0.3763   0.4346   0.4580   0.5251   0.6145   0.6803   0.9533   1.2589
     1.3221   1.5159   1.5957   3.3971   3.4804   3.5216   3.5403   3.5937
     3.6255   3.6765   3.7069   3.7332   3.7674

          k =-0.0760-0.0000 0.0000 ( 17886 PWs)   bands (ev):

   -55.9531 -55.9382 -55.9165 -55.9022 -55.8377 -55.8331 -55.8122 -55.7819
   -55.7779 -55.7267 -55.7176 -55.7122 -55.6779 -55.5947 -54.9660 -54.9319
   -32.5043 -32.4224 -32.3491 -32.3060 -32.2775 -32.2510 -32.2438 -32.2214
   -32.1974 -32.1781 -32.1577 -32.1522 -32.1190 -32.1080 -32.0990 -32.0863
   -32.0838 -32.0611 -32.0571 -32.0431 -32.0421 -32.0384 -32.0308 -32.0188
   -31.9935 -31.9652 -31.9646 -31.9512 -31.9448 -31.9412 -31.9358 -31.9339
   -31.9257 -31.9199 -31.9192 -31.8833 -31.8806 -31.8541 -31.8176 -31.8135
   -31.7931 -31.7918 -31.3752 -31.2854 -31.2529 -31.1925 -31.1065 -30.9953
   -17.6660 -16.5237 -16.2178 -16.0744 -16.0261 -15.9597 -15.9437 -15.8289
   -15.7374 -15.7139 -15.7078 -15.6718 -15.6492 -15.6165 -15.5811 -15.5200
   -15.4850 -15.3995 -15.3957 -15.2749 -15.2693 -15.2660 -15.2345 -15.2174
   -15.1310 -15.1132 -15.0938 -15.0066 -14.9849 -14.9325 -13.4607 -13.3484
    -9.5204  -4.3578  -4.1575  -3.9869  -3.9435  -3.5617  -3.5134  -3.4640
    -3.3230  -3.3185  -3.3005  -3.2173  -3.1942  -3.1310  -3.1235  -3.0713
    -3.0069  -2.8265  -2.8022  -2.7452  -2.7088  -2.6933  -2.5213  -2.4979
    -2.4758  -2.4456  -2.4266  -2.4024  -2.3266  -2.2734  -2.2651  -2.2465
    -2.1901  -2.1782  -2.1740  -2.1515  -2.1047  -2.0930  -2.0838  -2.0428
    -1.9695  -1.7720  -1.6931  -1.6813  -1.6373  -1.5900  -1.5586  -1.5309
    -1.4936  -1.4739  -1.4097  -1.3483  -1.3054  -1.2897  -1.2585  -1.2293
    -1.2000  -1.1356  -1.0758  -1.0459  -1.0187  -0.8215  -0.7440  -0.7082
    -0.6869  -0.6659  -0.6528  -0.5843  -0.5161  -0.4827  -0.4220  -0.4038
    -0.3656  -0.3079  -0.2460  -0.2161  -0.1812  -0.1471  -0.1408  -0.1045
    -0.0429   0.0208   0.0589   0.1243   0.1518   0.2017   0.2162   0.3028
     0.3859   0.4942   0.5118   0.6131   0.7236   0.7729   0.9779   1.0923
     1.1701   1.3907   1.5530   3.2831   3.2919   3.3796   3.4759   3.5097
     3.5562   3.6510   3.6577   3.6918   3.7221

          k =-0.0760 0.0419 0.0000 ( 17914 PWs)   bands (ev):

   -55.9486 -55.9329 -55.9210 -55.9075 -55.8352 -55.8319 -55.8072 -55.7844
   -55.7830 -55.7257 -55.7189 -55.7074 -55.6827 -55.5958 -54.9610 -54.9369
   -32.4467 -32.3686 -32.3062 -32.2570 -32.2393 -32.2379 -32.2247 -32.2118
   -32.1760 -32.1666 -32.1451 -32.1436 -32.1296 -32.1148 -32.0996 -32.0986
   -32.0955 -32.0777 -32.0602 -32.0497 -32.0412 -32.0325 -32.0320 -32.0264
   -32.0061 -31.9767 -31.9727 -31.9646 -31.9603 -31.9460 -31.9397 -31.9394
   -31.9357 -31.9312 -31.9231 -31.9227 -31.9123 -31.8679 -31.8661 -31.8486
   -31.8182 -31.7910 -31.3214 -31.2807 -31.2576 -31.1800 -31.1192 -31.0525
   -17.6497 -16.4042 -16.1038 -15.9868 -15.9237 -15.9224 -15.8559 -15.8070
   -15.7428 -15.6806 -15.6705 -15.6384 -15.6207 -15.5862 -15.5803 -15.5037
   -15.4793 -15.4110 -15.3960 -15.3743 -15.3211 -15.3194 -15.2735 -15.2627
   -15.2269 -15.1965 -15.1493 -15.0834 -15.0754 -15.0019 -13.4659 -13.3886
    -9.5212  -4.3145  -4.1361  -3.9296  -3.7772  -3.3934  -3.2579  -3.2495
    -3.1621  -3.1219  -3.0645  -3.0216  -2.9996  -2.9946  -2.9614  -2.9477
    -2.9004  -2.8970  -2.8404  -2.8078  -2.7747  -2.7145  -2.6899  -2.6493
    -2.6140  -2.5975  -2.5235  -2.5074  -2.4946  -2.4393  -2.4182  -2.3822
    -2.3278  -2.2796  -2.2357  -2.1034  -2.0852  -2.0310  -2.0164  -1.9768
    -1.9536  -1.8298  -1.7311  -1.6205  -1.6098  -1.4969  -1.4923  -1.4755
    -1.4353  -1.4112  -1.3522  -1.2731  -1.2629  -1.2523  -1.2198  -1.1768
    -1.1668  -1.1488  -1.0972  -1.0624  -1.0443  -1.0152  -0.9658  -0.8768
    -0.8109  -0.7824  -0.7674  -0.6887  -0.6558  -0.6484  -0.5902  -0.5514
    -0.5056  -0.4652  -0.4135  -0.3192  -0.2910  -0.2668  -0.2090  -0.0723
    -0.0648  -0.0327   0.1618   0.1674   0.2203   0.2658   0.3245   0.4134
     0.4535   0.4868   0.5252   0.5584   0.6151   0.6234   0.7968   1.2747
     1.3252   1.4411   1.5792   3.3330   3.3949   3.4527   3.5322   3.5418
     3.5508   3.6903   3.6954   3.7911   3.8287

          k =-0.0760-0.0839 0.0000 ( 17948 PWs)   bands (ev):

   -55.9417 -55.9279 -55.9206 -55.9199 -55.8325 -55.8307 -55.7955 -55.7947
   -55.7872 -55.7246 -55.7202 -55.6982 -55.6920 -55.5970 -54.9496 -54.9484
   -32.3081 -32.3037 -32.2485 -32.2442 -32.2333 -32.2294 -32.2117 -32.2063
   -32.2026 -32.1598 -32.1389 -32.1320 -32.1279 -32.0909 -32.0819 -32.0762
   -32.0684 -32.0647 -32.0615 -32.0593 -32.0490 -32.0369 -32.0329 -32.0268
   -32.0192 -32.0144 -32.0114 -31.9988 -31.9936 -31.9924 -31.9671 -31.9502
   -31.9480 -31.9444 -31.9380 -31.9214 -31.9186 -31.9075 -31.9018 -31.8899
   -31.8271 -31.7915 -31.2697 -31.2683 -31.1895 -31.1886 -31.1503 -31.1492
   -17.6334 -16.1216 -16.1055 -15.8716 -15.8660 -15.8617 -15.7921 -15.7069
   -15.6872 -15.6719 -15.6662 -15.6111 -15.5968 -15.5853 -15.5242 -15.4865
   -15.4604 -15.4525 -15.4489 -15.4003 -15.3963 -15.3430 -15.3248 -15.3104
   -15.2994 -15.2837 -15.2762 -15.1795 -15.1784 -15.1087 -13.4515 -13.4490
    -9.5219  -4.2670  -4.1275  -3.8784  -3.4118  -3.3938  -3.1127  -3.0803
    -3.0768  -2.9878  -2.9020  -2.8596  -2.8236  -2.7915  -2.7871  -2.7851
    -2.7649  -2.7356  -2.7319  -2.7117  -2.6912  -2.6803  -2.6261  -2.5907
    -2.5821  -2.5801  -2.5686  -2.5393  -2.5235  -2.5019  -2.4931  -2.4835
    -2.4630  -2.3650  -2.2356  -2.2029  -2.0908  -2.0828  -2.0460  -2.0328
    -2.0051  -1.9959  -1.9768  -1.8681  -1.8033  -1.6759  -1.6721  -1.6532
    -1.5956  -1.5267  -1.4554  -1.3870  -1.3647  -1.3495  -1.2522  -1.2399
    -1.1710  -1.1511  -1.0942  -1.0635  -1.0513  -0.9517  -0.9181  -0.9037
    -0.8908  -0.8155  -0.7983  -0.7798  -0.7480  -0.6873  -0.6763  -0.6070
    -0.5721  -0.5281  -0.4645  -0.4403  -0.3918  -0.3029  -0.1261  -0.0461
     0.0565   0.0997   0.1587   0.1717   0.2632   0.3074   0.3219   0.3294
     0.4176   0.4812   0.5101   0.5734   0.5867   0.6126   0.6745   1.4175
     1.4192   1.5099   1.5202   3.4404   3.4710   3.4849   3.5333   3.6925
     3.6976   3.7175   3.7226   3.7961   3.8587

     the Fermi energy is     3.2020 ev

!    total energy              =   -2931.50277119 Ry
     estimated scf accuracy    <       0.00000005 Ry
     smearing contrib. (-TS)   =      -0.02313228 Ry
     internal energy E=F+TS    =   -2931.47963890 Ry

     The total energy is F=E-TS. E is the sum of the following terms:
     one-electron contribution =  -24510.34478681 Ry
     hartree contribution      =   12340.18842358 Ry
     xc contribution           =    -482.05902095 Ry
     ewald contribution        =    9720.73466671 Ry
     electric field correction =       0.00107858 Ry

     convergence has been achieved in  56 iterations

     Forces acting on atoms (cartesian axes, Ry/au):

     atom    1 type  1   force =    -0.00013994   -0.00171694    0.10702800
     atom    2 type  1   force =    -0.00040873    0.00039807   -0.17994201
     atom    3 type  2   force =     0.00029729   -0.00715050   -0.03304915
     atom    4 type  2   force =     0.00067589    0.00052166    0.04594824
     atom    5 type  2   force =    -0.01814609    0.00043921    0.00392152
     atom    6 type  2   force =     0.02136937   -0.00104387    0.00544327
     atom    7 type  1   force =    -0.00016043   -0.00030931   -0.00015212
     atom    8 type  1   force =    -0.00008748   -0.00029625   -0.00174836
     atom    9 type  2   force =    -0.00030482   -0.00017933    0.00032963
     atom   10 type  2   force =    -0.00014507   -0.00052368    0.00014933
     atom   11 type  2   force =    -0.00034448    0.00014186    0.00060347
     atom   12 type  2   force =    -0.00018730    0.00021864    0.00020988
     atom   13 type  1   force =    -0.00018284   -0.00038610   -0.00101140
     atom   14 type  1   force =     0.00029553    0.00022264   -0.00049118
     atom   15 type  2   force =    -0.00015104    0.00017443   -0.00118983
     atom   16 type  2   force =    -0.00039783   -0.00027583   -0.00087219
     atom   17 type  2   force =    -0.00130000    0.00043684   -0.00073747
     atom   18 type  2   force =     0.00012002    0.00022978   -0.00077287
     atom   19 type  1   force =    -0.00006286   -0.00003336    0.00012979
     atom   20 type  1   force =    -0.00083491   -0.00087965    0.00114710
     atom   21 type  2   force =    -0.00005817    0.00009388    0.10422410
     atom   22 type  2   force =     0.00010799    0.00026028   -0.00087051
     atom   23 type  2   force =    -0.06895216    0.00066798   -0.02969523
     atom   24 type  2   force =     0.06866010    0.00114036   -0.02975155
     atom   25 type  1   force =    -0.00011646    0.00160378    0.11784203
     atom   26 type  1   force =    -0.00015316    0.00002243   -0.17998694
     atom   27 type  2   force =     0.00043764    0.00401527   -0.02693800
     atom   28 type  2   force =     0.00078166    0.00082708    0.04756763
     atom   29 type  2   force =    -0.01696817    0.00166820    0.00319303
     atom   30 type  2   force =     0.01945449    0.00118954    0.00454238
     atom   31 type  1   force =    -0.00025730    0.00053289   -0.00020564
     atom   32 type  1   force =    -0.00001333    0.00019356   -0.00096439
     atom   33 type  2   force =    -0.00030614   -0.00007018   -0.00005303
     atom   34 type  2   force =    -0.00012456    0.00069860    0.00048214
     atom   35 type  2   force =    -0.00030588   -0.00002796    0.00014043
     atom   36 type  2   force =    -0.00020853   -0.00003866   -0.00021275
     atom   37 type  1   force =    -0.00012589    0.00061579    0.00082074
     atom   38 type  1   force =     0.00020269   -0.00030718   -0.00049615
     atom   39 type  2   force =    -0.00026719   -0.00021489    0.00032688
     atom   40 type  2   force =    -0.00034580    0.00023704   -0.00035447
     atom   41 type  2   force =    -0.00078465   -0.00009288   -0.00040407
     atom   42 type  2   force =     0.00031886    0.00011918   -0.00059695
     atom   43 type  1   force =    -0.00011398    0.00020947    0.00054581
     atom   44 type  1   force =    -0.00069153    0.00071054    0.00136409
     atom   45 type  2   force =    -0.00006213    0.00006530    0.10428521
     atom   46 type  2   force =    -0.06849951   -0.00129458   -0.02972609
     atom   47 type  2   force =     0.06831550   -0.00085490   -0.02980374
     atom   48 type  3   force =    -0.00169236   -0.01146655   -0.00377085
     atom   49 type  2   force =    -0.00096581    0.00044212    0.00066640
     atom   50 type  4   force =     0.00044994   -0.00033587   -0.00010273
     atom   51 type  4   force =     0.00003287   -0.00126555   -0.00084977
     atom   52 type  4   force =     0.00234668    0.01066755    0.00383836

     Total force =     0.377276     Total SCF correction =     0.000751
  @ DRIVER MODE: Message from server: STATUS
  @ DRIVER MODE: Message from server: GETFORCE
  @ DRIVER MODE: Returning v,forces,stress,ensemble 

     Writing output data file ./calc.save/
  @ DRIVER MODE: Message from server: EXIT
  @ DRIVE MODE: Exiting  
 
     init_run     :     10.82s CPU     11.07s WALL (       1 calls)
     electrons    :    954.18s CPU    971.91s WALL (       1 calls)
     forces       :      2.44s CPU      2.56s WALL (       1 calls)

     Called by init_run:
     wfcinit      :      4.88s CPU      4.94s WALL (       1 calls)
     potinit      :      5.34s CPU      5.41s WALL (       1 calls)
     hinit0       :      0.24s CPU      0.27s WALL (       1 calls)

     Called by electrons:
     c_bands      :    817.61s CPU    826.57s WALL (      56 calls)
     sum_band     :     91.40s CPU     94.99s WALL (      56 calls)
     v_of_rho     :     35.55s CPU     37.39s WALL (      57 calls)
     newd         :     12.99s CPU     16.22s WALL (      57 calls)
     mix_rho      :      1.29s CPU      1.36s WALL (      56 calls)
     vdW_kernel   :      4.59s CPU      4.60s WALL (       1 calls)

     Called by c_bands:
     init_us_2    :      6.58s CPU      6.64s WALL (    1140 calls)
     cegterg      :    801.29s CPU    809.82s WALL (     560 calls)

     Called by *egterg:
     cdiaghg      :    132.08s CPU    133.31s WALL (    5757 calls)
     h_psi        :    416.14s CPU    421.28s WALL (    5767 calls)
     s_psi        :     56.75s CPU     57.15s WALL (    5767 calls)
     g_psi        :      1.69s CPU      1.71s WALL (    5197 calls)

     Called by h_psi:
     h_psi:calbec :     54.13s CPU     54.59s WALL (    5767 calls)
     vloc_psi     :    300.98s CPU    304.95s WALL (    5767 calls)
     add_vuspsi   :     57.47s CPU     57.98s WALL (    5767 calls)

     General routines
     calbec       :     70.78s CPU     71.37s WALL (    6367 calls)
     fft          :     18.38s CPU     18.59s WALL (    3591 calls)
     ffts         :      0.11s CPU      0.12s WALL (     113 calls)
     fftw         :    335.22s CPU    339.58s WALL (  779292 calls)
     interpolate  :      0.37s CPU      0.38s WALL (      57 calls)
     davcio       :      0.00s CPU      0.22s WALL (      10 calls)
 
     Parallel routines
 
     PWSCF        :  16m 7.75s CPU  16m26.41s WALL

 
   This run was terminated on:  17:19: 8  20Sep2021            

=------------------------------------------------------------------------------=
   JOB DONE.
=------------------------------------------------------------------------------=
