
     Program PWSCF v.6.7GPU starts on 23Sep2021 at  9:48:56 

     This program is part of the open-source Quantum ESPRESSO suite
     for quantum simulation of materials; please cite
         "P. Giannozzi et al., J. Phys.:Condens. Matter 21 395502 (2009);
         "P. Giannozzi et al., J. Phys.:Condens. Matter 29 465901 (2017);
         "P. Giannozzi et al., J. Chem. Phys. 152 154105 (2020);
          URL http://www.quantum-espresso.org", 
     in publications or presentations arising from this work. More details at
     http://www.quantum-espresso.org/quote

     Parallel version (MPI), running on    10 processors

     MPI processes distributed on     1 nodes
     R & G space division:  proc/nbgrp/npool/nimage =      10
     Reading input from /storage/home/hcoda1/3/ntian30/research/carbon/CxH_vib/H2O_calc/ads_slab/CH3NNH3HO_a/out_0051/pw.inp
Warning: card &CELL ignored
Warning: card   CELL_DYNAMICS='IPI', ignored
Warning: card / ignored

     Current dimensions of program PWSCF are:
     Max number of different atomic species (ntypx) = 10
     Max number of k-points (npk) =  40000
     Max angular momentum in pseudopotentials (lmaxx) =  3
     Presently no symmetry can be used with electric field

     Message from routine cell_base_init:
     DEPRECATED: use true lattice parameter, not A to a.u. conversion factor

     **************************************************************************
     Initializing libbeef V0.1.2 with the BEEF-vdW functional.
     Citation: Wellendorff et al., PRB 85, 235149 (2012).
     **************************************************************************


     IMPORTANT: XC functional enforced from input :
     Exchange-correlation= BEEF-VDW
                           (   1   4  43  14   2   0   0)
     Any further DFT definition will be discarded
     Please, verify this is what you really want


     Subspace diagonalization in iterative solution of the eigenvalue problem:
     one sub-group per band group will be used
     scalapack distributed-memory algorithm (size of sub-group:  3*  3 procs)

  @ DRIVER MODE: Connecting to 
 qe_1139763_2937318.sched-torque.pace.gatech.edukxt0brsz_scratch
  using UNIX socket
  @ DRIVER MODE: Message from server: STATUS
  @ DRIVER MODE: Message from server: INIT
  @ DRIVER MODE: Receiving replica           0          -1
  @ DRIVER MODE: Receiving encoded integer          25
  @ DRIVER MODE:  SCF:  T  FORCE:  T  STRESS:  F  VC:  F  ENSEMBLE:  F
  @ DRIVER MODE:  SCF:  T  FORCE:  T  STRESS:  F  VC:  F  ENSEMBLE:  F
 
     Parallelization info
     --------------------
     sticks:   dense  smooth     PW     G-vecs:    dense   smooth      PW
     Min         327     131     37                56683    14340    2191
     Max         328     133     38                56694    14346    2206
     Sum        3275    1317    379               566857   143421   21985
 
     Using Slab Decomposition
 


     bravais-lattice index     =            0
     lattice parameter (alat)  =       1.8897  a.u.
     unit-cell volume          =    6658.9804 (a.u.)^3
     number of atoms/cell      =           58
     number of atomic types    =            5
     number of electrons       =       405.00
     number of Kohn-Sham states=          212
     kinetic-energy cutoff     =      29.3995  Ry
     charge density cutoff     =     293.9946  Ry
     scf convergence threshold =      7.3E-08
     mixing beta               =       0.0500
     number of iterations used =            8  plain     mixing
     Exchange-correlation= BEEF-VDW
                           (   1   4  43  14   2   0   0)

     celldm(1)=   1.889726  celldm(2)=   0.000000  celldm(3)=   0.000000
     celldm(4)=   0.000000  celldm(5)=   0.000000  celldm(6)=   0.000000

     crystal axes: (cart. coord. in units of alat)
               a(1) = (   6.579727   0.000000   0.000000 )  
               a(2) = (  -0.000775   5.961596   0.000000 )  
               a(3) = (   0.000000   0.000000  25.155947 )  

     reciprocal axes: (cart. coord. in units 2 pi/alat)
               b(1) = (  0.151982  0.000020  0.000000 )  
               b(2) = (  0.000000  0.167740  0.000000 )  
               b(3) = (  0.000000  0.000000  0.039752 )  


     PseudoPot. # 1 for Ti read from file:
     /storage/coda1/p-amedford6/0/shared/rich_project_chbe-medford/medford-share/data/pseudos_module/espresso/nninc/pbe/van/Ti.UPF
     MD5 check sum: 8e4df49b7f0d34bbd5052bf3f5ea0213
     Pseudo is Ultrasoft, Zval = 12.0
     Generated by new atomic code, or converted to UPF format
     Using radial grid of  851 points,  6 beta functions with: 
                l(1) =   0
                l(2) =   0
                l(3) =   1
                l(4) =   1
                l(5) =   2
                l(6) =   2
     Q(r) pseudized with  8 coefficients,  rinner =    1.000   1.000   1.000
                                                       1.000   1.000

     PseudoPot. # 2 for O  read from file:
     /storage/coda1/p-amedford6/0/shared/rich_project_chbe-medford/medford-share/data/pseudos_module/espresso/nninc/pbe/van/O.UPF
     MD5 check sum: 78c19812648e8988a0fe644b0f25305e
     Pseudo is Ultrasoft, Zval =  6.0
     Generated by new atomic code, or converted to UPF format
     Using radial grid of  737 points,  4 beta functions with: 
                l(1) =   0
                l(2) =   0
                l(3) =   1
                l(4) =   1
     Q(r) pseudized with  8 coefficients,  rinner =    0.800   0.800   0.800


     PseudoPot. # 3 for N  read from file:
     /storage/coda1/p-amedford6/0/shared/rich_project_chbe-medford/medford-share/data/pseudos_module/espresso/nninc/pbe/van/N.UPF
     MD5 check sum: 90d10febe142ad51ac9d5be1deb811c4
     Pseudo is Ultrasoft, Zval =  5.0
     Generated by new atomic code, or converted to UPF format
     Using radial grid of  729 points,  4 beta functions with: 
                l(1) =   0
                l(2) =   0
                l(3) =   1
                l(4) =   1
     Q(r) pseudized with  8 coefficients,  rinner =    0.800   0.800   0.800


     PseudoPot. # 4 for C  read from file:
     /storage/coda1/p-amedford6/0/shared/rich_project_chbe-medford/medford-share/data/pseudos_module/espresso/nninc/pbe/van/C.UPF
     MD5 check sum: 1a69bf6b8db32088f5b2163dbdb77a27
     Pseudo is Ultrasoft, Zval =  4.0
     Generated by new atomic code, or converted to UPF format
     Using radial grid of  721 points,  4 beta functions with: 
                l(1) =   0
                l(2) =   0
                l(3) =   1
                l(4) =   1
     Q(r) pseudized with  8 coefficients,  rinner =    0.800   0.800   0.800


     PseudoPot. # 5 for H  read from file:
     /storage/coda1/p-amedford6/0/shared/rich_project_chbe-medford/medford-share/data/pseudos_module/espresso/nninc/pbe/van/H.UPF
     MD5 check sum: b5ee9d7bfd3a09ee7748110bda690ff7
     Pseudo is Ultrasoft, Zval =  1.0
     Generated by new atomic code, or converted to UPF format
     Using radial grid of  615 points,  1 beta functions with: 
                l(1) =   0
     Q(r) pseudized with  8 coefficients,  rinner =    0.800

     atomic species   valence    mass     pseudopotential
        Ti1           12.00    47.86700     Ti( 1.00)
        O1             6.00    15.99900     O ( 1.00)
        N1             5.00    14.00700     N ( 1.00)
        C1             4.00    12.01100     C ( 1.00)
        H1             1.00     1.00800     H ( 1.00)

     No symmetry found



   Cartesian axes

     site n.     atom                  positions (alat units)
         1           Ti1 tau(   1) = (   0.0004258   2.9801865   6.0000000  )
         2           Ti1 tau(   2) = (   3.2906075   1.4906267   6.0002472  )
         3           O1  tau(   3) = (   0.0006271   0.0005054   7.9858123  )
         4           O1  tau(   4) = (   3.2906025   0.0005020   7.3038282  )
         5           O1  tau(   5) = (   4.5942328   1.4918067   9.2879030  )
         6           O1  tau(   6) = (   1.9868534   1.4903216   9.2879459  )
         7           Ti1 tau(   7) = (   3.2907910   2.8959150   9.1758416  )
         8           Ti1 tau(   8) = (   0.0015273   1.4827037   9.2680791  )
         9           O1  tau(   9) = (   3.2949357   5.9297256  11.2770696  )
        10           O1  tau(  10) = (   0.0116148   5.9584955  10.6183126  )
        11           O1  tau(  11) = (   1.2901270   1.4659759  12.6218969  )
        12           O1  tau(  12) = (   5.3029181   1.4690452  12.6271982  )
        13           Ti1 tau(  13) = (   6.5637346   3.0486055  12.7052252  )
        14           Ti1 tau(  14) = (   3.3207578   1.2909511  12.6638180  )
        15           O1  tau(  15) = (   0.0081040   5.9567798  14.6379979  )
        16           O1  tau(  16) = (   3.2944190   0.0149942  13.8863584  )
        17           O1  tau(  17) = (   4.5334936   1.5584448  16.0391558  )
        18           O1  tau(  18) = (   2.0244848   1.5379376  16.0854781  )
        19           Ti1 tau(  19) = (   3.2579824   3.0118882  15.6538344  )
        20           Ti1 tau(  20) = (   6.4918182   1.5199401  15.8876453  )
        21           O1  tau(  21) = (   3.2904802   0.0005063   4.7018136  )
        22           O1  tau(  22) = (   6.5166677   0.0216046  17.1949088  )
        23           O1  tau(  23) = (   1.3043587   1.4918075   6.0039043  )
        24           O1  tau(  24) = (   5.2767064   1.4903225   6.0039473  )
        25           Ti1 tau(  25) = (   0.0000382   5.9609847   6.0000000  )
        26           Ti1 tau(  26) = (   3.2902200   4.4714249   6.0002472  )
        27           O1  tau(  27) = (   0.0002396   2.9813036   7.9858123  )
        28           O1  tau(  28) = (   3.2902150   2.9813002   7.3038282  )
        29           O1  tau(  29) = (   4.5938453   4.4726049   9.2879030  )
        30           O1  tau(  30) = (   1.9864658   4.4711199   9.2879459  )
        31           Ti1 tau(  31) = (   3.2891106   5.8743827   9.1763621  )
        32           Ti1 tau(  32) = (   0.0006254   4.4649316   9.2693709  )
        33           O1  tau(  33) = (   3.2959121   3.0085915  11.2438341  )
        34           O1  tau(  34) = (   0.0092240   2.9805883  10.6323155  )
        35           O1  tau(  35) = (   1.2849535   4.4488585  12.6204231  )
        36           O1  tau(  36) = (   5.2878833   4.4365118  12.6243745  )
        37           Ti1 tau(  37) = (   0.0500071   0.0677371  12.6535751  )
        38           Ti1 tau(  38) = (   3.3027700   4.3871210  12.4110406  )
        39           O1  tau(  39) = (   6.5685058   2.9535060  14.6525041  )
        40           O1  tau(  40) = (   3.2696111   2.9719761  13.8704823  )
        41           O1  tau(  41) = (   4.5209813   4.4409030  16.0696701  )
        42           O1  tau(  42) = (   2.0131998   4.4599944  16.0916020  )
        43           Ti1 tau(  43) = (   3.2138439   0.0230873  16.3295100  )
        44           Ti1 tau(  44) = (   6.5234412   4.6200706  16.0754176  )
        45           O1  tau(  45) = (   3.2900926   2.9813045   4.7018136  )
        46           O1  tau(  46) = (   1.3039711   4.4726057   6.0039043  )
        47           O1  tau(  47) = (   5.2763189   4.4711207   6.0039473  )
        48           N1  tau(  48) = (   0.0251376   2.9556585  17.3246074  )
        49           N1  tau(  49) = (   6.3772498   2.5461882  22.2688425  )
        50           C1  tau(  50) = (   0.2111848   2.8484408  18.7116211  )
        51           H1  tau(  51) = (   0.3920758   3.8074029  19.2116250  )
        52           H1  tau(  52) = (   5.9044209   2.3708277  19.1722604  )
        53           H1  tau(  53) = (   1.0233575   2.1342068  18.9364007  )
        54           H1  tau(  54) = (   6.0930523   3.2289774  22.9628454  )
        55           H1  tau(  55) = (   0.2277240   1.7755739  22.7685771  )
        56           H1  tau(  56) = (   0.5282093   2.9685696  21.7129995  )
        57           O1  tau(  57) = (   3.3838229   0.0530270  18.1522483  )
        58           H1  tau(  58) = (   4.2718821   5.8932998  18.5223319  )

     number of k points=    10  Fermi-Dirac smearing, width (Ry)=  0.0073
                       cart. coord. in units 2pi/alat
        k(    1) = (   0.0000000   0.0000000   0.0000000), wk =   0.1250000
        k(    2) = (   0.0000000   0.0419351   0.0000000), wk =   0.2500000
        k(    3) = (   0.0000000  -0.0838702   0.0000000), wk =   0.1250000
        k(    4) = (   0.0379955   0.0000049   0.0000000), wk =   0.2500000
        k(    5) = (   0.0379955   0.0419400   0.0000000), wk =   0.2500000
        k(    6) = (   0.0379955  -0.0838652   0.0000000), wk =   0.2500000
        k(    7) = (   0.0379955  -0.0419301   0.0000000), wk =   0.2500000
        k(    8) = (  -0.0759910  -0.0000099   0.0000000), wk =   0.1250000
        k(    9) = (  -0.0759910   0.0419252   0.0000000), wk =   0.2500000
        k(   10) = (  -0.0759910  -0.0838800   0.0000000), wk =   0.1250000

     Dense  grid:   566857 G-vectors     FFT dimensions: (  72,  64, 270)

     Smooth grid:   143421 G-vectors     FFT dimensions: (  45,  40, 180)

     Estimated max dynamical RAM per process >     367.84 MB

     Estimated total dynamical RAM >       3.59 GB
     Cannot read rho : file not found

     Initial potential from superposition of free atoms

     starting charge  388.99913, renormalised to  405.00000

     negative rho (up, down):  7.829E-03 0.000E+00


     %%%%%%%%%%%%%%%%%%%%%%%%%%%%%%%%%%%%%%%%%%%%%%%%%%%%%%%%%%%%%%%%%%%%%%%%
     %                                                                      %
     % You are using vdW-DF, which was implemented by the Thonhauser group. %
     % Please cite the following two papers that made this development      %
     % possible and the two reviews that describe the various versions:     %
     %                                                                      %
     %   T. Thonhauser et al., PRL 115, 136402 (2015).                      %
     %   T. Thonhauser et al., PRB 76, 125112 (2007).                       %
     %   K. Berland et al., Rep. Prog. Phys. 78, 066501 (2015).             %
     %   D.C. Langreth et al., J. Phys.: Condens. Matter 21, 084203 (2009). %
     %                                                                      %
     %                                                                      %
     % If you are calculating the stress with vdW-DF, please also cite:     %
     %                                                                      %
     %   R. Sabatini et al., J. Phys.: Condens. Matter 24, 424209 (2012).   %
     %                                                                      %
     %%%%%%%%%%%%%%%%%%%%%%%%%%%%%%%%%%%%%%%%%%%%%%%%%%%%%%%%%%%%%%%%%%%%%%%%


 
     Adding external electric field

     Computed dipole along edir(3) : 
        Dipole              -15.1933 Ry au,        -38.6176 Debye
        Dipole field         -0.0287 Ry au, 
 
        Potential amp.        2.6578 Ry
        Total length         46.3494 bohr
 
     Starting wfcs are  307 atomic wfcs
  @ DRIVER MODE: Message from server: STATUS
  @ DRIVER MODE: Message from server: POSDATA
  @ DRIVER MODE: Reading and sharing cell 
  @ DRIVER MODE: Reading and sharing positions 
  @ DRIVER MODE: Received positions 

     total cpu time spent up to now is       11.6 secs

     Self-consistent Calculation

     iteration #  1     ecut=    29.40 Ry     beta= 0.05
     Davidson diagonalization with overlap
     c_bands:  4 eigenvalues not converged
     c_bands:  1 eigenvalues not converged
     c_bands:  1 eigenvalues not converged
     c_bands:  2 eigenvalues not converged
     c_bands:  1 eigenvalues not converged
     c_bands:  2 eigenvalues not converged
     ethr =  1.00E-05,  avg # of iterations = 31.5

     negative rho (up, down):  5.635E-03 0.000E+00
 
     Adding external electric field

     Computed dipole along edir(3) : 
        Dipole               57.0041 Ry au,        144.8899 Debye
        Dipole field          0.1076 Ry au, 
 
        Potential amp.       -9.9720 Ry
        Total length         46.3494 bohr
 

     total cpu time spent up to now is       65.7 secs

     total energy              =   -2295.05733544 Ry
     estimated scf accuracy    <    7743.75035477 Ry

     iteration #  2     ecut=    29.40 Ry     beta= 0.05
     Davidson diagonalization with overlap
     ethr =  1.00E-02,  avg # of iterations = 23.1

     negative rho (up, down):  2.159E-04 0.000E+00
 
     Adding external electric field

     Computed dipole along edir(3) : 
        Dipole               -2.2976 Ry au,         -5.8398 Debye
        Dipole field         -0.0043 Ry au, 
 
        Potential amp.        0.4019 Ry
        Total length         46.3494 bohr
 

     total cpu time spent up to now is      152.7 secs

     total energy              =   -2430.64683554 Ry
     estimated scf accuracy    <   80598.01372531 Ry

     iteration #  3     ecut=    29.40 Ry     beta= 0.05
     Davidson diagonalization with overlap
     c_bands:  2 eigenvalues not converged
     ethr =  1.00E-02,  avg # of iterations = 16.7

     negative rho (up, down):  2.625E-04 0.000E+00
 
     Adding external electric field

     Computed dipole along edir(3) : 
        Dipole               -4.9635 Ry au,        -12.6158 Debye
        Dipole field         -0.0094 Ry au, 
 
        Potential amp.        0.8683 Ry
        Total length         46.3494 bohr
 

     total cpu time spent up to now is      203.8 secs

     total energy              =   -2957.63818166 Ry
     estimated scf accuracy    <    8052.54835083 Ry

     iteration #  4     ecut=    29.40 Ry     beta= 0.05
     Davidson diagonalization with overlap
     ethr =  1.00E-02,  avg # of iterations = 10.9

     negative rho (up, down):  2.729E-04 0.000E+00
 
     Adding external electric field

     Computed dipole along edir(3) : 
        Dipole               -6.0223 Ry au,        -15.3072 Debye
        Dipole field         -0.0114 Ry au, 
 
        Potential amp.        1.0535 Ry
        Total length         46.3494 bohr
 

     total cpu time spent up to now is      227.5 secs

     total energy              =   -2970.56612278 Ry
     estimated scf accuracy    <    2368.10925377 Ry

     iteration #  5     ecut=    29.40 Ry     beta= 0.05
     Davidson diagonalization with overlap
     ethr =  1.00E-02,  avg # of iterations =  6.3

     negative rho (up, down):  2.944E-04 0.000E+00
 
     Adding external electric field

     Computed dipole along edir(3) : 
        Dipole               -7.0940 Ry au,        -18.0312 Debye
        Dipole field         -0.0134 Ry au, 
 
        Potential amp.        1.2410 Ry
        Total length         46.3494 bohr
 

     total cpu time spent up to now is      240.2 secs

     total energy              =   -2952.54542481 Ry
     estimated scf accuracy    <    1983.42216459 Ry

     iteration #  6     ecut=    29.40 Ry     beta= 0.05
     Davidson diagonalization with overlap
     ethr =  1.00E-02,  avg # of iterations = 12.1

     negative rho (up, down):  2.832E-04 0.000E+00
 
     Adding external electric field

     Computed dipole along edir(3) : 
        Dipole               -5.3418 Ry au,        -13.5775 Debye
        Dipole field         -0.0101 Ry au, 
 
        Potential amp.        0.9345 Ry
        Total length         46.3494 bohr
 

     total cpu time spent up to now is      263.6 secs

     total energy              =   -2981.22922271 Ry
     estimated scf accuracy    <      57.20761987 Ry

     iteration #  7     ecut=    29.40 Ry     beta= 0.05
     Davidson diagonalization with overlap
     ethr =  1.00E-02,  avg # of iterations =  1.6

     negative rho (up, down):  2.723E-04 0.000E+00
 
     Adding external electric field

     Computed dipole along edir(3) : 
        Dipole               -2.3353 Ry au,         -5.9359 Debye
        Dipole field         -0.0044 Ry au, 
 
        Potential amp.        0.4085 Ry
        Total length         46.3494 bohr
 

     total cpu time spent up to now is      274.0 secs

     total energy              =   -2980.06650738 Ry
     estimated scf accuracy    <      51.24531091 Ry

     iteration #  8     ecut=    29.40 Ry     beta= 0.05
     Davidson diagonalization with overlap
     ethr =  1.00E-02,  avg # of iterations =  1.8

     negative rho (up, down):  2.716E-04 0.000E+00
 
     Adding external electric field

     Computed dipole along edir(3) : 
        Dipole               -1.1408 Ry au,         -2.8997 Debye
        Dipole field         -0.0022 Ry au, 
 
        Potential amp.        0.1996 Ry
        Total length         46.3494 bohr
 

     total cpu time spent up to now is      284.5 secs

     total energy              =   -2986.95527887 Ry
     estimated scf accuracy    <     525.71741572 Ry

     iteration #  9     ecut=    29.40 Ry     beta= 0.05
     Davidson diagonalization with overlap
     ethr =  1.00E-02,  avg # of iterations =  3.1

     negative rho (up, down):  2.758E-04 0.000E+00
 
     Adding external electric field

     Computed dipole along edir(3) : 
        Dipole                1.2982 Ry au,          3.2996 Debye
        Dipole field          0.0024 Ry au, 
 
        Potential amp.       -0.2271 Ry
        Total length         46.3494 bohr
 

     total cpu time spent up to now is      295.8 secs

     total energy              =   -2994.15548628 Ry
     estimated scf accuracy    <     692.81317029 Ry

     iteration # 10     ecut=    29.40 Ry     beta= 0.05
     Davidson diagonalization with overlap
     ethr =  1.00E-02,  avg # of iterations = 13.9

     negative rho (up, down):  3.427E-04 0.000E+00
 
     Adding external electric field

     Computed dipole along edir(3) : 
        Dipole                6.3299 Ry au,         16.0890 Debye
        Dipole field          0.0119 Ry au, 
 
        Potential amp.       -1.1073 Ry
        Total length         46.3494 bohr
 

     total cpu time spent up to now is      315.6 secs

     total energy              =   -3021.62616224 Ry
     estimated scf accuracy    <    3252.08693671 Ry

     iteration # 11     ecut=    29.40 Ry     beta= 0.05
     Davidson diagonalization with overlap
     ethr =  1.00E-02,  avg # of iterations =  3.6

     negative rho (up, down):  3.793E-04 0.000E+00
 
     Adding external electric field

     Computed dipole along edir(3) : 
        Dipole                6.9550 Ry au,         17.6779 Debye
        Dipole field          0.0131 Ry au, 
 
        Potential amp.       -1.2167 Ry
        Total length         46.3494 bohr
 

     total cpu time spent up to now is      327.1 secs

     total energy              =   -3014.82336921 Ry
     estimated scf accuracy    <    3974.61620157 Ry

     iteration # 12     ecut=    29.40 Ry     beta= 0.05
     Davidson diagonalization with overlap
     ethr =  1.00E-02,  avg # of iterations =  1.7

     negative rho (up, down):  5.159E-04 0.000E+00
 
     Adding external electric field

     Computed dipole along edir(3) : 
        Dipole                8.9772 Ry au,         22.8179 Debye
        Dipole field          0.0169 Ry au, 
 
        Potential amp.       -1.5704 Ry
        Total length         46.3494 bohr
 

     total cpu time spent up to now is      337.8 secs

     total energy              =   -3003.07803971 Ry
     estimated scf accuracy    <    3733.81198050 Ry

     iteration # 13     ecut=    29.40 Ry     beta= 0.05
     Davidson diagonalization with overlap
     c_bands:  2 eigenvalues not converged
     ethr =  1.00E-02,  avg # of iterations = 15.9

     negative rho (up, down):  4.794E-04 0.000E+00
 
     Adding external electric field

     Computed dipole along edir(3) : 
        Dipole                7.6778 Ry au,         19.5149 Debye
        Dipole field          0.0145 Ry au, 
 
        Potential amp.       -1.3431 Ry
        Total length         46.3494 bohr
 

     total cpu time spent up to now is      356.3 secs

     total energy              =   -3006.01440087 Ry
     estimated scf accuracy    <    4826.63511901 Ry

     iteration # 14     ecut=    29.40 Ry     beta= 0.05
     Davidson diagonalization with overlap
     ethr =  1.00E-02,  avg # of iterations =  2.6

     negative rho (up, down):  3.993E-04 0.000E+00
 
     Adding external electric field

     Computed dipole along edir(3) : 
        Dipole                0.4980 Ry au,          1.2659 Debye
        Dipole field          0.0009 Ry au, 
 
        Potential amp.       -0.0871 Ry
        Total length         46.3494 bohr
 

     total cpu time spent up to now is      367.3 secs

     total energy              =   -2946.93740094 Ry
     estimated scf accuracy    <    4443.73986404 Ry

     iteration # 15     ecut=    29.40 Ry     beta= 0.05
     Davidson diagonalization with overlap
     ethr =  1.00E-02,  avg # of iterations = 12.0

     negative rho (up, down):  3.047E-04 0.000E+00
 
     Adding external electric field

     Computed dipole along edir(3) : 
        Dipole                0.3486 Ry au,          0.8860 Debye
        Dipole field          0.0007 Ry au, 
 
        Potential amp.       -0.0610 Ry
        Total length         46.3494 bohr
 

     total cpu time spent up to now is      394.5 secs

     total energy              =   -2974.76939008 Ry
     estimated scf accuracy    <     162.88790284 Ry

     iteration # 16     ecut=    29.40 Ry     beta= 0.05
     Davidson diagonalization with overlap
     ethr =  1.00E-02,  avg # of iterations =  2.7

     negative rho (up, down):  4.239E-04 0.000E+00
 
     Adding external electric field

     Computed dipole along edir(3) : 
        Dipole                1.3553 Ry au,          3.4448 Debye
        Dipole field          0.0026 Ry au, 
 
        Potential amp.       -0.2371 Ry
        Total length         46.3494 bohr
 

     total cpu time spent up to now is      405.8 secs

     total energy              =   -2977.64851180 Ry
     estimated scf accuracy    <      39.20565705 Ry

     iteration # 17     ecut=    29.40 Ry     beta= 0.05
     Davidson diagonalization with overlap
     ethr =  9.68E-03,  avg # of iterations =  1.8

     negative rho (up, down):  3.145E-04 0.000E+00
 
     Adding external electric field

     Computed dipole along edir(3) : 
        Dipole                1.1627 Ry au,          2.9552 Debye
        Dipole field          0.0022 Ry au, 
 
        Potential amp.       -0.2034 Ry
        Total length         46.3494 bohr
 

     total cpu time spent up to now is      416.4 secs

     total energy              =   -2978.20345723 Ry
     estimated scf accuracy    <      99.00267243 Ry

     iteration # 18     ecut=    29.40 Ry     beta= 0.05
     Davidson diagonalization with overlap
     ethr =  9.68E-03,  avg # of iterations =  1.1

     negative rho (up, down):  1.505E-02 0.000E+00
 
     Adding external electric field

     Computed dipole along edir(3) : 
        Dipole                1.5948 Ry au,          4.0537 Debye
        Dipole field          0.0030 Ry au, 
 
        Potential amp.       -0.2790 Ry
        Total length         46.3494 bohr
 

     total cpu time spent up to now is      426.5 secs

     total energy              =   -2973.19353548 Ry
     estimated scf accuracy    <     103.38738005 Ry

     iteration # 19     ecut=    29.40 Ry     beta= 0.05
     Davidson diagonalization with overlap
     ethr =  9.68E-03,  avg # of iterations =  5.1

     negative rho (up, down):  2.595E-02 0.000E+00
 
     Adding external electric field

     Computed dipole along edir(3) : 
        Dipole                1.7117 Ry au,          4.3506 Debye
        Dipole field          0.0032 Ry au, 
 
        Potential amp.       -0.2994 Ry
        Total length         46.3494 bohr
 

     total cpu time spent up to now is      438.7 secs

     total energy              =   -2976.90360732 Ry
     estimated scf accuracy    <       7.36587987 Ry

     iteration # 20     ecut=    29.40 Ry     beta= 0.05
     Davidson diagonalization with overlap
     ethr =  1.82E-03,  avg # of iterations = 13.1

     negative rho (up, down):  2.183E-02 0.000E+00
 
     Adding external electric field

     Computed dipole along edir(3) : 
        Dipole                2.1061 Ry au,          5.3532 Debye
        Dipole field          0.0040 Ry au, 
 
        Potential amp.       -0.3684 Ry
        Total length         46.3494 bohr
 

     total cpu time spent up to now is      457.0 secs

     total energy              =   -2979.27156928 Ry
     estimated scf accuracy    <     240.02769081 Ry

     iteration # 21     ecut=    29.40 Ry     beta= 0.05
     Davidson diagonalization with overlap
     ethr =  1.82E-03,  avg # of iterations =  1.5

     negative rho (up, down):  7.473E-03 0.000E+00
 
     Adding external electric field

     Computed dipole along edir(3) : 
        Dipole                2.6685 Ry au,          6.7826 Debye
        Dipole field          0.0050 Ry au, 
 
        Potential amp.       -0.4668 Ry
        Total length         46.3494 bohr
 

     total cpu time spent up to now is      467.7 secs

     total energy              =   -2979.52037904 Ry
     estimated scf accuracy    <     257.08162219 Ry

     iteration # 22     ecut=    29.40 Ry     beta= 0.05
     Davidson diagonalization with overlap
     ethr =  1.82E-03,  avg # of iterations =  1.1

     negative rho (up, down):  6.022E-03 0.000E+00
 
     Adding external electric field

     Computed dipole along edir(3) : 
        Dipole                1.9008 Ry au,          4.8314 Debye
        Dipole field          0.0036 Ry au, 
 
        Potential amp.       -0.3325 Ry
        Total length         46.3494 bohr
 

     total cpu time spent up to now is      477.9 secs

     total energy              =   -2978.40276594 Ry
     estimated scf accuracy    <     257.48923687 Ry

     iteration # 23     ecut=    29.40 Ry     beta= 0.05
     Davidson diagonalization with overlap
     ethr =  1.82E-03,  avg # of iterations =  1.0

     negative rho (up, down):  5.104E-03 0.000E+00
 
     Adding external electric field

     Computed dipole along edir(3) : 
        Dipole                1.3026 Ry au,          3.3108 Debye
        Dipole field          0.0025 Ry au, 
 
        Potential amp.       -0.2279 Ry
        Total length         46.3494 bohr
 

     total cpu time spent up to now is      487.9 secs

     total energy              =   -2977.74363790 Ry
     estimated scf accuracy    <     165.45978587 Ry

     iteration # 24     ecut=    29.40 Ry     beta= 0.05
     Davidson diagonalization with overlap
     ethr =  1.82E-03,  avg # of iterations =  1.0

     negative rho (up, down):  7.767E-03 0.000E+00
 
     Adding external electric field

     Computed dipole along edir(3) : 
        Dipole                1.1578 Ry au,          2.9428 Debye
        Dipole field          0.0022 Ry au, 
 
        Potential amp.       -0.2025 Ry
        Total length         46.3494 bohr
 

     total cpu time spent up to now is      498.0 secs

     total energy              =   -2977.86379471 Ry
     estimated scf accuracy    <     106.64505093 Ry

     iteration # 25     ecut=    29.40 Ry     beta= 0.05
     Davidson diagonalization with overlap
     ethr =  1.82E-03,  avg # of iterations =  1.0

     negative rho (up, down):  1.896E-02 0.000E+00
 
     Adding external electric field

     Computed dipole along edir(3) : 
        Dipole                1.1919 Ry au,          3.0295 Debye
        Dipole field          0.0022 Ry au, 
 
        Potential amp.       -0.2085 Ry
        Total length         46.3494 bohr
 

     total cpu time spent up to now is      508.1 secs

     total energy              =   -2978.49180260 Ry
     estimated scf accuracy    <     112.12171111 Ry

     iteration # 26     ecut=    29.40 Ry     beta= 0.05
     Davidson diagonalization with overlap
     ethr =  1.82E-03,  avg # of iterations =  1.0

     negative rho (up, down):  1.974E-02 0.000E+00
 
     Adding external electric field

     Computed dipole along edir(3) : 
        Dipole                0.7288 Ry au,          1.8524 Debye
        Dipole field          0.0014 Ry au, 
 
        Potential amp.       -0.1275 Ry
        Total length         46.3494 bohr
 

     total cpu time spent up to now is      518.1 secs

     total energy              =   -2977.73868930 Ry
     estimated scf accuracy    <     170.02984483 Ry

     iteration # 27     ecut=    29.40 Ry     beta= 0.05
     Davidson diagonalization with overlap
     ethr =  1.82E-03,  avg # of iterations =  1.0

     negative rho (up, down):  2.119E-02 0.000E+00
 
     Adding external electric field

     Computed dipole along edir(3) : 
        Dipole                0.0892 Ry au,          0.2267 Debye
        Dipole field          0.0002 Ry au, 
 
        Potential amp.       -0.0156 Ry
        Total length         46.3494 bohr
 

     total cpu time spent up to now is      528.2 secs

     total energy              =   -2977.05541998 Ry
     estimated scf accuracy    <     116.73005600 Ry

     iteration # 28     ecut=    29.40 Ry     beta= 0.05
     Davidson diagonalization with overlap
     ethr =  1.82E-03,  avg # of iterations =  1.0

     negative rho (up, down):  4.715E-02 0.000E+00
 
     Adding external electric field

     Computed dipole along edir(3) : 
        Dipole               -2.2583 Ry au,         -5.7399 Debye
        Dipole field         -0.0043 Ry au, 
 
        Potential amp.        0.3950 Ry
        Total length         46.3494 bohr
 

     total cpu time spent up to now is      538.3 secs

     total energy              =   -2975.07958378 Ry
     estimated scf accuracy    <      71.62586495 Ry

     iteration # 29     ecut=    29.40 Ry     beta= 0.05
     Davidson diagonalization with overlap
     ethr =  1.82E-03,  avg # of iterations = 11.5

     negative rho (up, down):  3.395E-02 0.000E+00
 
     Adding external electric field

     Computed dipole along edir(3) : 
        Dipole               -1.5496 Ry au,         -3.9388 Debye
        Dipole field         -0.0029 Ry au, 
 
        Potential amp.        0.2711 Ry
        Total length         46.3494 bohr
 

     total cpu time spent up to now is      552.8 secs

     total energy              =   -2976.58160551 Ry
     estimated scf accuracy    <       4.22495287 Ry

     iteration # 30     ecut=    29.40 Ry     beta= 0.05
     Davidson diagonalization with overlap
     ethr =  1.04E-03,  avg # of iterations =  1.6

     negative rho (up, down):  1.444E-02 0.000E+00
 
     Adding external electric field

     Computed dipole along edir(3) : 
        Dipole               -0.9184 Ry au,         -2.3344 Debye
        Dipole field         -0.0017 Ry au, 
 
        Potential amp.        0.1607 Ry
        Total length         46.3494 bohr
 

     total cpu time spent up to now is      563.4 secs

     total energy              =   -2976.55906820 Ry
     estimated scf accuracy    <       3.44977912 Ry

     iteration # 31     ecut=    29.40 Ry     beta= 0.05
     Davidson diagonalization with overlap
     ethr =  8.52E-04,  avg # of iterations =  1.4

     negative rho (up, down):  1.108E-02 0.000E+00
 
     Adding external electric field

     Computed dipole along edir(3) : 
        Dipole               -0.4659 Ry au,         -1.1843 Debye
        Dipole field         -0.0009 Ry au, 
 
        Potential amp.        0.0815 Ry
        Total length         46.3494 bohr
 

     total cpu time spent up to now is      573.8 secs

     total energy              =   -2976.57217473 Ry
     estimated scf accuracy    <       1.34063582 Ry

     iteration # 32     ecut=    29.40 Ry     beta= 0.05
     Davidson diagonalization with overlap
     c_bands:  4 eigenvalues not converged
     c_bands:  1 eigenvalues not converged
     ethr =  3.31E-04,  avg # of iterations =  7.9

     negative rho (up, down):  5.234E-03 0.000E+00
 
     Adding external electric field

     Computed dipole along edir(3) : 
        Dipole                0.4443 Ry au,          1.1293 Debye
        Dipole field          0.0008 Ry au, 
 
        Potential amp.       -0.0777 Ry
        Total length         46.3494 bohr
 

     total cpu time spent up to now is      586.9 secs

     total energy              =   -2976.51652183 Ry
     estimated scf accuracy    <       1.96245350 Ry

     iteration # 33     ecut=    29.40 Ry     beta= 0.05
     Davidson diagonalization with overlap
     c_bands:  1 eigenvalues not converged
     c_bands:  3 eigenvalues not converged
     c_bands:  1 eigenvalues not converged
     c_bands:  2 eigenvalues not converged
     c_bands:  1 eigenvalues not converged
     c_bands:  1 eigenvalues not converged
     ethr =  3.31E-04,  avg # of iterations = 14.1

     negative rho (up, down):  2.956E-02 0.000E+00
 
     Adding external electric field

     Computed dipole along edir(3) : 
        Dipole                0.3953 Ry au,          1.0047 Debye
        Dipole field          0.0007 Ry au, 
 
        Potential amp.       -0.0691 Ry
        Total length         46.3494 bohr
 

     total cpu time spent up to now is      603.6 secs

     total energy              =   -2976.38998081 Ry
     estimated scf accuracy    <       1.04731606 Ry

     iteration # 34     ecut=    29.40 Ry     beta= 0.05
     Davidson diagonalization with overlap
     c_bands:  4 eigenvalues not converged
     c_bands:  2 eigenvalues not converged
     ethr =  2.59E-04,  avg # of iterations = 10.1

     negative rho (up, down):  5.697E-02 0.000E+00
 
     Adding external electric field

     Computed dipole along edir(3) : 
        Dipole                0.4024 Ry au,          1.0229 Debye
        Dipole field          0.0008 Ry au, 
 
        Potential amp.       -0.0704 Ry
        Total length         46.3494 bohr
 

     total cpu time spent up to now is      617.2 secs

     total energy              =   -2976.42721704 Ry
     estimated scf accuracy    <       0.47049841 Ry

     iteration # 35     ecut=    29.40 Ry     beta= 0.05
     Davidson diagonalization with overlap
     c_bands:  3 eigenvalues not converged
     c_bands:  1 eigenvalues not converged
     c_bands:  1 eigenvalues not converged
     c_bands:  4 eigenvalues not converged
     c_bands:  1 eigenvalues not converged
     c_bands:  1 eigenvalues not converged
     c_bands:  1 eigenvalues not converged
     c_bands:  1 eigenvalues not converged
     c_bands:  3 eigenvalues not converged
     ethr =  1.16E-04,  avg # of iterations = 19.3

     negative rho (up, down):  4.285E-02 0.000E+00
 
     Adding external electric field

     Computed dipole along edir(3) : 
        Dipole                0.2287 Ry au,          0.5812 Debye
        Dipole field          0.0004 Ry au, 
 
        Potential amp.       -0.0400 Ry
        Total length         46.3494 bohr
 

     total cpu time spent up to now is      635.3 secs

     total energy              =   -2976.42904247 Ry
     estimated scf accuracy    <       0.39163639 Ry

     iteration # 36     ecut=    29.40 Ry     beta= 0.05
     Davidson diagonalization with overlap
     ethr =  9.67E-05,  avg # of iterations =  5.4

     negative rho (up, down):  4.412E-02 0.000E+00
 
     Adding external electric field

     Computed dipole along edir(3) : 
        Dipole                0.2571 Ry au,          0.6536 Debye
        Dipole field          0.0005 Ry au, 
 
        Potential amp.       -0.0450 Ry
        Total length         46.3494 bohr
 

     total cpu time spent up to now is      647.3 secs

     total energy              =   -2976.39521793 Ry
     estimated scf accuracy    <       0.23496823 Ry

     iteration # 37     ecut=    29.40 Ry     beta= 0.05
     Davidson diagonalization with overlap
     ethr =  5.80E-05,  avg # of iterations = 10.2

     negative rho (up, down):  2.613E-02 0.000E+00
 
     Adding external electric field

     Computed dipole along edir(3) : 
        Dipole                0.6527 Ry au,          1.6589 Debye
        Dipole field          0.0012 Ry au, 
 
        Potential amp.       -0.1142 Ry
        Total length         46.3494 bohr
 

     total cpu time spent up to now is      664.8 secs

     total energy              =   -2976.42924962 Ry
     estimated scf accuracy    <       0.96616285 Ry

     iteration # 38     ecut=    29.40 Ry     beta= 0.05
     Davidson diagonalization with overlap
     ethr =  5.80E-05,  avg # of iterations =  2.9

     negative rho (up, down):  3.328E-02 0.000E+00
 
     Adding external electric field

     Computed dipole along edir(3) : 
        Dipole                0.9306 Ry au,          2.3654 Debye
        Dipole field          0.0018 Ry au, 
 
        Potential amp.       -0.1628 Ry
        Total length         46.3494 bohr
 

     total cpu time spent up to now is      676.1 secs

     total energy              =   -2976.41395600 Ry
     estimated scf accuracy    <       0.22264869 Ry

     iteration # 39     ecut=    29.40 Ry     beta= 0.05
     Davidson diagonalization with overlap
     c_bands:  1 eigenvalues not converged
     c_bands:  1 eigenvalues not converged
     ethr =  5.50E-05,  avg # of iterations = 11.6

     negative rho (up, down):  3.215E-02 0.000E+00
 
     Adding external electric field

     Computed dipole along edir(3) : 
        Dipole                0.7341 Ry au,          1.8660 Debye
        Dipole field          0.0014 Ry au, 
 
        Potential amp.       -0.1284 Ry
        Total length         46.3494 bohr
 

     total cpu time spent up to now is      690.6 secs

     total energy              =   -2976.42309271 Ry
     estimated scf accuracy    <       0.14176897 Ry

     iteration # 40     ecut=    29.40 Ry     beta= 0.05
     Davidson diagonalization with overlap
     ethr =  3.50E-05,  avg # of iterations =  3.6

     negative rho (up, down):  3.227E-02 0.000E+00
 
     Adding external electric field

     Computed dipole along edir(3) : 
        Dipole                0.5470 Ry au,          1.3904 Debye
        Dipole field          0.0010 Ry au, 
 
        Potential amp.       -0.0957 Ry
        Total length         46.3494 bohr
 

     total cpu time spent up to now is      701.9 secs

     total energy              =   -2976.41669199 Ry
     estimated scf accuracy    <       0.07233877 Ry

     iteration # 41     ecut=    29.40 Ry     beta= 0.05
     Davidson diagonalization with overlap
     ethr =  1.79E-05,  avg # of iterations =  7.5

     negative rho (up, down):  1.636E-02 0.000E+00
 
     Adding external electric field

     Computed dipole along edir(3) : 
        Dipole                0.8974 Ry au,          2.2811 Debye
        Dipole field          0.0017 Ry au, 
 
        Potential amp.       -0.1570 Ry
        Total length         46.3494 bohr
 

     total cpu time spent up to now is      715.5 secs

     total energy              =   -2976.42026141 Ry
     estimated scf accuracy    <       0.03556693 Ry

     iteration # 42     ecut=    29.40 Ry     beta= 0.05
     Davidson diagonalization with overlap
     c_bands:  1 eigenvalues not converged
     ethr =  8.78E-06,  avg # of iterations = 11.1

     negative rho (up, down):  1.923E-02 0.000E+00
 
     Adding external electric field

     Computed dipole along edir(3) : 
        Dipole                0.8041 Ry au,          2.0439 Debye
        Dipole field          0.0015 Ry au, 
 
        Potential amp.       -0.1407 Ry
        Total length         46.3494 bohr
 

     total cpu time spent up to now is      732.8 secs

     total energy              =   -2976.42424449 Ry
     estimated scf accuracy    <       0.03738831 Ry

     iteration # 43     ecut=    29.40 Ry     beta= 0.05
     Davidson diagonalization with overlap
     ethr =  8.78E-06,  avg # of iterations =  2.0

     negative rho (up, down):  2.484E-02 0.000E+00
 
     Adding external electric field

     Computed dipole along edir(3) : 
        Dipole                0.6900 Ry au,          1.7537 Debye
        Dipole field          0.0013 Ry au, 
 
        Potential amp.       -0.1207 Ry
        Total length         46.3494 bohr
 

     total cpu time spent up to now is      743.8 secs

     total energy              =   -2976.42051737 Ry
     estimated scf accuracy    <       0.02875598 Ry

     iteration # 44     ecut=    29.40 Ry     beta= 0.05
     Davidson diagonalization with overlap
     ethr =  7.10E-06,  avg # of iterations =  7.2

     negative rho (up, down):  1.182E-02 0.000E+00
 
     Adding external electric field

     Computed dipole along edir(3) : 
        Dipole                0.8097 Ry au,          2.0581 Debye
        Dipole field          0.0015 Ry au, 
 
        Potential amp.       -0.1416 Ry
        Total length         46.3494 bohr
 

     total cpu time spent up to now is      757.5 secs

     total energy              =   -2976.42216360 Ry
     estimated scf accuracy    <       0.01271860 Ry

     iteration # 45     ecut=    29.40 Ry     beta= 0.05
     Davidson diagonalization with overlap
     c_bands:  1 eigenvalues not converged
     ethr =  3.14E-06,  avg # of iterations = 10.0

     negative rho (up, down):  1.313E-02 0.000E+00
 
     Adding external electric field

     Computed dipole along edir(3) : 
        Dipole                0.7470 Ry au,          1.8988 Debye
        Dipole field          0.0014 Ry au, 
 
        Potential amp.       -0.1307 Ry
        Total length         46.3494 bohr
 

     total cpu time spent up to now is      773.2 secs

     total energy              =   -2976.42291598 Ry
     estimated scf accuracy    <       0.00908425 Ry

     iteration # 46     ecut=    29.40 Ry     beta= 0.05
     Davidson diagonalization with overlap
     c_bands:  1 eigenvalues not converged
     c_bands:  1 eigenvalues not converged
     ethr =  2.24E-06,  avg # of iterations = 11.6

     negative rho (up, down):  1.494E-02 0.000E+00
 
     Adding external electric field

     Computed dipole along edir(3) : 
        Dipole                0.7439 Ry au,          1.8907 Debye
        Dipole field          0.0014 Ry au, 
 
        Potential amp.       -0.1301 Ry
        Total length         46.3494 bohr
 

     total cpu time spent up to now is      787.1 secs

     total energy              =   -2976.42235475 Ry
     estimated scf accuracy    <       0.00501246 Ry

     iteration # 47     ecut=    29.40 Ry     beta= 0.05
     Davidson diagonalization with overlap
     c_bands:  1 eigenvalues not converged
     c_bands:  1 eigenvalues not converged
     ethr =  1.24E-06,  avg # of iterations = 10.1

     negative rho (up, down):  1.492E-02 0.000E+00
 
     Adding external electric field

     Computed dipole along edir(3) : 
        Dipole                0.6711 Ry au,          1.7057 Debye
        Dipole field          0.0013 Ry au, 
 
        Potential amp.       -0.1174 Ry
        Total length         46.3494 bohr
 

     total cpu time spent up to now is      802.7 secs

     total energy              =   -2976.42286237 Ry
     estimated scf accuracy    <       0.00214218 Ry

     iteration # 48     ecut=    29.40 Ry     beta= 0.05
     Davidson diagonalization with overlap
     c_bands:  1 eigenvalues not converged
     ethr =  5.29E-07,  avg # of iterations =  8.0

     negative rho (up, down):  1.392E-02 0.000E+00
 
     Adding external electric field

     Computed dipole along edir(3) : 
        Dipole                0.6427 Ry au,          1.6335 Debye
        Dipole field          0.0012 Ry au, 
 
        Potential amp.       -0.1124 Ry
        Total length         46.3494 bohr
 

     total cpu time spent up to now is      817.9 secs

     total energy              =   -2976.42309182 Ry
     estimated scf accuracy    <       0.00208886 Ry

     iteration # 49     ecut=    29.40 Ry     beta= 0.05
     Davidson diagonalization with overlap
     ethr =  5.16E-07,  avg # of iterations =  4.4

     negative rho (up, down):  1.210E-02 0.000E+00
 
     Adding external electric field

     Computed dipole along edir(3) : 
        Dipole                0.6748 Ry au,          1.7151 Debye
        Dipole field          0.0013 Ry au, 
 
        Potential amp.       -0.1180 Ry
        Total length         46.3494 bohr
 

     total cpu time spent up to now is      830.6 secs

     total energy              =   -2976.42318018 Ry
     estimated scf accuracy    <       0.00181559 Ry

     iteration # 50     ecut=    29.40 Ry     beta= 0.05
     Davidson diagonalization with overlap
     ethr =  4.48E-07,  avg # of iterations =  5.1

     negative rho (up, down):  1.155E-02 0.000E+00
 
     Adding external electric field

     Computed dipole along edir(3) : 
        Dipole                0.6799 Ry au,          1.7282 Debye
        Dipole field          0.0013 Ry au, 
 
        Potential amp.       -0.1189 Ry
        Total length         46.3494 bohr
 

     total cpu time spent up to now is      842.5 secs

     total energy              =   -2976.42313037 Ry
     estimated scf accuracy    <       0.00089309 Ry

     iteration # 51     ecut=    29.40 Ry     beta= 0.05
     Davidson diagonalization with overlap
     ethr =  2.21E-07,  avg # of iterations =  5.1

     negative rho (up, down):  1.144E-02 0.000E+00
 
     Adding external electric field

     Computed dipole along edir(3) : 
        Dipole                0.6871 Ry au,          1.7464 Debye
        Dipole field          0.0013 Ry au, 
 
        Potential amp.       -0.1202 Ry
        Total length         46.3494 bohr
 

     total cpu time spent up to now is      856.5 secs

     total energy              =   -2976.42328606 Ry
     estimated scf accuracy    <       0.00033205 Ry

     iteration # 52     ecut=    29.40 Ry     beta= 0.05
     Davidson diagonalization with overlap
     ethr =  8.20E-08,  avg # of iterations =  3.1

     negative rho (up, down):  1.130E-02 0.000E+00
 
     Adding external electric field

     Computed dipole along edir(3) : 
        Dipole                0.6905 Ry au,          1.7552 Debye
        Dipole field          0.0013 Ry au, 
 
        Potential amp.       -0.1208 Ry
        Total length         46.3494 bohr
 

     total cpu time spent up to now is      867.9 secs

     total energy              =   -2976.42333368 Ry
     estimated scf accuracy    <       0.00031394 Ry

     iteration # 53     ecut=    29.40 Ry     beta= 0.05
     Davidson diagonalization with overlap
     ethr =  7.75E-08,  avg # of iterations =  2.8

     negative rho (up, down):  1.118E-02 0.000E+00
 
     Adding external electric field

     Computed dipole along edir(3) : 
        Dipole                0.6762 Ry au,          1.7187 Debye
        Dipole field          0.0013 Ry au, 
 
        Potential amp.       -0.1183 Ry
        Total length         46.3494 bohr
 

     total cpu time spent up to now is      879.7 secs

     total energy              =   -2976.42329718 Ry
     estimated scf accuracy    <       0.00043604 Ry

     iteration # 54     ecut=    29.40 Ry     beta= 0.05
     Davidson diagonalization with overlap
     ethr =  7.75E-08,  avg # of iterations =  6.0

     negative rho (up, down):  1.100E-02 0.000E+00
 
     Adding external electric field

     Computed dipole along edir(3) : 
        Dipole                0.6596 Ry au,          1.6766 Debye
        Dipole field          0.0012 Ry au, 
 
        Potential amp.       -0.1154 Ry
        Total length         46.3494 bohr
 

     total cpu time spent up to now is      893.0 secs

     total energy              =   -2976.42334336 Ry
     estimated scf accuracy    <       0.00017599 Ry

     iteration # 55     ecut=    29.40 Ry     beta= 0.05
     Davidson diagonalization with overlap
     ethr =  4.35E-08,  avg # of iterations =  5.0

     negative rho (up, down):  1.084E-02 0.000E+00
 
     Adding external electric field

     Computed dipole along edir(3) : 
        Dipole                0.6571 Ry au,          1.6702 Debye
        Dipole field          0.0012 Ry au, 
 
        Potential amp.       -0.1149 Ry
        Total length         46.3494 bohr
 

     total cpu time spent up to now is      906.3 secs

     total energy              =   -2976.42335874 Ry
     estimated scf accuracy    <       0.00015443 Ry

     iteration # 56     ecut=    29.40 Ry     beta= 0.05
     Davidson diagonalization with overlap
     ethr =  3.81E-08,  avg # of iterations =  6.0

     negative rho (up, down):  1.069E-02 0.000E+00
 
     Adding external electric field

     Computed dipole along edir(3) : 
        Dipole                0.6478 Ry au,          1.6466 Debye
        Dipole field          0.0012 Ry au, 
 
        Potential amp.       -0.1133 Ry
        Total length         46.3494 bohr
 

     total cpu time spent up to now is      919.2 secs

     total energy              =   -2976.42337996 Ry
     estimated scf accuracy    <       0.00009210 Ry

     iteration # 57     ecut=    29.40 Ry     beta= 0.05
     Davidson diagonalization with overlap
     ethr =  2.27E-08,  avg # of iterations =  6.0

     negative rho (up, down):  1.024E-02 0.000E+00
 
     Adding external electric field

     Computed dipole along edir(3) : 
        Dipole                0.6467 Ry au,          1.6438 Debye
        Dipole field          0.0012 Ry au, 
 
        Potential amp.       -0.1131 Ry
        Total length         46.3494 bohr
 

     total cpu time spent up to now is      931.6 secs

     total energy              =   -2976.42339101 Ry
     estimated scf accuracy    <       0.00006200 Ry

     iteration # 58     ecut=    29.40 Ry     beta= 0.05
     Davidson diagonalization with overlap
     ethr =  1.53E-08,  avg # of iterations =  6.0

     negative rho (up, down):  1.014E-02 0.000E+00
 
     Adding external electric field

     Computed dipole along edir(3) : 
        Dipole                0.6442 Ry au,          1.6373 Debye
        Dipole field          0.0012 Ry au, 
 
        Potential amp.       -0.1127 Ry
        Total length         46.3494 bohr
 

     total cpu time spent up to now is      946.2 secs

     total energy              =   -2976.42340499 Ry
     estimated scf accuracy    <       0.00003495 Ry

     iteration # 59     ecut=    29.40 Ry     beta= 0.05
     Davidson diagonalization with overlap
     ethr =  8.63E-09,  avg # of iterations =  5.2

     negative rho (up, down):  1.004E-02 0.000E+00
 
     Adding external electric field

     Computed dipole along edir(3) : 
        Dipole                0.6366 Ry au,          1.6180 Debye
        Dipole field          0.0012 Ry au, 
 
        Potential amp.       -0.1114 Ry
        Total length         46.3494 bohr
 

     total cpu time spent up to now is      960.1 secs

     total energy              =   -2976.42340874 Ry
     estimated scf accuracy    <       0.00005079 Ry

     iteration # 60     ecut=    29.40 Ry     beta= 0.05
     Davidson diagonalization with overlap
     ethr =  8.63E-09,  avg # of iterations =  6.0

     negative rho (up, down):  9.820E-03 0.000E+00
 
     Adding external electric field

     Computed dipole along edir(3) : 
        Dipole                0.6372 Ry au,          1.6196 Debye
        Dipole field          0.0012 Ry au, 
 
        Potential amp.       -0.1115 Ry
        Total length         46.3494 bohr
 

     total cpu time spent up to now is      975.4 secs

     total energy              =   -2976.42342518 Ry
     estimated scf accuracy    <       0.00001637 Ry

     iteration # 61     ecut=    29.40 Ry     beta= 0.05
     Davidson diagonalization with overlap
     ethr =  4.04E-09,  avg # of iterations =  5.0

     negative rho (up, down):  9.802E-03 0.000E+00
 
     Adding external electric field

     Computed dipole along edir(3) : 
        Dipole                0.6356 Ry au,          1.6157 Debye
        Dipole field          0.0012 Ry au, 
 
        Potential amp.       -0.1112 Ry
        Total length         46.3494 bohr
 

     total cpu time spent up to now is      990.6 secs

     total energy              =   -2976.42343720 Ry
     estimated scf accuracy    <       0.00000996 Ry

     iteration # 62     ecut=    29.40 Ry     beta= 0.05
     Davidson diagonalization with overlap
     ethr =  2.46E-09,  avg # of iterations =  5.0

     negative rho (up, down):  9.744E-03 0.000E+00
 
     Adding external electric field

     Computed dipole along edir(3) : 
        Dipole                0.6346 Ry au,          1.6130 Debye
        Dipole field          0.0012 Ry au, 
 
        Potential amp.       -0.1110 Ry
        Total length         46.3494 bohr
 

     total cpu time spent up to now is     1002.9 secs

     total energy              =   -2976.42344567 Ry
     estimated scf accuracy    <       0.00000360 Ry

     iteration # 63     ecut=    29.40 Ry     beta= 0.05
     Davidson diagonalization with overlap
     ethr =  8.88E-10,  avg # of iterations =  5.1

     negative rho (up, down):  9.701E-03 0.000E+00
 
     Adding external electric field

     Computed dipole along edir(3) : 
        Dipole                0.6343 Ry au,          1.6123 Debye
        Dipole field          0.0012 Ry au, 
 
        Potential amp.       -0.1110 Ry
        Total length         46.3494 bohr
 

     total cpu time spent up to now is     1019.1 secs

     total energy              =   -2976.42345371 Ry
     estimated scf accuracy    <       0.00000280 Ry

     iteration # 64     ecut=    29.40 Ry     beta= 0.05
     Davidson diagonalization with overlap
     ethr =  6.92E-10,  avg # of iterations =  2.0

     negative rho (up, down):  9.626E-03 0.000E+00
 
     Adding external electric field

     Computed dipole along edir(3) : 
        Dipole                0.6339 Ry au,          1.6112 Debye
        Dipole field          0.0012 Ry au, 
 
        Potential amp.       -0.1109 Ry
        Total length         46.3494 bohr
 

     total cpu time spent up to now is     1030.2 secs

     total energy              =   -2976.42346003 Ry
     estimated scf accuracy    <       0.00000214 Ry

     iteration # 65     ecut=    29.40 Ry     beta= 0.05
     Davidson diagonalization with overlap
     ethr =  5.28E-10,  avg # of iterations =  5.2

     negative rho (up, down):  9.604E-03 0.000E+00
 
     Adding external electric field

     Computed dipole along edir(3) : 
        Dipole                0.6340 Ry au,          1.6114 Debye
        Dipole field          0.0012 Ry au, 
 
        Potential amp.       -0.1109 Ry
        Total length         46.3494 bohr
 

     total cpu time spent up to now is     1043.9 secs

     total energy              =   -2976.42346613 Ry
     estimated scf accuracy    <       0.00000068 Ry

     iteration # 66     ecut=    29.40 Ry     beta= 0.05
     Davidson diagonalization with overlap
     ethr =  1.67E-10,  avg # of iterations =  4.6

     negative rho (up, down):  9.597E-03 0.000E+00
 
     Adding external electric field

     Computed dipole along edir(3) : 
        Dipole                0.6345 Ry au,          1.6126 Debye
        Dipole field          0.0012 Ry au, 
 
        Potential amp.       -0.1110 Ry
        Total length         46.3494 bohr
 

     total cpu time spent up to now is     1057.0 secs

     total energy              =   -2976.42347139 Ry
     estimated scf accuracy    <       0.00000045 Ry

     iteration # 67     ecut=    29.40 Ry     beta= 0.05
     Davidson diagonalization with overlap
     ethr =  1.11E-10,  avg # of iterations =  5.9

     negative rho (up, down):  9.594E-03 0.000E+00
 
     Adding external electric field

     Computed dipole along edir(3) : 
        Dipole                0.6345 Ry au,          1.6128 Debye
        Dipole field          0.0012 Ry au, 
 
        Potential amp.       -0.1110 Ry
        Total length         46.3494 bohr
 

     total cpu time spent up to now is     1071.9 secs

     total energy              =   -2976.42347622 Ry
     estimated scf accuracy    <       0.00000034 Ry

     iteration # 68     ecut=    29.40 Ry     beta= 0.05
     Davidson diagonalization with overlap
     ethr =  8.28E-11,  avg # of iterations =  5.9

     negative rho (up, down):  9.577E-03 0.000E+00
 
     Adding external electric field

     Computed dipole along edir(3) : 
        Dipole                0.6344 Ry au,          1.6126 Debye
        Dipole field          0.0012 Ry au, 
 
        Potential amp.       -0.1110 Ry
        Total length         46.3494 bohr
 

     total cpu time spent up to now is     1085.3 secs

     total energy              =   -2976.42348058 Ry
     estimated scf accuracy    <       0.00000016 Ry

     iteration # 69     ecut=    29.40 Ry     beta= 0.05
     Davidson diagonalization with overlap
     ethr =  3.90E-11,  avg # of iterations =  5.4

     negative rho (up, down):  9.597E-03 0.000E+00
 
     Adding external electric field

     Computed dipole along edir(3) : 
        Dipole                0.6338 Ry au,          1.6111 Debye
        Dipole field          0.0012 Ry au, 
 
        Potential amp.       -0.1109 Ry
        Total length         46.3494 bohr
 

     total cpu time spent up to now is     1099.3 secs

     End of self-consistent calculation

          k = 0.0000 0.0000 0.0000 ( 18029 PWs)   bands (ev):

   -56.5658 -56.5323 -55.6418 -55.6067 -55.4260 -55.3595 -55.2306 -55.1170
   -55.0831 -55.0354 -55.0037 -54.9690 -54.9113 -54.8174 -54.7460 -54.6138
   -32.9846 -32.8363 -32.8082 -32.7453 -32.6551 -32.6117 -32.1236 -31.9008
   -31.8621 -31.8406 -31.7860 -31.7782 -31.7529 -31.6593 -31.6390 -31.5943
   -31.5626 -31.5463 -31.5228 -31.5102 -31.5046 -31.4946 -31.4641 -31.4625
   -31.4395 -31.4210 -31.3557 -31.3210 -31.2988 -31.2928 -31.2407 -31.2330
   -31.2163 -31.1945 -31.1818 -31.1668 -31.1594 -31.1292 -31.1237 -31.0922
   -31.0477 -31.0032 -31.0023 -30.9811 -30.9481 -30.8879 -30.8512 -30.8008
   -16.6692 -16.1112 -16.0875 -15.8824 -15.7599 -15.7547 -15.7115 -15.6427
   -15.4735 -15.4048 -15.3763 -15.3151 -15.1710 -15.0554 -14.9582 -14.7781
   -14.7046 -14.6992 -14.6806 -14.6729 -14.6561 -14.6353 -14.5762 -14.5178
   -14.4754 -14.4104 -14.3667 -14.2209 -14.0202 -13.9950 -13.9649 -13.6145
   -13.5075 -13.5027  -7.7378  -4.2447  -4.0608  -4.0042  -3.6980  -3.5780
    -3.4054  -3.2527  -3.2018  -3.1442  -3.0847  -3.0754  -2.9277  -2.9260
    -2.9142  -2.9072  -2.8292  -2.7705  -2.7057  -2.6188  -2.6033  -2.5086
    -2.4620  -2.3026  -2.2766  -2.1756  -2.1035  -2.0980  -2.0319  -2.0090
    -1.9618  -1.9166  -1.9072  -1.8726  -1.8290  -1.7821  -1.7637  -1.6525
    -1.6447  -1.5798  -1.5733  -1.5506  -1.4372  -1.4172  -1.3474  -1.2022
    -1.1808  -1.1775  -1.1304  -1.1131  -1.0315  -0.9352  -0.8681  -0.8415
    -0.7853  -0.6969  -0.6502  -0.6284  -0.5560  -0.5365  -0.4624  -0.4186
    -0.4057  -0.3854  -0.3431  -0.2289  -0.1419  -0.1091  -0.0553  -0.0300
     0.0028   0.0298   0.0488   0.0975   0.1673   0.2533   0.2742   0.4129
     0.4650   0.5018   0.5774   0.6115   0.6181   0.7073   0.7387   0.7684
     0.8148   0.8895   0.9041   0.9050   0.9640   1.0480   1.1028   1.1582
     1.1670   1.2030   1.2112   1.2621   1.3506   1.3712   1.4406   1.4955
     1.8196   1.8817   2.4839   2.7285   2.9000   3.1769   3.3687   3.6720
     3.7144   3.7323   3.7325   4.0390

          k = 0.0000 0.0419 0.0000 ( 17933 PWs)   bands (ev):

   -56.5609 -56.5371 -55.6372 -55.6113 -55.4237 -55.3616 -55.2301 -55.1120
   -55.0880 -55.0330 -55.0040 -54.9712 -54.9104 -54.8166 -54.7467 -54.6144
   -32.9313 -32.8321 -32.8120 -32.7321 -32.6683 -32.6674 -32.0713 -31.8504
   -31.8481 -31.8321 -31.8119 -31.7931 -31.7857 -31.6561 -31.6329 -31.5900
   -31.5779 -31.5696 -31.5182 -31.5000 -31.4615 -31.4603 -31.4565 -31.4472
   -31.4429 -31.3961 -31.3345 -31.3093 -31.2859 -31.2558 -31.2524 -31.2330
   -31.2280 -31.2167 -31.1984 -31.1857 -31.1785 -31.1633 -31.1593 -31.0906
   -31.0472 -31.0332 -30.9999 -30.9979 -30.9475 -30.9157 -30.8512 -30.8206
   -16.5488 -16.0834 -16.0062 -15.9288 -15.8226 -15.6923 -15.6774 -15.5355
   -15.5334 -15.3503 -15.3345 -15.2813 -15.1145 -15.0688 -15.0004 -14.8342
   -14.7572 -14.7351 -14.7278 -14.6767 -14.6502 -14.5854 -14.5744 -14.5210
   -14.4631 -14.4217 -14.4146 -14.2817 -14.0933 -14.0514 -13.9646 -13.6231
   -13.5494 -13.5175  -7.7380  -4.0626  -4.0610  -4.0088  -3.6934  -3.4028
    -3.2622  -3.2114  -3.1892  -3.0326  -3.0149  -2.9941  -2.9807  -2.9303
    -2.9066  -2.8101  -2.7690  -2.6826  -2.6445  -2.6081  -2.5493  -2.4725
    -2.4604  -2.4243  -2.3033  -2.2262  -2.2214  -2.1836  -2.1162  -2.0758
    -2.0447  -2.0260  -1.9199  -1.9103  -1.8843  -1.7948  -1.7293  -1.7191
    -1.6765  -1.6089  -1.5662  -1.4187  -1.3968  -1.3352  -1.3062  -1.2524
    -1.1866  -1.1321  -1.0973  -1.0479  -0.9427  -0.9124  -0.8918  -0.8086
    -0.7535  -0.7354  -0.6677  -0.6278  -0.5572  -0.4503  -0.4038  -0.3619
    -0.3266  -0.2564  -0.1900  -0.1704  -0.1478  -0.1261  -0.0857  -0.0430
     0.0344   0.0458   0.0695   0.0990   0.1204   0.1597   0.2271   0.3019
     0.3497   0.3860   0.4843   0.5123   0.5514   0.5705   0.5958   0.6311
     0.7250   0.7440   0.7567   0.8308   0.9030   0.9597   1.0100   1.0981
     1.1603   1.1823   1.2110   1.2426   1.2825   1.3113   1.3916   1.4001
     1.7361   1.7937   2.4635   2.9986   3.0025   3.1928   3.5546   3.5664
     3.5995   3.6806   3.8874   4.0410

          k = 0.0000-0.0839 0.0000 ( 17884 PWs)   bands (ev):

   -56.5497 -56.5483 -55.6294 -55.6190 -55.4213 -55.3640 -55.2297 -55.1005
   -55.0993 -55.0305 -55.0043 -54.9737 -54.9095 -54.8159 -54.7475 -54.6151
   -32.8227 -32.8212 -32.8014 -32.8000 -32.7007 -32.6996 -31.9476 -31.9384
   -31.8239 -31.8154 -31.8127 -31.8085 -31.7398 -31.6899 -31.6524 -31.6249
   -31.5880 -31.5784 -31.5030 -31.4721 -31.4651 -31.4519 -31.4510 -31.3696
   -31.3460 -31.3207 -31.3192 -31.2981 -31.2897 -31.2825 -31.2806 -31.2787
   -31.2661 -31.2329 -31.2216 -31.2155 -31.1978 -31.1606 -31.1572 -31.0921
   -31.0892 -31.0467 -31.0068 -30.9956 -30.9597 -30.9469 -30.8513 -30.8361
   -16.2505 -16.2490 -16.0786 -15.7985 -15.7903 -15.6781 -15.6780 -15.5128
   -15.4857 -15.3356 -15.2429 -15.2074 -15.1426 -15.0392 -15.0079 -14.9048
   -14.8787 -14.8558 -14.7990 -14.6267 -14.5795 -14.5422 -14.5376 -14.5267
   -14.4331 -14.4289 -14.4255 -14.3816 -14.1969 -14.1343 -13.9643 -13.6123
   -13.6118 -13.5315  -7.7382  -4.0617  -4.0131  -3.6892  -3.6078  -3.6075
    -3.1842  -3.0992  -3.0966  -3.0413  -3.0312  -2.9587  -2.9315  -2.9262
    -2.8047  -2.6987  -2.6823  -2.6039  -2.5483  -2.5299  -2.5218  -2.5119
    -2.4271  -2.4207  -2.3680  -2.3153  -2.2148  -2.2110  -2.1899  -2.1209
    -2.0795  -1.9831  -1.9450  -1.9221  -1.8427  -1.8340  -1.8141  -1.7859
    -1.7783  -1.6973  -1.6806  -1.4532  -1.3501  -1.2930  -1.2623  -1.1828
    -1.1171  -1.0609  -1.0146  -0.9542  -0.8553  -0.8175  -0.7974  -0.7704
    -0.7139  -0.6626  -0.6425  -0.6285  -0.5703  -0.5320  -0.4927  -0.4090
    -0.3766  -0.3307  -0.3211  -0.2941  -0.2213  -0.1819  -0.1036  -0.0738
    -0.0306   0.0523   0.0660   0.0765   0.1114   0.2051   0.2689   0.3113
     0.3716   0.3790   0.4293   0.4380   0.4831   0.4879   0.5390   0.5577
     0.5740   0.6084   0.6596   0.7223   0.8165   0.9015   0.9236   0.9623
     1.0467   1.1625   1.2111   1.2870   1.2972   1.3278   1.3555   1.4758
     1.6175   1.6932   2.4468   3.2541   3.2555   3.3751   3.3760   3.4370
     3.4379   3.8119   3.8204   4.0631

          k = 0.0380 0.0000 0.0000 ( 17913 PWs)   bands (ev):

   -56.5657 -56.5322 -55.6417 -55.6066 -55.4259 -55.3594 -55.2305 -55.1169
   -55.0830 -55.0353 -55.0036 -54.9689 -54.9112 -54.8173 -54.7459 -54.6137
   -32.9852 -32.8361 -32.8081 -32.7435 -32.6548 -32.6114 -32.1237 -31.9112
   -31.8618 -31.8283 -31.7782 -31.7740 -31.7526 -31.6592 -31.6509 -31.5942
   -31.5630 -31.5477 -31.5225 -31.5126 -31.5029 -31.4943 -31.4663 -31.4618
   -31.4378 -31.4212 -31.3559 -31.3208 -31.2936 -31.2896 -31.2406 -31.2328
   -31.2119 -31.1942 -31.1779 -31.1665 -31.1594 -31.1290 -31.1247 -31.0976
   -31.0502 -31.0030 -31.0022 -30.9810 -30.9500 -30.8878 -30.8516 -30.8006
   -16.5672 -16.0848 -16.0413 -16.0396 -15.8234 -15.7093 -15.6093 -15.5972
   -15.5343 -15.3342 -15.3240 -15.2933 -15.2200 -15.2054 -14.8430 -14.8135
   -14.8088 -14.7971 -14.7590 -14.6937 -14.6619 -14.5751 -14.5456 -14.5266
   -14.4242 -14.3939 -14.3375 -14.2790 -14.0146 -13.9942 -13.9648 -13.6119
   -13.5072 -13.4997  -7.7360  -4.0611  -4.0037  -3.9603  -3.6864  -3.4799
    -3.4024  -3.2380  -3.2140  -3.1972  -3.0581  -2.9793  -2.9284  -2.9146
    -2.9016  -2.7890  -2.7384  -2.6845  -2.6672  -2.6244  -2.5099  -2.4509
    -2.4334  -2.4045  -2.3337  -2.2705  -2.2296  -2.0557  -2.0306  -1.9250
    -1.9159  -1.8484  -1.8091  -1.7769  -1.7602  -1.7470  -1.7111  -1.6595
    -1.6004  -1.5826  -1.5753  -1.4958  -1.4116  -1.3871  -1.3454  -1.2983
    -1.2845  -1.1930  -1.0955  -1.0373  -0.9561  -0.9293  -0.8402  -0.8208
    -0.8015  -0.7511  -0.7069  -0.6475  -0.6123  -0.5826  -0.5435  -0.4998
    -0.4865  -0.4375  -0.3762  -0.3521  -0.2861  -0.2479  -0.1982  -0.0518
     0.0059   0.0406   0.1135   0.1591   0.2029   0.2563   0.3283   0.3986
     0.4176   0.4506   0.5199   0.5672   0.5869   0.6321   0.6401   0.6938
     0.7397   0.7951   0.8554   0.9152   0.9366   0.9912   1.0788   1.0975
     1.1254   1.1523   1.1581   1.2288   1.2344   1.2381   1.3411   1.3935
     1.7560   1.8463   2.4015   2.8749   2.8973   3.1760   3.3767   3.4425
     3.7291   3.8154   3.9009   3.9346

          k = 0.0380 0.0419 0.0000 ( 17878 PWs)   bands (ev):

   -56.5608 -56.5371 -55.6371 -55.6112 -55.4236 -55.3616 -55.2301 -55.1119
   -55.0879 -55.0329 -55.0039 -54.9712 -54.9104 -54.8165 -54.7467 -54.6144
   -32.9319 -32.8318 -32.8121 -32.7306 -32.6680 -32.6674 -32.0714 -31.8638
   -31.8502 -31.8227 -31.8117 -31.7858 -31.7748 -31.6560 -31.6430 -31.5899
   -31.5768 -31.5719 -31.5190 -31.4992 -31.4621 -31.4610 -31.4588 -31.4470
   -31.4420 -31.3963 -31.3351 -31.3091 -31.2778 -31.2566 -31.2525 -31.2340
   -31.2284 -31.2113 -31.1959 -31.1856 -31.1772 -31.1628 -31.1596 -31.0965
   -31.0493 -31.0330 -30.9999 -30.9978 -30.9499 -30.9156 -30.8519 -30.8205
   -16.4525 -16.0805 -16.0193 -15.9518 -15.7866 -15.7705 -15.6329 -15.5805
   -15.4608 -15.3480 -15.2900 -15.2042 -15.1880 -15.1336 -14.9014 -14.8568
   -14.8405 -14.7844 -14.7542 -14.7017 -14.6656 -14.6217 -14.5668 -14.4990
   -14.4649 -14.4260 -14.3899 -14.3261 -14.0868 -14.0521 -13.9645 -13.6213
   -13.5496 -13.5153  -7.7368  -4.0615  -4.0084  -3.7826  -3.6898  -3.3287
    -3.2329  -3.1800  -3.1245  -3.0855  -2.9891  -2.9249  -2.8905  -2.8655
    -2.8304  -2.7491  -2.6698  -2.6424  -2.5925  -2.5628  -2.5270  -2.4548
    -2.4101  -2.3591  -2.2940  -2.2327  -2.2071  -2.1487  -2.1125  -2.0762
    -2.0074  -1.9615  -1.9156  -1.8498  -1.8325  -1.7900  -1.7222  -1.6792
    -1.6486  -1.5997  -1.5662  -1.4225  -1.4018  -1.3662  -1.3040  -1.2400
    -1.2154  -1.1934  -1.1534  -1.0514  -1.0185  -1.0063  -0.9503  -0.8696
    -0.7952  -0.6995  -0.6636  -0.6047  -0.5781  -0.5600  -0.4959  -0.4301
    -0.4116  -0.3823  -0.3295  -0.2867  -0.2695  -0.2407  -0.1695  -0.1259
    -0.0898  -0.0136   0.0230   0.0623   0.0775   0.1192   0.2080   0.2784
     0.3011   0.3497   0.4338   0.4895   0.5185   0.5529   0.5816   0.6052
     0.6454   0.7097   0.7346   0.7901   0.9012   0.9535   1.0655   1.1279
     1.1500   1.1587   1.1839   1.2369   1.2616   1.3179   1.3251   1.3741
     1.6880   1.7826   2.3934   2.9915   3.1395   3.2395   3.4226   3.5815
     3.6745   3.7175   3.9538   4.0666

          k = 0.0380-0.0839 0.0000 ( 17916 PWs)   bands (ev):

   -56.5497 -56.5483 -55.6294 -55.6190 -55.4213 -55.3640 -55.2297 -55.1006
   -55.0993 -55.0305 -55.0043 -54.9737 -54.9096 -54.8159 -54.7475 -54.6151
   -32.8228 -32.8212 -32.8020 -32.8006 -32.7001 -32.6989 -31.9478 -31.9387
   -31.8239 -31.8163 -31.8127 -31.8107 -31.7303 -31.6848 -31.6525 -31.6313
   -31.5881 -31.5839 -31.5022 -31.4732 -31.4648 -31.4525 -31.4516 -31.3697
   -31.3482 -31.3206 -31.3192 -31.3005 -31.2921 -31.2834 -31.2807 -31.2801
   -31.2586 -31.2330 -31.2183 -31.2081 -31.1972 -31.1599 -31.1577 -31.0968
   -31.0903 -31.0487 -31.0069 -30.9956 -30.9595 -30.9498 -30.8523 -30.8362
   -16.1815 -16.1797 -16.0770 -15.8276 -15.8243 -15.7224 -15.7178 -15.4867
   -15.4591 -15.2992 -15.2166 -15.1833 -15.0843 -14.9885 -14.9666 -14.9460
   -14.9341 -14.8896 -14.8070 -14.6533 -14.6344 -14.6113 -14.5601 -14.5359
   -14.4755 -14.4519 -14.4206 -14.3689 -14.1859 -14.1333 -13.9643 -13.6122
   -13.6117 -13.5295  -7.7376  -4.0623  -4.0130  -3.6892  -3.3967  -3.3954
    -3.1712  -3.0438  -3.0352  -2.9988  -2.9949  -2.9556  -2.7775  -2.7728
    -2.7355  -2.6736  -2.6610  -2.5652  -2.5195  -2.4969  -2.4399  -2.3742
    -2.3299  -2.3080  -2.2504  -2.2348  -2.1862  -2.1714  -2.0851  -2.0584
    -2.0492  -2.0311  -1.9579  -1.9351  -1.8875  -1.8376  -1.8206  -1.7655
    -1.7272  -1.6583  -1.6168  -1.5088  -1.3999  -1.3667  -1.3285  -1.2574
    -1.1645  -1.0812  -1.0339  -1.0140  -0.9874  -0.9694  -0.9340  -0.9125
    -0.8748  -0.8529  -0.8076  -0.7451  -0.6895  -0.6688  -0.5323  -0.4877
    -0.4361  -0.4130  -0.3803  -0.3597  -0.2928  -0.2059  -0.1776  -0.1241
    -0.0770  -0.0228   0.0204   0.0317   0.0678   0.0851   0.1101   0.1761
     0.2254   0.2507   0.3358   0.3589   0.4168   0.5210   0.5497   0.6073
     0.6446   0.6865   0.7351   0.7562   0.8988   0.9401   1.0518   1.1004
     1.1128   1.1591   1.1690   1.2856   1.2903   1.3225   1.3374   1.4742
     1.5400   1.7381   2.3794   3.2618   3.2640   3.4097   3.4117   3.6035
     3.6046   3.7838   3.7918   4.1070

          k = 0.0380-0.0419 0.0000 ( 17876 PWs)   bands (ev):

   -56.5608 -56.5371 -55.6371 -55.6112 -55.4236 -55.3616 -55.2301 -55.1119
   -55.0879 -55.0329 -55.0039 -54.9712 -54.9104 -54.8165 -54.7467 -54.6144
   -32.9319 -32.8318 -32.8121 -32.7306 -32.6680 -32.6674 -32.0714 -31.8638
   -31.8502 -31.8227 -31.8116 -31.7858 -31.7748 -31.6560 -31.6430 -31.5899
   -31.5769 -31.5718 -31.5193 -31.4989 -31.4621 -31.4610 -31.4589 -31.4470
   -31.4419 -31.3963 -31.3351 -31.3091 -31.2779 -31.2570 -31.2525 -31.2328
   -31.2282 -31.2122 -31.1921 -31.1856 -31.1810 -31.1629 -31.1595 -31.0964
   -31.0494 -31.0330 -30.9998 -30.9979 -30.9498 -30.9155 -30.8518 -30.8206
   -16.4523 -16.0805 -16.0201 -15.9517 -15.7861 -15.7705 -15.6326 -15.5806
   -15.4602 -15.3481 -15.2898 -15.2030 -15.1884 -15.1357 -14.9004 -14.8580
   -14.8386 -14.7954 -14.7437 -14.7058 -14.6677 -14.6196 -14.5626 -14.4980
   -14.4677 -14.4233 -14.3897 -14.3275 -14.0878 -14.0521 -13.9645 -13.6213
   -13.5496 -13.5148  -7.7368  -4.0614  -4.0085  -3.7819  -3.6853  -3.3287
    -3.2339  -3.1823  -3.1245  -3.0850  -2.9929  -2.9247  -2.8905  -2.8664
    -2.8311  -2.7490  -2.6711  -2.6428  -2.5898  -2.5610  -2.5184  -2.4542
    -2.4117  -2.3596  -2.2973  -2.2349  -2.2046  -2.1509  -2.1166  -2.0851
    -2.0140  -1.9607  -1.9356  -1.8596  -1.8348  -1.7780  -1.7242  -1.6856
    -1.6418  -1.5970  -1.5635  -1.4207  -1.4026  -1.3592  -1.3068  -1.2268
    -1.2192  -1.1882  -1.1300  -1.0501  -1.0161  -1.0075  -0.9439  -0.8599
    -0.7963  -0.7051  -0.6640  -0.6063  -0.5957  -0.5557  -0.4937  -0.4303
    -0.4010  -0.3791  -0.3565  -0.2782  -0.2679  -0.1985  -0.1631  -0.1461
    -0.1271  -0.0065   0.0188   0.0705   0.0890   0.1560   0.2256   0.2557
     0.2763   0.3461   0.4375   0.4867   0.5266   0.5447   0.5717   0.6052
     0.6249   0.7063   0.7403   0.7862   0.8981   0.9592   1.0678   1.1302
     1.1382   1.1612   1.1882   1.2309   1.2618   1.3188   1.3230   1.3741
     1.7024   1.7815   2.3923   2.9918   3.1397   3.2395   3.4218   3.5814
     3.6753   3.7171   3.9515   4.0673

          k =-0.0760-0.0000 0.0000 ( 17886 PWs)   bands (ev):

   -56.5657 -56.5322 -55.6416 -55.6066 -55.4259 -55.3594 -55.2305 -55.1168
   -55.0830 -55.0352 -55.0036 -54.9689 -54.9112 -54.8172 -54.7459 -54.6137
   -32.9858 -32.8360 -32.8080 -32.7417 -32.6550 -32.6114 -32.1239 -31.9201
   -31.8617 -31.8141 -31.7780 -31.7644 -31.7526 -31.6650 -31.6590 -31.5940
   -31.5639 -31.5492 -31.5225 -31.5149 -31.5015 -31.4941 -31.4685 -31.4611
   -31.4368 -31.4214 -31.3563 -31.3207 -31.2943 -31.2798 -31.2405 -31.2327
   -31.2078 -31.1941 -31.1739 -31.1661 -31.1595 -31.1290 -31.1273 -31.1037
   -31.0533 -31.0028 -31.0023 -30.9811 -30.9521 -30.8878 -30.8521 -30.8006
   -16.4158 -16.1225 -16.0806 -15.9762 -15.9560 -15.7070 -15.6428 -15.5096
   -15.4341 -15.3195 -15.3022 -15.2864 -15.2774 -15.1665 -14.9594 -14.9020
   -14.8830 -14.8517 -14.6983 -14.6883 -14.6779 -14.6027 -14.5362 -14.5006
   -14.4365 -14.3956 -14.3290 -14.2558 -14.0095 -13.9956 -13.9647 -13.6095
   -13.5069 -13.4970  -7.7344  -4.0615  -4.0034  -3.6738  -3.5680  -3.5637
    -3.4685  -3.1965  -3.1604  -3.0547  -3.0418  -3.0005  -2.9255  -2.9071
    -2.8516  -2.7691  -2.6263  -2.5876  -2.5753  -2.4711  -2.4583  -2.4124
    -2.3470  -2.3135  -2.2561  -2.2421  -2.1842  -2.1699  -2.1616  -2.0395
    -1.8937  -1.8245  -1.8145  -1.8054  -1.6981  -1.6676  -1.6351  -1.6063
    -1.5747  -1.5717  -1.5385  -1.5179  -1.4579  -1.4449  -1.4054  -1.3589
    -1.2079  -1.1403  -1.0891  -1.0732  -1.0207  -0.9532  -0.9084  -0.8615
    -0.8377  -0.7732  -0.7106  -0.6871  -0.6602  -0.6043  -0.5965  -0.5654
    -0.5079  -0.4504  -0.4005  -0.3670  -0.3626  -0.3067  -0.2823  -0.2509
    -0.0888   0.0191   0.0707   0.1144   0.1820   0.2453   0.2778   0.3153
     0.3354   0.4469   0.4873   0.5224   0.5727   0.6316   0.6867   0.7086
     0.7219   0.8090   0.8407   0.8744   0.8775   0.9349   0.9895   1.0155
     1.0947   1.1060   1.1468   1.1567   1.1662   1.2296   1.3219   1.4698
     1.5239   1.8614   2.3467   2.8539   2.9853   3.1233   3.1752   3.5311
     3.7087   3.7407   3.9175   4.1379

          k =-0.0760 0.0419 0.0000 ( 17914 PWs)   bands (ev):

   -56.5608 -56.5371 -55.6371 -55.6112 -55.4237 -55.3616 -55.2301 -55.1119
   -55.0880 -55.0329 -55.0040 -54.9712 -54.9104 -54.8166 -54.7467 -54.6144
   -32.9326 -32.8319 -32.8121 -32.7294 -32.6680 -32.6677 -32.0717 -31.8751
   -31.8502 -31.8121 -31.8120 -31.7858 -31.7613 -31.6560 -31.6545 -31.5899
   -31.5759 -31.5747 -31.5204 -31.4982 -31.4640 -31.4614 -31.4605 -31.4468
   -31.4414 -31.3966 -31.3358 -31.3091 -31.2695 -31.2577 -31.2525 -31.2339
   -31.2285 -31.2074 -31.1908 -31.1857 -31.1792 -31.1622 -31.1600 -31.1032
   -31.0519 -31.0330 -30.9999 -30.9979 -30.9525 -30.9156 -30.8528 -30.8206
   -16.3018 -16.0778 -16.0759 -15.9508 -15.8785 -15.7760 -15.5898 -15.5819
   -15.3678 -15.3391 -15.2539 -15.2235 -15.1935 -15.0765 -14.9833 -14.8730
   -14.8639 -14.8456 -14.7905 -14.7161 -14.6999 -14.6051 -14.5656 -14.5441
   -14.4840 -14.4162 -14.3581 -14.3389 -14.0813 -14.0552 -13.9645 -13.6196
   -13.5499 -13.5129  -7.7357  -4.0621  -4.0083  -3.6814  -3.3606  -3.3256
    -3.2557  -3.1728  -3.0449  -3.0096  -3.0000  -2.9773  -2.8364  -2.8011
    -2.7877  -2.7008  -2.6808  -2.5551  -2.4940  -2.4264  -2.3394  -2.3337
    -2.2805  -2.2764  -2.2290  -2.2125  -2.1849  -2.1215  -2.1039  -2.0869
    -2.0286  -1.9470  -1.8739  -1.8657  -1.7790  -1.7514  -1.7198  -1.6778
    -1.6176  -1.5860  -1.5294  -1.4928  -1.4624  -1.4508  -1.4401  -1.3571
    -1.2350  -1.1938  -1.1258  -1.0251  -1.0185  -0.9850  -0.9307  -0.9022
    -0.8488  -0.8240  -0.7998  -0.7556  -0.6596  -0.6197  -0.6078  -0.5327
    -0.4811  -0.4558  -0.4454  -0.3853  -0.3167  -0.2849  -0.2763  -0.2541
    -0.2104  -0.1793  -0.1230  -0.0912   0.0036   0.1148   0.1688   0.2403
     0.2573   0.3249   0.3472   0.5017   0.5114   0.5425   0.6176   0.6413
     0.6600   0.7259   0.7588   0.8152   0.8587   1.0122   1.0398   1.0839
     1.1484   1.1834   1.1970   1.2527   1.2804   1.3109   1.3364   1.4542
     1.5079   1.8074   2.3366   3.0073   3.1780   3.2115   3.2857   3.6797
     3.7579   3.7849   3.8529   4.1401

          k =-0.0760-0.0839 0.0000 ( 17948 PWs)   bands (ev):

   -56.5497 -56.5483 -55.6294 -55.6190 -55.4213 -55.3640 -55.2298 -55.1006
   -55.0994 -55.0305 -55.0044 -54.9736 -54.9097 -54.8159 -54.7475 -54.6151
   -32.8228 -32.8212 -32.8026 -32.8011 -32.6994 -32.6983 -31.9481 -31.9390
   -31.8239 -31.8186 -31.8127 -31.8110 -31.7207 -31.6779 -31.6526 -31.6395
   -31.5899 -31.5881 -31.5014 -31.4743 -31.4645 -31.4531 -31.4522 -31.3698
   -31.3503 -31.3207 -31.3192 -31.3017 -31.2948 -31.2849 -31.2809 -31.2804
   -31.2521 -31.2330 -31.2153 -31.2003 -31.1964 -31.1587 -31.1583 -31.1026
   -31.0912 -31.0507 -31.0069 -30.9955 -30.9593 -30.9528 -30.8533 -30.8362
   -16.0753 -16.0277 -16.0258 -15.9823 -15.9807 -15.7190 -15.7146 -15.4641
   -15.4348 -15.2556 -15.1517 -15.1276 -15.0841 -15.0425 -14.9713 -14.9170
   -14.8874 -14.8553 -14.8293 -14.7672 -14.7374 -14.6330 -14.6002 -14.5528
   -14.5164 -14.4545 -14.4136 -14.3645 -14.1768 -14.1332 -13.9643 -13.6120
   -13.6115 -13.5276  -7.7370  -4.0629  -4.0129  -3.6891  -3.1584  -3.1036
    -3.0993  -3.0669  -3.0597  -2.9742  -2.8530  -2.8499  -2.7551  -2.6478
    -2.6213  -2.5985  -2.5379  -2.5285  -2.4284  -2.3786  -2.3738  -2.3596
    -2.3232  -2.2937  -2.2872  -2.2272  -2.0886  -2.0726  -2.0235  -1.9694
    -1.8948  -1.8864  -1.8771  -1.8403  -1.7987  -1.7733  -1.7622  -1.7351
    -1.7303  -1.7259  -1.6162  -1.5114  -1.4641  -1.3706  -1.3664  -1.3575
    -1.3196  -1.2924  -1.2591  -1.2526  -1.2238  -1.1437  -1.1176  -1.0478
    -0.9340  -0.9161  -0.8744  -0.8260  -0.7223  -0.7040  -0.6143  -0.5780
    -0.5667  -0.5072  -0.4782  -0.4622  -0.4040  -0.3647  -0.2330  -0.1932
    -0.1817  -0.1648  -0.1424  -0.1062  -0.0449   0.0165   0.0483   0.0503
     0.1548   0.2546   0.3425   0.4116   0.4210   0.4442   0.5307   0.6360
     0.6771   0.7018   0.7501   0.8737   0.9915   1.0211   1.1270   1.1535
     1.1625   1.2629   1.2809   1.2859   1.3060   1.3151   1.3501   1.4166
     1.4774   1.7643   2.3169   3.3211   3.3242   3.3823   3.3880   3.6987
     3.7010   3.8122   3.8173   4.1414

     the Fermi energy is     2.3938 ev

!    total energy              =   -2976.42352039 Ry
     estimated scf accuracy    <       0.00000005 Ry
     smearing contrib. (-TS)   =      -0.01084019 Ry
     internal energy E=F+TS    =   -2976.41268021 Ry

     The total energy is F=E-TS. E is the sum of the following terms:
     one-electron contribution =  -22707.56996664 Ry
     hartree contribution      =   11450.13678339 Ry
     xc contribution           =    -495.34690700 Ry
     ewald contribution        =    8776.36665188 Ry
     electric field correction =       0.00075817 Ry

     convergence has been achieved in  69 iterations

     Forces acting on atoms (cartesian axes, Ry/au):

     atom    1 type  1   force =     0.00002416   -0.00052672    0.12632015
     atom    2 type  1   force =    -0.00010240    0.00041078   -0.15467714
     atom    3 type  2   force =     0.00002667    0.00002606   -0.06831474
     atom    4 type  2   force =     0.00005884   -0.00010857    0.01702513
     atom    5 type  2   force =    -0.00487635   -0.00242600   -0.01324353
     atom    6 type  2   force =     0.00655790   -0.00180492   -0.01376106
     atom    7 type  1   force =    -0.00029820   -0.00661893    0.05922004
     atom    8 type  1   force =     0.00038971    0.00687044    0.10030741
     atom    9 type  2   force =    -0.00002301    0.00066638    0.00130297
     atom   10 type  2   force =    -0.00261575   -0.00001400   -0.06337842
     atom   11 type  2   force =     0.00043242   -0.00068722   -0.00027428
     atom   12 type  2   force =    -0.00084954   -0.00112559   -0.00108724
     atom   13 type  1   force =    -0.00030320    0.00071420   -0.00137510
     atom   14 type  1   force =    -0.00033008   -0.00039899   -0.00024905
     atom   15 type  2   force =    -0.00066108   -0.00039208   -0.00058998
     atom   16 type  2   force =     0.00019475    0.00094160   -0.00031910
     atom   17 type  2   force =     0.00078720    0.00008440   -0.00053889
     atom   18 type  2   force =    -0.00022716   -0.00016488   -0.00002976
     atom   19 type  1   force =    -0.00019951   -0.00012829   -0.00093757
     atom   20 type  1   force =     0.00068932    0.00084287   -0.00047986
     atom   21 type  2   force =     0.00006107    0.00015623    0.09781844
     atom   22 type  2   force =     0.00040515   -0.00033597    0.00141738
     atom   23 type  2   force =    -0.08277542    0.00005455   -0.03314072
     atom   24 type  2   force =     0.08271668    0.00050197   -0.03321534
     atom   25 type  1   force =     0.00006696   -0.00035991    0.12646488
     atom   26 type  1   force =    -0.00011010   -0.00149098   -0.15485661
     atom   27 type  2   force =     0.00011438   -0.00046795   -0.06669156
     atom   28 type  2   force =     0.00004894    0.00167384    0.01196415
     atom   29 type  2   force =    -0.00342713    0.00422325   -0.01621554
     atom   30 type  2   force =     0.00505486    0.00456606   -0.01661967
     atom   31 type  1   force =    -0.00016101    0.00217865    0.04255251
     atom   32 type  1   force =     0.00044347   -0.00894079    0.10087513
     atom   33 type  2   force =    -0.00048456   -0.00013452   -0.00039967
     atom   34 type  2   force =    -0.00212633   -0.00026177   -0.07624223
     atom   35 type  2   force =    -0.00010969    0.00070199    0.00086996
     atom   36 type  2   force =    -0.00048634    0.00051869    0.00039368
     atom   37 type  1   force =     0.00043615    0.00061325   -0.00017089
     atom   38 type  1   force =    -0.00041892   -0.00066885   -0.00067144
     atom   39 type  2   force =     0.00044804   -0.00031608   -0.00041782
     atom   40 type  2   force =     0.00036822   -0.00062512   -0.00000020
     atom   41 type  2   force =     0.00026679    0.00048857   -0.00002439
     atom   42 type  2   force =    -0.00020392   -0.00017511    0.00012603
     atom   43 type  1   force =     0.00049341    0.00134159   -0.00090268
     atom   44 type  1   force =    -0.00024163   -0.00105531    0.00082724
     atom   45 type  2   force =     0.00009379   -0.00001535    0.09766184
     atom   46 type  2   force =    -0.08282076    0.00003815   -0.03319148
     atom   47 type  2   force =     0.08272843    0.00045672   -0.03319736
     atom   48 type  3   force =     0.00001593    0.00039142    0.00038063
     atom   49 type  3   force =    -0.00379305   -0.00461436    0.00283269
     atom   50 type  4   force =     0.00075434    0.00040060    0.00062607
     atom   51 type  5   force =    -0.00001015   -0.00029612   -0.00055600
     atom   52 type  5   force =     0.00008325    0.00090903   -0.00056594
     atom   53 type  5   force =    -0.00017178    0.00032001    0.00038918
     atom   54 type  5   force =     0.00071025    0.00036568   -0.00068491
     atom   55 type  5   force =    -0.00067039   -0.00034740    0.00073443
     atom   56 type  5   force =     0.00427608    0.00461113   -0.00355021
     atom   57 type  2   force =    -0.00179352   -0.00056482    0.00033238
     atom   58 type  5   force =     0.00154381   -0.00000150    0.00012804

     Total force =     0.420809     Total SCF correction =     0.000537
  @ DRIVER MODE: Message from server: STATUS
  @ DRIVER MODE: Message from server: GETFORCE
  @ DRIVER MODE: Returning v,forces,stress,ensemble 

     Writing output data file ./calc.save/
  @ DRIVER MODE: Message from server: EXIT
  @ DRIVE MODE: Exiting  
 
     init_run     :     11.11s CPU     11.37s WALL (       1 calls)
     electrons    :   1071.11s CPU   1087.66s WALL (       1 calls)
     forces       :      2.55s CPU      2.65s WALL (       1 calls)

     Called by init_run:
     wfcinit      :      4.94s CPU      5.02s WALL (       1 calls)
     potinit      :      5.39s CPU      5.47s WALL (       1 calls)
     hinit0       :      0.41s CPU      0.43s WALL (       1 calls)

     Called by electrons:
     c_bands      :    902.53s CPU    909.08s WALL (      69 calls)
     sum_band     :    114.03s CPU    117.94s WALL (      69 calls)
     v_of_rho     :     40.66s CPU     42.77s WALL (      70 calls)
     newd         :     16.85s CPU     20.58s WALL (      70 calls)
     mix_rho      :      1.51s CPU      1.66s WALL (      69 calls)
     vdW_kernel   :      4.54s CPU      4.56s WALL (       1 calls)

     Called by c_bands:
     init_us_2    :      8.01s CPU      8.05s WALL (    1400 calls)
     cegterg      :    882.30s CPU    888.52s WALL (     707 calls)

     Called by *egterg:
     cdiaghg      :    117.82s CPU    118.39s WALL (    5311 calls)
     h_psi        :    487.73s CPU    492.11s WALL (    5328 calls)
     s_psi        :     63.33s CPU     63.52s WALL (    5328 calls)
     g_psi        :      1.97s CPU      1.98s WALL (    4611 calls)

     Called by h_psi:
     h_psi:calbec :     61.40s CPU     61.69s WALL (    5328 calls)
     vloc_psi     :    358.47s CPU    362.00s WALL (    5328 calls)
     add_vuspsi   :     63.93s CPU     64.24s WALL (    5328 calls)

     General routines
     calbec       :     81.87s CPU     82.21s WALL (    6058 calls)
     fft          :     20.81s CPU     20.99s WALL (    4410 calls)
     ffts         :      0.15s CPU      0.15s WALL (     139 calls)
     fftw         :    400.72s CPU    404.66s WALL (  968984 calls)
     interpolate  :      0.49s CPU      0.50s WALL (      70 calls)
     davcio       :      0.00s CPU      0.40s WALL (      10 calls)
 
     Parallel routines
 
     PWSCF        :  18m 5.02s CPU  18m22.58s WALL

 
   This run was terminated on:  10: 7:19  23Sep2021            

=------------------------------------------------------------------------------=
   JOB DONE.
=------------------------------------------------------------------------------=
