
     Program PWSCF v.6.7GPU starts on 22Sep2021 at 22: 0:43 

     This program is part of the open-source Quantum ESPRESSO suite
     for quantum simulation of materials; please cite
         "P. Giannozzi et al., J. Phys.:Condens. Matter 21 395502 (2009);
         "P. Giannozzi et al., J. Phys.:Condens. Matter 29 465901 (2017);
         "P. Giannozzi et al., J. Chem. Phys. 152 154105 (2020);
          URL http://www.quantum-espresso.org", 
     in publications or presentations arising from this work. More details at
     http://www.quantum-espresso.org/quote

     Parallel version (MPI), running on    10 processors

     MPI processes distributed on     1 nodes
     R & G space division:  proc/nbgrp/npool/nimage =      10
     Reading input from /storage/home/hcoda1/3/ntian30/research/carbon/CxH_vib/H2O_calc/ads_slab/CH3OHO_a/out_0018/pw.inp
Warning: card &CELL ignored
Warning: card   CELL_DYNAMICS='IPI', ignored
Warning: card / ignored

     Current dimensions of program PWSCF are:
     Max number of different atomic species (ntypx) = 10
     Max number of k-points (npk) =  40000
     Max angular momentum in pseudopotentials (lmaxx) =  3
     Presently no symmetry can be used with electric field

     Message from routine cell_base_init:
     DEPRECATED: use true lattice parameter, not A to a.u. conversion factor

     **************************************************************************
     Initializing libbeef V0.1.2 with the BEEF-vdW functional.
     Citation: Wellendorff et al., PRB 85, 235149 (2012).
     **************************************************************************


     IMPORTANT: XC functional enforced from input :
     Exchange-correlation= BEEF-VDW
                           (   1   4  43  14   2   0   0)
     Any further DFT definition will be discarded
     Please, verify this is what you really want


     Subspace diagonalization in iterative solution of the eigenvalue problem:
     one sub-group per band group will be used
     scalapack distributed-memory algorithm (size of sub-group:  3*  3 procs)

  @ DRIVER MODE: Connecting to 
 qe_1139763_2937320.sched-torque.pace.gatech.edupknzd0d5_scratch
  using UNIX socket
  @ DRIVER MODE: Message from server: STATUS
  @ DRIVER MODE: Message from server: INIT
  @ DRIVER MODE: Receiving replica           0          -1
  @ DRIVER MODE: Receiving encoded integer          25
  @ DRIVER MODE:  SCF:  T  FORCE:  T  STRESS:  F  VC:  F  ENSEMBLE:  F
  @ DRIVER MODE:  SCF:  T  FORCE:  T  STRESS:  F  VC:  F  ENSEMBLE:  F
 
     Parallelization info
     --------------------
     sticks:   dense  smooth     PW     G-vecs:    dense   smooth      PW
     Min         327     131     37                56683    14340    2191
     Max         328     133     38                56694    14346    2206
     Sum        3275    1317    379               566857   143421   21985
 
     Using Slab Decomposition
 


     bravais-lattice index     =            0
     lattice parameter (alat)  =       1.8897  a.u.
     unit-cell volume          =    6658.9804 (a.u.)^3
     number of atoms/cell      =           54
     number of atomic types    =            4
     number of electrons       =       398.00
     number of Kohn-Sham states=          209
     kinetic-energy cutoff     =      29.3995  Ry
     charge density cutoff     =     293.9946  Ry
     scf convergence threshold =      7.3E-08
     mixing beta               =       0.0500
     number of iterations used =            8  plain     mixing
     Exchange-correlation= BEEF-VDW
                           (   1   4  43  14   2   0   0)

     celldm(1)=   1.889726  celldm(2)=   0.000000  celldm(3)=   0.000000
     celldm(4)=   0.000000  celldm(5)=   0.000000  celldm(6)=   0.000000

     crystal axes: (cart. coord. in units of alat)
               a(1) = (   6.579727   0.000000   0.000000 )  
               a(2) = (  -0.000775   5.961596   0.000000 )  
               a(3) = (   0.000000   0.000000  25.155947 )  

     reciprocal axes: (cart. coord. in units 2 pi/alat)
               b(1) = (  0.151982  0.000020  0.000000 )  
               b(2) = (  0.000000  0.167740  0.000000 )  
               b(3) = (  0.000000  0.000000  0.039752 )  


     PseudoPot. # 1 for Ti read from file:
     /storage/coda1/p-amedford6/0/shared/rich_project_chbe-medford/medford-share/data/pseudos_module/espresso/nninc/pbe/van/Ti.UPF
     MD5 check sum: 8e4df49b7f0d34bbd5052bf3f5ea0213
     Pseudo is Ultrasoft, Zval = 12.0
     Generated by new atomic code, or converted to UPF format
     Using radial grid of  851 points,  6 beta functions with: 
                l(1) =   0
                l(2) =   0
                l(3) =   1
                l(4) =   1
                l(5) =   2
                l(6) =   2
     Q(r) pseudized with  8 coefficients,  rinner =    1.000   1.000   1.000
                                                       1.000   1.000

     PseudoPot. # 2 for O  read from file:
     /storage/coda1/p-amedford6/0/shared/rich_project_chbe-medford/medford-share/data/pseudos_module/espresso/nninc/pbe/van/O.UPF
     MD5 check sum: 78c19812648e8988a0fe644b0f25305e
     Pseudo is Ultrasoft, Zval =  6.0
     Generated by new atomic code, or converted to UPF format
     Using radial grid of  737 points,  4 beta functions with: 
                l(1) =   0
                l(2) =   0
                l(3) =   1
                l(4) =   1
     Q(r) pseudized with  8 coefficients,  rinner =    0.800   0.800   0.800


     PseudoPot. # 3 for C  read from file:
     /storage/coda1/p-amedford6/0/shared/rich_project_chbe-medford/medford-share/data/pseudos_module/espresso/nninc/pbe/van/C.UPF
     MD5 check sum: 1a69bf6b8db32088f5b2163dbdb77a27
     Pseudo is Ultrasoft, Zval =  4.0
     Generated by new atomic code, or converted to UPF format
     Using radial grid of  721 points,  4 beta functions with: 
                l(1) =   0
                l(2) =   0
                l(3) =   1
                l(4) =   1
     Q(r) pseudized with  8 coefficients,  rinner =    0.800   0.800   0.800


     PseudoPot. # 4 for H  read from file:
     /storage/coda1/p-amedford6/0/shared/rich_project_chbe-medford/medford-share/data/pseudos_module/espresso/nninc/pbe/van/H.UPF
     MD5 check sum: b5ee9d7bfd3a09ee7748110bda690ff7
     Pseudo is Ultrasoft, Zval =  1.0
     Generated by new atomic code, or converted to UPF format
     Using radial grid of  615 points,  1 beta functions with: 
                l(1) =   0
     Q(r) pseudized with  8 coefficients,  rinner =    0.800

     atomic species   valence    mass     pseudopotential
        Ti1           12.00    47.86700     Ti( 1.00)
        O1             6.00    15.99900     O ( 1.00)
        C1             4.00    12.01100     C ( 1.00)
        H1             1.00     1.00800     H ( 1.00)

     No symmetry found



   Cartesian axes

     site n.     atom                  positions (alat units)
         1           Ti1 tau(   1) = (   0.0004258   2.9801865   6.0000000  )
         2           Ti1 tau(   2) = (   3.2906075   1.4906267   6.0002472  )
         3           O1  tau(   3) = (   0.0006271   0.0005054   7.9858123  )
         4           O1  tau(   4) = (   3.2906025   0.0005020   7.3038282  )
         5           O1  tau(   5) = (   4.5942328   1.4918067   9.2879030  )
         6           O1  tau(   6) = (   1.9868534   1.4903216   9.2879459  )
         7           Ti1 tau(   7) = (   3.2957662   3.1068914   9.2181075  )
         8           Ti1 tau(   8) = (   0.0157633   1.6119101   9.3474628  )
         9           O1  tau(   9) = (   3.3075722   0.0245345  11.3221904  )
        10           O1  tau(  10) = (   0.0080709   0.0223756  10.5933645  )
        11           O1  tau(  11) = (   1.2996580   1.5014007  12.6293879  )
        12           O1  tau(  12) = (   5.3220639   1.4985920  12.6296061  )
        13           Ti1 tau(  13) = (   0.0338638   3.0995910  12.8036746  )
        14           Ti1 tau(  14) = (   3.3037623   1.5692239  12.4279754  )
        15           O1  tau(  15) = (   0.0261714   0.0103614  14.6808343  )
        16           O1  tau(  16) = (   3.3158872   5.9294016  13.9235834  )
        17           O1  tau(  17) = (   4.5845781   1.5190771  16.0542726  )
        18           O1  tau(  18) = (   2.0543804   1.5366111  16.0227792  )
        19           Ti1 tau(  19) = (   3.3281905   2.9581697  15.6655982  )
        20           Ti1 tau(  20) = (   0.0947853   1.4300879  15.9722461  )
        21           O1  tau(  21) = (   3.2904802   0.0005063   4.7018136  )
        22           O1  tau(  22) = (   0.0746355   0.0166105  17.2029963  )
        23           O1  tau(  23) = (   1.3043587   1.4918075   6.0039043  )
        24           O1  tau(  24) = (   5.2767064   1.4903225   6.0039473  )
        25           Ti1 tau(  25) = (   0.0000382   5.9609847   6.0000000  )
        26           Ti1 tau(  26) = (   3.2902200   4.4714249   6.0002472  )
        27           O1  tau(  27) = (   0.0002396   2.9813036   7.9858123  )
        28           O1  tau(  28) = (   3.2902150   2.9813002   7.3038282  )
        29           O1  tau(  29) = (   4.5938453   4.4726049   9.2879030  )
        30           O1  tau(  30) = (   1.9864658   4.4711199   9.2879459  )
        31           Ti1 tau(  31) = (   3.3049890   0.1224192   9.1815931  )
        32           Ti1 tau(  32) = (   0.0115838   4.5621182   9.3618056  )
        33           O1  tau(  33) = (   3.3056077   2.9569042  11.2892548  )
        34           O1  tau(  34) = (   0.0073068   3.0072357  10.5542745  )
        35           O1  tau(  35) = (   1.3032543   4.4799722  12.6367586  )
        36           O1  tau(  36) = (   5.3275811   4.4862388  12.6364370  )
        37           Ti1 tau(  37) = (   0.0060541   0.1153383  12.6179110  )
        38           Ti1 tau(  38) = (   3.3135592   4.6638430  12.6816895  )
        39           O1  tau(  39) = (   0.0323206   2.9919573  14.6814448  )
        40           O1  tau(  40) = (   3.3290587   2.9835885  13.8850256  )
        41           O1  tau(  41) = (   4.5809508   4.4372854  16.0867525  )
        42           O1  tau(  42) = (   2.0525355   4.4234120  16.0327814  )
        43           Ti1 tau(  43) = (   3.4083040   5.9395600  16.2643712  )
        44           Ti1 tau(  44) = (   0.1061243   4.5568233  16.0547075  )
        45           O1  tau(  45) = (   3.2900926   2.9813045   4.7018136  )
        46           O1  tau(  46) = (   1.3039711   4.4726057   6.0039043  )
        47           O1  tau(  47) = (   5.2763189   4.4711207   6.0039473  )
        48           C1  tau(  48) = (   6.0247352   2.9430639  18.6208924  )
        49           O1  tau(  49) = (   0.0129984   2.9830681  17.3098104  )
        50           H1  tau(  50) = (   4.9427965   2.8012130  18.5744550  )
        51           H1  tau(  51) = (   6.4567215   2.1053551  19.1708771  )
        52           H1  tau(  52) = (   6.2362830   3.8810018  19.1352789  )
        53           O1  tau(  53) = (   3.2195589   0.0134334  18.0862892  )
        54           H1  tau(  54) = (   2.3313237   0.1261415  18.4590370  )

     number of k points=    10  Fermi-Dirac smearing, width (Ry)=  0.0073
                       cart. coord. in units 2pi/alat
        k(    1) = (   0.0000000   0.0000000   0.0000000), wk =   0.1250000
        k(    2) = (   0.0000000   0.0419351   0.0000000), wk =   0.2500000
        k(    3) = (   0.0000000  -0.0838702   0.0000000), wk =   0.1250000
        k(    4) = (   0.0379955   0.0000049   0.0000000), wk =   0.2500000
        k(    5) = (   0.0379955   0.0419400   0.0000000), wk =   0.2500000
        k(    6) = (   0.0379955  -0.0838652   0.0000000), wk =   0.2500000
        k(    7) = (   0.0379955  -0.0419301   0.0000000), wk =   0.2500000
        k(    8) = (  -0.0759910  -0.0000099   0.0000000), wk =   0.1250000
        k(    9) = (  -0.0759910   0.0419252   0.0000000), wk =   0.2500000
        k(   10) = (  -0.0759910  -0.0838800   0.0000000), wk =   0.1250000

     Dense  grid:   566857 G-vectors     FFT dimensions: (  72,  64, 270)

     Smooth grid:   143421 G-vectors     FFT dimensions: (  45,  40, 180)

     Estimated max dynamical RAM per process >     366.12 MB

     Estimated total dynamical RAM >       3.58 GB
     Cannot read rho : file not found

     Initial potential from superposition of free atoms

     starting charge  381.99917, renormalised to  398.00000

     negative rho (up, down):  1.723E-02 0.000E+00


     %%%%%%%%%%%%%%%%%%%%%%%%%%%%%%%%%%%%%%%%%%%%%%%%%%%%%%%%%%%%%%%%%%%%%%%%
     %                                                                      %
     % You are using vdW-DF, which was implemented by the Thonhauser group. %
     % Please cite the following two papers that made this development      %
     % possible and the two reviews that describe the various versions:     %
     %                                                                      %
     %   T. Thonhauser et al., PRL 115, 136402 (2015).                      %
     %   T. Thonhauser et al., PRB 76, 125112 (2007).                       %
     %   K. Berland et al., Rep. Prog. Phys. 78, 066501 (2015).             %
     %   D.C. Langreth et al., J. Phys.: Condens. Matter 21, 084203 (2009). %
     %                                                                      %
     %                                                                      %
     % If you are calculating the stress with vdW-DF, please also cite:     %
     %                                                                      %
     %   R. Sabatini et al., J. Phys.: Condens. Matter 24, 424209 (2012).   %
     %                                                                      %
     %%%%%%%%%%%%%%%%%%%%%%%%%%%%%%%%%%%%%%%%%%%%%%%%%%%%%%%%%%%%%%%%%%%%%%%%


 
     Adding external electric field

     Computed dipole along edir(3) : 
        Dipole               -8.3460 Ry au,        -21.2133 Debye
        Dipole field         -0.0157 Ry au, 
 
        Potential amp.        1.4600 Ry
        Total length         46.3494 bohr
 
     Starting wfcs are  300 atomic wfcs
  @ DRIVER MODE: Message from server: STATUS
  @ DRIVER MODE: Message from server: POSDATA
  @ DRIVER MODE: Reading and sharing cell 
  @ DRIVER MODE: Reading and sharing positions 
  @ DRIVER MODE: Received positions 

     total cpu time spent up to now is       11.3 secs

     Self-consistent Calculation

     iteration #  1     ecut=    29.40 Ry     beta= 0.05
     Davidson diagonalization with overlap
     c_bands:  1 eigenvalues not converged
     c_bands:  1 eigenvalues not converged
     c_bands:  1 eigenvalues not converged
     c_bands:  1 eigenvalues not converged
     c_bands:  1 eigenvalues not converged
     ethr =  1.00E-05,  avg # of iterations = 18.3

     negative rho (up, down):  1.406E-02 0.000E+00
 
     Adding external electric field

     Computed dipole along edir(3) : 
        Dipole               40.1138 Ry au,        101.9590 Debye
        Dipole field          0.0757 Ry au, 
 
        Potential amp.       -7.0173 Ry
        Total length         46.3494 bohr
 

     total cpu time spent up to now is       51.1 secs

     total energy              =   -2613.50820496 Ry
     estimated scf accuracy    <    3885.84229285 Ry

     iteration #  2     ecut=    29.40 Ry     beta= 0.05
     Davidson diagonalization with overlap
     ethr =  1.00E-02,  avg # of iterations = 22.9

     negative rho (up, down):  4.560E-03 0.000E+00
 
     Adding external electric field

     Computed dipole along edir(3) : 
        Dipole               -2.1453 Ry au,         -5.4527 Debye
        Dipole field         -0.0040 Ry au, 
 
        Potential amp.        0.3753 Ry
        Total length         46.3494 bohr
 

     total cpu time spent up to now is      121.3 secs

     total energy              =   -2487.07142919 Ry
     estimated scf accuracy    <   65064.12490877 Ry

     iteration #  3     ecut=    29.40 Ry     beta= 0.05
     Davidson diagonalization with overlap
     ethr =  1.00E-02,  avg # of iterations = 14.1

     negative rho (up, down):  4.637E-03 0.000E+00
 
     Adding external electric field

     Computed dipole along edir(3) : 
        Dipole               -4.3754 Ry au,        -11.1211 Debye
        Dipole field         -0.0083 Ry au, 
 
        Potential amp.        0.7654 Ry
        Total length         46.3494 bohr
 

     total cpu time spent up to now is      167.0 secs

     total energy              =   -2944.00588132 Ry
     estimated scf accuracy    <    4068.43025792 Ry

     iteration #  4     ecut=    29.40 Ry     beta= 0.05
     Davidson diagonalization with overlap
     c_bands:  1 eigenvalues not converged
     c_bands:  1 eigenvalues not converged
     c_bands:  3 eigenvalues not converged
     c_bands:  1 eigenvalues not converged
     c_bands:  2 eigenvalues not converged
     ethr =  1.00E-02,  avg # of iterations = 18.0

     negative rho (up, down):  4.684E-03 0.000E+00
 
     Adding external electric field

     Computed dipole along edir(3) : 
        Dipole               -5.3676 Ry au,        -13.6432 Debye
        Dipole field         -0.0101 Ry au, 
 
        Potential amp.        0.9390 Ry
        Total length         46.3494 bohr
 

     total cpu time spent up to now is      188.5 secs

     total energy              =   -2959.90057338 Ry
     estimated scf accuracy    <     509.90772943 Ry

     iteration #  5     ecut=    29.40 Ry     beta= 0.05
     Davidson diagonalization with overlap
     ethr =  1.00E-02,  avg # of iterations =  5.0

     negative rho (up, down):  4.681E-03 0.000E+00
 
     Adding external electric field

     Computed dipole along edir(3) : 
        Dipole               -5.7045 Ry au,        -14.4993 Debye
        Dipole field         -0.0108 Ry au, 
 
        Potential amp.        0.9979 Ry
        Total length         46.3494 bohr
 

     total cpu time spent up to now is      200.4 secs

     total energy              =   -2960.34974112 Ry
     estimated scf accuracy    <     292.59180929 Ry

     iteration #  6     ecut=    29.40 Ry     beta= 0.05
     Davidson diagonalization with overlap
     ethr =  1.00E-02,  avg # of iterations =  3.1

     negative rho (up, down):  4.913E-03 0.000E+00
 
     Adding external electric field

     Computed dipole along edir(3) : 
        Dipole               -7.6282 Ry au,        -19.3890 Debye
        Dipole field         -0.0144 Ry au, 
 
        Potential amp.        1.3344 Ry
        Total length         46.3494 bohr
 

     total cpu time spent up to now is      211.2 secs

     total energy              =   -2951.52845851 Ry
     estimated scf accuracy    <     277.20853061 Ry

     iteration #  7     ecut=    29.40 Ry     beta= 0.05
     Davidson diagonalization with overlap
     ethr =  1.00E-02,  avg # of iterations =  9.7

     negative rho (up, down):  4.012E-03 0.000E+00
 
     Adding external electric field

     Computed dipole along edir(3) : 
        Dipole               -6.7820 Ry au,        -17.2381 Debye
        Dipole field         -0.0128 Ry au, 
 
        Potential amp.        1.1864 Ry
        Total length         46.3494 bohr
 

     total cpu time spent up to now is      229.6 secs

     total energy              =   -2967.09318318 Ry
     estimated scf accuracy    <     271.03129485 Ry

     iteration #  8     ecut=    29.40 Ry     beta= 0.05
     Davidson diagonalization with overlap
     ethr =  1.00E-02,  avg # of iterations =  1.6

     negative rho (up, down):  4.041E-03 0.000E+00
 
     Adding external electric field

     Computed dipole along edir(3) : 
        Dipole               -6.2677 Ry au,        -15.9309 Debye
        Dipole field         -0.0118 Ry au, 
 
        Potential amp.        1.0964 Ry
        Total length         46.3494 bohr
 

     total cpu time spent up to now is      240.2 secs

     total energy              =   -2967.69071806 Ry
     estimated scf accuracy    <      34.00979158 Ry

     iteration #  9     ecut=    29.40 Ry     beta= 0.05
     Davidson diagonalization with overlap
     ethr =  8.55E-03,  avg # of iterations =  1.0

     negative rho (up, down):  4.314E-03 0.000E+00
 
     Adding external electric field

     Computed dipole along edir(3) : 
        Dipole               -5.7855 Ry au,        -14.7052 Debye
        Dipole field         -0.0109 Ry au, 
 
        Potential amp.        1.0121 Ry
        Total length         46.3494 bohr
 

     total cpu time spent up to now is      250.1 secs

     total energy              =   -2967.66055251 Ry
     estimated scf accuracy    <      12.05290098 Ry

     iteration # 10     ecut=    29.40 Ry     beta= 0.05
     Davidson diagonalization with overlap
     ethr =  3.03E-03,  avg # of iterations =  1.6

     negative rho (up, down):  3.104E-03 0.000E+00
 
     Adding external electric field

     Computed dipole along edir(3) : 
        Dipole               -8.3438 Ry au,        -21.2079 Debye
        Dipole field         -0.0157 Ry au, 
 
        Potential amp.        1.4596 Ry
        Total length         46.3494 bohr
 

     total cpu time spent up to now is      260.6 secs

     total energy              =   -2968.89557460 Ry
     estimated scf accuracy    <      11.22448878 Ry

     iteration # 11     ecut=    29.40 Ry     beta= 0.05
     Davidson diagonalization with overlap
     ethr =  2.82E-03,  avg # of iterations = 14.3

     negative rho (up, down):  1.596E-03 0.000E+00
 
     Adding external electric field

     Computed dipole along edir(3) : 
        Dipole               -7.2077 Ry au,        -18.3202 Debye
        Dipole field         -0.0136 Ry au, 
 
        Potential amp.        1.2609 Ry
        Total length         46.3494 bohr
 

     total cpu time spent up to now is      282.0 secs

     total energy              =   -2968.00543940 Ry
     estimated scf accuracy    <    1757.51539152 Ry

     iteration # 12     ecut=    29.40 Ry     beta= 0.05
     Davidson diagonalization with overlap
     ethr =  2.82E-03,  avg # of iterations =  9.8

     negative rho (up, down):  3.029E-03 0.000E+00
 
     Adding external electric field

     Computed dipole along edir(3) : 
        Dipole               -5.6981 Ry au,        -14.4831 Debye
        Dipole field         -0.0108 Ry au, 
 
        Potential amp.        0.9968 Ry
        Total length         46.3494 bohr
 

     total cpu time spent up to now is      296.0 secs

     total energy              =   -2960.67140106 Ry
     estimated scf accuracy    <     576.80132570 Ry

     iteration # 13     ecut=    29.40 Ry     beta= 0.05
     Davidson diagonalization with overlap
     ethr =  2.82E-03,  avg # of iterations = 11.1

     negative rho (up, down):  1.419E-03 0.000E+00
 
     Adding external electric field

     Computed dipole along edir(3) : 
        Dipole               -4.3260 Ry au,        -10.9956 Debye
        Dipole field         -0.0082 Ry au, 
 
        Potential amp.        0.7568 Ry
        Total length         46.3494 bohr
 

     total cpu time spent up to now is      313.1 secs

     total energy              =   -2968.51469006 Ry
     estimated scf accuracy    <      10.68963603 Ry

     iteration # 14     ecut=    29.40 Ry     beta= 0.05
     Davidson diagonalization with overlap
     ethr =  2.69E-03,  avg # of iterations =  8.5

     negative rho (up, down):  1.924E-03 0.000E+00
 
     Adding external electric field

     Computed dipole along edir(3) : 
        Dipole               -5.0925 Ry au,        -12.9438 Debye
        Dipole field         -0.0096 Ry au, 
 
        Potential amp.        0.8909 Ry
        Total length         46.3494 bohr
 

     total cpu time spent up to now is      327.0 secs

     total energy              =   -2969.44878932 Ry
     estimated scf accuracy    <     510.51510519 Ry

     iteration # 15     ecut=    29.40 Ry     beta= 0.05
     Davidson diagonalization with overlap
     ethr =  2.69E-03,  avg # of iterations =  1.8

     negative rho (up, down):  2.348E-03 0.000E+00
 
     Adding external electric field

     Computed dipole along edir(3) : 
        Dipole               -4.1084 Ry au,        -10.4425 Debye
        Dipole field         -0.0078 Ry au, 
 
        Potential amp.        0.7187 Ry
        Total length         46.3494 bohr
 

     total cpu time spent up to now is      337.7 secs

     total energy              =   -2963.05980741 Ry
     estimated scf accuracy    <     250.74013229 Ry

     iteration # 16     ecut=    29.40 Ry     beta= 0.05
     Davidson diagonalization with overlap
     ethr =  2.69E-03,  avg # of iterations = 13.3

     negative rho (up, down):  7.285E-03 0.000E+00
 
     Adding external electric field

     Computed dipole along edir(3) : 
        Dipole               -1.6506 Ry au,         -4.1954 Debye
        Dipole field         -0.0031 Ry au, 
 
        Potential amp.        0.2887 Ry
        Total length         46.3494 bohr
 

     total cpu time spent up to now is      353.4 secs

     total energy              =   -2963.57766527 Ry
     estimated scf accuracy    <       8.34243638 Ry

     iteration # 17     ecut=    29.40 Ry     beta= 0.05
     Davidson diagonalization with overlap
     c_bands:  1 eigenvalues not converged
     c_bands:  1 eigenvalues not converged
     c_bands:  1 eigenvalues not converged
     c_bands:  2 eigenvalues not converged
     c_bands:  3 eigenvalues not converged
     ethr =  2.10E-03,  avg # of iterations = 19.2

     negative rho (up, down):  1.041E-03 0.000E+00
 
     Adding external electric field

     Computed dipole along edir(3) : 
        Dipole               -2.6807 Ry au,         -6.8137 Debye
        Dipole field         -0.0051 Ry au, 
 
        Potential amp.        0.4690 Ry
        Total length         46.3494 bohr
 

     total cpu time spent up to now is      376.1 secs

     total energy              =   -2958.71591058 Ry
     estimated scf accuracy    <     254.80826722 Ry

     iteration # 18     ecut=    29.40 Ry     beta= 0.05
     Davidson diagonalization with overlap
     c_bands:  1 eigenvalues not converged
     c_bands:  2 eigenvalues not converged
     ethr =  2.10E-03,  avg # of iterations = 17.9

     negative rho (up, down):  8.710E-04 0.000E+00
 
     Adding external electric field

     Computed dipole along edir(3) : 
        Dipole               -2.6900 Ry au,         -6.8373 Debye
        Dipole field         -0.0051 Ry au, 
 
        Potential amp.        0.4706 Ry
        Total length         46.3494 bohr
 

     total cpu time spent up to now is      399.1 secs

     total energy              =   -2966.55080214 Ry
     estimated scf accuracy    <     215.09796380 Ry

     iteration # 19     ecut=    29.40 Ry     beta= 0.05
     Davidson diagonalization with overlap
     ethr =  2.10E-03,  avg # of iterations =  1.6

     negative rho (up, down):  1.839E-03 0.000E+00
 
     Adding external electric field

     Computed dipole along edir(3) : 
        Dipole               -1.2119 Ry au,         -3.0803 Debye
        Dipole field         -0.0023 Ry au, 
 
        Potential amp.        0.2120 Ry
        Total length         46.3494 bohr
 

     total cpu time spent up to now is      409.4 secs

     total energy              =   -2964.30134752 Ry
     estimated scf accuracy    <     215.14930829 Ry

     iteration # 20     ecut=    29.40 Ry     beta= 0.05
     Davidson diagonalization with overlap
     c_bands:  2 eigenvalues not converged
     c_bands:  1 eigenvalues not converged
     c_bands:  1 eigenvalues not converged
     c_bands:  1 eigenvalues not converged
     c_bands:  1 eigenvalues not converged
     c_bands:  3 eigenvalues not converged
     ethr =  2.10E-03,  avg # of iterations = 18.9

     negative rho (up, down):  1.956E-03 0.000E+00
 
     Adding external electric field

     Computed dipole along edir(3) : 
        Dipole               -1.0187 Ry au,         -2.5893 Debye
        Dipole field         -0.0019 Ry au, 
 
        Potential amp.        0.1782 Ry
        Total length         46.3494 bohr
 

     total cpu time spent up to now is      429.0 secs

     total energy              =   -2969.85459649 Ry
     estimated scf accuracy    <     163.78362577 Ry

     iteration # 21     ecut=    29.40 Ry     beta= 0.05
     Davidson diagonalization with overlap
     ethr =  2.10E-03,  avg # of iterations =  1.4

     negative rho (up, down):  4.106E-03 0.000E+00
 
     Adding external electric field

     Computed dipole along edir(3) : 
        Dipole               -2.2519 Ry au,         -5.7238 Debye
        Dipole field         -0.0042 Ry au, 
 
        Potential amp.        0.3939 Ry
        Total length         46.3494 bohr
 

     total cpu time spent up to now is      439.3 secs

     total energy              =   -2966.08844071 Ry
     estimated scf accuracy    <     173.46141101 Ry

     iteration # 22     ecut=    29.40 Ry     beta= 0.05
     Davidson diagonalization with overlap
     ethr =  2.10E-03,  avg # of iterations =  1.0

     negative rho (up, down):  5.907E-03 0.000E+00
 
     Adding external electric field

     Computed dipole along edir(3) : 
        Dipole               -3.2373 Ry au,         -8.2284 Debye
        Dipole field         -0.0061 Ry au, 
 
        Potential amp.        0.5663 Ry
        Total length         46.3494 bohr
 

     total cpu time spent up to now is      449.2 secs

     total energy              =   -2964.07654507 Ry
     estimated scf accuracy    <     125.18210649 Ry

     iteration # 23     ecut=    29.40 Ry     beta= 0.05
     Davidson diagonalization with overlap
     ethr =  2.10E-03,  avg # of iterations = 11.6

     negative rho (up, down):  1.651E-02 0.000E+00
 
     Adding external electric field

     Computed dipole along edir(3) : 
        Dipole               -4.1909 Ry au,        -10.6522 Debye
        Dipole field         -0.0079 Ry au, 
 
        Potential amp.        0.7331 Ry
        Total length         46.3494 bohr
 

     total cpu time spent up to now is      463.8 secs

     total energy              =   -2963.66565760 Ry
     estimated scf accuracy    <      25.16840721 Ry

     iteration # 24     ecut=    29.40 Ry     beta= 0.05
     Davidson diagonalization with overlap
     ethr =  2.10E-03,  avg # of iterations =  6.8

     negative rho (up, down):  6.020E-02 0.000E+00
 
     Adding external electric field

     Computed dipole along edir(3) : 
        Dipole               -4.3089 Ry au,        -10.9522 Debye
        Dipole field         -0.0081 Ry au, 
 
        Potential amp.        0.7538 Ry
        Total length         46.3494 bohr
 

     total cpu time spent up to now is      476.9 secs

     total energy              =   -2965.09321530 Ry
     estimated scf accuracy    <       1.89859899 Ry

     iteration # 25     ecut=    29.40 Ry     beta= 0.05
     Davidson diagonalization with overlap
     c_bands:  2 eigenvalues not converged
     ethr =  4.77E-04,  avg # of iterations = 17.1

     negative rho (up, down):  7.129E-02 0.000E+00
 
     Adding external electric field

     Computed dipole along edir(3) : 
        Dipole               -4.2762 Ry au,        -10.8689 Debye
        Dipole field         -0.0081 Ry au, 
 
        Potential amp.        0.7481 Ry
        Total length         46.3494 bohr
 

     total cpu time spent up to now is      497.0 secs

     total energy              =   -2965.43081040 Ry
     estimated scf accuracy    <       2.30174861 Ry

     iteration # 26     ecut=    29.40 Ry     beta= 0.05
     Davidson diagonalization with overlap
     ethr =  4.77E-04,  avg # of iterations =  1.4

     negative rho (up, down):  5.070E-02 0.000E+00
 
     Adding external electric field

     Computed dipole along edir(3) : 
        Dipole               -3.6778 Ry au,         -9.3481 Debye
        Dipole field         -0.0069 Ry au, 
 
        Potential amp.        0.6434 Ry
        Total length         46.3494 bohr
 

     total cpu time spent up to now is      507.4 secs

     total energy              =   -2965.36070339 Ry
     estimated scf accuracy    <       2.52193396 Ry

     iteration # 27     ecut=    29.40 Ry     beta= 0.05
     Davidson diagonalization with overlap
     c_bands:  2 eigenvalues not converged
     ethr =  4.77E-04,  avg # of iterations =  3.6

     negative rho (up, down):  5.069E-02 0.000E+00
 
     Adding external electric field

     Computed dipole along edir(3) : 
        Dipole               -2.6736 Ry au,         -6.7956 Debye
        Dipole field         -0.0050 Ry au, 
 
        Potential amp.        0.4677 Ry
        Total length         46.3494 bohr
 

     total cpu time spent up to now is      518.3 secs

     total energy              =   -2965.33528423 Ry
     estimated scf accuracy    <       1.73188108 Ry

     iteration # 28     ecut=    29.40 Ry     beta= 0.05
     Davidson diagonalization with overlap
     c_bands:  1 eigenvalues not converged
     ethr =  4.35E-04,  avg # of iterations =  7.6

     negative rho (up, down):  4.103E-02 0.000E+00
 
     Adding external electric field

     Computed dipole along edir(3) : 
        Dipole               -2.2487 Ry au,         -5.7156 Debye
        Dipole field         -0.0042 Ry au, 
 
        Potential amp.        0.3934 Ry
        Total length         46.3494 bohr
 

     total cpu time spent up to now is      530.9 secs

     total energy              =   -2965.37253046 Ry
     estimated scf accuracy    <       4.12569412 Ry

     iteration # 29     ecut=    29.40 Ry     beta= 0.05
     Davidson diagonalization with overlap
     ethr =  4.35E-04,  avg # of iterations =  1.8

     negative rho (up, down):  4.284E-02 0.000E+00
 
     Adding external electric field

     Computed dipole along edir(3) : 
        Dipole               -1.9384 Ry au,         -4.9270 Debye
        Dipole field         -0.0037 Ry au, 
 
        Potential amp.        0.3391 Ry
        Total length         46.3494 bohr
 

     total cpu time spent up to now is      541.6 secs

     total energy              =   -2965.29471742 Ry
     estimated scf accuracy    <       2.32797794 Ry

     iteration # 30     ecut=    29.40 Ry     beta= 0.05
     Davidson diagonalization with overlap
     ethr =  4.35E-04,  avg # of iterations =  1.0

     negative rho (up, down):  2.736E-02 0.000E+00
 
     Adding external electric field

     Computed dipole along edir(3) : 
        Dipole               -1.3085 Ry au,         -3.3260 Debye
        Dipole field         -0.0025 Ry au, 
 
        Potential amp.        0.2289 Ry
        Total length         46.3494 bohr
 

     total cpu time spent up to now is      551.5 secs

     total energy              =   -2965.14086118 Ry
     estimated scf accuracy    <       2.17042338 Ry

     iteration # 31     ecut=    29.40 Ry     beta= 0.05
     Davidson diagonalization with overlap
     ethr =  4.35E-04,  avg # of iterations =  4.1

     negative rho (up, down):  1.875E-02 0.000E+00
 
     Adding external electric field

     Computed dipole along edir(3) : 
        Dipole               -0.7435 Ry au,         -1.8897 Debye
        Dipole field         -0.0014 Ry au, 
 
        Potential amp.        0.1301 Ry
        Total length         46.3494 bohr
 

     total cpu time spent up to now is      562.9 secs

     total energy              =   -2965.16773836 Ry
     estimated scf accuracy    <       0.76634014 Ry

     iteration # 32     ecut=    29.40 Ry     beta= 0.05
     Davidson diagonalization with overlap
     c_bands:  2 eigenvalues not converged
     ethr =  1.93E-04,  avg # of iterations =  7.2

     negative rho (up, down):  1.047E-02 0.000E+00
 
     Adding external electric field

     Computed dipole along edir(3) : 
        Dipole               -0.1602 Ry au,         -0.4072 Debye
        Dipole field         -0.0003 Ry au, 
 
        Potential amp.        0.0280 Ry
        Total length         46.3494 bohr
 

     total cpu time spent up to now is      575.2 secs

     total energy              =   -2965.07857236 Ry
     estimated scf accuracy    <       0.64851996 Ry

     iteration # 33     ecut=    29.40 Ry     beta= 0.05
     Davidson diagonalization with overlap
     c_bands:  1 eigenvalues not converged
     c_bands:  1 eigenvalues not converged
     c_bands:  1 eigenvalues not converged
     c_bands:  1 eigenvalues not converged
     ethr =  1.63E-04,  avg # of iterations = 15.1

     negative rho (up, down):  1.164E-02 0.000E+00
 
     Adding external electric field

     Computed dipole along edir(3) : 
        Dipole               -0.0675 Ry au,         -0.1716 Debye
        Dipole field         -0.0001 Ry au, 
 
        Potential amp.        0.0118 Ry
        Total length         46.3494 bohr
 

     total cpu time spent up to now is      590.9 secs

     total energy              =   -2965.07715219 Ry
     estimated scf accuracy    <       0.18852713 Ry

     iteration # 34     ecut=    29.40 Ry     beta= 0.05
     Davidson diagonalization with overlap
     c_bands:  2 eigenvalues not converged
     c_bands:  2 eigenvalues not converged
     c_bands:  2 eigenvalues not converged
     c_bands:  1 eigenvalues not converged
     c_bands:  1 eigenvalues not converged
     c_bands:  2 eigenvalues not converged
     ethr =  4.74E-05,  avg # of iterations = 18.3

     negative rho (up, down):  1.480E-02 0.000E+00
 
     Adding external electric field

     Computed dipole along edir(3) : 
        Dipole               -0.2972 Ry au,         -0.7555 Debye
        Dipole field         -0.0006 Ry au, 
 
        Potential amp.        0.0520 Ry
        Total length         46.3494 bohr
 

     total cpu time spent up to now is      612.6 secs

     total energy              =   -2965.09772628 Ry
     estimated scf accuracy    <       0.14209242 Ry

     iteration # 35     ecut=    29.40 Ry     beta= 0.05
     Davidson diagonalization with overlap
     c_bands:  1 eigenvalues not converged
     c_bands:  2 eigenvalues not converged
     c_bands:  1 eigenvalues not converged
     c_bands:  1 eigenvalues not converged
     ethr =  3.57E-05,  avg # of iterations = 14.4

     negative rho (up, down):  1.573E-02 0.000E+00
 
     Adding external electric field

     Computed dipole along edir(3) : 
        Dipole               -0.0385 Ry au,         -0.0979 Debye
        Dipole field         -0.0001 Ry au, 
 
        Potential amp.        0.0067 Ry
        Total length         46.3494 bohr
 

     total cpu time spent up to now is      628.2 secs

     total energy              =   -2965.10664768 Ry
     estimated scf accuracy    <       0.08223571 Ry

     iteration # 36     ecut=    29.40 Ry     beta= 0.05
     Davidson diagonalization with overlap
     c_bands:  1 eigenvalues not converged
     c_bands:  1 eigenvalues not converged
     ethr =  2.07E-05,  avg # of iterations =  7.1

     negative rho (up, down):  1.514E-02 0.000E+00
 
     Adding external electric field

     Computed dipole along edir(3) : 
        Dipole                0.3190 Ry au,          0.8109 Debye
        Dipole field          0.0006 Ry au, 
 
        Potential amp.       -0.0558 Ry
        Total length         46.3494 bohr
 

     total cpu time spent up to now is      640.3 secs

     total energy              =   -2965.10486724 Ry
     estimated scf accuracy    <       0.05157811 Ry

     iteration # 37     ecut=    29.40 Ry     beta= 0.05
     Davidson diagonalization with overlap
     c_bands:  1 eigenvalues not converged
     c_bands:  1 eigenvalues not converged
     ethr =  1.30E-05,  avg # of iterations = 14.7

     negative rho (up, down):  1.455E-02 0.000E+00
 
     Adding external electric field

     Computed dipole along edir(3) : 
        Dipole                0.2512 Ry au,          0.6386 Debye
        Dipole field          0.0005 Ry au, 
 
        Potential amp.       -0.0440 Ry
        Total length         46.3494 bohr
 

     total cpu time spent up to now is      656.9 secs

     total energy              =   -2965.10767991 Ry
     estimated scf accuracy    <       0.02295176 Ry

     iteration # 38     ecut=    29.40 Ry     beta= 0.05
     Davidson diagonalization with overlap
     ethr =  5.77E-06,  avg # of iterations =  6.5

     negative rho (up, down):  1.464E-02 0.000E+00
 
     Adding external electric field

     Computed dipole along edir(3) : 
        Dipole                0.2930 Ry au,          0.7447 Debye
        Dipole field          0.0006 Ry au, 
 
        Potential amp.       -0.0513 Ry
        Total length         46.3494 bohr
 

     total cpu time spent up to now is      669.3 secs

     total energy              =   -2965.10752727 Ry
     estimated scf accuracy    <       0.01824333 Ry

     iteration # 39     ecut=    29.40 Ry     beta= 0.05
     Davidson diagonalization with overlap
     c_bands:  1 eigenvalues not converged
     c_bands:  1 eigenvalues not converged
     ethr =  4.58E-06,  avg # of iterations =  9.8

     negative rho (up, down):  1.418E-02 0.000E+00
 
     Adding external electric field

     Computed dipole along edir(3) : 
        Dipole                0.4899 Ry au,          1.2452 Debye
        Dipole field          0.0009 Ry au, 
 
        Potential amp.       -0.0857 Ry
        Total length         46.3494 bohr
 

     total cpu time spent up to now is      682.9 secs

     total energy              =   -2965.10675332 Ry
     estimated scf accuracy    <       0.01308819 Ry

     iteration # 40     ecut=    29.40 Ry     beta= 0.05
     Davidson diagonalization with overlap
     c_bands:  2 eigenvalues not converged
     c_bands:  4 eigenvalues not converged
     c_bands:  1 eigenvalues not converged
     c_bands:  3 eigenvalues not converged
     c_bands:  2 eigenvalues not converged
     c_bands:  2 eigenvalues not converged
     c_bands:  3 eigenvalues not converged
     c_bands:  3 eigenvalues not converged
     c_bands:  1 eigenvalues not converged
     ethr =  3.29E-06,  avg # of iterations = 19.9

     negative rho (up, down):  1.635E-02 0.000E+00
 
     Adding external electric field

     Computed dipole along edir(3) : 
        Dipole                0.4771 Ry au,          1.2127 Debye
        Dipole field          0.0009 Ry au, 
 
        Potential amp.       -0.0835 Ry
        Total length         46.3494 bohr
 

     total cpu time spent up to now is      706.0 secs

     total energy              =   -2965.10596406 Ry
     estimated scf accuracy    <       0.01273866 Ry

     iteration # 41     ecut=    29.40 Ry     beta= 0.05
     Davidson diagonalization with overlap
     c_bands:  2 eigenvalues not converged
     c_bands:  4 eigenvalues not converged
     c_bands:  2 eigenvalues not converged
     c_bands:  2 eigenvalues not converged
     c_bands:  2 eigenvalues not converged
     c_bands:  1 eigenvalues not converged
     c_bands:  2 eigenvalues not converged
     c_bands:  1 eigenvalues not converged
     c_bands:  1 eigenvalues not converged
     c_bands:  3 eigenvalues not converged
     ethr =  3.20E-06,  avg # of iterations = 20.0

     negative rho (up, down):  1.789E-02 0.000E+00
 
     Adding external electric field

     Computed dipole along edir(3) : 
        Dipole                0.5062 Ry au,          1.2867 Debye
        Dipole field          0.0010 Ry au, 
 
        Potential amp.       -0.0886 Ry
        Total length         46.3494 bohr
 

     total cpu time spent up to now is      725.5 secs

     total energy              =   -2965.10806466 Ry
     estimated scf accuracy    <       0.00328607 Ry

     iteration # 42     ecut=    29.40 Ry     beta= 0.05
     Davidson diagonalization with overlap
     c_bands:  1 eigenvalues not converged
     c_bands:  2 eigenvalues not converged
     c_bands:  1 eigenvalues not converged
     c_bands:  1 eigenvalues not converged
     c_bands:  1 eigenvalues not converged
     c_bands:  1 eigenvalues not converged
     ethr =  8.26E-07,  avg # of iterations = 16.2

     negative rho (up, down):  1.767E-02 0.000E+00
 
     Adding external electric field

     Computed dipole along edir(3) : 
        Dipole                0.5196 Ry au,          1.3208 Debye
        Dipole field          0.0010 Ry au, 
 
        Potential amp.       -0.0909 Ry
        Total length         46.3494 bohr
 

     total cpu time spent up to now is      741.6 secs

     total energy              =   -2965.10795953 Ry
     estimated scf accuracy    <       0.00187607 Ry

     iteration # 43     ecut=    29.40 Ry     beta= 0.05
     Davidson diagonalization with overlap
     c_bands:  1 eigenvalues not converged
     ethr =  4.71E-07,  avg # of iterations =  7.2

     negative rho (up, down):  1.746E-02 0.000E+00
 
     Adding external electric field

     Computed dipole along edir(3) : 
        Dipole                0.5257 Ry au,          1.3361 Debye
        Dipole field          0.0010 Ry au, 
 
        Potential amp.       -0.0920 Ry
        Total length         46.3494 bohr
 

     total cpu time spent up to now is      756.8 secs

     total energy              =   -2965.10823364 Ry
     estimated scf accuracy    <       0.00084395 Ry

     iteration # 44     ecut=    29.40 Ry     beta= 0.05
     Davidson diagonalization with overlap
     ethr =  2.12E-07,  avg # of iterations =  2.6

     negative rho (up, down):  1.737E-02 0.000E+00
 
     Adding external electric field

     Computed dipole along edir(3) : 
        Dipole                0.5290 Ry au,          1.3447 Debye
        Dipole field          0.0010 Ry au, 
 
        Potential amp.       -0.0925 Ry
        Total length         46.3494 bohr
 

     total cpu time spent up to now is      768.0 secs

     total energy              =   -2965.10819134 Ry
     estimated scf accuracy    <       0.00052994 Ry

     iteration # 45     ecut=    29.40 Ry     beta= 0.05
     Davidson diagonalization with overlap
     c_bands:  2 eigenvalues not converged
     c_bands:  1 eigenvalues not converged
     c_bands:  1 eigenvalues not converged
     c_bands:  2 eigenvalues not converged
     ethr =  1.33E-07,  avg # of iterations = 12.1

     negative rho (up, down):  1.801E-02 0.000E+00
 
     Adding external electric field

     Computed dipole along edir(3) : 
        Dipole                0.5217 Ry au,          1.3261 Debye
        Dipole field          0.0010 Ry au, 
 
        Potential amp.       -0.0913 Ry
        Total length         46.3494 bohr
 

     total cpu time spent up to now is      790.5 secs

     total energy              =   -2965.10778808 Ry
     estimated scf accuracy    <       0.00202687 Ry

     iteration # 46     ecut=    29.40 Ry     beta= 0.05
     Davidson diagonalization with overlap
     c_bands:  2 eigenvalues not converged
     c_bands:  1 eigenvalues not converged
     c_bands:  1 eigenvalues not converged
     c_bands:  1 eigenvalues not converged
     ethr =  1.33E-07,  avg # of iterations = 13.6

     negative rho (up, down):  1.794E-02 0.000E+00
 
     Adding external electric field

     Computed dipole along edir(3) : 
        Dipole                0.5256 Ry au,          1.3359 Debye
        Dipole field          0.0010 Ry au, 
 
        Potential amp.       -0.0919 Ry
        Total length         46.3494 bohr
 

     total cpu time spent up to now is      815.9 secs

     total energy              =   -2965.10828195 Ry
     estimated scf accuracy    <       0.00189726 Ry

     iteration # 47     ecut=    29.40 Ry     beta= 0.05
     Davidson diagonalization with overlap
     ethr =  1.33E-07,  avg # of iterations =  7.7

     negative rho (up, down):  1.765E-02 0.000E+00
 
     Adding external electric field

     Computed dipole along edir(3) : 
        Dipole                0.5337 Ry au,          1.3564 Debye
        Dipole field          0.0010 Ry au, 
 
        Potential amp.       -0.0934 Ry
        Total length         46.3494 bohr
 

     total cpu time spent up to now is      832.8 secs

     total energy              =   -2965.10839331 Ry
     estimated scf accuracy    <       0.00026139 Ry

     iteration # 48     ecut=    29.40 Ry     beta= 0.05
     Davidson diagonalization with overlap
     ethr =  6.57E-08,  avg # of iterations =  5.9

     negative rho (up, down):  1.785E-02 0.000E+00
 
     Adding external electric field

     Computed dipole along edir(3) : 
        Dipole                0.5366 Ry au,          1.3640 Debye
        Dipole field          0.0010 Ry au, 
 
        Potential amp.       -0.0939 Ry
        Total length         46.3494 bohr
 

     total cpu time spent up to now is      850.1 secs

     total energy              =   -2965.10842602 Ry
     estimated scf accuracy    <       0.00033733 Ry

     iteration # 49     ecut=    29.40 Ry     beta= 0.05
     Davidson diagonalization with overlap
     ethr =  6.57E-08,  avg # of iterations =  5.1

     negative rho (up, down):  1.782E-02 0.000E+00
 
     Adding external electric field

     Computed dipole along edir(3) : 
        Dipole                0.5400 Ry au,          1.3727 Debye
        Dipole field          0.0010 Ry au, 
 
        Potential amp.       -0.0945 Ry
        Total length         46.3494 bohr
 

     total cpu time spent up to now is      863.9 secs

     total energy              =   -2965.10848085 Ry
     estimated scf accuracy    <       0.00007777 Ry

     iteration # 50     ecut=    29.40 Ry     beta= 0.05
     Davidson diagonalization with overlap
     ethr =  1.95E-08,  avg # of iterations =  5.5

     negative rho (up, down):  1.773E-02 0.000E+00
 
     Adding external electric field

     Computed dipole along edir(3) : 
        Dipole                0.5412 Ry au,          1.3757 Debye
        Dipole field          0.0010 Ry au, 
 
        Potential amp.       -0.0947 Ry
        Total length         46.3494 bohr
 

     total cpu time spent up to now is      879.0 secs

     total energy              =   -2965.10850156 Ry
     estimated scf accuracy    <       0.00009304 Ry

     iteration # 51     ecut=    29.40 Ry     beta= 0.05
     Davidson diagonalization with overlap
     ethr =  1.95E-08,  avg # of iterations =  5.1

     negative rho (up, down):  1.764E-02 0.000E+00
 
     Adding external electric field

     Computed dipole along edir(3) : 
        Dipole                0.5408 Ry au,          1.3745 Debye
        Dipole field          0.0010 Ry au, 
 
        Potential amp.       -0.0946 Ry
        Total length         46.3494 bohr
 

     total cpu time spent up to now is      891.9 secs

     total energy              =   -2965.10852395 Ry
     estimated scf accuracy    <       0.00002406 Ry

     iteration # 52     ecut=    29.40 Ry     beta= 0.05
     Davidson diagonalization with overlap
     ethr =  6.04E-09,  avg # of iterations =  4.9

     negative rho (up, down):  1.763E-02 0.000E+00
 
     Adding external electric field

     Computed dipole along edir(3) : 
        Dipole                0.5410 Ry au,          1.3750 Debye
        Dipole field          0.0010 Ry au, 
 
        Potential amp.       -0.0946 Ry
        Total length         46.3494 bohr
 

     total cpu time spent up to now is      905.2 secs

     total energy              =   -2965.10853824 Ry
     estimated scf accuracy    <       0.00001965 Ry

     iteration # 53     ecut=    29.40 Ry     beta= 0.05
     Davidson diagonalization with overlap
     ethr =  4.94E-09,  avg # of iterations =  5.0

     negative rho (up, down):  1.757E-02 0.000E+00
 
     Adding external electric field

     Computed dipole along edir(3) : 
        Dipole                0.5406 Ry au,          1.3740 Debye
        Dipole field          0.0010 Ry au, 
 
        Potential amp.       -0.0946 Ry
        Total length         46.3494 bohr
 

     total cpu time spent up to now is      917.8 secs

     total energy              =   -2965.10855186 Ry
     estimated scf accuracy    <       0.00000750 Ry

     iteration # 54     ecut=    29.40 Ry     beta= 0.05
     Davidson diagonalization with overlap
     ethr =  1.89E-09,  avg # of iterations =  5.0

     negative rho (up, down):  1.754E-02 0.000E+00
 
     Adding external electric field

     Computed dipole along edir(3) : 
        Dipole                0.5402 Ry au,          1.3731 Debye
        Dipole field          0.0010 Ry au, 
 
        Potential amp.       -0.0945 Ry
        Total length         46.3494 bohr
 

     total cpu time spent up to now is      932.4 secs

     total energy              =   -2965.10856307 Ry
     estimated scf accuracy    <       0.00000684 Ry

     iteration # 55     ecut=    29.40 Ry     beta= 0.05
     Davidson diagonalization with overlap
     ethr =  1.72E-09,  avg # of iterations =  2.0

     negative rho (up, down):  1.749E-02 0.000E+00
 
     Adding external electric field

     Computed dipole along edir(3) : 
        Dipole                0.5391 Ry au,          1.3701 Debye
        Dipole field          0.0010 Ry au, 
 
        Potential amp.       -0.0943 Ry
        Total length         46.3494 bohr
 

     total cpu time spent up to now is      943.3 secs

     total energy              =   -2965.10857236 Ry
     estimated scf accuracy    <       0.00000433 Ry

     iteration # 56     ecut=    29.40 Ry     beta= 0.05
     Davidson diagonalization with overlap
     ethr =  1.09E-09,  avg # of iterations =  5.3

     negative rho (up, down):  1.742E-02 0.000E+00
 
     Adding external electric field

     Computed dipole along edir(3) : 
        Dipole                0.5380 Ry au,          1.3674 Debye
        Dipole field          0.0010 Ry au, 
 
        Potential amp.       -0.0941 Ry
        Total length         46.3494 bohr
 

     total cpu time spent up to now is      959.8 secs

     total energy              =   -2965.10858134 Ry
     estimated scf accuracy    <       0.00000545 Ry

     iteration # 57     ecut=    29.40 Ry     beta= 0.05
     Davidson diagonalization with overlap
     ethr =  1.09E-09,  avg # of iterations =  3.7

     negative rho (up, down):  1.740E-02 0.000E+00
 
     Adding external electric field

     Computed dipole along edir(3) : 
        Dipole                0.5376 Ry au,          1.3665 Debye
        Dipole field          0.0010 Ry au, 
 
        Potential amp.       -0.0941 Ry
        Total length         46.3494 bohr
 

     total cpu time spent up to now is      972.6 secs

     total energy              =   -2965.10858980 Ry
     estimated scf accuracy    <       0.00000123 Ry

     iteration # 58     ecut=    29.40 Ry     beta= 0.05
     Davidson diagonalization with overlap
     ethr =  3.10E-10,  avg # of iterations =  5.6

     negative rho (up, down):  1.738E-02 0.000E+00
 
     Adding external electric field

     Computed dipole along edir(3) : 
        Dipole                0.5372 Ry au,          1.3653 Debye
        Dipole field          0.0010 Ry au, 
 
        Potential amp.       -0.0940 Ry
        Total length         46.3494 bohr
 

     total cpu time spent up to now is      989.6 secs

     total energy              =   -2965.10859792 Ry
     estimated scf accuracy    <       0.00000196 Ry

     iteration # 59     ecut=    29.40 Ry     beta= 0.05
     Davidson diagonalization with overlap
     ethr =  3.10E-10,  avg # of iterations =  4.7

     negative rho (up, down):  1.736E-02 0.000E+00
 
     Adding external electric field

     Computed dipole along edir(3) : 
        Dipole                0.5383 Ry au,          1.3682 Debye
        Dipole field          0.0010 Ry au, 
 
        Potential amp.       -0.0942 Ry
        Total length         46.3494 bohr
 

     total cpu time spent up to now is     1002.1 secs

     total energy              =   -2965.10860325 Ry
     estimated scf accuracy    <       0.00000384 Ry

     iteration # 60     ecut=    29.40 Ry     beta= 0.05
     Davidson diagonalization with overlap
     ethr =  3.10E-10,  avg # of iterations =  5.0

     negative rho (up, down):  1.731E-02 0.000E+00
 
     Adding external electric field

     Computed dipole along edir(3) : 
        Dipole                0.5371 Ry au,          1.3651 Debye
        Dipole field          0.0010 Ry au, 
 
        Potential amp.       -0.0940 Ry
        Total length         46.3494 bohr
 

     total cpu time spent up to now is     1020.0 secs

     total energy              =   -2965.10860971 Ry
     estimated scf accuracy    <       0.00000101 Ry

     iteration # 61     ecut=    29.40 Ry     beta= 0.05
     Davidson diagonalization with overlap
     ethr =  2.53E-10,  avg # of iterations =  2.8

     negative rho (up, down):  1.730E-02 0.000E+00
 
     Adding external electric field

     Computed dipole along edir(3) : 
        Dipole                0.5366 Ry au,          1.3638 Debye
        Dipole field          0.0010 Ry au, 
 
        Potential amp.       -0.0939 Ry
        Total length         46.3494 bohr
 

     total cpu time spent up to now is     1032.4 secs

     total energy              =   -2965.10861511 Ry
     estimated scf accuracy    <       0.00000023 Ry

     iteration # 62     ecut=    29.40 Ry     beta= 0.05
     Davidson diagonalization with overlap
     ethr =  5.70E-11,  avg # of iterations =  7.4

     negative rho (up, down):  1.731E-02 0.000E+00
 
     Adding external electric field

     Computed dipole along edir(3) : 
        Dipole                0.5368 Ry au,          1.3644 Debye
        Dipole field          0.0010 Ry au, 
 
        Potential amp.       -0.0939 Ry
        Total length         46.3494 bohr
 

     total cpu time spent up to now is     1050.8 secs

     total energy              =   -2965.10861995 Ry
     estimated scf accuracy    <       0.00000035 Ry

     iteration # 63     ecut=    29.40 Ry     beta= 0.05
     Davidson diagonalization with overlap
     ethr =  5.70E-11,  avg # of iterations =  2.0

     negative rho (up, down):  1.729E-02 0.000E+00
 
     Adding external electric field

     Computed dipole along edir(3) : 
        Dipole                0.5368 Ry au,          1.3644 Debye
        Dipole field          0.0010 Ry au, 
 
        Potential amp.       -0.0939 Ry
        Total length         46.3494 bohr
 

     total cpu time spent up to now is     1061.8 secs

     total energy              =   -2965.10862431 Ry
     estimated scf accuracy    <       0.00000019 Ry

     iteration # 64     ecut=    29.40 Ry     beta= 0.05
     Davidson diagonalization with overlap
     ethr =  4.82E-11,  avg # of iterations =  8.0

     negative rho (up, down):  1.729E-02 0.000E+00
 
     Adding external electric field

     Computed dipole along edir(3) : 
        Dipole                0.5365 Ry au,          1.3636 Debye
        Dipole field          0.0010 Ry au, 
 
        Potential amp.       -0.0938 Ry
        Total length         46.3494 bohr
 

     total cpu time spent up to now is     1081.2 secs

     total energy              =   -2965.10862828 Ry
     estimated scf accuracy    <       0.00000053 Ry

     iteration # 65     ecut=    29.40 Ry     beta= 0.05
     Davidson diagonalization with overlap
     ethr =  4.82E-11,  avg # of iterations =  3.9

     negative rho (up, down):  1.728E-02 0.000E+00
 
     Adding external electric field

     Computed dipole along edir(3) : 
        Dipole                0.5361 Ry au,          1.3627 Debye
        Dipole field          0.0010 Ry au, 
 
        Potential amp.       -0.0938 Ry
        Total length         46.3494 bohr
 

     total cpu time spent up to now is     1093.5 secs

     total energy              =   -2965.10863181 Ry
     estimated scf accuracy    <       0.00000027 Ry

     iteration # 66     ecut=    29.40 Ry     beta= 0.05
     Davidson diagonalization with overlap
     ethr =  4.82E-11,  avg # of iterations =  6.0

     negative rho (up, down):  1.731E-02 0.000E+00
 
     Adding external electric field

     Computed dipole along edir(3) : 
        Dipole                0.5357 Ry au,          1.3616 Debye
        Dipole field          0.0010 Ry au, 
 
        Potential amp.       -0.0937 Ry
        Total length         46.3494 bohr
 

     total cpu time spent up to now is     1107.5 secs

     End of self-consistent calculation

          k = 0.0000 0.0000 0.0000 ( 18029 PWs)   bands (ev):

   -56.4423 -56.3955 -55.8706 -55.8387 -55.8284 -55.8174 -55.7739 -55.7365
   -55.7118 -55.6979 -55.6597 -55.6175 -55.6137 -55.4670 -55.0457 -55.0118
   -32.8547 -32.7072 -32.6578 -32.6217 -32.5273 -32.4812 -32.3623 -32.3159
   -32.3096 -32.1941 -32.1572 -32.1341 -32.1317 -32.1119 -32.1063 -32.0696
   -32.0663 -32.0516 -32.0349 -32.0295 -32.0169 -31.9797 -31.9688 -31.9519
   -31.9439 -31.9313 -31.9287 -31.9185 -31.9165 -31.9053 -31.9005 -31.8875
   -31.8633 -31.8617 -31.8559 -31.8229 -31.8114 -31.8106 -31.7815 -31.7228
   -31.6922 -31.6733 -31.4399 -31.3866 -31.3622 -31.2567 -31.1718 -31.0611
   -17.6019 -16.6288 -16.5869 -16.4419 -16.2039 -16.0573 -15.9762 -15.7566
   -15.7541 -15.6347 -15.6235 -15.5889 -15.4511 -15.4385 -15.4315 -15.3758
   -15.3606 -15.3495 -15.3435 -15.3358 -15.3233 -15.2751 -15.2622 -15.2103
   -15.1519 -15.0852 -15.0552 -15.0121 -14.9929 -14.9572 -14.7267 -13.5479
   -13.4396  -9.3545  -4.3380  -4.2480  -4.1220  -4.0338  -3.8821  -3.7800
    -3.7454  -3.6583  -3.5785  -3.4687  -3.2700  -3.1080  -3.0512  -3.0145
    -2.9814  -2.9278  -2.8732  -2.8144  -2.7691  -2.7402  -2.7113  -2.6440
    -2.6276  -2.6167  -2.5886  -2.5805  -2.5447  -2.5117  -2.5018  -2.3690
    -2.3396  -2.3019  -2.2968  -2.2377  -2.2184  -2.1939  -2.1874  -2.1365
    -2.0435  -1.9628  -1.9269  -1.8879  -1.6980  -1.6426  -1.5729  -1.5071
    -1.4286  -1.3816  -1.3619  -1.3387  -1.2684  -1.2405  -1.1287  -1.1068
    -1.0609  -0.9975  -0.9940  -0.9546  -0.8966  -0.8698  -0.8065  -0.7739
    -0.7480  -0.6050  -0.5789  -0.5511  -0.5091  -0.5006  -0.4012  -0.3379
    -0.2893  -0.2694  -0.2218  -0.1879  -0.1496  -0.1019  -0.0842  -0.0578
     0.0310   0.0569   0.0815   0.1255   0.1611   0.1839   0.2033   0.2962
     0.3441   0.3620   0.3780   0.5339   0.5728   0.5890   0.7179   0.7287
     0.9022   0.9710   1.0085   1.1878   1.2341   1.5208   1.5630   2.8594
     3.0175   3.2887   3.4362   3.5040   3.5430   3.5967   3.6139   3.7551
     3.7907

          k = 0.0000 0.0419 0.0000 ( 17933 PWs)   bands (ev):

   -56.4390 -56.3987 -55.8696 -55.8363 -55.8276 -55.8154 -55.7763 -55.7383
   -55.7126 -55.6985 -55.6559 -55.6211 -55.6127 -55.4679 -55.0407 -55.0167
   -32.8017 -32.7050 -32.6594 -32.6094 -32.5397 -32.5367 -32.3159 -32.2637
   -32.2595 -32.1601 -32.1247 -32.1047 -32.1041 -32.1010 -32.0974 -32.0609
   -32.0560 -32.0447 -32.0277 -32.0271 -32.0218 -31.9939 -31.9789 -31.9770
   -31.9645 -31.9562 -31.9535 -31.9491 -31.9382 -31.9194 -31.9046 -31.8962
   -31.8859 -31.8599 -31.8596 -31.8372 -31.8288 -31.8121 -31.8103 -31.7483
   -31.7166 -31.6728 -31.3863 -31.3829 -31.3656 -31.2442 -31.1843 -31.1178
   -17.5838 -16.6146 -16.4613 -16.3265 -16.0992 -15.9586 -15.8940 -15.7954
   -15.6970 -15.6847 -15.6484 -15.5472 -15.5090 -15.4647 -15.4190 -15.4090
   -15.3798 -15.3755 -15.3649 -15.3257 -15.3095 -15.2949 -15.2878 -15.2294
   -15.1373 -15.1264 -15.1058 -15.0739 -15.0682 -15.0140 -14.7876 -13.5558
   -13.4810  -9.3547  -4.2792  -4.2330  -4.0126  -3.9393  -3.7055  -3.6985
    -3.6250  -3.5755  -3.4114  -3.3298  -3.0936  -3.0246  -3.0146  -3.0005
    -2.9512  -2.9074  -2.8625  -2.8547  -2.8318  -2.7934  -2.7576  -2.7451
    -2.7271  -2.6854  -2.6585  -2.6447  -2.6369  -2.5959  -2.5430  -2.5247
    -2.4748  -2.4434  -2.3746  -2.3594  -2.2291  -2.1884  -2.1732  -2.1088
    -2.0326  -1.9608  -1.7809  -1.6456  -1.6127  -1.5722  -1.5431  -1.4569
    -1.3298  -1.3148  -1.2715  -1.1749  -1.1638  -1.1117  -1.0962  -1.0804
    -1.0010  -0.9665  -0.9247  -0.8857  -0.8705  -0.8114  -0.7867  -0.7446
    -0.6916  -0.6710  -0.6350  -0.6124  -0.5710  -0.5310  -0.5105  -0.4757
    -0.4543  -0.3933  -0.3455  -0.2472  -0.2423  -0.1736  -0.0943  -0.0666
    -0.0465  -0.0277  -0.0207   0.0081   0.0429   0.1255   0.1667   0.2653
     0.2983   0.3403   0.3612   0.3778   0.5003   0.5192   0.5510   0.6436
     0.6546   0.8171   1.0735   1.1839   1.3081   1.4662   1.4820   3.1193
     3.1286   3.3000   3.5875   3.6052   3.6392   3.6603   3.7001   3.7340
     3.7740

          k = 0.0000-0.0839 0.0000 ( 17884 PWs)   bands (ev):

   -56.4352 -56.4025 -55.8686 -55.8337 -55.8267 -55.8133 -55.7788 -55.7403
   -55.7134 -55.6992 -55.6511 -55.6259 -55.6117 -55.4688 -55.0288 -55.0285
   -32.7026 -32.6844 -32.6617 -32.6566 -32.5884 -32.5606 -32.2492 -32.1830
   -32.1590 -32.1238 -32.1152 -32.1046 -32.0966 -32.0759 -32.0644 -32.0532
   -32.0420 -32.0402 -32.0343 -32.0241 -32.0203 -32.0179 -32.0004 -31.9976
   -31.9853 -31.9815 -31.9686 -31.9670 -31.9639 -31.9558 -31.9474 -31.9184
   -31.8889 -31.8862 -31.8612 -31.8527 -31.8377 -31.8275 -31.8094 -31.7970
   -31.7249 -31.6724 -31.3741 -31.3740 -31.2554 -31.2538 -31.2140 -31.2131
   -17.5656 -16.6067 -16.1396 -16.1362 -16.0697 -16.0025 -15.8366 -15.8183
   -15.7084 -15.6839 -15.6409 -15.6077 -15.5535 -15.5526 -15.4764 -15.4355
   -15.3774 -15.3389 -15.3141 -15.2835 -15.2813 -15.2582 -15.2351 -15.2257
   -15.2047 -15.1999 -15.1939 -15.1575 -15.1407 -15.0667 -14.8793 -13.5442
   -13.5431  -9.3549  -4.2494  -4.1849  -4.0040  -3.6943  -3.4812  -3.4798
    -3.3052  -3.2816  -3.2520  -3.2334  -3.2208  -3.2150  -3.0744  -3.0654
    -3.0144  -3.0059  -3.0019  -2.9583  -2.9472  -2.9211  -2.8527  -2.8138
    -2.7973  -2.7588  -2.7408  -2.6771  -2.6132  -2.5698  -2.5335  -2.5040
    -2.4668  -2.4382  -2.2665  -2.2128  -2.0766  -2.0392  -1.9762  -1.8796
    -1.8447  -1.8186  -1.7747  -1.7311  -1.7105  -1.6564  -1.4984  -1.4514
    -1.4038  -1.3839  -1.3450  -1.3296  -1.3187  -1.2797  -1.2337  -1.1574
    -1.0997  -0.9568  -0.9096  -0.8250  -0.8057  -0.7399  -0.6449  -0.6281
    -0.6114  -0.5894  -0.5466  -0.5368  -0.5146  -0.4885  -0.4781  -0.4407
    -0.4387  -0.4230  -0.4043  -0.3420  -0.2977  -0.2804  -0.2305  -0.1896
    -0.1752  -0.1045  -0.1021  -0.0438  -0.0128   0.0136   0.0375   0.0930
     0.1221   0.1879   0.2583   0.2988   0.3834   0.4163   0.4836   0.6959
     0.7133   0.8257   0.8908   1.3286   1.3487   1.4076   1.4177   3.3296
     3.3563   3.4604   3.4813   3.5526   3.5707   3.6335   3.7258   3.8213
     3.8462

          k = 0.0380 0.0000 0.0000 ( 17913 PWs)   bands (ev):

   -56.4422 -56.3954 -55.8705 -55.8383 -55.8285 -55.8172 -55.7738 -55.7363
   -55.7116 -55.6978 -55.6596 -55.6174 -55.6136 -55.4669 -55.0456 -55.0117
   -32.8554 -32.7071 -32.6576 -32.6199 -32.5270 -32.4810 -32.3624 -32.3162
   -32.3112 -32.1993 -32.1634 -32.1352 -32.1200 -32.1066 -32.1054 -32.0689
   -32.0661 -32.0509 -32.0294 -32.0204 -32.0192 -31.9783 -31.9682 -31.9517
   -31.9350 -31.9303 -31.9265 -31.9180 -31.9160 -31.9052 -31.9003 -31.8915
   -31.8806 -31.8616 -31.8559 -31.8228 -31.8151 -31.8105 -31.7812 -31.7226
   -31.6921 -31.6745 -31.4395 -31.3889 -31.3604 -31.2565 -31.1716 -31.0609
   -17.5993 -16.6170 -16.4913 -16.3535 -16.1249 -16.0271 -15.9624 -15.9139
   -15.8062 -15.6508 -15.6027 -15.5599 -15.5444 -15.5185 -15.5172 -15.4591
   -15.4366 -15.4006 -15.3470 -15.3058 -15.2559 -15.1912 -15.1686 -15.1322
   -15.1122 -15.0873 -15.0695 -15.0513 -15.0337 -14.9925 -14.7247 -13.5452
   -13.4392  -9.3542  -4.3154  -4.2389  -4.0318  -3.8395  -3.7790  -3.7032
    -3.5831  -3.5293  -3.4247  -3.3968  -3.3108  -3.2605  -3.2214  -3.1228
    -3.1039  -3.0286  -2.9552  -2.8570  -2.7805  -2.6802  -2.6618  -2.6226
    -2.5456  -2.5417  -2.5079  -2.4954  -2.4691  -2.4074  -2.3929  -2.3461
    -2.3400  -2.3073  -2.2897  -2.2496  -2.2007  -2.1289  -1.9917  -1.9713
    -1.9510  -1.8541  -1.8394  -1.7773  -1.6992  -1.6668  -1.6455  -1.5221
    -1.5112  -1.3919  -1.3789  -1.3233  -1.2946  -1.2694  -1.2497  -1.2239
    -1.1819  -1.1734  -1.0678  -1.0071  -0.9733  -0.9577  -0.9068  -0.7937
    -0.6941  -0.6629  -0.6245  -0.5741  -0.5083  -0.4544  -0.3734  -0.3562
    -0.3175  -0.2639  -0.2520  -0.2178  -0.1771  -0.1552  -0.1245  -0.0931
    -0.0611  -0.0376   0.0176   0.0521   0.1154   0.1628   0.2041   0.2445
     0.3174   0.3337   0.3812   0.4371   0.4640   0.5470   0.5584   0.7114
     0.8055   0.9827   1.0023   1.0749   1.2074   1.4133   1.4756   2.9979
     3.0437   3.3014   3.4741   3.5190   3.5409   3.5956   3.6461   3.6811
     3.7190

          k = 0.0380 0.0419 0.0000 ( 17878 PWs)   bands (ev):

   -56.4390 -56.3986 -55.8695 -55.8359 -55.8278 -55.8153 -55.7762 -55.7382
   -55.7125 -55.6985 -55.6559 -55.6211 -55.6127 -55.4678 -55.0406 -55.0167
   -32.8023 -32.7048 -32.6594 -32.6078 -32.5393 -32.5367 -32.3161 -32.2646
   -32.2606 -32.1651 -32.1150 -32.1117 -32.1051 -32.0984 -32.0969 -32.0604
   -32.0551 -32.0449 -32.0276 -32.0206 -32.0140 -31.9949 -31.9788 -31.9769
   -31.9639 -31.9565 -31.9538 -31.9363 -31.9343 -31.9192 -31.9049 -31.8971
   -31.8891 -31.8762 -31.8598 -31.8350 -31.8317 -31.8136 -31.8120 -31.7481
   -31.7165 -31.6746 -31.3860 -31.3847 -31.3646 -31.2440 -31.1844 -31.1177
   -17.5821 -16.6094 -16.3677 -16.2438 -16.0285 -15.9389 -15.8936 -15.8596
   -15.7440 -15.6454 -15.6207 -15.5778 -15.5583 -15.5313 -15.5030 -15.4776
   -15.4222 -15.3975 -15.3388 -15.3178 -15.2948 -15.2689 -15.2209 -15.1849
   -15.1584 -15.1382 -15.1095 -15.0941 -15.0767 -15.0707 -14.7850 -13.5539
   -13.4813  -9.3545  -4.2669  -4.2346  -3.9996  -3.7396  -3.6608  -3.5341
    -3.4499  -3.3513  -3.3075  -3.2643  -3.1530  -3.0871  -3.0398  -2.9705
    -2.9504  -2.8980  -2.8687  -2.8323  -2.8157  -2.7970  -2.7355  -2.7036
    -2.6868  -2.6528  -2.6269  -2.6183  -2.5832  -2.5602  -2.5290  -2.5016
    -2.4433  -2.3876  -2.3543  -2.3040  -2.1999  -2.1718  -2.1228  -2.0585
    -1.9202  -1.9053  -1.8325  -1.6676  -1.6167  -1.5726  -1.5334  -1.4050
    -1.3925  -1.3509  -1.3399  -1.2715  -1.2409  -1.1991  -1.1350  -1.1007
    -1.0853  -1.0403  -1.0266  -0.9799  -0.9250  -0.9156  -0.8861  -0.8412
    -0.8221  -0.7261  -0.7051  -0.6742  -0.6482  -0.6193  -0.5926  -0.5229
    -0.5064  -0.4345  -0.3623  -0.3032  -0.2764  -0.2516  -0.2211  -0.1676
    -0.1216  -0.1065  -0.0556   0.0117   0.0806   0.1475   0.1783   0.2799
     0.3114   0.3731   0.4098   0.4299   0.4549   0.4860   0.5339   0.5869
     0.6302   0.7856   1.0064   1.1959   1.3131   1.3917   1.4517   3.1062
     3.2657   3.3570   3.5179   3.5871   3.6406   3.6799   3.7075   3.7657
     3.7965

          k = 0.0380-0.0839 0.0000 ( 17916 PWs)   bands (ev):

   -56.4352 -56.4025 -55.8686 -55.8334 -55.8270 -55.8133 -55.7789 -55.7403
   -55.7135 -55.6992 -55.6512 -55.6259 -55.6118 -55.4688 -55.0289 -55.0285
   -32.7026 -32.6850 -32.6618 -32.6572 -32.5877 -32.5599 -32.2497 -32.1847
   -32.1593 -32.1249 -32.1100 -32.1048 -32.0939 -32.0760 -32.0657 -32.0541
   -32.0463 -32.0408 -32.0352 -32.0239 -32.0220 -32.0203 -31.9999 -31.9978
   -31.9890 -31.9875 -31.9685 -31.9589 -31.9578 -31.9434 -31.9301 -31.9184
   -31.8930 -31.8889 -31.8617 -31.8604 -31.8477 -31.8272 -31.8124 -31.7967
   -31.7250 -31.6746 -31.3747 -31.3746 -31.2554 -31.2538 -31.2140 -31.2131
   -17.5649 -16.6037 -16.0716 -16.0671 -16.0242 -15.9445 -15.7951 -15.7674
   -15.6924 -15.6741 -15.6594 -15.6236 -15.6220 -15.5978 -15.4812 -15.4573
   -15.3728 -15.3628 -15.3353 -15.3238 -15.2924 -15.2778 -15.2666 -15.2479
   -15.2376 -15.2166 -15.2042 -15.1933 -15.1535 -15.0586 -14.8725 -13.5441
   -13.5429  -9.3548  -4.2542  -4.1832  -3.9860  -3.7132  -3.2746  -3.2684
    -3.2323  -3.1617  -3.1063  -3.0888  -3.0394  -3.0248  -3.0086  -2.9746
    -2.9614  -2.9163  -2.8995  -2.8855  -2.8456  -2.8265  -2.8083  -2.7976
    -2.7481  -2.7237  -2.6696  -2.6454  -2.6277  -2.6089  -2.5665  -2.5129
    -2.4972  -2.4353  -2.1653  -2.1367  -2.0856  -2.0276  -1.9693  -1.9407
    -1.8788  -1.8483  -1.8353  -1.7789  -1.7416  -1.6945  -1.6614  -1.6385
    -1.6119  -1.5834  -1.5717  -1.4783  -1.3959  -1.3583  -1.1727  -1.1296
    -1.0606  -0.9965  -0.9850  -0.9198  -0.8785  -0.8499  -0.8282  -0.7985
    -0.7438  -0.7367  -0.7208  -0.6637  -0.6469  -0.6073  -0.5845  -0.5732
    -0.5496  -0.5224  -0.4906  -0.4237  -0.3493  -0.3184  -0.2410  -0.1903
    -0.1600  -0.0718  -0.0637   0.0121   0.0471   0.1351   0.1517   0.1648
     0.1947   0.2598   0.3389   0.3573   0.3801   0.4169   0.4684   0.6649
     0.7120   0.8080   0.8359   1.3381   1.3550   1.3944   1.4031   3.3381
     3.3496   3.4955   3.5053   3.6477   3.7142   3.7196   3.7390   3.8102
     3.8513

          k = 0.0380-0.0419 0.0000 ( 17876 PWs)   bands (ev):

   -56.4390 -56.3986 -55.8695 -55.8360 -55.8277 -55.8153 -55.7762 -55.7382
   -55.7125 -55.6985 -55.6559 -55.6211 -55.6127 -55.4678 -55.0406 -55.0167
   -32.8023 -32.7048 -32.6594 -32.6078 -32.5393 -32.5367 -32.3161 -32.2646
   -32.2606 -32.1652 -32.1156 -32.1117 -32.1039 -32.0984 -32.0967 -32.0605
   -32.0550 -32.0446 -32.0276 -32.0224 -32.0138 -31.9944 -31.9782 -31.9766
   -31.9646 -31.9568 -31.9539 -31.9367 -31.9337 -31.9193 -31.9041 -31.8967
   -31.8900 -31.8757 -31.8597 -31.8349 -31.8320 -31.8138 -31.8119 -31.7481
   -31.7165 -31.6745 -31.3860 -31.3847 -31.3646 -31.2440 -31.1844 -31.1177
   -17.5821 -16.6094 -16.3677 -16.2439 -16.0284 -15.9386 -15.8944 -15.8598
   -15.7435 -15.6459 -15.6200 -15.5757 -15.5585 -15.5322 -15.5054 -15.4773
   -15.4230 -15.3976 -15.3376 -15.3167 -15.2954 -15.2672 -15.2222 -15.1843
   -15.1593 -15.1384 -15.1112 -15.0925 -15.0746 -15.0724 -14.7852 -13.5539
   -13.4813  -9.3545  -4.2651  -4.2299  -4.0044  -3.7446  -3.6602  -3.5333
    -3.4512  -3.3493  -3.3013  -3.2645  -3.1527  -3.0864  -3.0407  -2.9690
    -2.9538  -2.8961  -2.8700  -2.8386  -2.8137  -2.7917  -2.7312  -2.7096
    -2.6875  -2.6472  -2.6269  -2.6099  -2.5864  -2.5704  -2.5350  -2.4962
    -2.4435  -2.3756  -2.3603  -2.3044  -2.1972  -2.1719  -2.1260  -2.0314
    -1.9455  -1.9124  -1.8362  -1.6740  -1.6130  -1.5594  -1.5432  -1.4116
    -1.3943  -1.3614  -1.3463  -1.2749  -1.2330  -1.1996  -1.1425  -1.1019
    -1.0712  -1.0562  -1.0060  -0.9745  -0.9329  -0.9159  -0.8804  -0.8538
    -0.8144  -0.7243  -0.7057  -0.6655  -0.6490  -0.6195  -0.5640  -0.5454
    -0.4963  -0.4349  -0.3804  -0.3126  -0.2736  -0.2539  -0.2162  -0.1679
    -0.1277  -0.0953  -0.0548   0.0316   0.0524   0.1375   0.1714   0.2823
     0.3163   0.3786   0.4087   0.4255   0.4693   0.4912   0.5299   0.5946
     0.6313   0.7949   1.0062   1.1956   1.3137   1.3912   1.4526   3.1080
     3.2660   3.3570   3.5168   3.5666   3.6429   3.6792   3.7271   3.7533
     3.7951

          k =-0.0760-0.0000 0.0000 ( 17886 PWs)   bands (ev):

   -56.4422 -56.3954 -55.8704 -55.8380 -55.8288 -55.8172 -55.7738 -55.7363
   -55.7116 -55.6978 -55.6596 -55.6174 -55.6136 -55.4669 -55.0456 -55.0117
   -32.8560 -32.7069 -32.6575 -32.6180 -32.5271 -32.4809 -32.3627 -32.3167
   -32.3128 -32.2044 -32.1692 -32.1361 -32.1070 -32.1052 -32.1003 -32.0684
   -32.0652 -32.0494 -32.0302 -32.0287 -31.9998 -31.9766 -31.9673 -31.9516
   -31.9299 -31.9237 -31.9187 -31.9172 -31.9158 -31.9107 -31.9049 -31.9003
   -31.8957 -31.8617 -31.8562 -31.8232 -31.8198 -31.8104 -31.7813 -31.7226
   -31.6922 -31.6758 -31.4392 -31.3912 -31.3594 -31.2564 -31.1715 -31.0609
   -17.5968 -16.6097 -16.3189 -16.2377 -16.1391 -15.9969 -15.9737 -15.9135
   -15.8293 -15.7282 -15.6982 -15.6333 -15.6014 -15.5879 -15.5828 -15.4322
   -15.4113 -15.3834 -15.3779 -15.2886 -15.2640 -15.1839 -15.1739 -15.1308
   -15.1242 -15.0786 -15.0742 -15.0529 -14.9937 -14.9804 -14.7239 -13.5426
   -13.4389  -9.3540  -4.2930  -4.2327  -4.0301  -3.8199  -3.6325  -3.5500
    -3.4554  -3.4414  -3.3623  -3.3374  -3.2453  -3.2040  -3.1885  -3.1644
    -3.1232  -3.0389  -2.8350  -2.8224  -2.7160  -2.6808  -2.6591  -2.5155
    -2.5005  -2.4897  -2.4463  -2.4185  -2.4168  -2.3813  -2.3503  -2.3247
    -2.3212  -2.2678  -2.2564  -2.2347  -2.1966  -2.1291  -2.0706  -2.0446
    -1.9854  -1.9532  -1.7783  -1.7478  -1.6669  -1.6249  -1.5913  -1.5677
    -1.5585  -1.5099  -1.3843  -1.3548  -1.3375  -1.3226  -1.2765  -1.2592
    -1.2078  -1.1833  -1.1389  -1.0822  -1.0384  -0.9455  -0.9429  -0.8923
    -0.8065  -0.7148  -0.6701  -0.5953  -0.5321  -0.5147  -0.5116  -0.4059
    -0.3991  -0.3609  -0.3351  -0.2946  -0.2421  -0.2169  -0.1767  -0.1168
    -0.0992  -0.0288   0.0265   0.0869   0.0938   0.1373   0.1742   0.2192
     0.3006   0.3563   0.3855   0.4285   0.4697   0.5583   0.6393   0.6568
     0.7316   0.7876   1.0023   1.0412   1.1871   1.2908   1.4074   2.9840
     3.1457   3.2276   3.3152   3.4814   3.5177   3.5575   3.5991   3.6748
     3.6886

          k =-0.0760 0.0419 0.0000 ( 17914 PWs)   bands (ev):

   -56.4390 -56.3986 -55.8695 -55.8357 -55.8281 -55.8153 -55.7763 -55.7382
   -55.7125 -55.6985 -55.6559 -55.6211 -55.6127 -55.4678 -55.0406 -55.0167
   -32.8031 -32.7049 -32.6594 -32.6066 -32.5392 -32.5370 -32.3165 -32.2660
   -32.2615 -32.1702 -32.1187 -32.1069 -32.1024 -32.0977 -32.0939 -32.0603
   -32.0514 -32.0466 -32.0281 -32.0269 -31.9986 -31.9946 -31.9781 -31.9752
   -31.9638 -31.9571 -31.9541 -31.9303 -31.9193 -31.9184 -31.9050 -31.8998
   -31.8989 -31.8919 -31.8598 -31.8361 -31.8335 -31.8175 -31.8120 -31.7481
   -31.7165 -31.6764 -31.3867 -31.3859 -31.3640 -31.2440 -31.1844 -31.1177
   -17.5805 -16.6049 -16.1976 -16.1400 -16.0337 -15.9521 -15.9080 -15.8235
   -15.7491 -15.6792 -15.6463 -15.6257 -15.6049 -15.6014 -15.5438 -15.4766
   -15.4352 -15.3998 -15.3954 -15.3092 -15.2894 -15.2352 -15.2170 -15.2109
   -15.1811 -15.1664 -15.1197 -15.0841 -15.0768 -15.0564 -14.7839 -13.5521
   -13.4816  -9.3544  -4.2461  -4.2402  -3.9913  -3.7671  -3.4669  -3.4179
    -3.2407  -3.1449  -3.1189  -3.0970  -3.0637  -3.0249  -2.9726  -2.9614
    -2.9453  -2.8939  -2.8784  -2.8222  -2.8133  -2.7959  -2.7719  -2.6946
    -2.6697  -2.6610  -2.5786  -2.5722  -2.5288  -2.4965  -2.4760  -2.4659
    -2.4247  -2.4208  -2.3195  -2.2327  -2.1720  -2.0059  -1.9855  -1.9735
    -1.9502  -1.9320  -1.8155  -1.7850  -1.6865  -1.5220  -1.5084  -1.4851
    -1.4543  -1.4330  -1.4059  -1.3965  -1.3070  -1.2895  -1.2618  -1.2235
    -1.1627  -1.1537  -1.1158  -1.1023  -1.0362  -1.0233  -0.9921  -0.9382
    -0.9043  -0.8667  -0.8333  -0.7850  -0.7184  -0.7143  -0.6839  -0.5859
    -0.5524  -0.5017  -0.4672  -0.3784  -0.3563  -0.2767  -0.2502  -0.1870
    -0.1535  -0.0764  -0.0609   0.0010   0.1046   0.1643   0.2270   0.2609
     0.3256   0.4064   0.4317   0.4839   0.5072   0.5355   0.5637   0.6509
     0.7162   0.7557   0.7754   1.2098   1.3175   1.3207   1.4339   3.1075
     3.2904   3.3148   3.4298   3.5281   3.5918   3.6642   3.7160   3.7526
     3.8390

          k =-0.0760-0.0839 0.0000 ( 17948 PWs)   bands (ev):

   -56.4352 -56.4025 -55.8686 -55.8331 -55.8273 -55.8133 -55.7789 -55.7403
   -55.7135 -55.6993 -55.6512 -55.6259 -55.6118 -55.4688 -55.0289 -55.0285
   -32.7026 -32.6855 -32.6618 -32.6577 -32.5870 -32.5591 -32.2502 -32.1863
   -32.1597 -32.1275 -32.1052 -32.1008 -32.0909 -32.0761 -32.0681 -32.0539
   -32.0494 -32.0418 -32.0364 -32.0286 -32.0284 -32.0207 -31.9986 -31.9979
   -31.9951 -31.9800 -31.9685 -31.9535 -31.9453 -31.9392 -31.9184 -31.9052
   -31.9013 -31.8888 -31.8755 -31.8610 -31.8605 -31.8265 -31.8159 -31.7966
   -31.7250 -31.6769 -31.3753 -31.3752 -31.2554 -31.2538 -31.2140 -31.2132
   -17.5641 -16.6007 -15.9840 -15.9045 -15.9004 -15.8889 -15.8623 -15.8203
   -15.7430 -15.7361 -15.6650 -15.5983 -15.5648 -15.5196 -15.4970 -15.4856
   -15.4482 -15.4437 -15.3864 -15.3427 -15.3262 -15.3150 -15.2953 -15.2518
   -15.2461 -15.2434 -15.2198 -15.2041 -15.1540 -15.0539 -14.8672 -13.5439
   -13.5427  -9.3547  -4.2581  -4.1819  -3.9691  -3.7278  -3.2163  -3.1403
    -3.0659  -3.0579  -2.9831  -2.9234  -2.9089  -2.8640  -2.8570  -2.8253
    -2.7536  -2.7431  -2.7301  -2.7198  -2.7123  -2.7036  -2.6811  -2.6357
    -2.6226  -2.6153  -2.5990  -2.5909  -2.5790  -2.5755  -2.5481  -2.5097
    -2.4395  -2.3789  -2.2555  -2.2480  -2.2129  -2.1966  -2.1555  -2.1435
    -2.0898  -1.9978  -1.9856  -1.9829  -1.8940  -1.8376  -1.6242  -1.6091
    -1.5924  -1.5257  -1.4535  -1.3867  -1.3632  -1.3400  -1.3077  -1.2847
    -1.2358  -1.1864  -1.1516  -1.1153  -1.0991  -1.0605  -1.0078  -0.9584
    -0.9071  -0.9032  -0.8600  -0.8126  -0.7818  -0.7019  -0.6960  -0.6726
    -0.6492  -0.6098  -0.5247  -0.4729  -0.4300  -0.3356  -0.2939  -0.2606
    -0.1204  -0.0615  -0.0245   0.0511   0.0944   0.1956   0.2201   0.2967
     0.3093   0.3383   0.3629   0.4370   0.5053   0.5613   0.6031   0.6470
     0.6585   0.7079   0.7704   1.3649   1.3654   1.3727   1.3804   3.4046
     3.4294   3.4372   3.4670   3.6935   3.7112   3.7833   3.8127   3.8307
     3.8824

     the Fermi energy is     2.2690 ev

!    total energy              =   -2965.10866451 Ry
     estimated scf accuracy    <       0.00000003 Ry
     smearing contrib. (-TS)   =      -0.00015939 Ry
     internal energy E=F+TS    =   -2965.10850512 Ry

     The total energy is F=E-TS. E is the sum of the following terms:
     one-electron contribution =  -24222.48608393 Ry
     hartree contribution      =   12200.54468653 Ry
     xc contribution           =    -490.02858942 Ry
     ewald contribution        =    9546.86094014 Ry
     electric field correction =       0.00054157 Ry

     convergence has been achieved in  66 iterations

     Forces acting on atoms (cartesian axes, Ry/au):

     atom    1 type  1   force =    -0.00002105    0.00003586    0.13238918
     atom    2 type  1   force =    -0.00019444    0.00778769   -0.15739569
     atom    3 type  2   force =     0.00008440   -0.00480361   -0.05218779
     atom    4 type  2   force =     0.00035797    0.00109094    0.04042093
     atom    5 type  2   force =    -0.00610743   -0.00278512   -0.00019206
     atom    6 type  2   force =     0.00839310   -0.00338507    0.00078678
     atom    7 type  1   force =    -0.00003034   -0.00015150   -0.00002792
     atom    8 type  1   force =     0.00021209   -0.00057203    0.00039713
     atom    9 type  2   force =    -0.00004551    0.00020671   -0.00004166
     atom   10 type  2   force =    -0.00014454   -0.00037845   -0.00016374
     atom   11 type  2   force =     0.00042582    0.00026569   -0.00017635
     atom   12 type  2   force =    -0.00025969    0.00016309   -0.00003934
     atom   13 type  1   force =    -0.00068826    0.00048296   -0.00028887
     atom   14 type  1   force =     0.00007509   -0.00032658   -0.00020369
     atom   15 type  2   force =    -0.00021783    0.00002686   -0.00073975
     atom   16 type  2   force =    -0.00033550    0.00010759    0.00005242
     atom   17 type  2   force =     0.00006423   -0.00001923   -0.00000571
     atom   18 type  2   force =    -0.00069371    0.00019359   -0.00015519
     atom   19 type  1   force =     0.00011322   -0.00043189   -0.00005273
     atom   20 type  1   force =    -0.00007562   -0.00028337    0.00018635
     atom   21 type  2   force =    -0.00002462    0.00001966    0.09910892
     atom   22 type  2   force =     0.00001306    0.00011429    0.00013176
     atom   23 type  2   force =    -0.08089774    0.00049120   -0.03409119
     atom   24 type  2   force =     0.08069576    0.00095716   -0.03415432
     atom   25 type  1   force =    -0.00001498   -0.00027535    0.14100506
     atom   26 type  1   force =    -0.00012916   -0.00647436   -0.15703737
     atom   27 type  2   force =     0.00016218    0.00109371   -0.05218831
     atom   28 type  2   force =     0.00018731    0.00033690    0.04175468
     atom   29 type  2   force =    -0.00752445    0.00512383    0.00201629
     atom   30 type  2   force =     0.00859492    0.00383179    0.00272069
     atom   31 type  1   force =    -0.00002836    0.00016476   -0.00000098
     atom   32 type  1   force =     0.00030670   -0.00006500   -0.00051704
     atom   33 type  2   force =    -0.00005905    0.00040071    0.00021566
     atom   34 type  2   force =    -0.00011943    0.00019360    0.00039125
     atom   35 type  2   force =    -0.00050823   -0.00034828   -0.00006083
     atom   36 type  2   force =     0.00049171   -0.00044050    0.00017153
     atom   37 type  1   force =    -0.00056299   -0.00029326   -0.00011663
     atom   38 type  1   force =     0.00001771   -0.00002003   -0.00042730
     atom   39 type  2   force =    -0.00000356   -0.00014143   -0.00021595
     atom   40 type  2   force =    -0.00014121   -0.00014674   -0.00033680
     atom   41 type  2   force =    -0.00008041    0.00015312   -0.00041291
     atom   42 type  2   force =    -0.00009626    0.00031747   -0.00017656
     atom   43 type  1   force =    -0.00016268    0.00037039   -0.00008258
     atom   44 type  1   force =    -0.00002844   -0.00033141    0.00025292
     atom   45 type  2   force =    -0.00003035    0.00012423    0.09866045
     atom   46 type  2   force =    -0.08085626   -0.00164641   -0.03409117
     atom   47 type  2   force =     0.08066366   -0.00117459   -0.03415867
     atom   48 type  3   force =     0.00095886    0.00046666    0.00164493
     atom   49 type  2   force =    -0.00131994    0.00009135   -0.00023940
     atom   50 type  4   force =    -0.00109607    0.00009683   -0.00228192
     atom   51 type  4   force =     0.00066479    0.00004816    0.00012578
     atom   52 type  4   force =     0.00044351    0.00042266    0.00022689
     atom   53 type  2   force =     0.00034591   -0.00027255   -0.00127076
     atom   54 type  4   force =    -0.00077385   -0.00041271    0.00087153

     Total force =     0.382688     Total SCF correction =     0.000398
  @ DRIVER MODE: Message from server: STATUS
  @ DRIVER MODE: Message from server: GETFORCE
  @ DRIVER MODE: Returning v,forces,stress,ensemble 

     Writing output data file ./calc.save/
  @ DRIVER MODE: Message from server: EXIT
  @ DRIVE MODE: Exiting  
 
     init_run     :     10.80s CPU     11.07s WALL (       1 calls)
     electrons    :   1080.57s CPU   1096.17s WALL (       1 calls)
     forces       :      2.32s CPU      2.42s WALL (       1 calls)

     Called by init_run:
     wfcinit      :      4.80s CPU      4.86s WALL (       1 calls)
     potinit      :      5.32s CPU      5.39s WALL (       1 calls)
     hinit0       :      0.34s CPU      0.36s WALL (       1 calls)

     Called by electrons:
     c_bands      :    923.36s CPU    929.83s WALL (      66 calls)
     sum_band     :    106.46s CPU    110.12s WALL (      66 calls)
     v_of_rho     :     39.29s CPU     41.20s WALL (      67 calls)
     newd         :     14.60s CPU     18.17s WALL (      67 calls)
     mix_rho      :      1.45s CPU      1.49s WALL (      66 calls)
     vdW_kernel   :      4.54s CPU      4.56s WALL (       1 calls)

     Called by c_bands:
     init_us_2    :      7.33s CPU      7.36s WALL (    1340 calls)
     cegterg      :    904.41s CPU    910.56s WALL (     670 calls)

     Called by *egterg:
     cdiaghg      :    139.90s CPU    140.54s WALL (    6214 calls)
     h_psi        :    484.88s CPU    489.13s WALL (    6224 calls)
     s_psi        :     63.85s CPU     64.04s WALL (    6224 calls)
     g_psi        :      1.95s CPU      1.96s WALL (    5544 calls)

     Called by h_psi:
     h_psi:calbec :     60.72s CPU     61.03s WALL (    6224 calls)
     vloc_psi     :    355.33s CPU    358.72s WALL (    6224 calls)
     add_vuspsi   :     64.96s CPU     65.31s WALL (    6224 calls)

     General routines
     calbec       :     79.81s CPU     80.18s WALL (    6924 calls)
     fft          :     20.26s CPU     20.46s WALL (    4221 calls)
     ffts         :      0.13s CPU      0.13s WALL (     133 calls)
     fftw         :    395.65s CPU    399.43s WALL (  938200 calls)
     interpolate  :      0.42s CPU      0.42s WALL (      67 calls)
     davcio       :      0.00s CPU      2.43s WALL (      10 calls)
 
     Parallel routines
 
     PWSCF        :  18m14.11s CPU  18m37.50s WALL

 
   This run was terminated on:  22:19:20  22Sep2021            

=------------------------------------------------------------------------------=
   JOB DONE.
=------------------------------------------------------------------------------=
