
     Program PWSCF v.6.7GPU starts on  2Aug2021 at 16:37:55 

     This program is part of the open-source Quantum ESPRESSO suite
     for quantum simulation of materials; please cite
         "P. Giannozzi et al., J. Phys.:Condens. Matter 21 395502 (2009);
         "P. Giannozzi et al., J. Phys.:Condens. Matter 29 465901 (2017);
         "P. Giannozzi et al., J. Chem. Phys. 152 154105 (2020);
          URL http://www.quantum-espresso.org", 
     in publications or presentations arising from this work. More details at
     http://www.quantum-espresso.org/quote

     Parallel version (MPI), running on    16 processors

     MPI processes distributed on     1 nodes
     R & G space division:  proc/nbgrp/npool/nimage =      16
     Reading input from /storage/home/hcoda1/3/ntian30/research/carbon/02Aug_vib_paired/ads_slab/CH3NNH3_a/out_0016/pw.inp
Warning: card &CELL ignored
Warning: card   CELL_DYNAMICS='IPI', ignored
Warning: card / ignored

     Current dimensions of program PWSCF are:
     Max number of different atomic species (ntypx) = 10
     Max number of k-points (npk) =  40000
     Max angular momentum in pseudopotentials (lmaxx) =  3
     Presently no symmetry can be used with electric field

     Message from routine cell_base_init:
     DEPRECATED: use true lattice parameter, not A to a.u. conversion factor

     **************************************************************************
     Initializing libbeef V0.1.2 with the BEEF-vdW functional.
     Citation: Wellendorff et al., PRB 85, 235149 (2012).
     **************************************************************************


     IMPORTANT: XC functional enforced from input :
     Exchange-correlation= BEEF-VDW
                           (   1   4  43  14   2   0   0)
     Any further DFT definition will be discarded
     Please, verify this is what you really want


     Subspace diagonalization in iterative solution of the eigenvalue problem:
     one sub-group per band group will be used
     scalapack distributed-memory algorithm (size of sub-group:  4*  4 procs)

  @ DRIVER MODE: Connecting to 
 qe_1139763_2482544.sched-torque.pace.gatech.edu8sxonf6s_scratch
  using UNIX socket
  @ DRIVER MODE: Message from server: STATUS
  @ DRIVER MODE: Message from server: INIT
  @ DRIVER MODE: Receiving replica           0          -1
  @ DRIVER MODE: Receiving encoded integer          25
  @ DRIVER MODE:  SCF:  T  FORCE:  T  STRESS:  F  VC:  F  ENSEMBLE:  F
  @ DRIVER MODE:  SCF:  T  FORCE:  T  STRESS:  F  VC:  F  ENSEMBLE:  F
 
     Parallelization info
     --------------------
     sticks:   dense  smooth     PW     G-vecs:    dense   smooth      PW
     Min         204      82     23                35422     8962    1367
     Max         205      84     24                35435     8968    1382
     Sum        3275    1317    379               566857   143421   21985
 
     Using Slab Decomposition
 


     bravais-lattice index     =            0
     lattice parameter (alat)  =       1.8897  a.u.
     unit-cell volume          =    6658.9804 (a.u.)^3
     number of atoms/cell      =           56
     number of atomic types    =            5
     number of electrons       =       398.00
     number of Kohn-Sham states=          209
     kinetic-energy cutoff     =      29.3995  Ry
     charge density cutoff     =     293.9946  Ry
     scf convergence threshold =      7.3E-08
     mixing beta               =       0.0500
     number of iterations used =            8  plain     mixing
     Exchange-correlation= BEEF-VDW
                           (   1   4  43  14   2   0   0)

     celldm(1)=   1.889726  celldm(2)=   0.000000  celldm(3)=   0.000000
     celldm(4)=   0.000000  celldm(5)=   0.000000  celldm(6)=   0.000000

     crystal axes: (cart. coord. in units of alat)
               a(1) = (   6.579727   0.000000   0.000000 )  
               a(2) = (  -0.000775   5.961596   0.000000 )  
               a(3) = (   0.000000   0.000000  25.155947 )  

     reciprocal axes: (cart. coord. in units 2 pi/alat)
               b(1) = (  0.151982  0.000020  0.000000 )  
               b(2) = (  0.000000  0.167740  0.000000 )  
               b(3) = (  0.000000  0.000000  0.039752 )  


     PseudoPot. # 1 for Ti read from file:
     /storage/coda1/p-amedford6/0/shared/rich_project_chbe-medford/medford-share/data/pseudos_module/espresso/nninc/pbe/van/Ti.UPF
     MD5 check sum: 8e4df49b7f0d34bbd5052bf3f5ea0213
     Pseudo is Ultrasoft, Zval = 12.0
     Generated by new atomic code, or converted to UPF format
     Using radial grid of  851 points,  6 beta functions with: 
                l(1) =   0
                l(2) =   0
                l(3) =   1
                l(4) =   1
                l(5) =   2
                l(6) =   2
     Q(r) pseudized with  8 coefficients,  rinner =    1.000   1.000   1.000
                                                       1.000   1.000

     PseudoPot. # 2 for O  read from file:
     /storage/coda1/p-amedford6/0/shared/rich_project_chbe-medford/medford-share/data/pseudos_module/espresso/nninc/pbe/van/O.UPF
     MD5 check sum: 78c19812648e8988a0fe644b0f25305e
     Pseudo is Ultrasoft, Zval =  6.0
     Generated by new atomic code, or converted to UPF format
     Using radial grid of  737 points,  4 beta functions with: 
                l(1) =   0
                l(2) =   0
                l(3) =   1
                l(4) =   1
     Q(r) pseudized with  8 coefficients,  rinner =    0.800   0.800   0.800


     PseudoPot. # 3 for N  read from file:
     /storage/coda1/p-amedford6/0/shared/rich_project_chbe-medford/medford-share/data/pseudos_module/espresso/nninc/pbe/van/N.UPF
     MD5 check sum: 90d10febe142ad51ac9d5be1deb811c4
     Pseudo is Ultrasoft, Zval =  5.0
     Generated by new atomic code, or converted to UPF format
     Using radial grid of  729 points,  4 beta functions with: 
                l(1) =   0
                l(2) =   0
                l(3) =   1
                l(4) =   1
     Q(r) pseudized with  8 coefficients,  rinner =    0.800   0.800   0.800


     PseudoPot. # 4 for C  read from file:
     /storage/coda1/p-amedford6/0/shared/rich_project_chbe-medford/medford-share/data/pseudos_module/espresso/nninc/pbe/van/C.UPF
     MD5 check sum: 1a69bf6b8db32088f5b2163dbdb77a27
     Pseudo is Ultrasoft, Zval =  4.0
     Generated by new atomic code, or converted to UPF format
     Using radial grid of  721 points,  4 beta functions with: 
                l(1) =   0
                l(2) =   0
                l(3) =   1
                l(4) =   1
     Q(r) pseudized with  8 coefficients,  rinner =    0.800   0.800   0.800


     PseudoPot. # 5 for H  read from file:
     /storage/coda1/p-amedford6/0/shared/rich_project_chbe-medford/medford-share/data/pseudos_module/espresso/nninc/pbe/van/H.UPF
     MD5 check sum: b5ee9d7bfd3a09ee7748110bda690ff7
     Pseudo is Ultrasoft, Zval =  1.0
     Generated by new atomic code, or converted to UPF format
     Using radial grid of  615 points,  1 beta functions with: 
                l(1) =   0
     Q(r) pseudized with  8 coefficients,  rinner =    0.800

     atomic species   valence    mass     pseudopotential
        Ti1           12.00    47.86700     Ti( 1.00)
        O1             6.00    15.99900     O ( 1.00)
        N1             5.00    14.00700     N ( 1.00)
        C1             4.00    12.01100     C ( 1.00)
        H1             1.00     1.00800     H ( 1.00)

     No symmetry found



   Cartesian axes

     site n.     atom                  positions (alat units)
         1           Ti1 tau(   1) = (   0.0004258   2.9801865   6.0000000  )
         2           Ti1 tau(   2) = (   3.2906075   1.4906267   6.0002472  )
         3           O1  tau(   3) = (   0.0006271   0.0005054   7.9858123  )
         4           O1  tau(   4) = (   3.2906025   0.0005020   7.3038282  )
         5           O1  tau(   5) = (   4.5942328   1.4918067   9.2879030  )
         6           O1  tau(   6) = (   1.9868534   1.4903216   9.2879459  )
         7           Ti1 tau(   7) = (   3.2907910   2.8959150   9.1758416  )
         8           Ti1 tau(   8) = (   0.0015273   1.4827037   9.2680791  )
         9           O1  tau(   9) = (   3.2727297   5.9424138  11.2974721  )
        10           O1  tau(  10) = (   0.0116148   5.9584955  10.6183126  )
        11           O1  tau(  11) = (   1.3027692   1.4721713  12.6242268  )
        12           O1  tau(  12) = (   5.2784376   1.4723552  12.6258992  )
        13           Ti1 tau(  13) = (   6.4570204   2.9507206  12.7630554  )
        14           Ti1 tau(  14) = (   3.1467966   1.4649636  12.4688949  )
        15           O1  tau(  15) = (   6.5600513   5.9133837  14.5918744  )
        16           O1  tau(  16) = (   3.2766225   5.9390981  13.8789110  )
        17           O1  tau(  17) = (   4.4915826   1.4834571  16.0540230  )
        18           O1  tau(  18) = (   2.0416982   1.4849982  16.0411193  )
        19           Ti1 tau(  19) = (   3.2679172   2.9642910  15.6858091  )
        20           Ti1 tau(  20) = (   6.5495220   1.5641796  16.1095294  )
        21           O1  tau(  21) = (   3.2904802   0.0005063   4.7018136  )
        22           O1  tau(  22) = (   6.5606002   0.0080969  17.2010096  )
        23           O1  tau(  23) = (   1.3043587   1.4918075   6.0039043  )
        24           O1  tau(  24) = (   5.2767064   1.4903225   6.0039473  )
        25           Ti1 tau(  25) = (   0.0000382   5.9609847   6.0000000  )
        26           Ti1 tau(  26) = (   3.2902200   4.4714249   6.0002472  )
        27           O1  tau(  27) = (   0.0002396   2.9813036   7.9858123  )
        28           O1  tau(  28) = (   3.2902150   2.9813002   7.3038282  )
        29           O1  tau(  29) = (   4.5938453   4.4726049   9.2879030  )
        30           O1  tau(  30) = (   1.9864658   4.4711199   9.2879459  )
        31           Ti1 tau(  31) = (   3.2891106   5.8743827   9.1763621  )
        32           Ti1 tau(  32) = (   0.0006254   4.4649316   9.2693709  )
        33           O1  tau(  33) = (   3.2718307   2.9587034  11.2961003  )
        34           O1  tau(  34) = (   0.0092240   2.9805883  10.6323155  )
        35           O1  tau(  35) = (   1.3028232   4.4416136  12.6207192  )
        36           O1  tau(  36) = (   5.2777600   4.4366566  12.6238879  )
        37           Ti1 tau(  37) = (   6.4830488   5.9304874  12.7660964  )
        38           Ti1 tau(  38) = (   3.1463657   4.4448748  12.4639736  )
        39           O1  tau(  39) = (   6.5417323   2.9404903  14.6589984  )
        40           O1  tau(  40) = (   3.2789452   2.9619718  13.8791424  )
        41           O1  tau(  41) = (   4.4971312   4.4676043  16.0556370  )
        42           O1  tau(  42) = (   2.0400509   4.4648231  16.0515753  )
        43           Ti1 tau(  43) = (   3.2598176   5.9476019  15.6881950  )
        44           Ti1 tau(  44) = (   6.5485469   4.5424454  16.1156095  )
        45           O1  tau(  45) = (   3.2900926   2.9813045   4.7018136  )
        46           O1  tau(  46) = (   1.3039711   4.4726057   6.0039043  )
        47           O1  tau(  47) = (   5.2763189   4.4711207   6.0039473  )
        48           N1  tau(  48) = (   0.0016189   2.9795595  17.3279962  )
        49           C1  tau(  49) = (   0.1681806   3.0735589  18.7581663  )
        50           H1  tau(  50) = (   6.0068595   3.7617258  19.1994632  )
        51           H1  tau(  51) = (   0.0766375   2.0971904  19.2409400  )
        52           H1  tau(  52) = (   1.1565538   3.4901639  19.0026035  )
        53           N1  tau(  53) = (   4.7601180   1.8141088  21.6614004  )
        54           H1  tau(  54) = (   4.4666586   2.7830198  21.5980365  )
        55           H1  tau(  55) = (   4.1231612   1.2775871  21.0809158  )
        56           H1  tau(  56) = (   4.6015807   1.5257772  22.6208530  )

     number of k points=    10  Fermi-Dirac smearing, width (Ry)=  0.0073
                       cart. coord. in units 2pi/alat
        k(    1) = (   0.0000000   0.0000000   0.0000000), wk =   0.1250000
        k(    2) = (   0.0000000   0.0419351   0.0000000), wk =   0.2500000
        k(    3) = (   0.0000000  -0.0838702   0.0000000), wk =   0.1250000
        k(    4) = (   0.0379955   0.0000049   0.0000000), wk =   0.2500000
        k(    5) = (   0.0379955   0.0419400   0.0000000), wk =   0.2500000
        k(    6) = (   0.0379955  -0.0838652   0.0000000), wk =   0.2500000
        k(    7) = (   0.0379955  -0.0419301   0.0000000), wk =   0.2500000
        k(    8) = (  -0.0759910  -0.0000099   0.0000000), wk =   0.1250000
        k(    9) = (  -0.0759910   0.0419252   0.0000000), wk =   0.2500000
        k(   10) = (  -0.0759910  -0.0838800   0.0000000), wk =   0.1250000

     Dense  grid:   566857 G-vectors     FFT dimensions: (  72,  64, 270)

     Smooth grid:   143421 G-vectors     FFT dimensions: (  45,  40, 180)

     Estimated max dynamical RAM per process >     230.24 MB

     Estimated total dynamical RAM >       3.60 GB
     Cannot read rho : file not found

     Initial potential from superposition of free atoms

     starting charge  381.99914, renormalised to  398.00000

     negative rho (up, down):  9.479E-03 0.000E+00


     %%%%%%%%%%%%%%%%%%%%%%%%%%%%%%%%%%%%%%%%%%%%%%%%%%%%%%%%%%%%%%%%%%%%%%%%
     %                                                                      %
     % You are using vdW-DF, which was implemented by the Thonhauser group. %
     % Please cite the following two papers that made this development      %
     % possible and the two reviews that describe the various versions:     %
     %                                                                      %
     %   T. Thonhauser et al., PRL 115, 136402 (2015).                      %
     %   T. Thonhauser et al., PRB 76, 125112 (2007).                       %
     %   K. Berland et al., Rep. Prog. Phys. 78, 066501 (2015).             %
     %   D.C. Langreth et al., J. Phys.: Condens. Matter 21, 084203 (2009). %
     %                                                                      %
     %                                                                      %
     % If you are calculating the stress with vdW-DF, please also cite:     %
     %                                                                      %
     %   R. Sabatini et al., J. Phys.: Condens. Matter 24, 424209 (2012).   %
     %                                                                      %
     %%%%%%%%%%%%%%%%%%%%%%%%%%%%%%%%%%%%%%%%%%%%%%%%%%%%%%%%%%%%%%%%%%%%%%%%


 
     Adding external electric field

     Computed dipole along edir(3) : 
        Dipole              -11.3717 Ry au,        -28.9040 Debye
        Dipole field         -0.0215 Ry au, 
 
        Potential amp.        1.9893 Ry
        Total length         46.3494 bohr
 
     Starting wfcs are  302 atomic wfcs
  @ DRIVER MODE: Message from server: STATUS
  @ DRIVER MODE: Message from server: POSDATA
  @ DRIVER MODE: Reading and sharing cell 
  @ DRIVER MODE: Reading and sharing positions 
  @ DRIVER MODE: Received positions 

     total cpu time spent up to now is       32.1 secs

     Self-consistent Calculation

     iteration #  1     ecut=    29.40 Ry     beta= 0.05
     Davidson diagonalization with overlap
     c_bands:  1 eigenvalues not converged
     c_bands:  1 eigenvalues not converged
     c_bands:  2 eigenvalues not converged
     c_bands:  1 eigenvalues not converged
     c_bands:  1 eigenvalues not converged
     c_bands:  1 eigenvalues not converged
     c_bands:  1 eigenvalues not converged
     c_bands:  2 eigenvalues not converged
     c_bands:  2 eigenvalues not converged
     ethr =  1.00E-05,  avg # of iterations = 19.6

     negative rho (up, down):  8.258E-03 0.000E+00
 
     Adding external electric field

     Computed dipole along edir(3) : 
        Dipole               44.5740 Ry au,        113.2959 Debye
        Dipole field          0.0841 Ry au, 
 
        Potential amp.       -7.7975 Ry
        Total length         46.3494 bohr
 

     total cpu time spent up to now is       84.2 secs

     total energy              =   -2520.81251520 Ry
     estimated scf accuracy    <    4705.96723369 Ry

     iteration #  2     ecut=    29.40 Ry     beta= 0.05
     Davidson diagonalization with overlap
     ethr =  1.00E-02,  avg # of iterations = 22.0

     negative rho (up, down):  1.382E-03 0.000E+00
 
     Adding external electric field

     Computed dipole along edir(3) : 
        Dipole               -3.6432 Ry au,         -9.2600 Debye
        Dipole field         -0.0069 Ry au, 
 
        Potential amp.        0.6373 Ry
        Total length         46.3494 bohr
 

     total cpu time spent up to now is      142.7 secs

     total energy              =   -2441.01317599 Ry
     estimated scf accuracy    <   72113.47867481 Ry

     iteration #  3     ecut=    29.40 Ry     beta= 0.05
     Davidson diagonalization with overlap
     ethr =  1.00E-02,  avg # of iterations = 15.6

     negative rho (up, down):  1.454E-03 0.000E+00
 
     Adding external electric field

     Computed dipole along edir(3) : 
        Dipole               -5.2929 Ry au,        -13.4533 Debye
        Dipole field         -0.0100 Ry au, 
 
        Potential amp.        0.9259 Ry
        Total length         46.3494 bohr
 

     total cpu time spent up to now is      196.8 secs

     total energy              =   -2929.64102822 Ry
     estimated scf accuracy    <    4556.32415760 Ry

     iteration #  4     ecut=    29.40 Ry     beta= 0.05
     Davidson diagonalization with overlap
     c_bands:  2 eigenvalues not converged
     ethr =  1.00E-02,  avg # of iterations = 15.7

     negative rho (up, down):  1.475E-03 0.000E+00
 
     Adding external electric field

     Computed dipole along edir(3) : 
        Dipole               -6.0365 Ry au,        -15.3433 Debye
        Dipole field         -0.0114 Ry au, 
 
        Potential amp.        1.0560 Ry
        Total length         46.3494 bohr
 

     total cpu time spent up to now is      212.0 secs

     total energy              =   -2934.13923997 Ry
     estimated scf accuracy    <    1427.97940848 Ry

     iteration #  5     ecut=    29.40 Ry     beta= 0.05
     Davidson diagonalization with overlap
     ethr =  1.00E-02,  avg # of iterations =  6.8

     negative rho (up, down):  1.503E-03 0.000E+00
 
     Adding external electric field

     Computed dipole along edir(3) : 
        Dipole               -6.7270 Ry au,        -17.0983 Debye
        Dipole field         -0.0127 Ry au, 
 
        Potential amp.        1.1768 Ry
        Total length         46.3494 bohr
 

     total cpu time spent up to now is      221.6 secs

     total energy              =   -2923.64654137 Ry
     estimated scf accuracy    <     919.98756494 Ry

     iteration #  6     ecut=    29.40 Ry     beta= 0.05
     Davidson diagonalization with overlap
     ethr =  1.00E-02,  avg # of iterations = 11.2

     negative rho (up, down):  1.276E-03 0.000E+00
 
     Adding external electric field

     Computed dipole along edir(3) : 
        Dipole               -5.5468 Ry au,        -14.0985 Debye
        Dipole field         -0.0105 Ry au, 
 
        Potential amp.        0.9703 Ry
        Total length         46.3494 bohr
 

     total cpu time spent up to now is      237.3 secs

     total energy              =   -2946.34543357 Ry
     estimated scf accuracy    <      29.91606410 Ry

     iteration #  7     ecut=    29.40 Ry     beta= 0.05
     Davidson diagonalization with overlap
     ethr =  7.52E-03,  avg # of iterations =  1.6

     negative rho (up, down):  1.385E-03 0.000E+00
 
     Adding external electric field

     Computed dipole along edir(3) : 
        Dipole               -4.7074 Ry au,        -11.9649 Debye
        Dipole field         -0.0089 Ry au, 
 
        Potential amp.        0.8235 Ry
        Total length         46.3494 bohr
 

     total cpu time spent up to now is      244.7 secs

     total energy              =   -2946.30696373 Ry
     estimated scf accuracy    <      20.57352542 Ry

     iteration #  8     ecut=    29.40 Ry     beta= 0.05
     Davidson diagonalization with overlap
     ethr =  5.17E-03,  avg # of iterations =  1.3

     negative rho (up, down):  1.756E-03 0.000E+00
 
     Adding external electric field

     Computed dipole along edir(3) : 
        Dipole               -2.2832 Ry au,         -5.8033 Debye
        Dipole field         -0.0043 Ry au, 
 
        Potential amp.        0.3994 Ry
        Total length         46.3494 bohr
 

     total cpu time spent up to now is      251.9 secs

     total energy              =   -2945.74884369 Ry
     estimated scf accuracy    <      19.26777291 Ry

     iteration #  9     ecut=    29.40 Ry     beta= 0.05
     Davidson diagonalization with overlap
     c_bands:  2 eigenvalues not converged
     c_bands:  4 eigenvalues not converged
     c_bands:  3 eigenvalues not converged
     c_bands:  2 eigenvalues not converged
     ethr =  4.84E-03,  avg # of iterations = 12.8

     negative rho (up, down):  1.471E-03 0.000E+00
 
     Adding external electric field

     Computed dipole along edir(3) : 
        Dipole               -3.7785 Ry au,         -9.6039 Debye
        Dipole field         -0.0071 Ry au, 
 
        Potential amp.        0.6610 Ry
        Total length         46.3494 bohr
 

     total cpu time spent up to now is      264.3 secs

     total energy              =   -2942.32542314 Ry
     estimated scf accuracy    <    1021.43197320 Ry

     iteration # 10     ecut=    29.40 Ry     beta= 0.05
     Davidson diagonalization with overlap
     ethr =  4.84E-03,  avg # of iterations =  2.2

     negative rho (up, down):  1.925E-03 0.000E+00
 
     Adding external electric field

     Computed dipole along edir(3) : 
        Dipole               -0.9734 Ry au,         -2.4741 Debye
        Dipole field         -0.0018 Ry au, 
 
        Potential amp.        0.1703 Ry
        Total length         46.3494 bohr
 

     total cpu time spent up to now is      272.1 secs

     total energy              =   -2952.21095285 Ry
     estimated scf accuracy    <     210.54005111 Ry

     iteration # 11     ecut=    29.40 Ry     beta= 0.05
     Davidson diagonalization with overlap
     c_bands:  1 eigenvalues not converged
     c_bands:  2 eigenvalues not converged
     c_bands:  3 eigenvalues not converged
     c_bands:  4 eigenvalues not converged
     ethr =  4.84E-03,  avg # of iterations = 12.2

     negative rho (up, down):  1.176E-03 0.000E+00
 
     Adding external electric field

     Computed dipole along edir(3) : 
        Dipole               -4.3711 Ry au,        -11.1103 Debye
        Dipole field         -0.0082 Ry au, 
 
        Potential amp.        0.7647 Ry
        Total length         46.3494 bohr
 

     total cpu time spent up to now is      287.1 secs

     total energy              =   -2922.20220505 Ry
     estimated scf accuracy    <    1682.59291489 Ry

     iteration # 12     ecut=    29.40 Ry     beta= 0.05
     Davidson diagonalization with overlap
     ethr =  4.84E-03,  avg # of iterations = 13.7

     negative rho (up, down):  1.388E-03 0.000E+00
 
     Adding external electric field

     Computed dipole along edir(3) : 
        Dipole               -2.2433 Ry au,         -5.7020 Debye
        Dipole field         -0.0042 Ry au, 
 
        Potential amp.        0.3924 Ry
        Total length         46.3494 bohr
 

     total cpu time spent up to now is      304.0 secs

     total energy              =   -2942.71865928 Ry
     estimated scf accuracy    <       6.18404885 Ry

     iteration # 13     ecut=    29.40 Ry     beta= 0.05
     Davidson diagonalization with overlap
     ethr =  1.55E-03,  avg # of iterations =  3.7

     negative rho (up, down):  1.760E-03 0.000E+00
 
     Adding external electric field

     Computed dipole along edir(3) : 
        Dipole                0.0625 Ry au,          0.1588 Debye
        Dipole field          0.0001 Ry au, 
 
        Potential amp.       -0.0109 Ry
        Total length         46.3494 bohr
 

     total cpu time spent up to now is      312.4 secs

     total energy              =   -2943.31296618 Ry
     estimated scf accuracy    <      11.51158091 Ry

     iteration # 14     ecut=    29.40 Ry     beta= 0.05
     Davidson diagonalization with overlap
     c_bands:  1 eigenvalues not converged
     c_bands:  3 eigenvalues not converged
     c_bands:  4 eigenvalues not converged
     c_bands:  1 eigenvalues not converged
     c_bands:  3 eigenvalues not converged
     ethr =  1.55E-03,  avg # of iterations = 18.3

     negative rho (up, down):  1.641E-03 0.000E+00
 
     Adding external electric field

     Computed dipole along edir(3) : 
        Dipole               -0.5952 Ry au,         -1.5129 Debye
        Dipole field         -0.0011 Ry au, 
 
        Potential amp.        0.1041 Ry
        Total length         46.3494 bohr
 

     total cpu time spent up to now is      329.1 secs

     total energy              =   -2946.06258055 Ry
     estimated scf accuracy    <    1022.00466518 Ry

     iteration # 15     ecut=    29.40 Ry     beta= 0.05
     Davidson diagonalization with overlap
     ethr =  1.55E-03,  avg # of iterations =  1.4

     negative rho (up, down):  1.713E-03 0.000E+00
 
     Adding external electric field

     Computed dipole along edir(3) : 
        Dipole               -0.2223 Ry au,         -0.5650 Debye
        Dipole field         -0.0004 Ry au, 
 
        Potential amp.        0.0389 Ry
        Total length         46.3494 bohr
 

     total cpu time spent up to now is      336.4 secs

     total energy              =   -2948.36320285 Ry
     estimated scf accuracy    <     655.86734821 Ry

     iteration # 16     ecut=    29.40 Ry     beta= 0.05
     Davidson diagonalization with overlap
     ethr =  1.55E-03,  avg # of iterations =  2.6

     negative rho (up, down):  1.650E-03 0.000E+00
 
     Adding external electric field

     Computed dipole along edir(3) : 
        Dipole               -1.1103 Ry au,         -2.8220 Debye
        Dipole field         -0.0021 Ry au, 
 
        Potential amp.        0.1942 Ry
        Total length         46.3494 bohr
 

     total cpu time spent up to now is      344.0 secs

     total energy              =   -2939.72505705 Ry
     estimated scf accuracy    <     985.84488639 Ry

     iteration # 17     ecut=    29.40 Ry     beta= 0.05
     Davidson diagonalization with overlap
     c_bands:  3 eigenvalues not converged
     c_bands:  2 eigenvalues not converged
     c_bands:  2 eigenvalues not converged
     ethr =  1.55E-03,  avg # of iterations = 17.3

     negative rho (up, down):  1.674E-03 0.000E+00
 
     Adding external electric field

     Computed dipole along edir(3) : 
        Dipole               -0.5935 Ry au,         -1.5085 Debye
        Dipole field         -0.0011 Ry au, 
 
        Potential amp.        0.1038 Ry
        Total length         46.3494 bohr
 

     total cpu time spent up to now is      359.9 secs

     total energy              =   -2944.20388879 Ry
     estimated scf accuracy    <      57.66432107 Ry

     iteration # 18     ecut=    29.40 Ry     beta= 0.05
     Davidson diagonalization with overlap
     ethr =  1.55E-03,  avg # of iterations =  2.4

     negative rho (up, down):  1.718E-03 0.000E+00
 
     Adding external electric field

     Computed dipole along edir(3) : 
        Dipole               -0.4977 Ry au,         -1.2650 Debye
        Dipole field         -0.0009 Ry au, 
 
        Potential amp.        0.0871 Ry
        Total length         46.3494 bohr
 

     total cpu time spent up to now is      367.5 secs

     total energy              =   -2944.88070784 Ry
     estimated scf accuracy    <     168.51220033 Ry

     iteration # 19     ecut=    29.40 Ry     beta= 0.05
     Davidson diagonalization with overlap
     ethr =  1.55E-03,  avg # of iterations =  1.0

     negative rho (up, down):  1.674E-03 0.000E+00
 
     Adding external electric field

     Computed dipole along edir(3) : 
        Dipole               -0.7545 Ry au,         -1.9176 Debye
        Dipole field         -0.0014 Ry au, 
 
        Potential amp.        0.1320 Ry
        Total length         46.3494 bohr
 

     total cpu time spent up to now is      377.1 secs

     total energy              =   -2943.91507220 Ry
     estimated scf accuracy    <     197.12345824 Ry

     iteration # 20     ecut=    29.40 Ry     beta= 0.05
     Davidson diagonalization with overlap
     ethr =  1.55E-03,  avg # of iterations =  1.0

     negative rho (up, down):  1.656E-03 0.000E+00
 
     Adding external electric field

     Computed dipole along edir(3) : 
        Dipole               -0.8297 Ry au,         -2.1089 Debye
        Dipole field         -0.0016 Ry au, 
 
        Potential amp.        0.1451 Ry
        Total length         46.3494 bohr
 

     total cpu time spent up to now is      384.1 secs

     total energy              =   -2943.23450167 Ry
     estimated scf accuracy    <      76.75445699 Ry

     iteration # 21     ecut=    29.40 Ry     beta= 0.05
     Davidson diagonalization with overlap
     ethr =  1.55E-03,  avg # of iterations =  3.4

     negative rho (up, down):  1.843E-03 0.000E+00
 
     Adding external electric field

     Computed dipole along edir(3) : 
        Dipole               -0.1659 Ry au,         -0.4218 Debye
        Dipole field         -0.0003 Ry au, 
 
        Potential amp.        0.0290 Ry
        Total length         46.3494 bohr
 

     total cpu time spent up to now is      392.1 secs

     total energy              =   -2943.75867401 Ry
     estimated scf accuracy    <      28.54218655 Ry

     iteration # 22     ecut=    29.40 Ry     beta= 0.05
     Davidson diagonalization with overlap
     ethr =  1.55E-03,  avg # of iterations =  1.0

     negative rho (up, down):  1.635E-03 0.000E+00
 
     Adding external electric field

     Computed dipole along edir(3) : 
        Dipole               -1.1195 Ry au,         -2.8456 Debye
        Dipole field         -0.0021 Ry au, 
 
        Potential amp.        0.1958 Ry
        Total length         46.3494 bohr
 

     total cpu time spent up to now is      399.1 secs

     total energy              =   -2942.49656377 Ry
     estimated scf accuracy    <      40.42793132 Ry

     iteration # 23     ecut=    29.40 Ry     beta= 0.05
     Davidson diagonalization with overlap
     ethr =  1.55E-03,  avg # of iterations =  6.0

     negative rho (up, down):  1.731E-03 0.000E+00
 
     Adding external electric field

     Computed dipole along edir(3) : 
        Dipole               -1.1651 Ry au,         -2.9613 Debye
        Dipole field         -0.0022 Ry au, 
 
        Potential amp.        0.2038 Ry
        Total length         46.3494 bohr
 

     total cpu time spent up to now is      407.7 secs

     total energy              =   -2942.18291122 Ry
     estimated scf accuracy    <       9.80216242 Ry

     iteration # 24     ecut=    29.40 Ry     beta= 0.05
     Davidson diagonalization with overlap
     ethr =  1.55E-03,  avg # of iterations =  6.1

     negative rho (up, down):  1.850E-03 0.000E+00
 
     Adding external electric field

     Computed dipole along edir(3) : 
        Dipole               -0.7057 Ry au,         -1.7938 Debye
        Dipole field         -0.0013 Ry au, 
 
        Potential amp.        0.1235 Ry
        Total length         46.3494 bohr
 

     total cpu time spent up to now is      417.8 secs

     total energy              =   -2942.86169939 Ry
     estimated scf accuracy    <       4.13110640 Ry

     iteration # 25     ecut=    29.40 Ry     beta= 0.05
     Davidson diagonalization with overlap
     ethr =  1.04E-03,  avg # of iterations =  1.6

     negative rho (up, down):  2.355E-03 0.000E+00
 
     Adding external electric field

     Computed dipole along edir(3) : 
        Dipole                0.4486 Ry au,          1.1402 Debye
        Dipole field          0.0008 Ry au, 
 
        Potential amp.       -0.0785 Ry
        Total length         46.3494 bohr
 

     total cpu time spent up to now is      425.0 secs

     total energy              =   -2942.67368287 Ry
     estimated scf accuracy    <       2.66117102 Ry

     iteration # 26     ecut=    29.40 Ry     beta= 0.05
     Davidson diagonalization with overlap
     ethr =  6.69E-04,  avg # of iterations =  8.6

     negative rho (up, down):  2.277E-03 0.000E+00
 
     Adding external electric field

     Computed dipole along edir(3) : 
        Dipole                0.3217 Ry au,          0.8177 Debye
        Dipole field          0.0006 Ry au, 
 
        Potential amp.       -0.0563 Ry
        Total length         46.3494 bohr
 

     total cpu time spent up to now is      435.6 secs

     total energy              =   -2942.91380191 Ry
     estimated scf accuracy    <       0.49008614 Ry

     iteration # 27     ecut=    29.40 Ry     beta= 0.05
     Davidson diagonalization with overlap
     c_bands:  2 eigenvalues not converged
     c_bands:  3 eigenvalues not converged
     c_bands:  1 eigenvalues not converged
     c_bands:  1 eigenvalues not converged
     c_bands:  3 eigenvalues not converged
     c_bands:  4 eigenvalues not converged
     c_bands:  3 eigenvalues not converged
     ethr =  1.23E-04,  avg # of iterations = 19.3

     negative rho (up, down):  2.286E-03 0.000E+00
 
     Adding external electric field

     Computed dipole along edir(3) : 
        Dipole                0.3630 Ry au,          0.9225 Debye
        Dipole field          0.0007 Ry au, 
 
        Potential amp.       -0.0635 Ry
        Total length         46.3494 bohr
 

     total cpu time spent up to now is      453.0 secs

     total energy              =   -2942.97729734 Ry
     estimated scf accuracy    <       0.47713109 Ry

     iteration # 28     ecut=    29.40 Ry     beta= 0.05
     Davidson diagonalization with overlap
     ethr =  1.20E-04,  avg # of iterations =  3.0

     negative rho (up, down):  2.333E-03 0.000E+00
 
     Adding external electric field

     Computed dipole along edir(3) : 
        Dipole                0.3434 Ry au,          0.8729 Debye
        Dipole field          0.0006 Ry au, 
 
        Potential amp.       -0.0601 Ry
        Total length         46.3494 bohr
 

     total cpu time spent up to now is      460.8 secs

     total energy              =   -2942.95108672 Ry
     estimated scf accuracy    <       0.53729603 Ry

     iteration # 29     ecut=    29.40 Ry     beta= 0.05
     Davidson diagonalization with overlap
     ethr =  1.20E-04,  avg # of iterations =  1.5

     negative rho (up, down):  2.673E-03 0.000E+00
 
     Adding external electric field

     Computed dipole along edir(3) : 
        Dipole                0.2890 Ry au,          0.7345 Debye
        Dipole field          0.0005 Ry au, 
 
        Potential amp.       -0.0505 Ry
        Total length         46.3494 bohr
 

     total cpu time spent up to now is      468.2 secs

     total energy              =   -2942.85397263 Ry
     estimated scf accuracy    <       0.42232027 Ry

     iteration # 30     ecut=    29.40 Ry     beta= 0.05
     Davidson diagonalization with overlap
     c_bands:  2 eigenvalues not converged
     c_bands:  2 eigenvalues not converged
     c_bands:  1 eigenvalues not converged
     c_bands:  1 eigenvalues not converged
     c_bands:  3 eigenvalues not converged
     c_bands:  2 eigenvalues not converged
     c_bands:  1 eigenvalues not converged
     ethr =  1.06E-04,  avg # of iterations = 19.1

     negative rho (up, down):  2.653E-03 0.000E+00
 
     Adding external electric field

     Computed dipole along edir(3) : 
        Dipole                0.2927 Ry au,          0.7440 Debye
        Dipole field          0.0006 Ry au, 
 
        Potential amp.       -0.0512 Ry
        Total length         46.3494 bohr
 

     total cpu time spent up to now is      485.1 secs

     total energy              =   -2942.93058542 Ry
     estimated scf accuracy    <       0.34071306 Ry

     iteration # 31     ecut=    29.40 Ry     beta= 0.05
     Davidson diagonalization with overlap
     ethr =  8.56E-05,  avg # of iterations =  3.1

     negative rho (up, down):  2.691E-03 0.000E+00
 
     Adding external electric field

     Computed dipole along edir(3) : 
        Dipole                0.3383 Ry au,          0.8600 Debye
        Dipole field          0.0006 Ry au, 
 
        Potential amp.       -0.0592 Ry
        Total length         46.3494 bohr
 

     total cpu time spent up to now is      492.9 secs

     total energy              =   -2942.92846048 Ry
     estimated scf accuracy    <       0.33244710 Ry

     iteration # 32     ecut=    29.40 Ry     beta= 0.05
     Davidson diagonalization with overlap
     ethr =  8.35E-05,  avg # of iterations =  1.0

     negative rho (up, down):  2.786E-03 0.000E+00
 
     Adding external electric field

     Computed dipole along edir(3) : 
        Dipole                0.5395 Ry au,          1.3712 Debye
        Dipole field          0.0010 Ry au, 
 
        Potential amp.       -0.0944 Ry
        Total length         46.3494 bohr
 

     total cpu time spent up to now is      500.3 secs

     total energy              =   -2942.87548544 Ry
     estimated scf accuracy    <       0.30123230 Ry

     iteration # 33     ecut=    29.40 Ry     beta= 0.05
     Davidson diagonalization with overlap
     c_bands:  4 eigenvalues not converged
     ethr =  7.57E-05,  avg # of iterations =  8.7

     negative rho (up, down):  3.406E-03 0.000E+00
 
     Adding external electric field

     Computed dipole along edir(3) : 
        Dipole                0.3790 Ry au,          0.9634 Debye
        Dipole field          0.0007 Ry au, 
 
        Potential amp.       -0.0663 Ry
        Total length         46.3494 bohr
 

     total cpu time spent up to now is      511.2 secs

     total energy              =   -2942.88185837 Ry
     estimated scf accuracy    <       0.17956910 Ry

     iteration # 34     ecut=    29.40 Ry     beta= 0.05
     Davidson diagonalization with overlap
     c_bands:  2 eigenvalues not converged
     c_bands:  3 eigenvalues not converged
     c_bands:  2 eigenvalues not converged
     ethr =  4.51E-05,  avg # of iterations =  9.8

     negative rho (up, down):  3.521E-03 0.000E+00
 
     Adding external electric field

     Computed dipole along edir(3) : 
        Dipole                0.2560 Ry au,          0.6506 Debye
        Dipole field          0.0005 Ry au, 
 
        Potential amp.       -0.0448 Ry
        Total length         46.3494 bohr
 

     total cpu time spent up to now is      523.1 secs

     total energy              =   -2942.89843591 Ry
     estimated scf accuracy    <       0.05587999 Ry

     iteration # 35     ecut=    29.40 Ry     beta= 0.05
     Davidson diagonalization with overlap
     c_bands:  1 eigenvalues not converged
     c_bands:  2 eigenvalues not converged
     c_bands:  1 eigenvalues not converged
     c_bands:  2 eigenvalues not converged
     c_bands:  2 eigenvalues not converged
     c_bands:  2 eigenvalues not converged
     c_bands:  1 eigenvalues not converged
     c_bands:  2 eigenvalues not converged
     ethr =  1.40E-05,  avg # of iterations = 19.0

     negative rho (up, down):  3.704E-03 0.000E+00
 
     Adding external electric field

     Computed dipole along edir(3) : 
        Dipole                0.2113 Ry au,          0.5371 Debye
        Dipole field          0.0004 Ry au, 
 
        Potential amp.       -0.0370 Ry
        Total length         46.3494 bohr
 

     total cpu time spent up to now is      542.3 secs

     total energy              =   -2942.95750354 Ry
     estimated scf accuracy    <       0.50017817 Ry

     iteration # 36     ecut=    29.40 Ry     beta= 0.05
     Davidson diagonalization with overlap
     c_bands:  1 eigenvalues not converged
     c_bands:  1 eigenvalues not converged
     c_bands:  2 eigenvalues not converged
     ethr =  1.40E-05,  avg # of iterations =  8.1

     negative rho (up, down):  4.125E-03 0.000E+00
 
     Adding external electric field

     Computed dipole along edir(3) : 
        Dipole                0.3087 Ry au,          0.7846 Debye
        Dipole field          0.0006 Ry au, 
 
        Potential amp.       -0.0540 Ry
        Total length         46.3494 bohr
 

     total cpu time spent up to now is      551.6 secs

     total energy              =   -2942.94064007 Ry
     estimated scf accuracy    <       0.80384211 Ry

     iteration # 37     ecut=    29.40 Ry     beta= 0.05
     Davidson diagonalization with overlap
     ethr =  1.40E-05,  avg # of iterations =  1.3

     negative rho (up, down):  6.801E-03 0.000E+00
 
     Adding external electric field

     Computed dipole along edir(3) : 
        Dipole                0.3811 Ry au,          0.9686 Debye
        Dipole field          0.0007 Ry au, 
 
        Potential amp.       -0.0667 Ry
        Total length         46.3494 bohr
 

     total cpu time spent up to now is      558.8 secs

     total energy              =   -2942.91483663 Ry
     estimated scf accuracy    <       0.71008537 Ry

     iteration # 38     ecut=    29.40 Ry     beta= 0.05
     Davidson diagonalization with overlap
     c_bands:  1 eigenvalues not converged
     c_bands:  1 eigenvalues not converged
     c_bands:  2 eigenvalues not converged
     ethr =  1.40E-05,  avg # of iterations = 10.6

     negative rho (up, down):  6.545E-03 0.000E+00
 
     Adding external electric field

     Computed dipole along edir(3) : 
        Dipole                0.3823 Ry au,          0.9718 Debye
        Dipole field          0.0007 Ry au, 
 
        Potential amp.       -0.0669 Ry
        Total length         46.3494 bohr
 

     total cpu time spent up to now is      570.4 secs

     total energy              =   -2942.92084398 Ry
     estimated scf accuracy    <       0.44939682 Ry

     iteration # 39     ecut=    29.40 Ry     beta= 0.05
     Davidson diagonalization with overlap
     ethr =  1.40E-05,  avg # of iterations =  1.8

     negative rho (up, down):  7.192E-03 0.000E+00
 
     Adding external electric field

     Computed dipole along edir(3) : 
        Dipole                0.4094 Ry au,          1.0405 Debye
        Dipole field          0.0008 Ry au, 
 
        Potential amp.       -0.0716 Ry
        Total length         46.3494 bohr
 

     total cpu time spent up to now is      577.7 secs

     total energy              =   -2942.91491337 Ry
     estimated scf accuracy    <       0.41932814 Ry

     iteration # 40     ecut=    29.40 Ry     beta= 0.05
     Davidson diagonalization with overlap
     ethr =  1.40E-05,  avg # of iterations =  2.0

     negative rho (up, down):  7.833E-03 0.000E+00
 
     Adding external electric field

     Computed dipole along edir(3) : 
        Dipole                0.5252 Ry au,          1.3350 Debye
        Dipole field          0.0010 Ry au, 
 
        Potential amp.       -0.0919 Ry
        Total length         46.3494 bohr
 

     total cpu time spent up to now is      585.5 secs

     total energy              =   -2942.89633091 Ry
     estimated scf accuracy    <       0.27781956 Ry

     iteration # 41     ecut=    29.40 Ry     beta= 0.05
     Davidson diagonalization with overlap
     c_bands:  2 eigenvalues not converged
     c_bands:  2 eigenvalues not converged
     c_bands:  2 eigenvalues not converged
     c_bands:  1 eigenvalues not converged
     ethr =  1.40E-05,  avg # of iterations = 17.9

     negative rho (up, down):  7.633E-03 0.000E+00
 
     Adding external electric field

     Computed dipole along edir(3) : 
        Dipole                0.5716 Ry au,          1.4528 Debye
        Dipole field          0.0011 Ry au, 
 
        Potential amp.       -0.1000 Ry
        Total length         46.3494 bohr
 

     total cpu time spent up to now is      602.5 secs

     total energy              =   -2942.91406026 Ry
     estimated scf accuracy    <       0.05068157 Ry

     iteration # 42     ecut=    29.40 Ry     beta= 0.05
     Davidson diagonalization with overlap
     c_bands:  1 eigenvalues not converged
     ethr =  1.27E-05,  avg # of iterations =  3.9

     negative rho (up, down):  8.109E-03 0.000E+00
 
     Adding external electric field

     Computed dipole along edir(3) : 
        Dipole                0.5875 Ry au,          1.4934 Debye
        Dipole field          0.0011 Ry au, 
 
        Potential amp.       -0.1028 Ry
        Total length         46.3494 bohr
 

     total cpu time spent up to now is      610.6 secs

     total energy              =   -2942.91154818 Ry
     estimated scf accuracy    <       0.05048809 Ry

     iteration # 43     ecut=    29.40 Ry     beta= 0.05
     Davidson diagonalization with overlap
     ethr =  1.27E-05,  avg # of iterations =  1.4

     negative rho (up, down):  1.043E-02 0.000E+00
 
     Adding external electric field

     Computed dipole along edir(3) : 
        Dipole                0.6681 Ry au,          1.6980 Debye
        Dipole field          0.0013 Ry au, 
 
        Potential amp.       -0.1169 Ry
        Total length         46.3494 bohr
 

     total cpu time spent up to now is      617.9 secs

     total energy              =   -2942.90535346 Ry
     estimated scf accuracy    <       0.04502786 Ry

     iteration # 44     ecut=    29.40 Ry     beta= 0.05
     Davidson diagonalization with overlap
     c_bands:  1 eigenvalues not converged
     c_bands:  4 eigenvalues not converged
     ethr =  1.13E-05,  avg # of iterations = 13.1

     negative rho (up, down):  1.019E-02 0.000E+00
 
     Adding external electric field

     Computed dipole along edir(3) : 
        Dipole                0.6402 Ry au,          1.6273 Debye
        Dipole field          0.0012 Ry au, 
 
        Potential amp.       -0.1120 Ry
        Total length         46.3494 bohr
 

     total cpu time spent up to now is      670.6 secs

     total energy              =   -2942.90653655 Ry
     estimated scf accuracy    <       0.03419977 Ry

     iteration # 45     ecut=    29.40 Ry     beta= 0.05
     Davidson diagonalization with overlap
     ethr =  8.59E-06,  avg # of iterations =  5.6

     negative rho (up, down):  9.890E-03 0.000E+00
 
     Adding external electric field

     Computed dipole along edir(3) : 
        Dipole                0.6116 Ry au,          1.5546 Debye
        Dipole field          0.0012 Ry au, 
 
        Potential amp.       -0.1070 Ry
        Total length         46.3494 bohr
 

     total cpu time spent up to now is      679.4 secs

     total energy              =   -2942.90619046 Ry
     estimated scf accuracy    <       0.02553444 Ry

     iteration # 46     ecut=    29.40 Ry     beta= 0.05
     Davidson diagonalization with overlap
     ethr =  6.42E-06,  avg # of iterations =  2.4

     negative rho (up, down):  1.055E-02 0.000E+00
 
     Adding external electric field

     Computed dipole along edir(3) : 
        Dipole                0.6149 Ry au,          1.5630 Debye
        Dipole field          0.0012 Ry au, 
 
        Potential amp.       -0.1076 Ry
        Total length         46.3494 bohr
 

     total cpu time spent up to now is      687.4 secs

     total energy              =   -2942.90714681 Ry
     estimated scf accuracy    <       0.01627632 Ry

     iteration # 47     ecut=    29.40 Ry     beta= 0.05
     Davidson diagonalization with overlap
     ethr =  4.09E-06,  avg # of iterations =  3.4

     negative rho (up, down):  1.012E-02 0.000E+00
 
     Adding external electric field

     Computed dipole along edir(3) : 
        Dipole                0.5743 Ry au,          1.4597 Debye
        Dipole field          0.0011 Ry au, 
 
        Potential amp.       -0.1005 Ry
        Total length         46.3494 bohr
 

     total cpu time spent up to now is      695.4 secs

     total energy              =   -2942.90647523 Ry
     estimated scf accuracy    <       0.01524064 Ry

     iteration # 48     ecut=    29.40 Ry     beta= 0.05
     Davidson diagonalization with overlap
     c_bands:  1 eigenvalues not converged
     c_bands:  2 eigenvalues not converged
     ethr =  3.83E-06,  avg # of iterations =  8.1

     negative rho (up, down):  9.214E-03 0.000E+00
 
     Adding external electric field

     Computed dipole along edir(3) : 
        Dipole                0.5264 Ry au,          1.3380 Debye
        Dipole field          0.0010 Ry au, 
 
        Potential amp.       -0.0921 Ry
        Total length         46.3494 bohr
 

     total cpu time spent up to now is      704.7 secs

     total energy              =   -2942.90608633 Ry
     estimated scf accuracy    <       0.00712561 Ry

     iteration # 49     ecut=    29.40 Ry     beta= 0.05
     Davidson diagonalization with overlap
     c_bands:  3 eigenvalues not converged
     c_bands:  2 eigenvalues not converged
     c_bands:  2 eigenvalues not converged
     ethr =  1.79E-06,  avg # of iterations = 14.1

     negative rho (up, down):  8.817E-03 0.000E+00
 
     Adding external electric field

     Computed dipole along edir(3) : 
        Dipole                0.5255 Ry au,          1.3358 Debye
        Dipole field          0.0010 Ry au, 
 
        Potential amp.       -0.0919 Ry
        Total length         46.3494 bohr
 

     total cpu time spent up to now is      717.9 secs

     total energy              =   -2942.90675076 Ry
     estimated scf accuracy    <       0.00397250 Ry

     iteration # 50     ecut=    29.40 Ry     beta= 0.05
     Davidson diagonalization with overlap
     c_bands:  1 eigenvalues not converged
     ethr =  9.98E-07,  avg # of iterations =  6.8

     negative rho (up, down):  9.027E-03 0.000E+00
 
     Adding external electric field

     Computed dipole along edir(3) : 
        Dipole                0.5332 Ry au,          1.3554 Debye
        Dipole field          0.0010 Ry au, 
 
        Potential amp.       -0.0933 Ry
        Total length         46.3494 bohr
 

     total cpu time spent up to now is      727.0 secs

     total energy              =   -2942.90711698 Ry
     estimated scf accuracy    <       0.00545266 Ry

     iteration # 51     ecut=    29.40 Ry     beta= 0.05
     Davidson diagonalization with overlap
     ethr =  9.98E-07,  avg # of iterations =  1.0

     negative rho (up, down):  8.636E-03 0.000E+00
 
     Adding external electric field

     Computed dipole along edir(3) : 
        Dipole                0.5076 Ry au,          1.2903 Debye
        Dipole field          0.0010 Ry au, 
 
        Potential amp.       -0.0888 Ry
        Total length         46.3494 bohr
 

     total cpu time spent up to now is      734.0 secs

     total energy              =   -2942.90675251 Ry
     estimated scf accuracy    <       0.00625617 Ry

     iteration # 52     ecut=    29.40 Ry     beta= 0.05
     Davidson diagonalization with overlap
     ethr =  9.98E-07,  avg # of iterations =  2.5

     negative rho (up, down):  8.776E-03 0.000E+00
 
     Adding external electric field

     Computed dipole along edir(3) : 
        Dipole                0.5008 Ry au,          1.2729 Debye
        Dipole field          0.0009 Ry au, 
 
        Potential amp.       -0.0876 Ry
        Total length         46.3494 bohr
 

     total cpu time spent up to now is      741.9 secs

     total energy              =   -2942.90671364 Ry
     estimated scf accuracy    <       0.00449181 Ry

     iteration # 53     ecut=    29.40 Ry     beta= 0.05
     Davidson diagonalization with overlap
     ethr =  9.98E-07,  avg # of iterations =  1.6

     negative rho (up, down):  9.347E-03 0.000E+00
 
     Adding external electric field

     Computed dipole along edir(3) : 
        Dipole                0.5014 Ry au,          1.2745 Debye
        Dipole field          0.0009 Ry au, 
 
        Potential amp.       -0.0877 Ry
        Total length         46.3494 bohr
 

     total cpu time spent up to now is      749.5 secs

     total energy              =   -2942.90696622 Ry
     estimated scf accuracy    <       0.00446159 Ry

     iteration # 54     ecut=    29.40 Ry     beta= 0.05
     Davidson diagonalization with overlap
     ethr =  9.98E-07,  avg # of iterations =  2.0

     negative rho (up, down):  9.760E-03 0.000E+00
 
     Adding external electric field

     Computed dipole along edir(3) : 
        Dipole                0.4424 Ry au,          1.1245 Debye
        Dipole field          0.0008 Ry au, 
 
        Potential amp.       -0.0774 Ry
        Total length         46.3494 bohr
 

     total cpu time spent up to now is      757.2 secs

     total energy              =   -2942.90613782 Ry
     estimated scf accuracy    <       0.00622260 Ry

     iteration # 55     ecut=    29.40 Ry     beta= 0.05
     Davidson diagonalization with overlap
     ethr =  9.98E-07,  avg # of iterations =  6.0

     negative rho (up, down):  1.002E-02 0.000E+00
 
     Adding external electric field

     Computed dipole along edir(3) : 
        Dipole                0.4537 Ry au,          1.1532 Debye
        Dipole field          0.0009 Ry au, 
 
        Potential amp.       -0.0794 Ry
        Total length         46.3494 bohr
 

     total cpu time spent up to now is      766.0 secs

     total energy              =   -2942.90646335 Ry
     estimated scf accuracy    <       0.00064212 Ry

     iteration # 56     ecut=    29.40 Ry     beta= 0.05
     Davidson diagonalization with overlap
     c_bands:  1 eigenvalues not converged
     ethr =  1.61E-07,  avg # of iterations =  8.2

     negative rho (up, down):  9.972E-03 0.000E+00
 
     Adding external electric field

     Computed dipole along edir(3) : 
        Dipole                0.4472 Ry au,          1.1366 Debye
        Dipole field          0.0008 Ry au, 
 
        Potential amp.       -0.0782 Ry
        Total length         46.3494 bohr
 

     total cpu time spent up to now is      780.9 secs

     total energy              =   -2942.90660123 Ry
     estimated scf accuracy    <       0.00037861 Ry

     iteration # 57     ecut=    29.40 Ry     beta= 0.05
     Davidson diagonalization with overlap
     ethr =  9.51E-08,  avg # of iterations =  4.5

     negative rho (up, down):  1.038E-02 0.000E+00
 
     Adding external electric field

     Computed dipole along edir(3) : 
        Dipole                0.4530 Ry au,          1.1513 Debye
        Dipole field          0.0009 Ry au, 
 
        Potential amp.       -0.0792 Ry
        Total length         46.3494 bohr
 

     total cpu time spent up to now is      792.5 secs

     total energy              =   -2942.90658537 Ry
     estimated scf accuracy    <       0.00023039 Ry

     iteration # 58     ecut=    29.40 Ry     beta= 0.05
     Davidson diagonalization with overlap
     ethr =  5.79E-08,  avg # of iterations =  6.0

     negative rho (up, down):  1.059E-02 0.000E+00
 
     Adding external electric field

     Computed dipole along edir(3) : 
        Dipole                0.4568 Ry au,          1.1612 Debye
        Dipole field          0.0009 Ry au, 
 
        Potential amp.       -0.0799 Ry
        Total length         46.3494 bohr
 

     total cpu time spent up to now is      804.5 secs

     total energy              =   -2942.90659548 Ry
     estimated scf accuracy    <       0.00069325 Ry

     iteration # 59     ecut=    29.40 Ry     beta= 0.05
     Davidson diagonalization with overlap
     ethr =  5.79E-08,  avg # of iterations =  5.8

     negative rho (up, down):  1.073E-02 0.000E+00
 
     Adding external electric field

     Computed dipole along edir(3) : 
        Dipole                0.4594 Ry au,          1.1677 Debye
        Dipole field          0.0009 Ry au, 
 
        Potential amp.       -0.0804 Ry
        Total length         46.3494 bohr
 

     total cpu time spent up to now is      814.3 secs

     total energy              =   -2942.90664868 Ry
     estimated scf accuracy    <       0.00008777 Ry

     iteration # 60     ecut=    29.40 Ry     beta= 0.05
     Davidson diagonalization with overlap
     ethr =  2.21E-08,  avg # of iterations =  3.9

     negative rho (up, down):  1.086E-02 0.000E+00
 
     Adding external electric field

     Computed dipole along edir(3) : 
        Dipole                0.4582 Ry au,          1.1645 Debye
        Dipole field          0.0009 Ry au, 
 
        Potential amp.       -0.0801 Ry
        Total length         46.3494 bohr
 

     total cpu time spent up to now is      822.8 secs

     total energy              =   -2942.90666024 Ry
     estimated scf accuracy    <       0.00004269 Ry

     iteration # 61     ecut=    29.40 Ry     beta= 0.05
     Davidson diagonalization with overlap
     ethr =  1.07E-08,  avg # of iterations =  5.7

     negative rho (up, down):  1.081E-02 0.000E+00
 
     Adding external electric field

     Computed dipole along edir(3) : 
        Dipole                0.4569 Ry au,          1.1613 Debye
        Dipole field          0.0009 Ry au, 
 
        Potential amp.       -0.0799 Ry
        Total length         46.3494 bohr
 

     total cpu time spent up to now is      834.2 secs

     total energy              =   -2942.90666761 Ry
     estimated scf accuracy    <       0.00005037 Ry

     iteration # 62     ecut=    29.40 Ry     beta= 0.05
     Davidson diagonalization with overlap
     ethr =  1.07E-08,  avg # of iterations =  5.8

     negative rho (up, down):  1.081E-02 0.000E+00
 
     Adding external electric field

     Computed dipole along edir(3) : 
        Dipole                0.4563 Ry au,          1.1598 Debye
        Dipole field          0.0009 Ry au, 
 
        Potential amp.       -0.0798 Ry
        Total length         46.3494 bohr
 

     total cpu time spent up to now is      843.2 secs

     total energy              =   -2942.90667507 Ry
     estimated scf accuracy    <       0.00002073 Ry

     iteration # 63     ecut=    29.40 Ry     beta= 0.05
     Davidson diagonalization with overlap
     ethr =  5.21E-09,  avg # of iterations =  4.5

     negative rho (up, down):  1.093E-02 0.000E+00
 
     Adding external electric field

     Computed dipole along edir(3) : 
        Dipole                0.4558 Ry au,          1.1585 Debye
        Dipole field          0.0009 Ry au, 
 
        Potential amp.       -0.0797 Ry
        Total length         46.3494 bohr
 

     total cpu time spent up to now is      853.7 secs

     total energy              =   -2942.90668335 Ry
     estimated scf accuracy    <       0.00001163 Ry

     iteration # 64     ecut=    29.40 Ry     beta= 0.05
     Davidson diagonalization with overlap
     ethr =  2.92E-09,  avg # of iterations =  5.1

     negative rho (up, down):  1.092E-02 0.000E+00
 
     Adding external electric field

     Computed dipole along edir(3) : 
        Dipole                0.4553 Ry au,          1.1572 Debye
        Dipole field          0.0009 Ry au, 
 
        Potential amp.       -0.0796 Ry
        Total length         46.3494 bohr
 

     total cpu time spent up to now is      864.9 secs

     total energy              =   -2942.90668773 Ry
     estimated scf accuracy    <       0.00001845 Ry

     iteration # 65     ecut=    29.40 Ry     beta= 0.05
     Davidson diagonalization with overlap
     ethr =  2.92E-09,  avg # of iterations =  5.0

     negative rho (up, down):  1.095E-02 0.000E+00
 
     Adding external electric field

     Computed dipole along edir(3) : 
        Dipole                0.4554 Ry au,          1.1574 Debye
        Dipole field          0.0009 Ry au, 
 
        Potential amp.       -0.0797 Ry
        Total length         46.3494 bohr
 

     total cpu time spent up to now is      878.7 secs

     total energy              =   -2942.90669221 Ry
     estimated scf accuracy    <       0.00000862 Ry

     iteration # 66     ecut=    29.40 Ry     beta= 0.05
     Davidson diagonalization with overlap
     ethr =  2.17E-09,  avg # of iterations =  4.7

     negative rho (up, down):  1.097E-02 0.000E+00
 
     Adding external electric field

     Computed dipole along edir(3) : 
        Dipole                0.4556 Ry au,          1.1580 Debye
        Dipole field          0.0009 Ry au, 
 
        Potential amp.       -0.0797 Ry
        Total length         46.3494 bohr
 

     total cpu time spent up to now is      893.6 secs

     total energy              =   -2942.90669717 Ry
     estimated scf accuracy    <       0.00000874 Ry

     iteration # 67     ecut=    29.40 Ry     beta= 0.05
     Davidson diagonalization with overlap
     ethr =  2.17E-09,  avg # of iterations =  5.0

     negative rho (up, down):  1.096E-02 0.000E+00
 
     Adding external electric field

     Computed dipole along edir(3) : 
        Dipole                0.4542 Ry au,          1.1544 Debye
        Dipole field          0.0009 Ry au, 
 
        Potential amp.       -0.0795 Ry
        Total length         46.3494 bohr
 

     total cpu time spent up to now is      902.2 secs

     total energy              =   -2942.90670074 Ry
     estimated scf accuracy    <       0.00000469 Ry

     iteration # 68     ecut=    29.40 Ry     beta= 0.05
     Davidson diagonalization with overlap
     ethr =  1.18E-09,  avg # of iterations =  2.8

     negative rho (up, down):  1.094E-02 0.000E+00
 
     Adding external electric field

     Computed dipole along edir(3) : 
        Dipole                0.4532 Ry au,          1.1519 Debye
        Dipole field          0.0009 Ry au, 
 
        Potential amp.       -0.0793 Ry
        Total length         46.3494 bohr
 

     total cpu time spent up to now is      910.3 secs

     total energy              =   -2942.90670407 Ry
     estimated scf accuracy    <       0.00000247 Ry

     iteration # 69     ecut=    29.40 Ry     beta= 0.05
     Davidson diagonalization with overlap
     ethr =  6.21E-10,  avg # of iterations =  6.0

     negative rho (up, down):  1.095E-02 0.000E+00
 
     Adding external electric field

     Computed dipole along edir(3) : 
        Dipole                0.4534 Ry au,          1.1524 Debye
        Dipole field          0.0009 Ry au, 
 
        Potential amp.       -0.0793 Ry
        Total length         46.3494 bohr
 

     total cpu time spent up to now is      919.5 secs

     total energy              =   -2942.90670706 Ry
     estimated scf accuracy    <       0.00000189 Ry

     iteration # 70     ecut=    29.40 Ry     beta= 0.05
     Davidson diagonalization with overlap
     ethr =  4.74E-10,  avg # of iterations =  2.0

     negative rho (up, down):  1.094E-02 0.000E+00
 
     Adding external electric field

     Computed dipole along edir(3) : 
        Dipole                0.4537 Ry au,          1.1532 Debye
        Dipole field          0.0009 Ry au, 
 
        Potential amp.       -0.0794 Ry
        Total length         46.3494 bohr
 

     total cpu time spent up to now is      927.2 secs

     total energy              =   -2942.90670935 Ry
     estimated scf accuracy    <       0.00000176 Ry

     iteration # 71     ecut=    29.40 Ry     beta= 0.05
     Davidson diagonalization with overlap
     ethr =  4.42E-10,  avg # of iterations =  5.5

     negative rho (up, down):  1.091E-02 0.000E+00
 
     Adding external electric field

     Computed dipole along edir(3) : 
        Dipole                0.4527 Ry au,          1.1507 Debye
        Dipole field          0.0009 Ry au, 
 
        Potential amp.       -0.0792 Ry
        Total length         46.3494 bohr
 

     total cpu time spent up to now is      936.4 secs

     total energy              =   -2942.90671173 Ry
     estimated scf accuracy    <       0.00000081 Ry

     iteration # 72     ecut=    29.40 Ry     beta= 0.05
     Davidson diagonalization with overlap
     ethr =  2.04E-10,  avg # of iterations =  7.5

     negative rho (up, down):  1.093E-02 0.000E+00
 
     Adding external electric field

     Computed dipole along edir(3) : 
        Dipole                0.4529 Ry au,          1.1513 Debye
        Dipole field          0.0009 Ry au, 
 
        Potential amp.       -0.0792 Ry
        Total length         46.3494 bohr
 

     total cpu time spent up to now is      949.2 secs

     total energy              =   -2942.90671402 Ry
     estimated scf accuracy    <       0.00000081 Ry

     iteration # 73     ecut=    29.40 Ry     beta= 0.05
     Davidson diagonalization with overlap
     ethr =  2.04E-10,  avg # of iterations =  4.7

     negative rho (up, down):  1.093E-02 0.000E+00
 
     Adding external electric field

     Computed dipole along edir(3) : 
        Dipole                0.4528 Ry au,          1.1509 Debye
        Dipole field          0.0009 Ry au, 
 
        Potential amp.       -0.0792 Ry
        Total length         46.3494 bohr
 

     total cpu time spent up to now is      957.9 secs

     total energy              =   -2942.90671591 Ry
     estimated scf accuracy    <       0.00000032 Ry

     iteration # 74     ecut=    29.40 Ry     beta= 0.05
     Davidson diagonalization with overlap
     ethr =  7.99E-11,  avg # of iterations =  7.2

     negative rho (up, down):  1.092E-02 0.000E+00
 
     Adding external electric field

     Computed dipole along edir(3) : 
        Dipole                0.4525 Ry au,          1.1501 Debye
        Dipole field          0.0009 Ry au, 
 
        Potential amp.       -0.0792 Ry
        Total length         46.3494 bohr
 

     total cpu time spent up to now is      971.8 secs

     total energy              =   -2942.90671773 Ry
     estimated scf accuracy    <       0.00000077 Ry

     iteration # 75     ecut=    29.40 Ry     beta= 0.05
     Davidson diagonalization with overlap
     ethr =  7.99E-11,  avg # of iterations =  4.9

     negative rho (up, down):  1.091E-02 0.000E+00
 
     Adding external electric field

     Computed dipole along edir(3) : 
        Dipole                0.4525 Ry au,          1.1501 Debye
        Dipole field          0.0009 Ry au, 
 
        Potential amp.       -0.0792 Ry
        Total length         46.3494 bohr
 

     total cpu time spent up to now is      984.2 secs

     total energy              =   -2942.90671932 Ry
     estimated scf accuracy    <       0.00000014 Ry

     iteration # 76     ecut=    29.40 Ry     beta= 0.05
     Davidson diagonalization with overlap
     ethr =  3.57E-11,  avg # of iterations =  5.3

     negative rho (up, down):  1.096E-02 0.000E+00
 
     Adding external electric field

     Computed dipole along edir(3) : 
        Dipole                0.4523 Ry au,          1.1496 Debye
        Dipole field          0.0009 Ry au, 
 
        Potential amp.       -0.0791 Ry
        Total length         46.3494 bohr
 

     total cpu time spent up to now is      993.9 secs

     End of self-consistent calculation

          k = 0.0000 0.0000 0.0000 ( 18029 PWs)   bands (ev):

   -56.6136 -56.5800 -55.7334 -55.7249 -55.6981 -55.6926 -55.5883 -55.5526
   -55.3718 -55.3365 -55.2783 -55.2731 -55.2444 -55.1710 -54.7348 -54.6216
   -33.0415 -32.8883 -32.8601 -32.7898 -32.6988 -32.6675 -32.2080 -32.1973
   -32.1313 -32.0198 -31.9749 -31.9467 -31.9327 -31.9079 -31.8753 -31.8727
   -31.8691 -31.8620 -31.8389 -31.8365 -31.8241 -31.7966 -31.7713 -31.7577
   -31.7445 -31.7245 -31.7167 -31.6935 -31.6707 -31.6169 -31.6034 -31.5927
   -31.5152 -31.5107 -31.4894 -31.4485 -31.4386 -31.4059 -31.3998 -31.3755
   -31.3542 -31.2949 -31.2363 -30.9758 -30.9633 -30.8811 -30.8415 -30.7507
   -16.7778 -16.3440 -16.1143 -15.9762 -15.9091 -15.8544 -15.8093 -15.6892
   -15.6156 -15.6089 -15.5682 -15.5386 -15.4679 -15.3268 -15.2286 -15.1756
   -15.1314 -15.0103 -14.9498 -14.9176 -14.9133 -14.8790 -14.8593 -14.6628
   -14.6385 -14.5355 -14.5265 -14.4002 -14.1787 -13.7770 -13.7194 -13.6669
   -12.7969  -7.4826  -4.3435  -3.8391  -3.7975  -3.7677  -3.6019  -3.5146
    -3.4074  -3.3941  -3.3141  -3.1946  -3.1489  -3.1011  -2.9856  -2.9851
    -2.8357  -2.8001  -2.7894  -2.7860  -2.7431  -2.6764  -2.6623  -2.6229
    -2.6124  -2.5993  -2.4548  -2.3573  -2.2908  -2.2687  -2.2586  -2.2225
    -2.1449  -2.1247  -2.1094  -2.1057  -2.0062  -1.8562  -1.8550  -1.8243
    -1.7808  -1.7785  -1.7397  -1.7269  -1.5912  -1.5173  -1.4147  -1.3970
    -1.3584  -1.2940  -1.2875  -1.1901  -1.1155  -1.0533  -1.0271  -0.9179
    -0.8761  -0.8536  -0.7644  -0.7019  -0.6621  -0.6449  -0.6278  -0.5233
    -0.5033  -0.4930  -0.4082  -0.3963  -0.3390  -0.2575  -0.2378  -0.2314
    -0.1437  -0.1386  -0.0468  -0.0043   0.0369   0.0821   0.1777   0.1959
     0.2991   0.3348   0.3557   0.4758   0.4885   0.5516   0.6186   0.6867
     0.7179   0.7431   0.7718   0.7937   0.8663   0.9817   0.9870   1.0879
     1.1274   1.2960   1.3350   1.3825   1.6219   1.6460   2.3202   2.6610
     2.8209   3.1194   3.3100   3.4210   3.6363   3.6517   3.6570   3.8332
     3.8798

          k = 0.0000 0.0419 0.0000 ( 17933 PWs)   bands (ev):

   -56.6087 -56.5849 -55.7283 -55.7201 -55.7031 -55.6971 -55.5832 -55.5576
   -55.3667 -55.3415 -55.2733 -55.2715 -55.2493 -55.1724 -54.7334 -54.6229
   -32.9881 -32.8840 -32.8639 -32.7765 -32.7234 -32.7120 -32.1551 -32.1445
   -32.0757 -32.0054 -31.9689 -31.9356 -31.9351 -31.9289 -31.8938 -31.8796
   -31.8742 -31.8728 -31.8680 -31.8568 -31.7935 -31.7921 -31.7841 -31.7744
   -31.7564 -31.7095 -31.7014 -31.6921 -31.6180 -31.6132 -31.5960 -31.5899
   -31.5243 -31.5107 -31.4973 -31.4772 -31.4463 -31.4180 -31.4129 -31.4013
   -31.3760 -31.3517 -31.1890 -30.9750 -30.9623 -30.9022 -30.8421 -30.7813
   -16.6566 -16.2216 -16.0298 -16.0109 -15.9165 -15.8336 -15.7924 -15.6284
   -15.6280 -15.5805 -15.5537 -15.4721 -15.4486 -15.3579 -15.2713 -15.2633
   -15.1756 -15.0122 -15.0045 -14.9826 -14.9520 -14.8564 -14.7988 -14.7122
   -14.6349 -14.5834 -14.5402 -14.4224 -14.2471 -13.7842 -13.7190 -13.7080
   -12.8059  -7.4780  -4.1617  -3.7968  -3.7755  -3.6609  -3.4397  -3.3624
    -3.3195  -3.2594  -3.1894  -3.1403  -3.1268  -3.1142  -2.9530  -2.8926
    -2.7971  -2.7908  -2.7770  -2.7648  -2.7573  -2.7186  -2.6385  -2.6237
    -2.6093  -2.5604  -2.5196  -2.4925  -2.4641  -2.4247  -2.3598  -2.3311
    -2.2680  -2.2439  -2.1771  -2.0514  -2.0426  -2.0299  -1.8466  -1.8196
    -1.8127  -1.7687  -1.7011  -1.6147  -1.4673  -1.4236  -1.4119  -1.3677
    -1.3638  -1.1919  -1.1758  -1.1471  -1.0701  -1.0432  -1.0316  -0.9613
    -0.8947  -0.8830  -0.8442  -0.7324  -0.6579  -0.5966  -0.5304  -0.4502
    -0.4438  -0.4017  -0.3856  -0.3221  -0.3105  -0.2704  -0.2576  -0.2473
    -0.1700  -0.1263  -0.0849  -0.0540  -0.0387   0.0856   0.1118   0.2083
     0.2336   0.2428   0.2936   0.3531   0.3725   0.3929   0.4137   0.4201
     0.5971   0.6245   0.7065   0.7971   0.9210   0.9750   1.0355   1.0584
     1.0828   1.2417   1.2470   1.3797   1.5026   1.6177   2.1932   2.9278
     2.9333   3.1279   3.4700   3.4980   3.5288   3.6103   3.6279   3.7776
     3.8209

          k = 0.0000-0.0839 0.0000 ( 17884 PWs)   bands (ev):

   -56.5969 -56.5966 -55.7181 -55.7137 -55.7086 -55.7081 -55.5731 -55.5676
   -55.3568 -55.3513 -55.2699 -55.2613 -55.2612 -55.1739 -54.7319 -54.6243
   -32.8741 -32.8738 -32.8572 -32.8570 -32.7444 -32.7441 -32.0276 -32.0245
   -32.0170 -32.0117 -31.9696 -31.9689 -31.9655 -31.9644 -31.9222 -31.9186
   -31.9065 -31.9012 -31.8688 -31.8674 -31.8250 -31.8206 -31.7748 -31.7695
   -31.7078 -31.7006 -31.6387 -31.6318 -31.6071 -31.6045 -31.6044 -31.5578
   -31.5563 -31.5242 -31.4887 -31.4870 -31.4868 -31.4478 -31.4478 -31.4436
   -31.4107 -31.3775 -31.1151 -30.9959 -30.9614 -30.9311 -30.8427 -30.8094
   -16.3554 -16.3547 -15.9443 -15.9400 -15.7899 -15.7893 -15.7723 -15.7723
   -15.6521 -15.6455 -15.4578 -15.4527 -15.3468 -15.3409 -15.2322 -15.2309
   -15.2237 -15.2209 -15.1447 -15.1305 -14.8356 -14.8309 -14.7209 -14.7186
   -14.6701 -14.6644 -14.5001 -14.4955 -14.3332 -13.7707 -13.7707 -13.7186
   -12.8148  -7.4734  -3.7961  -3.7832  -3.7075  -3.7074  -3.2456  -3.2363
    -3.2181  -3.2177  -3.1185  -3.1167  -3.0704  -3.0645  -2.8998  -2.8774
    -2.8096  -2.7779  -2.7698  -2.7526  -2.7481  -2.7240  -2.7200  -2.7069
    -2.6503  -2.6418  -2.5406  -2.5360  -2.4668  -2.4310  -2.3114  -2.2447
    -2.2316  -2.1793  -2.1418  -2.1317  -1.9407  -1.9215  -1.9127  -1.9042
    -1.8380  -1.8327  -1.8202  -1.7274  -1.7073  -1.5788  -1.5700  -1.3102
    -1.3033  -1.1278  -1.1129  -1.0952  -1.0548  -1.0210  -0.9804  -0.9082
    -0.8829  -0.7581  -0.7519  -0.7488  -0.7093  -0.6086  -0.5684  -0.5127
    -0.5088  -0.4290  -0.4177  -0.4039  -0.3775  -0.3080  -0.1902  -0.1790
    -0.1569  -0.1097  -0.0934   0.0095   0.0398   0.0541   0.0898   0.1252
     0.1519   0.1616   0.2195   0.2957   0.2977   0.3206   0.3671   0.3718
     0.3901   0.4823   0.5976   0.6857   0.9659   0.9941   1.1078   1.1082
     1.1286   1.2104   1.2202   1.2461   1.3770   1.5976   2.0621   3.1704
     3.1708   3.3061   3.3064   3.3672   3.3675   3.7342   3.7519   3.8608
     3.8725

          k = 0.0380 0.0000 0.0000 ( 17913 PWs)   bands (ev):

   -56.6135 -56.5799 -55.7326 -55.7255 -55.6979 -55.6925 -55.5882 -55.5525
   -55.3717 -55.3364 -55.2782 -55.2730 -55.2443 -55.1709 -54.7347 -54.6215
   -33.0421 -32.8881 -32.8600 -32.7878 -32.6985 -32.6672 -32.2121 -32.1976
   -32.1313 -32.0004 -31.9744 -31.9468 -31.9326 -31.9009 -31.8952 -31.8738
   -31.8689 -31.8619 -31.8373 -31.8364 -31.8256 -31.7904 -31.7872 -31.7683
   -31.7243 -31.7166 -31.7156 -31.6933 -31.6703 -31.6193 -31.6007 -31.5909
   -31.5217 -31.5107 -31.4892 -31.4482 -31.4383 -31.4058 -31.4002 -31.3753
   -31.3540 -31.2947 -31.2357 -30.9756 -30.9643 -30.8810 -30.8414 -30.7505
   -16.6740 -16.2673 -16.1338 -16.0801 -15.9587 -15.8058 -15.7131 -15.6923
   -15.6172 -15.6015 -15.5460 -15.5257 -15.4890 -15.4688 -15.1742 -15.1686
   -15.1305 -15.0562 -15.0497 -15.0293 -14.9491 -14.7540 -14.7489 -14.7447
   -14.6422 -14.5745 -14.5046 -14.3998 -14.1768 -13.7742 -13.7193 -13.6666
   -12.7954  -7.4808  -4.0597  -3.7979  -3.7674  -3.6779  -3.5451  -3.5127
    -3.4231  -3.3476  -3.1838  -3.1685  -3.1361  -3.1041  -2.9511  -2.9367
    -2.9170  -2.8215  -2.8142  -2.7722  -2.7507  -2.6845  -2.6452  -2.6238
    -2.5443  -2.4973  -2.4246  -2.3337  -2.2708  -2.2588  -2.2418  -2.2351
    -2.1313  -2.0941  -2.0406  -1.9198  -1.9044  -1.8721  -1.8112  -1.7831
    -1.7723  -1.7635  -1.6988  -1.6798  -1.6673  -1.5342  -1.4740  -1.4277
    -1.3695  -1.3121  -1.2664  -1.1829  -1.1103  -1.0909  -1.0475  -1.0118
    -0.9644  -0.9366  -0.9086  -0.8406  -0.7611  -0.6719  -0.6074  -0.5944
    -0.5469  -0.4970  -0.4377  -0.4059  -0.3971  -0.3582  -0.2983  -0.1444
    -0.1086  -0.0682  -0.0445  -0.0139   0.0222   0.1260   0.1751   0.1876
     0.1941   0.2148   0.2911   0.3912   0.4257   0.4589   0.5526   0.5938
     0.6434   0.7542   0.7582   0.7711   0.8560   0.8941   0.9287   0.9553
     1.0069   1.1920   1.2462   1.3726   1.4948   1.6528   2.1750   2.8046
     2.8377   3.1187   3.2795   3.3894   3.6399   3.6663   3.7310   3.7314
     3.8849

          k = 0.0380 0.0419 0.0000 ( 17878 PWs)   bands (ev):

   -56.6086 -56.5849 -55.7276 -55.7206 -55.7029 -55.6973 -55.5831 -55.5576
   -55.3666 -55.3414 -55.2732 -55.2715 -55.2493 -55.1724 -54.7333 -54.6229
   -32.9887 -32.8838 -32.8640 -32.7748 -32.7234 -32.7118 -32.1593 -32.1452
   -32.0758 -31.9883 -31.9683 -31.9357 -31.9351 -31.9169 -31.9028 -31.8860
   -31.8751 -31.8745 -31.8737 -31.8565 -31.7935 -31.7899 -31.7812 -31.7754
   -31.7695 -31.7094 -31.6922 -31.6859 -31.6177 -31.6151 -31.5951 -31.5877
   -31.5240 -31.5163 -31.4973 -31.4771 -31.4462 -31.4181 -31.4131 -31.4021
   -31.3760 -31.3515 -31.1886 -30.9750 -30.9631 -30.9020 -30.8424 -30.7813
   -16.5588 -16.1495 -16.1162 -16.0011 -15.8876 -15.8844 -15.7288 -15.7014
   -15.6283 -15.5170 -15.4926 -15.4726 -15.4483 -15.4472 -15.3283 -15.1735
   -15.1235 -15.0980 -15.0879 -15.0211 -14.8903 -14.8686 -14.8306 -14.7857
   -14.6245 -14.6080 -14.5167 -14.4228 -14.2458 -13.7822 -13.7189 -13.7082
   -12.8048  -7.4769  -3.8821  -3.7972  -3.7753  -3.5051  -3.4003  -3.3458
    -3.2732  -3.2451  -3.0482  -3.0390  -3.0075  -2.9719  -2.9354  -2.9191
    -2.8461  -2.8079  -2.7638  -2.7587  -2.6988  -2.6704  -2.6390  -2.6179
    -2.5847  -2.5567  -2.5091  -2.4900  -2.4330  -2.3477  -2.3166  -2.2736
    -2.1929  -2.1632  -2.1332  -2.0815  -2.0049  -1.9933  -1.8977  -1.8453
    -1.8179  -1.6915  -1.6438  -1.5609  -1.5245  -1.5053  -1.4568  -1.4165
    -1.3256  -1.2913  -1.2269  -1.1987  -1.1253  -1.0903  -1.0607  -1.0547
    -0.9218  -0.9040  -0.8221  -0.7862  -0.7699  -0.6921  -0.6622  -0.5769
    -0.5412  -0.5122  -0.4791  -0.4483  -0.4174  -0.3702  -0.3486  -0.3071
    -0.2205  -0.1571  -0.1425  -0.1064  -0.0516   0.0597   0.0767   0.1205
     0.1668   0.2141   0.2362   0.3095   0.3591   0.3773   0.4048   0.4426
     0.5665   0.6636   0.7226   0.8607   0.8830   0.9359   0.9852   1.0227
     1.1099   1.1659   1.2245   1.3717   1.4290   1.6371   2.1608   2.9204
     3.0791   3.1706   3.3272   3.5122   3.5956   3.6500   3.7319   3.7894
     3.9091

          k = 0.0380-0.0839 0.0000 ( 17916 PWs)   bands (ev):

   -56.5969 -56.5966 -55.7178 -55.7131 -55.7090 -55.7086 -55.5731 -55.5676
   -55.3568 -55.3513 -55.2700 -55.2614 -55.2612 -55.1740 -54.7319 -54.6243
   -32.8741 -32.8738 -32.8578 -32.8576 -32.7437 -32.7434 -32.0334 -32.0307
   -32.0196 -32.0137 -31.9656 -31.9644 -31.9500 -31.9495 -31.9223 -31.9186
   -31.9066 -31.9014 -31.8806 -31.8792 -31.8251 -31.8206 -31.7743 -31.7696
   -31.7080 -31.7007 -31.6393 -31.6326 -31.6051 -31.6050 -31.6034 -31.5569
   -31.5552 -31.5249 -31.4897 -31.4869 -31.4868 -31.4478 -31.4478 -31.4437
   -31.4137 -31.3775 -31.1150 -30.9958 -30.9622 -30.9311 -30.8434 -30.8093
   -16.2860 -16.2850 -15.9328 -15.9296 -15.8657 -15.8636 -15.7574 -15.7569
   -15.6249 -15.6188 -15.4389 -15.4328 -15.3334 -15.3281 -15.2271 -15.2182
   -15.1953 -15.1870 -15.1664 -15.1606 -14.9137 -14.9092 -14.8160 -14.8089
   -14.6400 -14.6334 -14.4929 -14.4871 -14.3308 -13.7706 -13.7705 -13.7186
   -12.8141  -7.4729  -3.7966  -3.7830  -3.4963  -3.4950  -3.1433  -3.1407
    -3.1286  -3.1277  -3.0823  -3.0786  -2.9945  -2.9863  -2.7952  -2.7906
    -2.7707  -2.7336  -2.7264  -2.6870  -2.6822  -2.6660  -2.6567  -2.6497
    -2.5998  -2.5564  -2.5017  -2.4436  -2.4060  -2.3999  -2.2806  -2.1909
    -2.1892  -2.1490  -2.1309  -2.0936  -2.0599  -2.0521  -1.9420  -1.9367
    -1.8739  -1.8433  -1.8187  -1.6787  -1.6673  -1.5842  -1.5743  -1.3875
    -1.3833  -1.3295  -1.3201  -1.1810  -1.1524  -1.1184  -1.0927  -1.0007
    -0.9896  -0.8939  -0.8865  -0.8114  -0.7965  -0.6923  -0.6736  -0.6271
    -0.6220  -0.6010  -0.5455  -0.4823  -0.4104  -0.3488  -0.2690  -0.2290
    -0.2111  -0.1667  -0.1450  -0.1199  -0.1007  -0.0392  -0.0252   0.0159
     0.0455   0.1026   0.1545   0.2223   0.2326   0.3733   0.4678   0.4725
     0.5025   0.6482   0.7375   0.7947   0.9712   0.9944   1.1164   1.1175
     1.1513   1.1718   1.2112   1.2224   1.3722   1.6217   2.1314   3.1740
     3.1755   3.3368   3.3386   3.5360   3.5366   3.7057   3.7212   3.8575
     3.8684

          k = 0.0380-0.0419 0.0000 ( 17876 PWs)   bands (ev):

   -56.6086 -56.5849 -55.7276 -55.7206 -55.7029 -55.6973 -55.5831 -55.5576
   -55.3666 -55.3414 -55.2732 -55.2715 -55.2493 -55.1724 -54.7333 -54.6229
   -32.9887 -32.8838 -32.8640 -32.7748 -32.7234 -32.7117 -32.1592 -32.1452
   -32.0758 -31.9883 -31.9683 -31.9357 -31.9352 -31.9170 -31.9027 -31.8860
   -31.8751 -31.8748 -31.8734 -31.8565 -31.7935 -31.7899 -31.7810 -31.7755
   -31.7696 -31.7094 -31.6922 -31.6859 -31.6177 -31.6151 -31.5951 -31.5877
   -31.5240 -31.5162 -31.4973 -31.4771 -31.4462 -31.4181 -31.4130 -31.4022
   -31.3760 -31.3515 -31.1886 -30.9749 -30.9631 -30.9021 -30.8424 -30.7813
   -16.5586 -16.1494 -16.1170 -16.0010 -15.8871 -15.8844 -15.7285 -15.7016
   -15.6284 -15.5169 -15.4925 -15.4728 -15.4488 -15.4470 -15.3284 -15.1735
   -15.1231 -15.0982 -15.0881 -15.0213 -14.8897 -14.8685 -14.8303 -14.7860
   -14.6244 -14.6080 -14.5167 -14.4229 -14.2458 -13.7822 -13.7189 -13.7082
   -12.8048  -7.4768  -3.8815  -3.7971  -3.7752  -3.5041  -3.4022  -3.3467
    -3.2715  -3.2451  -3.0475  -3.0382  -3.0070  -2.9702  -2.9352  -2.9177
    -2.8462  -2.8236  -2.7628  -2.7516  -2.6988  -2.6716  -2.6409  -2.6172
    -2.5823  -2.5553  -2.5055  -2.4868  -2.4390  -2.3494  -2.3161  -2.2723
    -2.1917  -2.1659  -2.1315  -2.0855  -2.0021  -1.9942  -1.8915  -1.8480
    -1.8162  -1.6872  -1.6482  -1.5622  -1.5244  -1.5071  -1.4548  -1.4195
    -1.3203  -1.2873  -1.2257  -1.1983  -1.1267  -1.0901  -1.0646  -1.0559
    -0.9213  -0.9047  -0.8260  -0.7847  -0.7626  -0.7050  -0.6641  -0.5843
    -0.5356  -0.5032  -0.4979  -0.4580  -0.4097  -0.3687  -0.3561  -0.3066
    -0.2291  -0.1589  -0.1264  -0.0996  -0.0259   0.0287   0.0677   0.1394
     0.1660   0.2343   0.2390   0.2985   0.3575   0.3770   0.4000   0.4565
     0.5713   0.6598   0.7149   0.8515   0.8875   0.9378   0.9858   1.0216
     1.1104   1.1655   1.2250   1.3726   1.4269   1.6376   2.1603   2.9210
     3.0794   3.1707   3.3261   3.5120   3.5966   3.6494   3.7276   3.7890
     3.9045

          k =-0.0760-0.0000 0.0000 ( 17886 PWs)   bands (ev):

   -56.6135 -56.5799 -55.7317 -55.7263 -55.6979 -55.6925 -55.5881 -55.5525
   -55.3716 -55.3364 -55.2782 -55.2729 -55.2443 -55.1709 -54.7347 -54.6215
   -33.0428 -32.8880 -32.8599 -32.7858 -32.6987 -32.6672 -32.2160 -32.1981
   -32.1314 -31.9743 -31.9651 -31.9470 -31.9325 -31.9310 -31.8930 -31.8767
   -31.8689 -31.8618 -31.8381 -31.8329 -31.8289 -31.8022 -31.7811 -31.7686
   -31.7242 -31.7165 -31.7013 -31.6933 -31.6700 -31.6217 -31.5981 -31.5898
   -31.5290 -31.5112 -31.4891 -31.4481 -31.4383 -31.4057 -31.4010 -31.3752
   -31.3540 -31.2948 -31.2352 -30.9755 -30.9655 -30.8810 -30.8416 -30.7505
   -16.5113 -16.2238 -16.2168 -16.0547 -16.0326 -15.8021 -15.7654 -15.6190
   -15.6147 -15.5604 -15.5543 -15.5029 -15.4834 -15.4699 -15.2457 -15.1781
   -15.1723 -15.1111 -15.0844 -15.0613 -14.9663 -14.8396 -14.6972 -14.6667
   -14.6521 -14.5863 -14.4973 -14.3997 -14.1753 -13.7717 -13.7191 -13.6663
   -12.7939  -7.4792  -3.7983  -3.7674  -3.6721  -3.6685  -3.6409  -3.5273
    -3.2740  -3.2570  -3.2229  -3.1053  -3.0831  -2.9530  -2.8882  -2.8759
    -2.8257  -2.8184  -2.7851  -2.7100  -2.7095  -2.6781  -2.5782  -2.5125
    -2.4684  -2.4174  -2.3890  -2.3378  -2.3304  -2.2953  -2.2527  -2.1840
    -2.1565  -2.0514  -2.0432  -1.9997  -1.9237  -1.9014  -1.8902  -1.7724
    -1.7284  -1.7162  -1.6703  -1.6350  -1.6025  -1.5546  -1.4822  -1.4576
    -1.4272  -1.3800  -1.3044  -1.2680  -1.2431  -1.2109  -1.1009  -1.0078
    -0.9888  -0.8996  -0.8534  -0.8280  -0.7994  -0.7805  -0.6915  -0.6910
    -0.6668  -0.5466  -0.5347  -0.4771  -0.4380  -0.3629  -0.3219  -0.3001
    -0.2510  -0.1192  -0.0381  -0.0113   0.0350   0.0645   0.1370   0.1949
     0.2128   0.2437   0.3394   0.3921   0.4365   0.4822   0.5183   0.5373
     0.6044   0.6268   0.6932   0.7718   0.8330   0.8542   0.9105   0.9524
     1.0516   1.0610   1.1808   1.2842   1.3630   1.6537   2.0478   2.7949
     2.9314   3.0231   3.1177   3.4767   3.4979   3.6780   3.7915   3.8208
     3.8478

          k =-0.0760 0.0419 0.0000 ( 17914 PWs)   bands (ev):

   -56.6086 -56.5849 -55.7269 -55.7214 -55.7027 -55.6975 -55.5831 -55.5576
   -55.3666 -55.3415 -55.2732 -55.2715 -55.2493 -55.1724 -54.7333 -54.6229
   -32.9895 -32.8838 -32.8640 -32.7735 -32.7237 -32.7117 -32.1636 -32.1460
   -32.0760 -31.9688 -31.9537 -31.9370 -31.9356 -31.9348 -31.8967 -31.8896
   -31.8827 -31.8794 -31.8742 -31.8565 -31.7938 -31.7889 -31.7823 -31.7761
   -31.7743 -31.7095 -31.6922 -31.6745 -31.6175 -31.6172 -31.5944 -31.5858
   -31.5241 -31.5222 -31.4977 -31.4771 -31.4461 -31.4181 -31.4136 -31.4029
   -31.3760 -31.3516 -31.1883 -30.9749 -30.9642 -30.9021 -30.8429 -30.7813
   -16.3979 -16.1721 -16.1389 -15.9795 -15.9708 -15.8774 -15.7185 -15.6767
   -15.6268 -15.5138 -15.4718 -15.4685 -15.4500 -15.3853 -15.3389 -15.2283
   -15.1458 -15.1264 -15.0581 -15.0468 -15.0008 -14.8872 -14.8430 -14.8105
   -14.6231 -14.5983 -14.5067 -14.4235 -14.2450 -13.7804 -13.7189 -13.7085
   -12.8038  -7.4759  -3.7976  -3.7751  -3.4767  -3.4621  -3.3914  -3.3654
    -3.1464  -3.1362  -3.0416  -3.0157  -2.9654  -2.9430  -2.8421  -2.7782
    -2.7644  -2.7459  -2.6935  -2.6745  -2.6603  -2.6417  -2.6232  -2.5750
    -2.5683  -2.5302  -2.4920  -2.4559  -2.3777  -2.2650  -2.2579  -2.1985
    -2.1852  -2.1383  -2.0997  -2.0393  -2.0007  -1.9799  -1.9219  -1.8140
    -1.7549  -1.7486  -1.6408  -1.6109  -1.6054  -1.5888  -1.5012  -1.4291
    -1.3769  -1.3332  -1.2945  -1.2528  -1.2116  -1.1930  -1.1394  -1.0911
    -1.0288  -0.9731  -0.9356  -0.8965  -0.8390  -0.7914  -0.7685  -0.6999
    -0.6635  -0.5821  -0.5594  -0.5159  -0.4730  -0.4564  -0.4415  -0.3962
    -0.3317  -0.2981  -0.2028  -0.1960  -0.1660  -0.0654  -0.0111   0.0532
     0.1753   0.1887   0.2885   0.3037   0.3501   0.3793   0.5135   0.5705
     0.6588   0.7027   0.7962   0.8282   0.8610   0.9231   1.0318   1.0343
     1.0962   1.1014   1.2117   1.3072   1.3655   1.6554   2.1389   2.9325
     3.1054   3.1191   3.2179   3.6186   3.6654   3.6746   3.7201   3.8333
     3.9247

          k =-0.0760-0.0839 0.0000 ( 17948 PWs)   bands (ev):

   -56.5970 -56.5966 -55.7174 -55.7123 -55.7098 -55.7091 -55.5731 -55.5677
   -55.3568 -55.3513 -55.2700 -55.2614 -55.2613 -55.1740 -54.7319 -54.6244
   -32.8741 -32.8739 -32.8584 -32.8582 -32.7429 -32.7426 -32.0377 -32.0351
   -32.0216 -32.0155 -31.9656 -31.9644 -31.9224 -31.9206 -31.9193 -31.9186
   -31.9073 -31.9047 -31.9033 -31.9010 -31.8252 -31.8207 -31.7744 -31.7690
   -31.7081 -31.7009 -31.6399 -31.6333 -31.6058 -31.6057 -31.5995 -31.5560
   -31.5540 -31.5257 -31.4907 -31.4869 -31.4868 -31.4479 -31.4478 -31.4437
   -31.4168 -31.3775 -31.1150 -30.9958 -30.9629 -30.9311 -30.8440 -30.8094
   -16.1261 -16.1241 -16.0919 -16.0916 -15.8220 -15.8183 -15.7745 -15.7728
   -15.6002 -15.5943 -15.3873 -15.3772 -15.3714 -15.3673 -15.2432 -15.2343
   -15.1713 -15.1604 -15.0717 -15.0682 -15.0049 -14.9987 -14.9612 -14.9415
   -14.6247 -14.6169 -14.4891 -14.4806 -14.3287 -13.7704 -13.7704 -13.7186
   -12.8135  -7.4725  -3.7971  -3.7829  -3.2257  -3.2252  -3.1598  -3.1585
    -3.0380  -3.0333  -2.9561  -2.9556  -2.8567  -2.8525  -2.7636  -2.7128
    -2.7108  -2.7082  -2.6959  -2.6369  -2.5569  -2.5555  -2.5420  -2.5267
    -2.4709  -2.4688  -2.4540  -2.3824  -2.3689  -2.3331  -2.2937  -2.1875
    -2.1737  -2.1577  -2.1315  -2.0707  -2.0563  -2.0450  -1.9973  -1.9712
    -1.8946  -1.8289  -1.7879  -1.6674  -1.6638  -1.6542  -1.6422  -1.4868
    -1.4511  -1.4201  -1.4098  -1.4041  -1.3599  -1.2613  -1.2534  -1.1191
    -1.1166  -1.0473  -0.9652  -0.9418  -0.9194  -0.7854  -0.7447  -0.7042
    -0.6992  -0.6744  -0.6488  -0.6290  -0.6018  -0.4501  -0.4308  -0.3963
    -0.3657  -0.3577  -0.3156  -0.2481  -0.1680  -0.0869  -0.0857  -0.0202
     0.0320   0.0941   0.1821   0.1947   0.1988   0.4814   0.5618   0.6487
     0.7277   0.7912   0.8574   0.8819   0.9424   0.9815   1.1223   1.1251
     1.1441   1.1445   1.2040   1.2123   1.3651   1.6418   2.2070   3.2340
     3.2343   3.3014   3.3018   3.6256   3.6310   3.7400   3.7491   3.8584
     3.8640

     the Fermi energy is     2.4993 ev

!    total energy              =   -2942.90673373 Ry
     estimated scf accuracy    <       0.00000006 Ry
     smearing contrib. (-TS)   =      -0.00478745 Ry
     internal energy E=F+TS    =   -2942.90194628 Ry

     The total energy is F=E-TS. E is the sum of the following terms:
     one-electron contribution =  -23225.44308307 Ry
     hartree contribution      =   11703.00056909 Ry
     xc contribution           =    -487.46410845 Ry
     ewald contribution        =    9067.00429011 Ry
     electric field correction =       0.00038603 Ry

     convergence has been achieved in  76 iterations

     Forces acting on atoms (cartesian axes, Ry/au):

     atom    1 type  1   force =     0.00000565   -0.00043749    0.12427344
     atom    2 type  1   force =    -0.00005902   -0.00054863   -0.16065246
     atom    3 type  2   force =     0.00016542   -0.00030083   -0.06832238
     atom    4 type  2   force =    -0.00005241   -0.00038742    0.02754259
     atom    5 type  2   force =    -0.01678274    0.00112784   -0.00831546
     atom    6 type  2   force =     0.01783398    0.00162729   -0.01021033
     atom    7 type  1   force =     0.00039814   -0.00408194    0.02179349
     atom    8 type  1   force =     0.00019888   -0.00219523    0.11167201
     atom    9 type  2   force =     0.00010135    0.00018699   -0.00027805
     atom   10 type  2   force =    -0.00319848    0.00010825   -0.07303193
     atom   11 type  2   force =    -0.00035873    0.00033148   -0.00005730
     atom   12 type  2   force =     0.00016944    0.00045508   -0.00001555
     atom   13 type  1   force =     0.00012947   -0.00024609   -0.00006880
     atom   14 type  1   force =    -0.00016239    0.00004273   -0.00033434
     atom   15 type  2   force =    -0.00004386   -0.00024951    0.00021276
     atom   16 type  2   force =     0.00032547    0.00076790    0.00003845
     atom   17 type  2   force =     0.00018475    0.00031418   -0.00028214
     atom   18 type  2   force =    -0.00019522    0.00021407    0.00012450
     atom   19 type  1   force =     0.00050664   -0.00008934   -0.00022135
     atom   20 type  1   force =     0.00024951   -0.00042889   -0.00058227
     atom   21 type  2   force =     0.00009973    0.00008214    0.09967337
     atom   22 type  2   force =     0.00007649    0.00094897    0.00049891
     atom   23 type  2   force =    -0.07916332    0.00008535   -0.03244877
     atom   24 type  2   force =     0.07906934    0.00051392   -0.03244425
     atom   25 type  1   force =     0.00002697   -0.00041594    0.12379560
     atom   26 type  1   force =    -0.00003870   -0.00042277   -0.16077458
     atom   27 type  2   force =     0.00028845   -0.00046671   -0.06731231
     atom   28 type  2   force =    -0.00005474   -0.00020334    0.02727796
     atom   29 type  2   force =    -0.01731236    0.00074038   -0.00824177
     atom   30 type  2   force =     0.01828099    0.00113785   -0.01007921
     atom   31 type  1   force =     0.00033677   -0.00099942    0.02125822
     atom   32 type  1   force =     0.00021505   -0.00027120    0.11222590
     atom   33 type  2   force =     0.00011892    0.00051295   -0.00004507
     atom   34 type  2   force =    -0.00294677   -0.00065480   -0.07288603
     atom   35 type  2   force =    -0.00026367    0.00027279   -0.00008274
     atom   36 type  2   force =     0.00012694    0.00013596   -0.00001699
     atom   37 type  1   force =     0.00013290   -0.00015316    0.00018385
     atom   38 type  1   force =     0.00006662    0.00005004    0.00029331
     atom   39 type  2   force =     0.00020939    0.00037882   -0.00014939
     atom   40 type  2   force =     0.00009885    0.00034665    0.00017977
     atom   41 type  2   force =    -0.00014750    0.00032962    0.00017624
     atom   42 type  2   force =    -0.00003520    0.00059972   -0.00000967
     atom   43 type  1   force =     0.00060567    0.00052256    0.00047266
     atom   44 type  1   force =     0.00015565    0.00036617   -0.00053272
     atom   45 type  2   force =     0.00010276    0.00005084    0.09968933
     atom   46 type  2   force =    -0.07917252    0.00012880   -0.03245031
     atom   47 type  2   force =     0.07907422    0.00056218   -0.03243933
     atom   48 type  3   force =     0.00050544    0.00027404    0.00011095
     atom   49 type  4   force =    -0.00311522    0.00477760    0.00358332
     atom   50 type  5   force =     0.00474777   -0.00582937   -0.00265962
     atom   51 type  5   force =    -0.00098328    0.00096853    0.00026554
     atom   52 type  5   force =    -0.00039808   -0.00084532    0.00008000
     atom   53 type  3   force =     0.00099207   -0.00025127    0.00037575
     atom   54 type  5   force =    -0.00010543    0.00081472   -0.00092892
     atom   55 type  5   force =     0.00020311    0.00034415    0.00030162
     atom   56 type  5   force =    -0.00121320   -0.00064189   -0.00022550

     Total force =     0.425018     Total SCF correction =     0.000656
  @ DRIVER MODE: Message from server: STATUS
  @ DRIVER MODE: Message from server: GETFORCE
  @ DRIVER MODE: Returning v,forces,stress,ensemble 

     Writing output data file ./calc.save/
  @ DRIVER MODE: Message from server: EXIT
  @ DRIVE MODE: Exiting  
 
     init_run     :     25.66s CPU     25.84s WALL (       1 calls)
     electrons    :    940.69s CPU    961.83s WALL (       1 calls)
     forces       :      6.59s CPU      6.65s WALL (       1 calls)

     Called by init_run:
     wfcinit      :     18.81s CPU     18.90s WALL (       1 calls)
     potinit      :      5.60s CPU      5.64s WALL (       1 calls)
     hinit0       :      0.56s CPU      0.57s WALL (       1 calls)

     Called by electrons:
     c_bands      :    809.88s CPU    824.41s WALL (      76 calls)
     sum_band     :     89.85s CPU     92.72s WALL (      76 calls)
     v_of_rho     :     30.07s CPU     31.10s WALL (      77 calls)
     newd         :     11.69s CPU     14.26s WALL (      77 calls)
     mix_rho      :      3.51s CPU      3.54s WALL (      76 calls)
     vdW_kernel   :      4.82s CPU      4.83s WALL (       1 calls)

     Called by c_bands:
     init_us_2    :      5.27s CPU      5.31s WALL (    1540 calls)
     cegterg      :    795.77s CPU    809.97s WALL (     771 calls)

     Called by *egterg:
     cdiaghg      :    176.18s CPU    185.82s WALL (    5944 calls)
     h_psi        :    409.34s CPU    412.47s WALL (    5954 calls)
     s_psi        :     44.35s CPU     44.49s WALL (    5954 calls)
     g_psi        :      1.14s CPU      1.15s WALL (    5173 calls)

     Called by h_psi:
     h_psi:calbec :     47.25s CPU     47.50s WALL (    5954 calls)
     vloc_psi     :    315.38s CPU    318.12s WALL (    5954 calls)
     add_vuspsi   :     44.89s CPU     45.02s WALL (    5954 calls)

     General routines
     calbec       :     68.52s CPU     68.85s WALL (    6754 calls)
     fft          :     15.98s CPU     16.34s WALL (    4851 calls)
     ffts         :      0.16s CPU      0.16s WALL (     153 calls)
     fftw         :    354.96s CPU    358.72s WALL ( 1020962 calls)
     interpolate  :      0.36s CPU      0.37s WALL (      77 calls)
     davcio       :      0.00s CPU      0.11s WALL (      10 calls)
 
     Parallel routines
 
     PWSCF        :  16m17.63s CPU  16m41.50s WALL

 
   This run was terminated on:  16:54:36   2Aug2021            

=------------------------------------------------------------------------------=
   JOB DONE.
=------------------------------------------------------------------------------=
