
     Program PWSCF v.6.7GPU starts on 16Sep2021 at  1: 4:25 

     This program is part of the open-source Quantum ESPRESSO suite
     for quantum simulation of materials; please cite
         "P. Giannozzi et al., J. Phys.:Condens. Matter 21 395502 (2009);
         "P. Giannozzi et al., J. Phys.:Condens. Matter 29 465901 (2017);
         "P. Giannozzi et al., J. Chem. Phys. 152 154105 (2020);
          URL http://www.quantum-espresso.org", 
     in publications or presentations arising from this work. More details at
     http://www.quantum-espresso.org/quote

     Parallel version (MPI), running on    10 processors

     MPI processes distributed on     1 nodes
     R & G space division:  proc/nbgrp/npool/nimage =      10
     Reading input from /storage/home/hcoda1/3/ntian30/research/carbon/CxH_vib/H2O_calc/ads_slab/CH3N2H2O_c/out_0030/pw.inp
Warning: card &CELL ignored
Warning: card   CELL_DYNAMICS='IPI', ignored
Warning: card / ignored

     Current dimensions of program PWSCF are:
     Max number of different atomic species (ntypx) = 10
     Max number of k-points (npk) =  40000
     Max angular momentum in pseudopotentials (lmaxx) =  3
     Presently no symmetry can be used with electric field

     Message from routine cell_base_init:
     DEPRECATED: use true lattice parameter, not A to a.u. conversion factor

     **************************************************************************
     Initializing libbeef V0.1.2 with the BEEF-vdW functional.
     Citation: Wellendorff et al., PRB 85, 235149 (2012).
     **************************************************************************


     IMPORTANT: XC functional enforced from input :
     Exchange-correlation= BEEF-VDW
                           (   1   4  43  14   2   0   0)
     Any further DFT definition will be discarded
     Please, verify this is what you really want


     Subspace diagonalization in iterative solution of the eigenvalue problem:
     one sub-group per band group will be used
     scalapack distributed-memory algorithm (size of sub-group:  3*  3 procs)

  @ DRIVER MODE: Connecting to 
 qe_1139763_2852616.sched-torque.pace.gatech.edum19vsb49_scratch
  using UNIX socket
  @ DRIVER MODE: Message from server: STATUS
  @ DRIVER MODE: Message from server: INIT
  @ DRIVER MODE: Receiving replica           0          -1
  @ DRIVER MODE: Receiving encoded integer          25
  @ DRIVER MODE:  SCF:  T  FORCE:  T  STRESS:  F  VC:  F  ENSEMBLE:  F
  @ DRIVER MODE:  SCF:  T  FORCE:  T  STRESS:  F  VC:  F  ENSEMBLE:  F
 
     Parallelization info
     --------------------
     sticks:   dense  smooth     PW     G-vecs:    dense   smooth      PW
     Min         327     131     37                56683    14340    2191
     Max         328     133     38                56694    14346    2206
     Sum        3275    1317    379               566857   143421   21985
 
     Using Slab Decomposition
 


     bravais-lattice index     =            0
     lattice parameter (alat)  =       1.8897  a.u.
     unit-cell volume          =    6658.9804 (a.u.)^3
     number of atoms/cell      =           56
     number of atomic types    =            5
     number of electrons       =       403.00
     number of Kohn-Sham states=          211
     kinetic-energy cutoff     =      29.3995  Ry
     charge density cutoff     =     293.9946  Ry
     scf convergence threshold =      7.3E-08
     mixing beta               =       0.0500
     number of iterations used =            8  plain     mixing
     Exchange-correlation= BEEF-VDW
                           (   1   4  43  14   2   0   0)

     celldm(1)=   1.889726  celldm(2)=   0.000000  celldm(3)=   0.000000
     celldm(4)=   0.000000  celldm(5)=   0.000000  celldm(6)=   0.000000

     crystal axes: (cart. coord. in units of alat)
               a(1) = (   6.579727   0.000000   0.000000 )  
               a(2) = (  -0.000775   5.961596   0.000000 )  
               a(3) = (   0.000000   0.000000  25.155947 )  

     reciprocal axes: (cart. coord. in units 2 pi/alat)
               b(1) = (  0.151982  0.000020  0.000000 )  
               b(2) = (  0.000000  0.167740  0.000000 )  
               b(3) = (  0.000000  0.000000  0.039752 )  


     PseudoPot. # 1 for Ti read from file:
     /storage/coda1/p-amedford6/0/shared/rich_project_chbe-medford/medford-share/data/pseudos_module/espresso/nninc/pbe/van/Ti.UPF
     MD5 check sum: 8e4df49b7f0d34bbd5052bf3f5ea0213
     Pseudo is Ultrasoft, Zval = 12.0
     Generated by new atomic code, or converted to UPF format
     Using radial grid of  851 points,  6 beta functions with: 
                l(1) =   0
                l(2) =   0
                l(3) =   1
                l(4) =   1
                l(5) =   2
                l(6) =   2
     Q(r) pseudized with  8 coefficients,  rinner =    1.000   1.000   1.000
                                                       1.000   1.000

     PseudoPot. # 2 for O  read from file:
     /storage/coda1/p-amedford6/0/shared/rich_project_chbe-medford/medford-share/data/pseudos_module/espresso/nninc/pbe/van/O.UPF
     MD5 check sum: 78c19812648e8988a0fe644b0f25305e
     Pseudo is Ultrasoft, Zval =  6.0
     Generated by new atomic code, or converted to UPF format
     Using radial grid of  737 points,  4 beta functions with: 
                l(1) =   0
                l(2) =   0
                l(3) =   1
                l(4) =   1
     Q(r) pseudized with  8 coefficients,  rinner =    0.800   0.800   0.800


     PseudoPot. # 3 for N  read from file:
     /storage/coda1/p-amedford6/0/shared/rich_project_chbe-medford/medford-share/data/pseudos_module/espresso/nninc/pbe/van/N.UPF
     MD5 check sum: 90d10febe142ad51ac9d5be1deb811c4
     Pseudo is Ultrasoft, Zval =  5.0
     Generated by new atomic code, or converted to UPF format
     Using radial grid of  729 points,  4 beta functions with: 
                l(1) =   0
                l(2) =   0
                l(3) =   1
                l(4) =   1
     Q(r) pseudized with  8 coefficients,  rinner =    0.800   0.800   0.800


     PseudoPot. # 4 for C  read from file:
     /storage/coda1/p-amedford6/0/shared/rich_project_chbe-medford/medford-share/data/pseudos_module/espresso/nninc/pbe/van/C.UPF
     MD5 check sum: 1a69bf6b8db32088f5b2163dbdb77a27
     Pseudo is Ultrasoft, Zval =  4.0
     Generated by new atomic code, or converted to UPF format
     Using radial grid of  721 points,  4 beta functions with: 
                l(1) =   0
                l(2) =   0
                l(3) =   1
                l(4) =   1
     Q(r) pseudized with  8 coefficients,  rinner =    0.800   0.800   0.800


     PseudoPot. # 5 for H  read from file:
     /storage/coda1/p-amedford6/0/shared/rich_project_chbe-medford/medford-share/data/pseudos_module/espresso/nninc/pbe/van/H.UPF
     MD5 check sum: b5ee9d7bfd3a09ee7748110bda690ff7
     Pseudo is Ultrasoft, Zval =  1.0
     Generated by new atomic code, or converted to UPF format
     Using radial grid of  615 points,  1 beta functions with: 
                l(1) =   0
     Q(r) pseudized with  8 coefficients,  rinner =    0.800

     atomic species   valence    mass     pseudopotential
        Ti1           12.00    47.86700     Ti( 1.00)
        O1             6.00    15.99900     O ( 1.00)
        N1             5.00    14.00700     N ( 1.00)
        C1             4.00    12.01100     C ( 1.00)
        H1             1.00     1.00800     H ( 1.00)

     No symmetry found



   Cartesian axes

     site n.     atom                  positions (alat units)
         1           Ti1 tau(   1) = (   0.0004258   2.9801865   6.0000000  )
         2           Ti1 tau(   2) = (   3.2906075   1.4906267   6.0002472  )
         3           O1  tau(   3) = (   0.0006271   0.0005054   7.9858123  )
         4           O1  tau(   4) = (   3.2906025   0.0005020   7.3038282  )
         5           O1  tau(   5) = (   4.5942328   1.4918067   9.2879030  )
         6           O1  tau(   6) = (   1.9868534   1.4903216   9.2879459  )
         7           Ti1 tau(   7) = (   3.2907910   2.8959150   9.1758416  )
         8           Ti1 tau(   8) = (   0.0015273   1.4827037   9.2680791  )
         9           O1  tau(   9) = (   3.2828550   5.9398922  11.3444325  )
        10           O1  tau(  10) = (   0.0116148   5.9584955  10.6183126  )
        11           O1  tau(  11) = (   1.2785533   1.4626539  12.6279770  )
        12           O1  tau(  12) = (   5.2704455   1.4657548  12.6160130  )
        13           Ti1 tau(  13) = (   0.0600808   2.9393476  12.6134163  )
        14           Ti1 tau(  14) = (   3.3737088   1.4602624  12.5010433  )
        15           O1  tau(  15) = (   6.5684750   5.9323085  14.6353932  )
        16           O1  tau(  16) = (   3.2849856   5.9366180  13.9618146  )
        17           O1  tau(  17) = (   4.5362432   1.5114280  16.0576559  )
        18           O1  tau(  18) = (   2.0240554   1.5008084  16.0383298  )
        19           Ti1 tau(  19) = (   3.2703657   2.9522362  15.6888820  )
        20           Ti1 tau(  20) = (   6.5391562   1.4934284  15.8005638  )
        21           O1  tau(  21) = (   3.2904802   0.0005063   4.7018136  )
        22           O1  tau(  22) = (   6.5583345   5.9570231  17.1947061  )
        23           O1  tau(  23) = (   1.3043587   1.4918075   6.0039043  )
        24           O1  tau(  24) = (   5.2767064   1.4903225   6.0039473  )
        25           Ti1 tau(  25) = (   0.0000382   5.9609847   6.0000000  )
        26           Ti1 tau(  26) = (   3.2902200   4.4714249   6.0002472  )
        27           O1  tau(  27) = (   0.0002396   2.9813036   7.9858123  )
        28           O1  tau(  28) = (   3.2902150   2.9813002   7.3038282  )
        29           O1  tau(  29) = (   4.5938453   4.4726049   9.2879030  )
        30           O1  tau(  30) = (   1.9864658   4.4711199   9.2879459  )
        31           Ti1 tau(  31) = (   3.2891106   5.8743827   9.1763621  )
        32           Ti1 tau(  32) = (   0.0006254   4.4649316   9.2693709  )
        33           O1  tau(  33) = (   3.2888364   2.9620848  11.3424199  )
        34           O1  tau(  34) = (   0.0092240   2.9805883  10.6323155  )
        35           O1  tau(  35) = (   1.2785924   4.4508711  12.6313046  )
        36           O1  tau(  36) = (   5.2742027   4.4576360  12.6186982  )
        37           Ti1 tau(  37) = (   0.0560446   5.9134488  12.5469576  )
        38           Ti1 tau(  38) = (   3.3742563   4.4530221  12.5021653  )
        39           O1  tau(  39) = (   6.5655761   2.9369947  14.6516633  )
        40           O1  tau(  40) = (   3.2805149   2.9594171  13.8967751  )
        41           O1  tau(  41) = (   4.5308665   4.4203993  16.0704334  )
        42           O1  tau(  42) = (   2.0169005   4.4237906  16.0574931  )
        43           Ti1 tau(  43) = (   3.2493829   5.9208236  15.8028744  )
        44           Ti1 tau(  44) = (   6.5423592   4.6318136  16.0678394  )
        45           O1  tau(  45) = (   3.2900926   2.9813045   4.7018136  )
        46           O1  tau(  46) = (   1.3039711   4.4726057   6.0039043  )
        47           O1  tau(  47) = (   5.2763189   4.4711207   6.0039473  )
        48           N1  tau(  48) = (   0.1516996   2.6368831  18.6397825  )
        49           N1  tau(  49) = (   0.0343947   2.8734663  17.4441277  )
        50           C1  tau(  50) = (   0.1908864   3.7705318  19.5986308  )
        51           H1  tau(  51) = (   6.5333492   4.7333814  19.1494580  )
        52           H1  tau(  52) = (   6.0816938   3.5230213  20.4174400  )
        53           H1  tau(  53) = (   1.1988782   3.7880179  20.0220438  )
        54           O1  tau(  54) = (   3.2442500   5.9498283  18.2024067  )
        55           H1  tau(  55) = (   4.0366425   0.4867780  18.4672138  )
        56           H1  tau(  56) = (   2.4709518   0.5160301  18.4623371  )

     number of k points=    10  Fermi-Dirac smearing, width (Ry)=  0.0073
                       cart. coord. in units 2pi/alat
        k(    1) = (   0.0000000   0.0000000   0.0000000), wk =   0.1250000
        k(    2) = (   0.0000000   0.0419351   0.0000000), wk =   0.2500000
        k(    3) = (   0.0000000  -0.0838702   0.0000000), wk =   0.1250000
        k(    4) = (   0.0379955   0.0000049   0.0000000), wk =   0.2500000
        k(    5) = (   0.0379955   0.0419400   0.0000000), wk =   0.2500000
        k(    6) = (   0.0379955  -0.0838652   0.0000000), wk =   0.2500000
        k(    7) = (   0.0379955  -0.0419301   0.0000000), wk =   0.2500000
        k(    8) = (  -0.0759910  -0.0000099   0.0000000), wk =   0.1250000
        k(    9) = (  -0.0759910   0.0419252   0.0000000), wk =   0.2500000
        k(   10) = (  -0.0759910  -0.0838800   0.0000000), wk =   0.1250000

     Dense  grid:   566857 G-vectors     FFT dimensions: (  72,  64, 270)

     Smooth grid:   143421 G-vectors     FFT dimensions: (  45,  40, 180)

     Estimated max dynamical RAM per process >     367.48 MB

     Estimated total dynamical RAM >       3.59 GB
     Cannot read rho : file not found

     Initial potential from superposition of free atoms

     starting charge  386.99914, renormalised to  403.00000

     negative rho (up, down):  1.443E-02 0.000E+00


     %%%%%%%%%%%%%%%%%%%%%%%%%%%%%%%%%%%%%%%%%%%%%%%%%%%%%%%%%%%%%%%%%%%%%%%%
     %                                                                      %
     % You are using vdW-DF, which was implemented by the Thonhauser group. %
     % Please cite the following two papers that made this development      %
     % possible and the two reviews that describe the various versions:     %
     %                                                                      %
     %   T. Thonhauser et al., PRL 115, 136402 (2015).                      %
     %   T. Thonhauser et al., PRB 76, 125112 (2007).                       %
     %   K. Berland et al., Rep. Prog. Phys. 78, 066501 (2015).             %
     %   D.C. Langreth et al., J. Phys.: Condens. Matter 21, 084203 (2009). %
     %                                                                      %
     %                                                                      %
     % If you are calculating the stress with vdW-DF, please also cite:     %
     %                                                                      %
     %   R. Sabatini et al., J. Phys.: Condens. Matter 24, 424209 (2012).   %
     %                                                                      %
     %%%%%%%%%%%%%%%%%%%%%%%%%%%%%%%%%%%%%%%%%%%%%%%%%%%%%%%%%%%%%%%%%%%%%%%%


 
     Adding external electric field

     Computed dipole along edir(3) : 
        Dipole              -13.2293 Ry au,        -33.6256 Debye
        Dipole field         -0.0250 Ry au, 
 
        Potential amp.        2.3143 Ry
        Total length         46.3494 bohr
 
     Starting wfcs are  305 atomic wfcs
  @ DRIVER MODE: Message from server: STATUS
  @ DRIVER MODE: Message from server: POSDATA
  @ DRIVER MODE: Reading and sharing cell 
  @ DRIVER MODE: Reading and sharing positions 
  @ DRIVER MODE: Received positions 

     total cpu time spent up to now is       11.4 secs

     Self-consistent Calculation

     iteration #  1     ecut=    29.40 Ry     beta= 0.05
     Davidson diagonalization with overlap
     c_bands:  4 eigenvalues not converged
     c_bands:  2 eigenvalues not converged
     c_bands:  4 eigenvalues not converged
     c_bands:  1 eigenvalues not converged
     c_bands:  1 eigenvalues not converged
     c_bands:  1 eigenvalues not converged
     c_bands:  4 eigenvalues not converged
     c_bands:  1 eigenvalues not converged
     c_bands:  1 eigenvalues not converged
     ethr =  1.00E-05,  avg # of iterations = 29.9

     negative rho (up, down):  8.648E-03 0.000E+00
 
     Adding external electric field

     Computed dipole along edir(3) : 
        Dipole               53.0562 Ry au,        134.8555 Debye
        Dipole field          0.1001 Ry au, 
 
        Potential amp.       -9.2814 Ry
        Total length         46.3494 bohr
 

     total cpu time spent up to now is       61.3 secs

     total energy              =   -2367.59285335 Ry
     estimated scf accuracy    <    6915.99796563 Ry

     iteration #  2     ecut=    29.40 Ry     beta= 0.05
     Davidson diagonalization with overlap
     ethr =  1.00E-02,  avg # of iterations = 22.5

     negative rho (up, down):  4.732E-04 0.000E+00
 
     Adding external electric field

     Computed dipole along edir(3) : 
        Dipole               -1.0757 Ry au,         -2.7342 Debye
        Dipole field         -0.0020 Ry au, 
 
        Potential amp.        0.1882 Ry
        Total length         46.3494 bohr
 

     total cpu time spent up to now is      143.4 secs

     total energy              =   -2460.88649481 Ry
     estimated scf accuracy    <   71614.91902990 Ry

     iteration #  3     ecut=    29.40 Ry     beta= 0.05
     Davidson diagonalization with overlap
     ethr =  1.00E-02,  avg # of iterations = 16.1

     negative rho (up, down):  5.270E-04 0.000E+00
 
     Adding external electric field

     Computed dipole along edir(3) : 
        Dipole               -3.9260 Ry au,         -9.9790 Debye
        Dipole field         -0.0074 Ry au, 
 
        Potential amp.        0.6868 Ry
        Total length         46.3494 bohr
 

     total cpu time spent up to now is      194.3 secs

     total energy              =   -2962.38580365 Ry
     estimated scf accuracy    <    5775.94301273 Ry

     iteration #  4     ecut=    29.40 Ry     beta= 0.05
     Davidson diagonalization with overlap
     ethr =  1.00E-02,  avg # of iterations = 13.4

     negative rho (up, down):  5.433E-04 0.000E+00
 
     Adding external electric field

     Computed dipole along edir(3) : 
        Dipole               -5.3101 Ry au,        -13.4970 Debye
        Dipole field         -0.0100 Ry au, 
 
        Potential amp.        0.9289 Ry
        Total length         46.3494 bohr
 

     total cpu time spent up to now is      216.9 secs

     total energy              =   -2966.74845007 Ry
     estimated scf accuracy    <    1795.44589901 Ry

     iteration #  5     ecut=    29.40 Ry     beta= 0.05
     Davidson diagonalization with overlap
     ethr =  1.00E-02,  avg # of iterations =  3.2

     negative rho (up, down):  6.154E-04 0.000E+00
 
     Adding external electric field

     Computed dipole along edir(3) : 
        Dipole               -8.2858 Ry au,        -21.0604 Debye
        Dipole field         -0.0156 Ry au, 
 
        Potential amp.        1.4495 Ry
        Total length         46.3494 bohr
 

     total cpu time spent up to now is      227.9 secs

     total energy              =   -2938.91139706 Ry
     estimated scf accuracy    <    1701.67799836 Ry

     iteration #  6     ecut=    29.40 Ry     beta= 0.05
     Davidson diagonalization with overlap
     ethr =  1.00E-02,  avg # of iterations = 14.1

     negative rho (up, down):  5.776E-04 0.000E+00
 
     Adding external electric field

     Computed dipole along edir(3) : 
        Dipole               -6.7107 Ry au,        -17.0570 Debye
        Dipole field         -0.0127 Ry au, 
 
        Potential amp.        1.1739 Ry
        Total length         46.3494 bohr
 

     total cpu time spent up to now is      254.5 secs

     total energy              =   -2978.20809622 Ry
     estimated scf accuracy    <     185.44922916 Ry

     iteration #  7     ecut=    29.40 Ry     beta= 0.05
     Davidson diagonalization with overlap
     ethr =  1.00E-02,  avg # of iterations =  1.4

     negative rho (up, down):  5.911E-04 0.000E+00
 
     Adding external electric field

     Computed dipole along edir(3) : 
        Dipole               -6.1226 Ry au,        -15.5620 Debye
        Dipole field         -0.0116 Ry au, 
 
        Potential amp.        1.0711 Ry
        Total length         46.3494 bohr
 

     total cpu time spent up to now is      265.0 secs

     total energy              =   -2977.91823715 Ry
     estimated scf accuracy    <      33.79586800 Ry

     iteration #  8     ecut=    29.40 Ry     beta= 0.05
     Davidson diagonalization with overlap
     ethr =  8.39E-03,  avg # of iterations =  1.1

     negative rho (up, down):  6.850E-04 0.000E+00
 
     Adding external electric field

     Computed dipole along edir(3) : 
        Dipole               -4.1612 Ry au,        -10.5768 Debye
        Dipole field         -0.0079 Ry au, 
 
        Potential amp.        0.7279 Ry
        Total length         46.3494 bohr
 

     total cpu time spent up to now is      275.2 secs

     total energy              =   -2974.92318023 Ry
     estimated scf accuracy    <      29.15331131 Ry

     iteration #  9     ecut=    29.40 Ry     beta= 0.05
     Davidson diagonalization with overlap
     ethr =  7.23E-03,  avg # of iterations = 10.4

     negative rho (up, down):  6.965E-04 0.000E+00
 
     Adding external electric field

     Computed dipole along edir(3) : 
        Dipole               -4.0720 Ry au,        -10.3500 Debye
        Dipole field         -0.0077 Ry au, 
 
        Potential amp.        0.7123 Ry
        Total length         46.3494 bohr
 

     total cpu time spent up to now is      288.9 secs

     total energy              =   -2976.62167213 Ry
     estimated scf accuracy    <      33.66050439 Ry

     iteration # 10     ecut=    29.40 Ry     beta= 0.05
     Davidson diagonalization with overlap
     ethr =  7.23E-03,  avg # of iterations =  1.4

     negative rho (up, down):  9.087E-04 0.000E+00
 
     Adding external electric field

     Computed dipole along edir(3) : 
        Dipole               -1.9290 Ry au,         -4.9030 Debye
        Dipole field         -0.0036 Ry au, 
 
        Potential amp.        0.3374 Ry
        Total length         46.3494 bohr
 

     total cpu time spent up to now is      299.4 secs

     total energy              =   -2978.49629545 Ry
     estimated scf accuracy    <      41.37208660 Ry

     iteration # 11     ecut=    29.40 Ry     beta= 0.05
     Davidson diagonalization with overlap
     ethr =  7.23E-03,  avg # of iterations = 17.9

     negative rho (up, down):  9.363E-04 0.000E+00
 
     Adding external electric field

     Computed dipole along edir(3) : 
        Dipole               -3.3086 Ry au,         -8.4097 Debye
        Dipole field         -0.0062 Ry au, 
 
        Potential amp.        0.5788 Ry
        Total length         46.3494 bohr
 

     total cpu time spent up to now is      321.1 secs

     total energy              =   -2970.28798628 Ry
     estimated scf accuracy    <    1539.78613432 Ry

     iteration # 12     ecut=    29.40 Ry     beta= 0.05
     Davidson diagonalization with overlap
     ethr =  7.23E-03,  avg # of iterations =  4.8

     negative rho (up, down):  9.665E-04 0.000E+00
 
     Adding external electric field

     Computed dipole along edir(3) : 
        Dipole               -6.8448 Ry au,        -17.3978 Debye
        Dipole field         -0.0129 Ry au, 
 
        Potential amp.        1.1974 Ry
        Total length         46.3494 bohr
 

     total cpu time spent up to now is      333.0 secs

     total energy              =   -2930.18948971 Ry
     estimated scf accuracy    <    1258.58179038 Ry

     iteration # 13     ecut=    29.40 Ry     beta= 0.05
     Davidson diagonalization with overlap
     ethr =  7.23E-03,  avg # of iterations = 11.5

     negative rho (up, down):  6.779E-04 0.000E+00
 
     Adding external electric field

     Computed dipole along edir(3) : 
        Dipole               -4.1680 Ry au,        -10.5939 Debye
        Dipole field         -0.0079 Ry au, 
 
        Potential amp.        0.7291 Ry
        Total length         46.3494 bohr
 

     total cpu time spent up to now is      359.2 secs

     total energy              =   -2959.97209720 Ry
     estimated scf accuracy    <    1293.66374693 Ry

     iteration # 14     ecut=    29.40 Ry     beta= 0.05
     Davidson diagonalization with overlap
     ethr =  7.23E-03,  avg # of iterations = 12.0

     negative rho (up, down):  7.055E-04 0.000E+00
 
     Adding external electric field

     Computed dipole along edir(3) : 
        Dipole               -3.0352 Ry au,         -7.7147 Debye
        Dipole field         -0.0057 Ry au, 
 
        Potential amp.        0.5310 Ry
        Total length         46.3494 bohr
 

     total cpu time spent up to now is      375.7 secs

     total energy              =   -2974.07218809 Ry
     estimated scf accuracy    <       5.18378646 Ry

     iteration # 15     ecut=    29.40 Ry     beta= 0.05
     Davidson diagonalization with overlap
     c_bands:  5 eigenvalues not converged
     c_bands:  1 eigenvalues not converged
     c_bands:  2 eigenvalues not converged
     c_bands:  2 eigenvalues not converged
     c_bands:  4 eigenvalues not converged
     c_bands:  1 eigenvalues not converged
     ethr =  1.29E-03,  avg # of iterations = 19.4

     negative rho (up, down):  7.476E-04 0.000E+00
 
     Adding external electric field

     Computed dipole along edir(3) : 
        Dipole               -2.5676 Ry au,         -6.5262 Debye
        Dipole field         -0.0048 Ry au, 
 
        Potential amp.        0.4492 Ry
        Total length         46.3494 bohr
 

     total cpu time spent up to now is      394.5 secs

     total energy              =   -2974.38580885 Ry
     estimated scf accuracy    <       3.37107819 Ry

     iteration # 16     ecut=    29.40 Ry     beta= 0.05
     Davidson diagonalization with overlap
     ethr =  8.36E-04,  avg # of iterations =  3.6

     negative rho (up, down):  7.860E-04 0.000E+00
 
     Adding external electric field

     Computed dipole along edir(3) : 
        Dipole               -3.2032 Ry au,         -8.1417 Debye
        Dipole field         -0.0060 Ry au, 
 
        Potential amp.        0.5604 Ry
        Total length         46.3494 bohr
 

     total cpu time spent up to now is      406.0 secs

     total energy              =   -2973.73002308 Ry
     estimated scf accuracy    <       3.92816306 Ry

     iteration # 17     ecut=    29.40 Ry     beta= 0.05
     Davidson diagonalization with overlap
     c_bands:  2 eigenvalues not converged
     c_bands:  3 eigenvalues not converged
     c_bands:  1 eigenvalues not converged
     c_bands:  3 eigenvalues not converged
     c_bands:  4 eigenvalues not converged
     c_bands:  2 eigenvalues not converged
     c_bands:  4 eigenvalues not converged
     c_bands:  1 eigenvalues not converged
     c_bands:  2 eigenvalues not converged
     ethr =  8.36E-04,  avg # of iterations = 19.2

     negative rho (up, down):  8.251E-04 0.000E+00
 
     Adding external electric field

     Computed dipole along edir(3) : 
        Dipole               -2.5642 Ry au,         -6.5176 Debye
        Dipole field         -0.0048 Ry au, 
 
        Potential amp.        0.4486 Ry
        Total length         46.3494 bohr
 

     total cpu time spent up to now is      425.7 secs

     total energy              =   -2974.13698869 Ry
     estimated scf accuracy    <      15.13628883 Ry

     iteration # 18     ecut=    29.40 Ry     beta= 0.05
     Davidson diagonalization with overlap
     ethr =  8.36E-04,  avg # of iterations =  1.6

     negative rho (up, down):  9.466E-04 0.000E+00
 
     Adding external electric field

     Computed dipole along edir(3) : 
        Dipole               -1.9837 Ry au,         -5.0420 Debye
        Dipole field         -0.0037 Ry au, 
 
        Potential amp.        0.3470 Ry
        Total length         46.3494 bohr
 

     total cpu time spent up to now is      436.4 secs

     total energy              =   -2974.11552027 Ry
     estimated scf accuracy    <       2.76174843 Ry

     iteration # 19     ecut=    29.40 Ry     beta= 0.05
     Davidson diagonalization with overlap
     ethr =  6.85E-04,  avg # of iterations =  3.3

     negative rho (up, down):  1.001E-03 0.000E+00
 
     Adding external electric field

     Computed dipole along edir(3) : 
        Dipole               -1.9341 Ry au,         -4.9159 Debye
        Dipole field         -0.0036 Ry au, 
 
        Potential amp.        0.3383 Ry
        Total length         46.3494 bohr
 

     total cpu time spent up to now is      447.7 secs

     total energy              =   -2974.13521776 Ry
     estimated scf accuracy    <       3.46652800 Ry

     iteration # 20     ecut=    29.40 Ry     beta= 0.05
     Davidson diagonalization with overlap
     ethr =  6.85E-04,  avg # of iterations =  2.1

     negative rho (up, down):  1.876E-03 0.000E+00
 
     Adding external electric field

     Computed dipole along edir(3) : 
        Dipole               -1.7845 Ry au,         -4.5357 Debye
        Dipole field         -0.0034 Ry au, 
 
        Potential amp.        0.3122 Ry
        Total length         46.3494 bohr
 

     total cpu time spent up to now is      458.3 secs

     total energy              =   -2974.06173137 Ry
     estimated scf accuracy    <       1.17863611 Ry

     iteration # 21     ecut=    29.40 Ry     beta= 0.05
     Davidson diagonalization with overlap
     c_bands:  4 eigenvalues not converged
     ethr =  2.92E-04,  avg # of iterations = 13.4

     negative rho (up, down):  3.018E-03 0.000E+00
 
     Adding external electric field

     Computed dipole along edir(3) : 
        Dipole               -1.1216 Ry au,         -2.8508 Debye
        Dipole field         -0.0021 Ry au, 
 
        Potential amp.        0.1962 Ry
        Total length         46.3494 bohr
 

     total cpu time spent up to now is      476.6 secs

     total energy              =   -2974.22194635 Ry
     estimated scf accuracy    <      14.59474392 Ry

     iteration # 22     ecut=    29.40 Ry     beta= 0.05
     Davidson diagonalization with overlap
     ethr =  2.92E-04,  avg # of iterations =  1.6

     negative rho (up, down):  2.755E-03 0.000E+00
 
     Adding external electric field

     Computed dipole along edir(3) : 
        Dipole               -0.6573 Ry au,         -1.6707 Debye
        Dipole field         -0.0012 Ry au, 
 
        Potential amp.        0.1150 Ry
        Total length         46.3494 bohr
 

     total cpu time spent up to now is      487.2 secs

     total energy              =   -2973.79790393 Ry
     estimated scf accuracy    <      12.47482554 Ry

     iteration # 23     ecut=    29.40 Ry     beta= 0.05
     Davidson diagonalization with overlap
     c_bands:  2 eigenvalues not converged
     c_bands:  2 eigenvalues not converged
     c_bands:  3 eigenvalues not converged
     c_bands:  2 eigenvalues not converged
     ethr =  2.92E-04,  avg # of iterations = 17.2

     negative rho (up, down):  6.570E-03 0.000E+00
 
     Adding external electric field

     Computed dipole along edir(3) : 
        Dipole               -0.4529 Ry au,         -1.1512 Debye
        Dipole field         -0.0009 Ry au, 
 
        Potential amp.        0.0792 Ry
        Total length         46.3494 bohr
 

     total cpu time spent up to now is      506.2 secs

     total energy              =   -2974.01789335 Ry
     estimated scf accuracy    <       0.75731009 Ry

     iteration # 24     ecut=    29.40 Ry     beta= 0.05
     Davidson diagonalization with overlap
     c_bands:  2 eigenvalues not converged
     ethr =  1.88E-04,  avg # of iterations = 10.7

     negative rho (up, down):  1.987E-02 0.000E+00
 
     Adding external electric field

     Computed dipole along edir(3) : 
        Dipole                0.1944 Ry au,          0.4940 Debye
        Dipole field          0.0004 Ry au, 
 
        Potential amp.       -0.0340 Ry
        Total length         46.3494 bohr
 

     total cpu time spent up to now is      519.7 secs

     total energy              =   -2973.97295320 Ry
     estimated scf accuracy    <       0.69455345 Ry

     iteration # 25     ecut=    29.40 Ry     beta= 0.05
     Davidson diagonalization with overlap
     c_bands:  3 eigenvalues not converged
     c_bands:  4 eigenvalues not converged
     c_bands:  2 eigenvalues not converged
     c_bands:  3 eigenvalues not converged
     ethr =  1.72E-04,  avg # of iterations = 10.9

     negative rho (up, down):  1.087E-02 0.000E+00
 
     Adding external electric field

     Computed dipole along edir(3) : 
        Dipole                0.1422 Ry au,          0.3614 Debye
        Dipole field          0.0003 Ry au, 
 
        Potential amp.       -0.0249 Ry
        Total length         46.3494 bohr
 

     total cpu time spent up to now is      537.3 secs

     total energy              =   -2974.00373980 Ry
     estimated scf accuracy    <       1.23472845 Ry

     iteration # 26     ecut=    29.40 Ry     beta= 0.05
     Davidson diagonalization with overlap
     ethr =  1.72E-04,  avg # of iterations =  2.3

     negative rho (up, down):  8.782E-03 0.000E+00
 
     Adding external electric field

     Computed dipole along edir(3) : 
        Dipole                0.2795 Ry au,          0.7104 Debye
        Dipole field          0.0005 Ry au, 
 
        Potential amp.       -0.0489 Ry
        Total length         46.3494 bohr
 

     total cpu time spent up to now is      548.4 secs

     total energy              =   -2973.99603175 Ry
     estimated scf accuracy    <       0.45148563 Ry

     iteration # 27     ecut=    29.40 Ry     beta= 0.05
     Davidson diagonalization with overlap
     c_bands:  1 eigenvalues not converged
     c_bands:  2 eigenvalues not converged
     c_bands:  5 eigenvalues not converged
     c_bands:  3 eigenvalues not converged
     c_bands:  5 eigenvalues not converged
     c_bands:  3 eigenvalues not converged
     c_bands:  5 eigenvalues not converged
     ethr =  1.12E-04,  avg # of iterations = 20.5

     negative rho (up, down):  6.921E-03 0.000E+00
 
     Adding external electric field

     Computed dipole along edir(3) : 
        Dipole                0.1602 Ry au,          0.4072 Debye
        Dipole field          0.0003 Ry au, 
 
        Potential amp.       -0.0280 Ry
        Total length         46.3494 bohr
 

     total cpu time spent up to now is      567.8 secs

     total energy              =   -2973.98788218 Ry
     estimated scf accuracy    <       0.17243764 Ry

     iteration # 28     ecut=    29.40 Ry     beta= 0.05
     Davidson diagonalization with overlap
     c_bands:  1 eigenvalues not converged
     c_bands:  3 eigenvalues not converged
     c_bands:  5 eigenvalues not converged
     c_bands:  1 eigenvalues not converged
     c_bands:  4 eigenvalues not converged
     c_bands:  3 eigenvalues not converged
     ethr =  4.28E-05,  avg # of iterations = 17.1

     negative rho (up, down):  8.932E-03 0.000E+00
 
     Adding external electric field

     Computed dipole along edir(3) : 
        Dipole                0.4242 Ry au,          1.0782 Debye
        Dipole field          0.0008 Ry au, 
 
        Potential amp.       -0.0742 Ry
        Total length         46.3494 bohr
 

     total cpu time spent up to now is      584.4 secs

     total energy              =   -2973.99351138 Ry
     estimated scf accuracy    <       0.10040340 Ry

     iteration # 29     ecut=    29.40 Ry     beta= 0.05
     Davidson diagonalization with overlap
     c_bands:  1 eigenvalues not converged
     c_bands:  1 eigenvalues not converged
     c_bands:  1 eigenvalues not converged
     c_bands:  1 eigenvalues not converged
     ethr =  2.49E-05,  avg # of iterations = 17.5

     negative rho (up, down):  8.313E-03 0.000E+00
 
     Adding external electric field

     Computed dipole along edir(3) : 
        Dipole                0.6835 Ry au,          1.7372 Debye
        Dipole field          0.0013 Ry au, 
 
        Potential amp.       -0.1196 Ry
        Total length         46.3494 bohr
 

     total cpu time spent up to now is      606.2 secs

     total energy              =   -2973.98956368 Ry
     estimated scf accuracy    <       0.15939283 Ry

     iteration # 30     ecut=    29.40 Ry     beta= 0.05
     Davidson diagonalization with overlap
     c_bands:  1 eigenvalues not converged
     c_bands:  2 eigenvalues not converged
     ethr =  2.49E-05,  avg # of iterations = 13.6

     negative rho (up, down):  8.772E-03 0.000E+00
 
     Adding external electric field

     Computed dipole along edir(3) : 
        Dipole                0.6825 Ry au,          1.7347 Debye
        Dipole field          0.0013 Ry au, 
 
        Potential amp.       -0.1194 Ry
        Total length         46.3494 bohr
 

     total cpu time spent up to now is      623.0 secs

     total energy              =   -2973.99750185 Ry
     estimated scf accuracy    <       0.04559088 Ry

     iteration # 31     ecut=    29.40 Ry     beta= 0.05
     Davidson diagonalization with overlap
     c_bands:  2 eigenvalues not converged
     c_bands:  1 eigenvalues not converged
     ethr =  1.13E-05,  avg # of iterations = 17.7

     negative rho (up, down):  9.050E-03 0.000E+00
 
     Adding external electric field

     Computed dipole along edir(3) : 
        Dipole                0.6693 Ry au,          1.7011 Debye
        Dipole field          0.0013 Ry au, 
 
        Potential amp.       -0.1171 Ry
        Total length         46.3494 bohr
 

     total cpu time spent up to now is      640.7 secs

     total energy              =   -2973.99875013 Ry
     estimated scf accuracy    <       0.02282892 Ry

     iteration # 32     ecut=    29.40 Ry     beta= 0.05
     Davidson diagonalization with overlap
     c_bands:  1 eigenvalues not converged
     ethr =  5.66E-06,  avg # of iterations = 12.7

     negative rho (up, down):  1.080E-02 0.000E+00
 
     Adding external electric field

     Computed dipole along edir(3) : 
        Dipole                0.7385 Ry au,          1.8771 Debye
        Dipole field          0.0014 Ry au, 
 
        Potential amp.       -0.1292 Ry
        Total length         46.3494 bohr
 

     total cpu time spent up to now is      657.5 secs

     total energy              =   -2974.00085051 Ry
     estimated scf accuracy    <       0.02024323 Ry

     iteration # 33     ecut=    29.40 Ry     beta= 0.05
     Davidson diagonalization with overlap
     ethr =  5.02E-06,  avg # of iterations = 10.2

     negative rho (up, down):  1.173E-02 0.000E+00
 
     Adding external electric field

     Computed dipole along edir(3) : 
        Dipole                0.8561 Ry au,          2.1761 Debye
        Dipole field          0.0016 Ry au, 
 
        Potential amp.       -0.1498 Ry
        Total length         46.3494 bohr
 

     total cpu time spent up to now is      671.9 secs

     total energy              =   -2973.99997161 Ry
     estimated scf accuracy    <       0.01500464 Ry

     iteration # 34     ecut=    29.40 Ry     beta= 0.05
     Davidson diagonalization with overlap
     c_bands:  1 eigenvalues not converged
     ethr =  3.72E-06,  avg # of iterations =  8.9

     negative rho (up, down):  1.280E-02 0.000E+00
 
     Adding external electric field

     Computed dipole along edir(3) : 
        Dipole                0.8982 Ry au,          2.2829 Debye
        Dipole field          0.0017 Ry au, 
 
        Potential amp.       -0.1571 Ry
        Total length         46.3494 bohr
 

     total cpu time spent up to now is      687.5 secs

     total energy              =   -2974.00194487 Ry
     estimated scf accuracy    <       0.00419192 Ry

     iteration # 35     ecut=    29.40 Ry     beta= 0.05
     Davidson diagonalization with overlap
     c_bands:  1 eigenvalues not converged
     ethr =  1.04E-06,  avg # of iterations = 12.8

     negative rho (up, down):  1.275E-02 0.000E+00
 
     Adding external electric field

     Computed dipole along edir(3) : 
        Dipole                0.8985 Ry au,          2.2839 Debye
        Dipole field          0.0017 Ry au, 
 
        Potential amp.       -0.1572 Ry
        Total length         46.3494 bohr
 

     total cpu time spent up to now is      707.3 secs

     total energy              =   -2974.00302506 Ry
     estimated scf accuracy    <       0.00648319 Ry

     iteration # 36     ecut=    29.40 Ry     beta= 0.05
     Davidson diagonalization with overlap
     ethr =  1.04E-06,  avg # of iterations =  3.9

     negative rho (up, down):  1.274E-02 0.000E+00
 
     Adding external electric field

     Computed dipole along edir(3) : 
        Dipole                0.8914 Ry au,          2.2658 Debye
        Dipole field          0.0017 Ry au, 
 
        Potential amp.       -0.1559 Ry
        Total length         46.3494 bohr
 

     total cpu time spent up to now is      718.3 secs

     total energy              =   -2974.00296417 Ry
     estimated scf accuracy    <       0.00607493 Ry

     iteration # 37     ecut=    29.40 Ry     beta= 0.05
     Davidson diagonalization with overlap
     ethr =  1.04E-06,  avg # of iterations =  2.2

     negative rho (up, down):  1.321E-02 0.000E+00
 
     Adding external electric field

     Computed dipole along edir(3) : 
        Dipole                0.8702 Ry au,          2.2118 Debye
        Dipole field          0.0016 Ry au, 
 
        Potential amp.       -0.1522 Ry
        Total length         46.3494 bohr
 

     total cpu time spent up to now is      728.9 secs

     total energy              =   -2974.00269052 Ry
     estimated scf accuracy    <       0.00705301 Ry

     iteration # 38     ecut=    29.40 Ry     beta= 0.05
     Davidson diagonalization with overlap
     ethr =  1.04E-06,  avg # of iterations = 12.4

     negative rho (up, down):  1.241E-02 0.000E+00
 
     Adding external electric field

     Computed dipole along edir(3) : 
        Dipole                0.8560 Ry au,          2.1758 Debye
        Dipole field          0.0016 Ry au, 
 
        Potential amp.       -0.1497 Ry
        Total length         46.3494 bohr
 

     total cpu time spent up to now is      744.3 secs

     total energy              =   -2974.00306821 Ry
     estimated scf accuracy    <       0.00781150 Ry

     iteration # 39     ecut=    29.40 Ry     beta= 0.05
     Davidson diagonalization with overlap
     ethr =  1.04E-06,  avg # of iterations = 12.6

     negative rho (up, down):  1.258E-02 0.000E+00
 
     Adding external electric field

     Computed dipole along edir(3) : 
        Dipole                0.8670 Ry au,          2.2036 Debye
        Dipole field          0.0016 Ry au, 
 
        Potential amp.       -0.1517 Ry
        Total length         46.3494 bohr
 

     total cpu time spent up to now is      758.8 secs

     total energy              =   -2974.00307358 Ry
     estimated scf accuracy    <       0.00761979 Ry

     iteration # 40     ecut=    29.40 Ry     beta= 0.05
     Davidson diagonalization with overlap
     ethr =  1.04E-06,  avg # of iterations =  2.0

     negative rho (up, down):  1.312E-02 0.000E+00
 
     Adding external electric field

     Computed dipole along edir(3) : 
        Dipole                0.8842 Ry au,          2.2473 Debye
        Dipole field          0.0017 Ry au, 
 
        Potential amp.       -0.1547 Ry
        Total length         46.3494 bohr
 

     total cpu time spent up to now is      769.8 secs

     total energy              =   -2974.00395744 Ry
     estimated scf accuracy    <       0.00662938 Ry

     iteration # 41     ecut=    29.40 Ry     beta= 0.05
     Davidson diagonalization with overlap
     ethr =  1.04E-06,  avg # of iterations =  5.4

     negative rho (up, down):  1.201E-02 0.000E+00
 
     Adding external electric field

     Computed dipole along edir(3) : 
        Dipole                0.8664 Ry au,          2.2023 Debye
        Dipole field          0.0016 Ry au, 
 
        Potential amp.       -0.1516 Ry
        Total length         46.3494 bohr
 

     total cpu time spent up to now is      781.8 secs

     total energy              =   -2974.00434252 Ry
     estimated scf accuracy    <       0.00968280 Ry

     iteration # 42     ecut=    29.40 Ry     beta= 0.05
     Davidson diagonalization with overlap
     ethr =  1.04E-06,  avg # of iterations =  4.4

     negative rho (up, down):  1.379E-02 0.000E+00
 
     Adding external electric field

     Computed dipole along edir(3) : 
        Dipole                0.9049 Ry au,          2.3001 Debye
        Dipole field          0.0017 Ry au, 
 
        Potential amp.       -0.1583 Ry
        Total length         46.3494 bohr
 

     total cpu time spent up to now is      793.7 secs

     total energy              =   -2974.00262388 Ry
     estimated scf accuracy    <       0.01280590 Ry

     iteration # 43     ecut=    29.40 Ry     beta= 0.05
     Davidson diagonalization with overlap
     ethr =  1.04E-06,  avg # of iterations =  5.9

     negative rho (up, down):  1.546E-02 0.000E+00
 
     Adding external electric field

     Computed dipole along edir(3) : 
        Dipole                0.9230 Ry au,          2.3461 Debye
        Dipole field          0.0017 Ry au, 
 
        Potential amp.       -0.1615 Ry
        Total length         46.3494 bohr
 

     total cpu time spent up to now is      806.9 secs

     total energy              =   -2974.00103546 Ry
     estimated scf accuracy    <       0.00603041 Ry

     iteration # 44     ecut=    29.40 Ry     beta= 0.05
     Davidson diagonalization with overlap
     c_bands:  1 eigenvalues not converged
     ethr =  1.04E-06,  avg # of iterations =  8.8

     negative rho (up, down):  1.436E-02 0.000E+00
 
     Adding external electric field

     Computed dipole along edir(3) : 
        Dipole                0.9046 Ry au,          2.2993 Debye
        Dipole field          0.0017 Ry au, 
 
        Potential amp.       -0.1582 Ry
        Total length         46.3494 bohr
 

     total cpu time spent up to now is      828.3 secs

     total energy              =   -2974.00261522 Ry
     estimated scf accuracy    <       0.00390459 Ry

     iteration # 45     ecut=    29.40 Ry     beta= 0.05
     Davidson diagonalization with overlap
     ethr =  9.69E-07,  avg # of iterations =  1.4

     negative rho (up, down):  1.407E-02 0.000E+00
 
     Adding external electric field

     Computed dipole along edir(3) : 
        Dipole                0.8912 Ry au,          2.2652 Debye
        Dipole field          0.0017 Ry au, 
 
        Potential amp.       -0.1559 Ry
        Total length         46.3494 bohr
 

     total cpu time spent up to now is      838.8 secs

     total energy              =   -2974.00270325 Ry
     estimated scf accuracy    <       0.00188159 Ry

     iteration # 46     ecut=    29.40 Ry     beta= 0.05
     Davidson diagonalization with overlap
     ethr =  4.67E-07,  avg # of iterations = 10.7

     negative rho (up, down):  1.430E-02 0.000E+00
 
     Adding external electric field

     Computed dipole along edir(3) : 
        Dipole                0.8872 Ry au,          2.2549 Debye
        Dipole field          0.0017 Ry au, 
 
        Potential amp.       -0.1552 Ry
        Total length         46.3494 bohr
 

     total cpu time spent up to now is      852.2 secs

     total energy              =   -2974.00261724 Ry
     estimated scf accuracy    <       0.00152964 Ry

     iteration # 47     ecut=    29.40 Ry     beta= 0.05
     Davidson diagonalization with overlap
     ethr =  3.80E-07,  avg # of iterations =  6.3

     negative rho (up, down):  1.446E-02 0.000E+00
 
     Adding external electric field

     Computed dipole along edir(3) : 
        Dipole                0.8891 Ry au,          2.2600 Debye
        Dipole field          0.0017 Ry au, 
 
        Potential amp.       -0.1555 Ry
        Total length         46.3494 bohr
 

     total cpu time spent up to now is      865.6 secs

     total energy              =   -2974.00283789 Ry
     estimated scf accuracy    <       0.00063376 Ry

     iteration # 48     ecut=    29.40 Ry     beta= 0.05
     Davidson diagonalization with overlap
     ethr =  1.57E-07,  avg # of iterations = 10.8

     negative rho (up, down):  1.463E-02 0.000E+00
 
     Adding external electric field

     Computed dipole along edir(3) : 
        Dipole                0.9011 Ry au,          2.2903 Debye
        Dipole field          0.0017 Ry au, 
 
        Potential amp.       -0.1576 Ry
        Total length         46.3494 bohr
 

     total cpu time spent up to now is      879.4 secs

     total energy              =   -2974.00286967 Ry
     estimated scf accuracy    <       0.00059788 Ry

     iteration # 49     ecut=    29.40 Ry     beta= 0.05
     Davidson diagonalization with overlap
     ethr =  1.48E-07,  avg # of iterations =  5.4

     negative rho (up, down):  1.489E-02 0.000E+00
 
     Adding external electric field

     Computed dipole along edir(3) : 
        Dipole                0.9116 Ry au,          2.3170 Debye
        Dipole field          0.0017 Ry au, 
 
        Potential amp.       -0.1595 Ry
        Total length         46.3494 bohr
 

     total cpu time spent up to now is      891.6 secs

     total energy              =   -2974.00283110 Ry
     estimated scf accuracy    <       0.00041633 Ry

     iteration # 50     ecut=    29.40 Ry     beta= 0.05
     Davidson diagonalization with overlap
     ethr =  1.03E-07,  avg # of iterations =  7.6

     negative rho (up, down):  1.487E-02 0.000E+00
 
     Adding external electric field

     Computed dipole along edir(3) : 
        Dipole                0.9144 Ry au,          2.3241 Debye
        Dipole field          0.0017 Ry au, 
 
        Potential amp.       -0.1600 Ry
        Total length         46.3494 bohr
 

     total cpu time spent up to now is      908.0 secs

     total energy              =   -2974.00293520 Ry
     estimated scf accuracy    <       0.00009786 Ry

     iteration # 51     ecut=    29.40 Ry     beta= 0.05
     Davidson diagonalization with overlap
     ethr =  2.43E-08,  avg # of iterations =  9.7

     negative rho (up, down):  1.500E-02 0.000E+00
 
     Adding external electric field

     Computed dipole along edir(3) : 
        Dipole                0.9168 Ry au,          2.3304 Debye
        Dipole field          0.0017 Ry au, 
 
        Potential amp.       -0.1604 Ry
        Total length         46.3494 bohr
 

     total cpu time spent up to now is      926.7 secs

     total energy              =   -2974.00293865 Ry
     estimated scf accuracy    <       0.00021284 Ry

     iteration # 52     ecut=    29.40 Ry     beta= 0.05
     Davidson diagonalization with overlap
     ethr =  2.43E-08,  avg # of iterations =  3.5

     negative rho (up, down):  1.512E-02 0.000E+00
 
     Adding external electric field

     Computed dipole along edir(3) : 
        Dipole                0.9205 Ry au,          2.3397 Debye
        Dipole field          0.0017 Ry au, 
 
        Potential amp.       -0.1610 Ry
        Total length         46.3494 bohr
 

     total cpu time spent up to now is      939.1 secs

     total energy              =   -2974.00293946 Ry
     estimated scf accuracy    <       0.00008766 Ry

     iteration # 53     ecut=    29.40 Ry     beta= 0.05
     Davidson diagonalization with overlap
     c_bands:  1 eigenvalues not converged
     c_bands:  1 eigenvalues not converged
     ethr =  2.18E-08,  avg # of iterations = 11.5

     negative rho (up, down):  1.511E-02 0.000E+00
 
     Adding external electric field

     Computed dipole along edir(3) : 
        Dipole                0.9216 Ry au,          2.3424 Debye
        Dipole field          0.0017 Ry au, 
 
        Potential amp.       -0.1612 Ry
        Total length         46.3494 bohr
 

     total cpu time spent up to now is      958.7 secs

     total energy              =   -2974.00296760 Ry
     estimated scf accuracy    <       0.00002388 Ry

     iteration # 54     ecut=    29.40 Ry     beta= 0.05
     Davidson diagonalization with overlap
     ethr =  5.93E-09,  avg # of iterations =  5.1

     negative rho (up, down):  1.494E-02 0.000E+00
 
     Adding external electric field

     Computed dipole along edir(3) : 
        Dipole                0.9232 Ry au,          2.3466 Debye
        Dipole field          0.0017 Ry au, 
 
        Potential amp.       -0.1615 Ry
        Total length         46.3494 bohr
 

     total cpu time spent up to now is      970.7 secs

     total energy              =   -2974.00297607 Ry
     estimated scf accuracy    <       0.00001446 Ry

     iteration # 55     ecut=    29.40 Ry     beta= 0.05
     Davidson diagonalization with overlap
     ethr =  3.59E-09,  avg # of iterations = 10.3

     negative rho (up, down):  1.480E-02 0.000E+00
 
     Adding external electric field

     Computed dipole along edir(3) : 
        Dipole                0.9216 Ry au,          2.3425 Debye
        Dipole field          0.0017 Ry au, 
 
        Potential amp.       -0.1612 Ry
        Total length         46.3494 bohr
 

     total cpu time spent up to now is      987.7 secs

     total energy              =   -2974.00298444 Ry
     estimated scf accuracy    <       0.00001068 Ry

     iteration # 56     ecut=    29.40 Ry     beta= 0.05
     Davidson diagonalization with overlap
     ethr =  2.65E-09,  avg # of iterations =  9.1

     negative rho (up, down):  1.476E-02 0.000E+00
 
     Adding external electric field

     Computed dipole along edir(3) : 
        Dipole                0.9255 Ry au,          2.3525 Debye
        Dipole field          0.0017 Ry au, 
 
        Potential amp.       -0.1619 Ry
        Total length         46.3494 bohr
 

     total cpu time spent up to now is     1002.7 secs

     total energy              =   -2974.00299253 Ry
     estimated scf accuracy    <       0.00000707 Ry

     iteration # 57     ecut=    29.40 Ry     beta= 0.05
     Davidson diagonalization with overlap
     ethr =  1.75E-09,  avg # of iterations = 10.1

     negative rho (up, down):  1.469E-02 0.000E+00
 
     Adding external electric field

     Computed dipole along edir(3) : 
        Dipole                0.9247 Ry au,          2.3504 Debye
        Dipole field          0.0017 Ry au, 
 
        Potential amp.       -0.1618 Ry
        Total length         46.3494 bohr
 

     total cpu time spent up to now is     1019.6 secs

     total energy              =   -2974.00299850 Ry
     estimated scf accuracy    <       0.00000860 Ry

     iteration # 58     ecut=    29.40 Ry     beta= 0.05
     Davidson diagonalization with overlap
     ethr =  1.75E-09,  avg # of iterations =  6.3

     negative rho (up, down):  1.465E-02 0.000E+00
 
     Adding external electric field

     Computed dipole along edir(3) : 
        Dipole                0.9236 Ry au,          2.3475 Debye
        Dipole field          0.0017 Ry au, 
 
        Potential amp.       -0.1616 Ry
        Total length         46.3494 bohr
 

     total cpu time spent up to now is     1033.7 secs

     total energy              =   -2974.00300519 Ry
     estimated scf accuracy    <       0.00000200 Ry

     iteration # 59     ecut=    29.40 Ry     beta= 0.05
     Davidson diagonalization with overlap
     ethr =  4.96E-10,  avg # of iterations = 13.5

     negative rho (up, down):  1.459E-02 0.000E+00
 
     Adding external electric field

     Computed dipole along edir(3) : 
        Dipole                0.9232 Ry au,          2.3466 Debye
        Dipole field          0.0017 Ry au, 
 
        Potential amp.       -0.1615 Ry
        Total length         46.3494 bohr
 

     total cpu time spent up to now is     1057.8 secs

     total energy              =   -2974.00301000 Ry
     estimated scf accuracy    <       0.00000758 Ry

     iteration # 60     ecut=    29.40 Ry     beta= 0.05
     Davidson diagonalization with overlap
     ethr =  4.96E-10,  avg # of iterations = 11.6

     negative rho (up, down):  1.456E-02 0.000E+00
 
     Adding external electric field

     Computed dipole along edir(3) : 
        Dipole                0.9241 Ry au,          2.3488 Debye
        Dipole field          0.0017 Ry au, 
 
        Potential amp.       -0.1617 Ry
        Total length         46.3494 bohr
 

     total cpu time spent up to now is     1079.1 secs

     total energy              =   -2974.00301586 Ry
     estimated scf accuracy    <       0.00000083 Ry

     iteration # 61     ecut=    29.40 Ry     beta= 0.05
     Davidson diagonalization with overlap
     ethr =  2.07E-10,  avg # of iterations = 11.9

     negative rho (up, down):  1.455E-02 0.000E+00
 
     Adding external electric field

     Computed dipole along edir(3) : 
        Dipole                0.9238 Ry au,          2.3481 Debye
        Dipole field          0.0017 Ry au, 
 
        Potential amp.       -0.1616 Ry
        Total length         46.3494 bohr
 

     total cpu time spent up to now is     1100.3 secs

     total energy              =   -2974.00302021 Ry
     estimated scf accuracy    <       0.00000199 Ry

     iteration # 62     ecut=    29.40 Ry     beta= 0.05
     Davidson diagonalization with overlap
     ethr =  2.07E-10,  avg # of iterations =  3.9

     negative rho (up, down):  1.454E-02 0.000E+00
 
     Adding external electric field

     Computed dipole along edir(3) : 
        Dipole                0.9242 Ry au,          2.3490 Debye
        Dipole field          0.0017 Ry au, 
 
        Potential amp.       -0.1617 Ry
        Total length         46.3494 bohr
 

     total cpu time spent up to now is     1112.4 secs

     total energy              =   -2974.00302401 Ry
     estimated scf accuracy    <       0.00000087 Ry

     iteration # 63     ecut=    29.40 Ry     beta= 0.05
     Davidson diagonalization with overlap
     ethr =  2.07E-10,  avg # of iterations = 13.3

     negative rho (up, down):  1.453E-02 0.000E+00
 
     Adding external electric field

     Computed dipole along edir(3) : 
        Dipole                0.9242 Ry au,          2.3492 Debye
        Dipole field          0.0017 Ry au, 
 
        Potential amp.       -0.1617 Ry
        Total length         46.3494 bohr
 

     total cpu time spent up to now is     1134.5 secs

     total energy              =   -2974.00302775 Ry
     estimated scf accuracy    <       0.00000067 Ry

     iteration # 64     ecut=    29.40 Ry     beta= 0.05
     Davidson diagonalization with overlap
     ethr =  1.66E-10,  avg # of iterations =  6.9

     negative rho (up, down):  1.452E-02 0.000E+00
 
     Adding external electric field

     Computed dipole along edir(3) : 
        Dipole                0.9241 Ry au,          2.3488 Debye
        Dipole field          0.0017 Ry au, 
 
        Potential amp.       -0.1617 Ry
        Total length         46.3494 bohr
 

     total cpu time spent up to now is     1150.0 secs

     total energy              =   -2974.00303113 Ry
     estimated scf accuracy    <       0.00000010 Ry

     iteration # 65     ecut=    29.40 Ry     beta= 0.05
     Davidson diagonalization with overlap
     c_bands:  1 eigenvalues not converged
     ethr =  2.44E-11,  avg # of iterations = 15.2

     negative rho (up, down):  1.452E-02 0.000E+00
 
     Adding external electric field

     Computed dipole along edir(3) : 
        Dipole                0.9241 Ry au,          2.3487 Debye
        Dipole field          0.0017 Ry au, 
 
        Potential amp.       -0.1617 Ry
        Total length         46.3494 bohr
 

     total cpu time spent up to now is     1171.9 secs

     total energy              =   -2974.00303504 Ry
     estimated scf accuracy    <       0.00000029 Ry

     iteration # 66     ecut=    29.40 Ry     beta= 0.05
     Davidson diagonalization with overlap
     ethr =  2.44E-11,  avg # of iterations =  6.5

     negative rho (up, down):  1.452E-02 0.000E+00
 
     Adding external electric field

     Computed dipole along edir(3) : 
        Dipole                0.9241 Ry au,          2.3487 Debye
        Dipole field          0.0017 Ry au, 
 
        Potential amp.       -0.1617 Ry
        Total length         46.3494 bohr
 

     total cpu time spent up to now is     1184.8 secs

     total energy              =   -2974.00303771 Ry
     estimated scf accuracy    <       0.00000015 Ry

     iteration # 67     ecut=    29.40 Ry     beta= 0.05
     Davidson diagonalization with overlap
     ethr =  2.44E-11,  avg # of iterations = 12.6

     negative rho (up, down):  1.451E-02 0.000E+00
 
     Adding external electric field

     Computed dipole along edir(3) : 
        Dipole                0.9240 Ry au,          2.3485 Debye
        Dipole field          0.0017 Ry au, 
 
        Potential amp.       -0.1616 Ry
        Total length         46.3494 bohr
 

     total cpu time spent up to now is     1207.0 secs

     total energy              =   -2974.00304016 Ry
     estimated scf accuracy    <       0.00000013 Ry

     iteration # 68     ecut=    29.40 Ry     beta= 0.05
     Davidson diagonalization with overlap
     ethr =  2.44E-11,  avg # of iterations = 11.6

     negative rho (up, down):  1.451E-02 0.000E+00
 
     Adding external electric field

     Computed dipole along edir(3) : 
        Dipole                0.9241 Ry au,          2.3487 Debye
        Dipole field          0.0017 Ry au, 
 
        Potential amp.       -0.1617 Ry
        Total length         46.3494 bohr
 

     total cpu time spent up to now is     1221.4 secs

     total energy              =   -2974.00304229 Ry
     estimated scf accuracy    <       0.00000009 Ry

     iteration # 69     ecut=    29.40 Ry     beta= 0.05
     Davidson diagonalization with overlap
     ethr =  2.32E-11,  avg # of iterations = 11.4

     negative rho (up, down):  1.456E-02 0.000E+00
 
     Adding external electric field

     Computed dipole along edir(3) : 
        Dipole                0.9243 Ry au,          2.3495 Debye
        Dipole field          0.0017 Ry au, 
 
        Potential amp.       -0.1617 Ry
        Total length         46.3494 bohr
 

     total cpu time spent up to now is     1238.4 secs

     End of self-consistent calculation

          k = 0.0000 0.0000 0.0000 ( 18029 PWs)   bands (ev):

   -55.6019 -55.5679 -55.5609 -55.5539 -55.5249 -55.4352 -55.4121 -55.3949
   -55.3781 -55.3772 -55.3494 -55.3435 -55.0014 -54.8726 -54.5808 -54.5468
   -32.1031 -32.0845 -31.9530 -31.9353 -31.9109 -31.8947 -31.8670 -31.8643
   -31.8448 -31.7976 -31.7905 -31.7764 -31.7542 -31.7395 -31.7239 -31.7178
   -31.7064 -31.6937 -31.6881 -31.6592 -31.6523 -31.6396 -31.6047 -31.6006
   -31.5898 -31.5876 -31.5840 -31.5762 -31.5523 -31.5489 -31.5469 -31.5420
   -31.5300 -31.5287 -31.5190 -31.5107 -31.4891 -31.2708 -31.2003 -31.1300
   -31.1095 -31.0792 -30.9879 -30.8995 -30.8771 -30.8047 -30.7182 -30.6071
   -18.9000 -18.3025 -16.3011 -16.0681 -15.8427 -15.7510 -15.7098 -15.5033
   -15.4028 -15.3270 -15.2090 -15.1451 -15.1369 -15.1178 -15.1064 -15.1018
   -15.0427 -15.0389 -15.0370 -15.0232 -14.9977 -14.9501 -14.9353 -14.9312
   -14.8362 -14.7636 -14.7394 -14.7222 -14.6796 -14.6544 -14.2029 -13.0829
   -12.9664 -11.3049  -6.8616  -6.6907  -4.2057  -3.8452  -3.8187  -3.6754
    -3.5465  -3.5066  -3.4354  -3.3636  -3.2322  -3.2078  -3.0351  -2.8357
    -2.7756  -2.7469  -2.7009  -2.6298  -2.5149  -2.4590  -2.4084  -2.4056
    -2.3850  -2.3802  -2.3559  -2.3376  -2.2399  -2.2200  -2.1481  -2.1350
    -2.0853  -1.9853  -1.9556  -1.9144  -1.9052  -1.8771  -1.8633  -1.8500
    -1.8271  -1.8028  -1.7618  -1.6925  -1.6180  -1.5811  -1.4984  -1.4497
    -1.4079  -1.3478  -1.2121  -1.1370  -1.0889  -1.0565  -1.0469  -1.0286
    -0.9945  -0.9773  -0.8662  -0.7540  -0.7383  -0.6731  -0.6107  -0.5276
    -0.4944  -0.4332  -0.3690  -0.3512  -0.3461  -0.3097  -0.2677  -0.2217
    -0.0840  -0.0290   0.0048   0.0127   0.0742   0.1155   0.1469   0.2294
     0.2441   0.2839   0.3271   0.3584   0.3695   0.3794   0.4004   0.4312
     0.4359   0.6256   0.6686   0.7131   0.7478   0.7859   0.9320   0.9508
     1.0576   1.1630   1.3684   1.4416   1.5409   1.6337   2.0130   2.0587
     2.7603   3.5322   3.6199   3.6646   3.7023   3.7782   3.7892   3.9874
     4.0026   4.0419   4.1175

          k = 0.0000 0.0419 0.0000 ( 17933 PWs)   bands (ev):

   -55.5969 -55.5728 -55.5560 -55.5528 -55.5300 -55.4310 -55.4071 -55.3990
   -55.3830 -55.3723 -55.3500 -55.3483 -55.0003 -54.8735 -54.5758 -54.5517
   -32.0464 -32.0305 -31.9060 -31.8901 -31.8831 -31.8799 -31.8520 -31.8248
   -31.8137 -31.7995 -31.7808 -31.7731 -31.7712 -31.7630 -31.7404 -31.7330
   -31.7268 -31.7139 -31.6804 -31.6731 -31.6418 -31.6362 -31.6146 -31.6050
   -31.6003 -31.5952 -31.5913 -31.5859 -31.5795 -31.5790 -31.5689 -31.5538
   -31.5486 -31.5478 -31.5443 -31.5325 -31.4741 -31.2702 -31.1977 -31.1405
   -31.1292 -31.0938 -30.9338 -30.8960 -30.8801 -30.7921 -30.7307 -30.6642
   -18.8997 -18.3007 -16.1655 -15.9481 -15.7326 -15.6441 -15.6141 -15.4618
   -15.4210 -15.3550 -15.3224 -15.1686 -15.1285 -15.1192 -15.0951 -15.0880
   -15.0780 -15.0591 -15.0531 -15.0463 -15.0254 -14.9855 -14.9413 -14.9009
   -14.8417 -14.8180 -14.7964 -14.7786 -14.7117 -14.6948 -14.2808 -13.0869
   -13.0059 -11.3037  -6.8701  -6.6897  -4.1690  -3.8464  -3.8084  -3.4906
    -3.3788  -3.3316  -3.3062  -3.2272  -3.1601  -3.0578  -2.8439  -2.7547
    -2.7356  -2.6489  -2.6269  -2.6150  -2.5626  -2.5393  -2.4933  -2.4686
    -2.4553  -2.4273  -2.4017  -2.3469  -2.3340  -2.3018  -2.2826  -2.2674
    -2.2395  -2.1428  -2.1095  -2.0828  -2.0685  -2.0202  -1.9505  -1.8473
    -1.8441  -1.7791  -1.6974  -1.6492  -1.5148  -1.4551  -1.4135  -1.3277
    -1.2927  -1.2632  -1.2168  -1.1971  -1.0331  -0.9533  -0.9206  -0.8344
    -0.8160  -0.7907  -0.7825  -0.6655  -0.6161  -0.5687  -0.5537  -0.5057
    -0.4943  -0.4615  -0.4428  -0.4143  -0.3974  -0.3307  -0.2489  -0.2048
    -0.1357  -0.1150  -0.1040  -0.0286  -0.0058   0.0213   0.1284   0.1405
     0.1961   0.2122   0.2267   0.2379   0.2567   0.2859   0.3826   0.4093
     0.4664   0.5333   0.6050   0.6534   0.6697   0.7384   0.7459   0.7790
     0.9072   1.0603   1.0810   1.4167   1.6309   1.7149   1.9671   1.9708
     2.7407   3.7256   3.7757   3.8008   3.8616   3.8868   3.9331   3.9418
     4.0212   4.0663   4.0982

          k = 0.0000-0.0839 0.0000 ( 17884 PWs)   bands (ev):

   -55.5853 -55.5843 -55.5528 -55.5440 -55.5412 -55.4253 -55.4048 -55.3957
   -55.3941 -55.3621 -55.3584 -55.3507 -54.9993 -54.8745 -54.5638 -54.5636
   -31.9163 -31.8997 -31.8986 -31.8979 -31.8805 -31.8796 -31.8385 -31.8304
   -31.8039 -31.7667 -31.7594 -31.7554 -31.7540 -31.7502 -31.7358 -31.7133
   -31.7101 -31.7073 -31.7072 -31.7063 -31.6820 -31.6785 -31.6535 -31.6487
   -31.6470 -31.6242 -31.6172 -31.6098 -31.6045 -31.5928 -31.5862 -31.5636
   -31.5631 -31.5592 -31.5413 -31.5387 -31.4218 -31.2696 -31.2194 -31.1632
   -31.1296 -31.1061 -30.8879 -30.8877 -30.8009 -30.8006 -30.7614 -30.7614
   -18.8993 -18.2989 -15.8396 -15.8065 -15.6714 -15.6327 -15.4831 -15.4778
   -15.3895 -15.3674 -15.3652 -15.3343 -15.2942 -15.2098 -15.1404 -15.1292
   -15.0339 -14.9937 -14.9792 -14.9602 -14.9462 -14.9374 -14.9360 -14.9322
   -14.9142 -14.9104 -14.8554 -14.8425 -14.8279 -14.6738 -14.3889 -13.0687
   -13.0685 -11.3027  -6.8786  -6.6887  -4.1344  -3.8494  -3.8026  -3.2686
    -3.0463  -2.9968  -2.9828  -2.9647  -2.9551  -2.8954  -2.8924  -2.8665
    -2.8084  -2.7773  -2.7253  -2.6908  -2.6683  -2.6530  -2.6383  -2.5724
    -2.5479  -2.5434  -2.4708  -2.4042  -2.3860  -2.3767  -2.3288  -2.3047
    -2.2701  -2.1801  -2.1673  -2.1226  -2.0524  -1.9557  -1.9453  -1.8651
    -1.6996  -1.6082  -1.5334  -1.5043  -1.4880  -1.4086  -1.3391  -1.2999
    -1.2774  -1.2268  -1.1586  -1.0772  -1.0626  -1.0180  -1.0018  -0.9883
    -0.9693  -0.9009  -0.8148  -0.7841  -0.7455  -0.6175  -0.5653  -0.5155
    -0.4891  -0.3371  -0.2642  -0.2279  -0.2147  -0.2088  -0.1615  -0.1497
    -0.1300  -0.0705  -0.0498  -0.0142  -0.0102   0.0191   0.0443   0.0533
     0.1003   0.1202   0.1322   0.1495   0.1903   0.2194   0.2491   0.2666
     0.2871   0.3128   0.4078   0.5351   0.6395   0.6414   0.6534   0.6778
     0.9724   1.0138   1.1184   1.1432   1.7735   1.7746   1.9039   1.9048
     2.7498   3.8419   3.8751   3.9106   3.9236   3.9556   3.9757   3.9865
     4.0908   4.1218   4.1260

          k = 0.0380 0.0000 0.0000 ( 17913 PWs)   bands (ev):

   -55.6018 -55.5678 -55.5608 -55.5538 -55.5248 -55.4352 -55.4118 -55.3948
   -55.3780 -55.3773 -55.3493 -55.3434 -55.0013 -54.8725 -54.5807 -54.5467
   -32.1033 -32.0854 -31.9542 -31.9409 -31.9110 -31.8945 -31.8717 -31.8641
   -31.8448 -31.7962 -31.7761 -31.7721 -31.7513 -31.7393 -31.7237 -31.7111
   -31.7061 -31.6877 -31.6734 -31.6590 -31.6572 -31.6514 -31.6044 -31.5936
   -31.5896 -31.5877 -31.5841 -31.5761 -31.5732 -31.5489 -31.5467 -31.5418
   -31.5302 -31.5286 -31.5180 -31.5078 -31.4894 -31.2730 -31.2003 -31.1302
   -31.1093 -31.0790 -30.9874 -30.9028 -30.8751 -30.8044 -30.7180 -30.6068
   -18.8996 -18.3024 -16.2215 -15.9837 -15.7583 -15.7329 -15.6478 -15.5222
   -15.4341 -15.3251 -15.2941 -15.2843 -15.2279 -15.2185 -15.2046 -15.1586
   -15.1467 -15.0402 -14.9666 -14.9477 -14.9059 -14.8561 -14.8476 -14.8458
   -14.8160 -14.7924 -14.7803 -14.7766 -14.7494 -14.6590 -14.2011 -13.0796
   -12.9661 -11.3044  -6.8586  -6.6854  -4.1790  -3.8677  -3.8168  -3.5753
    -3.3308  -3.2906  -3.2461  -3.2291  -3.1497  -3.1377  -3.0342  -3.0139
    -2.8398  -2.8372  -2.7081  -2.6861  -2.6735  -2.5870  -2.4068  -2.3796
    -2.3641  -2.3002  -2.2648  -2.2248  -2.1974  -2.1626  -2.1413  -2.0786
    -2.0586  -1.9956  -1.9513  -1.9430  -1.8746  -1.8273  -1.8106  -1.7913
    -1.7260  -1.6823  -1.6115  -1.5918  -1.5502  -1.4908  -1.4455  -1.4238
    -1.3587  -1.3497  -1.2558  -1.2072  -1.1821  -1.0971  -1.0414  -1.0350
    -1.0189  -0.9399  -0.8818  -0.8629  -0.8443  -0.8313  -0.7312  -0.6260
    -0.5678  -0.4801  -0.4110  -0.3842  -0.3422  -0.3025  -0.2667  -0.2560
    -0.1432  -0.0672   0.0042   0.0216   0.0694   0.0721   0.1327   0.1529
     0.1910   0.2161   0.2260   0.2629   0.2762   0.3016   0.3115   0.3654
     0.4731   0.5307   0.5859   0.5941   0.6992   0.7647   0.8099   0.8262
     1.0489   1.0900   1.3714   1.4078   1.4535   1.6031   1.9014   1.9759
     2.7744   3.5654   3.5902   3.8521   3.8907   3.9314   3.9416   3.9640
     3.9867   4.0145   4.0540

          k = 0.0380 0.0419 0.0000 ( 17878 PWs)   bands (ev):

   -55.5968 -55.5728 -55.5559 -55.5527 -55.5300 -55.4310 -55.4069 -55.3989
   -55.3829 -55.3724 -55.3500 -55.3483 -55.0003 -54.8735 -54.5757 -54.5517
   -32.0466 -32.0313 -31.9071 -31.8899 -31.8872 -31.8827 -31.8519 -31.8250
   -31.8189 -31.7992 -31.7746 -31.7701 -31.7647 -31.7631 -31.7379 -31.7321
   -31.7179 -31.7136 -31.6727 -31.6631 -31.6515 -31.6412 -31.6040 -31.6034
   -31.6002 -31.5977 -31.5913 -31.5859 -31.5797 -31.5794 -31.5721 -31.5674
   -31.5523 -31.5468 -31.5406 -31.5372 -31.4729 -31.2720 -31.1977 -31.1404
   -31.1298 -31.0937 -30.9334 -30.8986 -30.8791 -30.7919 -30.7308 -30.6640
   -18.8994 -18.3006 -16.0927 -15.8711 -15.6564 -15.6301 -15.5440 -15.4729
   -15.4266 -15.3586 -15.3531 -15.2579 -15.2234 -15.1912 -15.1826 -15.1176
   -15.0953 -15.0754 -15.0156 -14.9887 -14.9755 -14.9268 -14.9136 -14.8800
   -14.8651 -14.8497 -14.8362 -14.8070 -14.7813 -14.6781 -14.2794 -13.0847
   -13.0062 -11.3034  -6.8718  -6.6818  -4.1545  -3.8605  -3.8045  -3.4152
    -3.2184  -3.1561  -3.1209  -3.0560  -2.9917  -2.9853  -2.8704  -2.8201
    -2.6978  -2.6933  -2.6061  -2.5629  -2.5367  -2.4985  -2.4895  -2.4564
    -2.4257  -2.3945  -2.3633  -2.3217  -2.3049  -2.2919  -2.2470  -2.2348
    -2.2220  -2.1590  -2.0871  -2.0771  -2.0487  -1.9436  -1.8854  -1.8148
    -1.7584  -1.7271  -1.6339  -1.5940  -1.5502  -1.4961  -1.3856  -1.3459
    -1.2914  -1.2468  -1.1861  -1.1455  -1.0661  -1.0148  -0.9936  -0.9114
    -0.8758  -0.8515  -0.8343  -0.7916  -0.7233  -0.6997  -0.6565  -0.6330
    -0.5559  -0.5245  -0.4703  -0.4353  -0.3967  -0.3573  -0.3256  -0.3033
    -0.2500  -0.2275  -0.2161  -0.1653  -0.1213  -0.0548  -0.0205   0.0158
     0.0605   0.1026   0.1168   0.1726   0.2119   0.2983   0.3537   0.4324
     0.4868   0.5512   0.6182   0.6573   0.7192   0.7431   0.7896   0.8235
     0.8464   0.9940   1.0635   1.3511   1.6417   1.7192   1.8895   1.9514
     2.7582   3.7125   3.7754   3.8147   3.9213   3.9387   3.9937   4.0120
     4.0726   4.1036   4.1200

          k = 0.0380-0.0839 0.0000 ( 17916 PWs)   bands (ev):

   -55.5853 -55.5844 -55.5528 -55.5440 -55.5412 -55.4254 -55.4048 -55.3957
   -55.3940 -55.3622 -55.3585 -55.3507 -54.9993 -54.8746 -54.5638 -54.5636
   -31.9166 -31.9001 -31.8993 -31.8987 -31.8805 -31.8796 -31.8392 -31.8309
   -31.8039 -31.7756 -31.7654 -31.7648 -31.7581 -31.7245 -31.7165 -31.7138
   -31.7101 -31.7075 -31.7061 -31.7051 -31.6924 -31.6895 -31.6548 -31.6326
   -31.6258 -31.6241 -31.6175 -31.6123 -31.6099 -31.5927 -31.5861 -31.5636
   -31.5632 -31.5567 -31.5531 -31.5505 -31.4216 -31.2713 -31.2191 -31.1632
   -31.1307 -31.1061 -30.8889 -30.8887 -30.8008 -30.8005 -30.7614 -30.7614
   -18.8992 -18.2989 -15.8003 -15.7489 -15.6181 -15.5767 -15.4560 -15.4330
   -15.3708 -15.3555 -15.3218 -15.3017 -15.2876 -15.2527 -15.1477 -15.1422
   -15.0447 -15.0301 -15.0235 -15.0151 -15.0011 -14.9876 -14.9669 -14.9551
   -14.9526 -14.9155 -14.9007 -14.8880 -14.8011 -14.6663 -14.3855 -13.0685
   -13.0683 -11.3025  -6.8835  -6.6797  -4.1327  -3.8581  -3.7968  -3.2632
    -3.0377  -2.8651  -2.8256  -2.7920  -2.7756  -2.7533  -2.7223  -2.7004
    -2.6795  -2.6572  -2.6311  -2.5884  -2.5797  -2.5699  -2.5541  -2.5204
    -2.4541  -2.4418  -2.4331  -2.4004  -2.3735  -2.3176  -2.2959  -2.2808
    -2.2667  -2.2342  -2.1937  -2.1314  -2.1063  -1.9621  -1.7530  -1.7045
    -1.6855  -1.5821  -1.5202  -1.4919  -1.4780  -1.4647  -1.4273  -1.4038
    -1.3699  -1.3439  -1.3219  -1.2679  -1.2323  -1.2207  -1.2067  -1.1354
    -1.0488  -1.0132  -0.8562  -0.7138  -0.6870  -0.6563  -0.6309  -0.5830
    -0.5224  -0.4570  -0.4253  -0.3981  -0.3644  -0.3493  -0.3312  -0.3124
    -0.2939  -0.2589  -0.2042  -0.1883  -0.1728  -0.1499  -0.1342  -0.1024
    -0.0161   0.0265   0.0677   0.1834   0.2125   0.2913   0.3263   0.4524
     0.4958   0.5050   0.5371   0.5543   0.5992   0.6778   0.7528   0.7702
     0.9309   0.9655   1.0885   1.1400   1.7868   1.7879   1.8931   1.8940
     2.7674   3.7779   3.8487   3.9199   3.9420   3.9523   3.9836   4.0272
     4.1368   4.1571   4.1620

          k = 0.0380-0.0419 0.0000 ( 17876 PWs)   bands (ev):

   -55.5968 -55.5728 -55.5559 -55.5527 -55.5300 -55.4310 -55.4069 -55.3989
   -55.3829 -55.3724 -55.3500 -55.3483 -55.0003 -54.8735 -54.5757 -54.5517
   -32.0466 -32.0313 -31.9071 -31.8899 -31.8872 -31.8827 -31.8519 -31.8251
   -31.8189 -31.7992 -31.7746 -31.7701 -31.7647 -31.7631 -31.7379 -31.7321
   -31.7178 -31.7136 -31.6727 -31.6630 -31.6515 -31.6412 -31.6041 -31.6033
   -31.6002 -31.5977 -31.5912 -31.5859 -31.5796 -31.5793 -31.5720 -31.5676
   -31.5524 -31.5469 -31.5404 -31.5372 -31.4730 -31.2721 -31.1976 -31.1403
   -31.1299 -31.0937 -30.9334 -30.8986 -30.8791 -30.7919 -30.7308 -30.6640
   -18.8994 -18.3006 -16.0929 -15.8709 -15.6559 -15.6304 -15.5439 -15.4730
   -15.4262 -15.3577 -15.3530 -15.2584 -15.2270 -15.1915 -15.1825 -15.1167
   -15.0952 -15.0742 -15.0191 -14.9866 -14.9733 -14.9263 -14.9130 -14.8820
   -14.8657 -14.8493 -14.8361 -14.8069 -14.7809 -14.6781 -14.2796 -13.0847
   -13.0062 -11.3034  -6.8708  -6.6829  -4.1551  -3.8641  -3.8022  -3.4144
    -3.2176  -3.1553  -3.1234  -3.0554  -2.9933  -2.9843  -2.8689  -2.8225
    -2.7046  -2.6827  -2.5990  -2.5651  -2.5329  -2.5045  -2.4890  -2.4566
    -2.4304  -2.3972  -2.3636  -2.3238  -2.3087  -2.2913  -2.2485  -2.2386
    -2.2229  -2.1586  -2.0877  -2.0731  -2.0538  -1.9493  -1.8811  -1.8142
    -1.7540  -1.7233  -1.6221  -1.5835  -1.5538  -1.5137  -1.3741  -1.3446
    -1.3003  -1.2595  -1.1822  -1.1321  -1.0566  -1.0097  -0.9968  -0.9181
    -0.8730  -0.8562  -0.8376  -0.7874  -0.7277  -0.6909  -0.6613  -0.6323
    -0.5428  -0.5268  -0.4668  -0.4366  -0.3906  -0.3311  -0.3198  -0.3009
    -0.2713  -0.2282  -0.2160  -0.1510  -0.1214  -0.0777  -0.0267   0.0074
     0.0628   0.1043   0.1330   0.1730   0.1982   0.2983   0.3576   0.4129
     0.4843   0.5435   0.6195   0.6480   0.7226   0.7488   0.7916   0.8244
     0.8416   0.9933   1.0627   1.3509   1.6417   1.7193   1.8893   1.9520
     2.7559   3.7115   3.7762   3.8106   3.9096   3.9625   3.9912   4.0152
     4.0804   4.1137   4.1194

          k =-0.0760-0.0000 0.0000 ( 17886 PWs)   bands (ev):

   -55.6018 -55.5678 -55.5607 -55.5537 -55.5248 -55.4352 -55.4116 -55.3948
   -55.3780 -55.3774 -55.3492 -55.3434 -55.0013 -54.8725 -54.5807 -54.5467
   -32.1034 -32.0863 -31.9554 -31.9463 -31.9112 -31.8944 -31.8762 -31.8639
   -31.8449 -31.7960 -31.7717 -31.7494 -31.7484 -31.7392 -31.7235 -31.7060
   -31.7054 -31.6876 -31.6821 -31.6593 -31.6515 -31.6275 -31.6202 -31.6037
   -31.5898 -31.5879 -31.5874 -31.5842 -31.5759 -31.5491 -31.5467 -31.5418
   -31.5311 -31.5287 -31.5172 -31.5052 -31.4901 -31.2755 -31.2002 -31.1306
   -31.1093 -31.0790 -30.9870 -30.9061 -30.8737 -30.8044 -30.7179 -30.6069
   -18.8993 -18.3023 -16.1070 -15.9126 -15.6962 -15.6891 -15.5721 -15.4679
   -15.4623 -15.3771 -15.3643 -15.3217 -15.3011 -15.2900 -15.2775 -15.2497
   -15.1960 -15.0290 -14.9961 -14.9509 -14.9031 -14.8873 -14.8491 -14.8431
   -14.8226 -14.7835 -14.7591 -14.7573 -14.6903 -14.6563 -14.1999 -13.0766
   -12.9658 -11.3039  -6.8558  -6.6802  -4.1559  -3.8886  -3.8145  -3.5515
    -3.2761  -3.2487  -3.1525  -3.0269  -3.0008  -2.9624  -2.9074  -2.8635
    -2.8493  -2.8469  -2.8247  -2.8141  -2.5967  -2.4162  -2.4030  -2.3824
    -2.3127  -2.2187  -2.1911  -2.1713  -2.1181  -2.0969  -2.0888  -2.0284
    -2.0097  -1.9397  -1.9224  -1.9099  -1.8994  -1.8379  -1.8318  -1.8061
    -1.7872  -1.7419  -1.6919  -1.6330  -1.5284  -1.4575  -1.4002  -1.3688
    -1.3128  -1.2224  -1.2206  -1.1975  -1.1865  -1.1842  -1.1503  -1.0766
    -1.0651  -0.9830  -0.9618  -0.8813  -0.8328  -0.8073  -0.7922  -0.7681
    -0.7522  -0.7205  -0.6090  -0.4064  -0.3491  -0.3005  -0.2419  -0.2228
    -0.2185  -0.1794  -0.0907  -0.0825  -0.0689  -0.0183   0.0270   0.0734
     0.1159   0.1542   0.1953   0.2225   0.2602   0.2704   0.2831   0.3902
     0.4610   0.4919   0.5646   0.6181   0.6618   0.7325   0.8893   0.8922
     1.0297   1.0897   1.1305   1.3828   1.4746   1.5786   1.7721   1.9202
     2.7865   3.5666   3.5706   3.7211   3.8151   3.8694   3.8880   3.9862
     3.9967   4.0492   4.0706

          k =-0.0760 0.0419 0.0000 ( 17914 PWs)   bands (ev):

   -55.5968 -55.5728 -55.5559 -55.5527 -55.5300 -55.4310 -55.4068 -55.3990
   -55.3829 -55.3725 -55.3500 -55.3483 -55.0003 -54.8735 -54.5757 -54.5517
   -32.0469 -32.0324 -31.9084 -31.8936 -31.8899 -31.8831 -31.8519 -31.8251
   -31.8243 -31.7990 -31.7741 -31.7678 -31.7634 -31.7474 -31.7358 -31.7323
   -31.7143 -31.7079 -31.6726 -31.6708 -31.6412 -31.6292 -31.6102 -31.6037
   -31.6001 -31.5995 -31.5911 -31.5908 -31.5844 -31.5802 -31.5794 -31.5673
   -31.5513 -31.5465 -31.5441 -31.5406 -31.4719 -31.2742 -31.1977 -31.1404
   -31.1307 -31.0937 -30.9332 -30.9014 -30.8784 -30.7919 -30.7308 -30.6641
   -18.8992 -18.3005 -15.9906 -15.7993 -15.6038 -15.5905 -15.4843 -15.4258
   -15.4075 -15.3649 -15.3543 -15.3360 -15.2705 -15.2395 -15.2364 -15.1965
   -15.1944 -15.0656 -15.0525 -14.9777 -14.9601 -14.9414 -14.9368 -14.8869
   -14.8793 -14.8673 -14.8507 -14.7812 -14.7699 -14.6739 -14.2787 -13.0826
   -13.0065 -11.3031  -6.8724  -6.6753  -4.1433  -3.8760  -3.7987  -3.4010
    -3.2059  -3.1156  -2.8933  -2.8393  -2.7772  -2.7302  -2.7130  -2.6586
    -2.6482  -2.6429  -2.6221  -2.5753  -2.5508  -2.5032  -2.4860  -2.4695
    -2.4211  -2.3731  -2.3411  -2.2962  -2.2732  -2.2548  -2.1871  -2.1621
    -2.1251  -2.0887  -2.0852  -2.0776  -1.9812  -1.9151  -1.9017  -1.7229
    -1.6975  -1.6633  -1.6192  -1.5980  -1.5338  -1.4593  -1.3988  -1.3876
    -1.2898  -1.2439  -1.2158  -1.1648  -1.1152  -1.0768  -1.0345  -0.9960
    -0.9726  -0.9049  -0.8932  -0.8443  -0.8355  -0.8175  -0.8126  -0.7757
    -0.7559  -0.6792  -0.6113  -0.5991  -0.5632  -0.5064  -0.4820  -0.3982
    -0.3582  -0.3208  -0.3098  -0.2408  -0.2132  -0.1868  -0.1276  -0.0816
    -0.0103   0.0459   0.0922   0.1134   0.2283   0.3069   0.3867   0.4157
     0.5694   0.6432   0.6667   0.7038   0.7637   0.7932   0.8588   0.8911
     0.9159   0.9738   1.0074   1.1822   1.6564   1.7224   1.8129   1.9407
     2.7732   3.7032   3.7713   3.7749   3.8377   3.8822   3.8974   3.9736
     4.0394   4.1125   4.1767

          k =-0.0760-0.0839 0.0000 ( 17948 PWs)   bands (ev):

   -55.5853 -55.5844 -55.5528 -55.5440 -55.5412 -55.4254 -55.4048 -55.3956
   -55.3939 -55.3623 -55.3586 -55.3507 -54.9993 -54.8746 -54.5638 -54.5636
   -31.9169 -31.9004 -31.9001 -31.8994 -31.8806 -31.8796 -31.8399 -31.8312
   -31.8041 -31.7831 -31.7715 -31.7634 -31.7583 -31.7147 -31.7112 -31.7085
   -31.7061 -31.7049 -31.7039 -31.6995 -31.6970 -31.6963 -31.6563 -31.6441
   -31.6232 -31.6170 -31.6099 -31.5954 -31.5948 -31.5921 -31.5859 -31.5771
   -31.5732 -31.5637 -31.5632 -31.5543 -31.4215 -31.2728 -31.2190 -31.1633
   -31.1318 -31.1061 -30.8899 -30.8897 -30.8007 -30.8005 -30.7615 -30.7614
   -18.8990 -18.2988 -15.7552 -15.6509 -15.5542 -15.5186 -15.4621 -15.4027
   -15.3878 -15.3065 -15.2828 -15.2793 -15.2184 -15.1964 -15.1615 -15.1490
   -15.1277 -15.1143 -15.1107 -15.0545 -15.0481 -15.0388 -15.0321 -15.0287
   -14.9619 -14.9194 -14.9158 -14.9113 -14.7867 -14.6613 -14.3825 -13.0683
   -13.0681 -11.3023  -6.8880  -6.6711  -4.1316  -3.8667  -3.7914  -3.2596
    -3.0380  -2.8357  -2.8074  -2.7126  -2.6977  -2.6676  -2.5353  -2.4953
    -2.4557  -2.4414  -2.4181  -2.4172  -2.4042  -2.3976  -2.3794  -2.3551
    -2.3286  -2.3034  -2.2735  -2.2655  -2.2534  -2.2350  -2.2217  -2.2047
    -2.2018  -2.1577  -2.1364  -2.1270  -2.0443  -1.9901  -1.8271  -1.7846
    -1.7402  -1.7306  -1.7055  -1.7000  -1.6681  -1.6540  -1.5985  -1.5892
    -1.4790  -1.3596  -1.3217  -1.2982  -1.2885  -1.2704  -1.1992  -1.0980
    -1.0735  -0.9988  -0.9945  -0.8909  -0.8770  -0.7963  -0.7861  -0.7616
    -0.7059  -0.6696  -0.6500  -0.5664  -0.5608  -0.5386  -0.4959  -0.4659
    -0.4082  -0.3523  -0.3229  -0.3136  -0.2761  -0.2515  -0.2108  -0.1596
    -0.0977  -0.0596   0.0356   0.1385   0.2221   0.3586   0.4687   0.4963
     0.5711   0.6077   0.6818   0.7115   0.7185   0.7797   0.7928   0.8819
     0.9391   0.9519   0.9879   1.1066   1.8050   1.8064   1.8783   1.8786
     2.7852   3.7572   3.8668   3.9098   3.9306   4.0056   4.0468   4.0666
     4.0691   4.1053   4.2087

     the Fermi energy is     3.5317 ev

!    total energy              =   -2974.00306191 Ry
     estimated scf accuracy    <       0.00000003 Ry
     smearing contrib. (-TS)   =      -0.02181072 Ry
     internal energy E=F+TS    =   -2973.98125118 Ry

     The total energy is F=E-TS. E is the sum of the following terms:
     one-electron contribution =  -23851.29972783 Ry
     hartree contribution      =   12020.23466998 Ry
     xc contribution           =    -494.03262964 Ry
     ewald contribution        =    9351.11482390 Ry
     electric field correction =       0.00161240 Ry

     convergence has been achieved in  69 iterations

     Forces acting on atoms (cartesian axes, Ry/au):

     atom    1 type  1   force =     0.00016858   -0.00021394    0.09633298
     atom    2 type  1   force =    -0.00018327   -0.00044427   -0.17541586
     atom    3 type  2   force =     0.00001875   -0.00014920   -0.02470926
     atom    4 type  2   force =     0.00005438   -0.00162044    0.05342700
     atom    5 type  2   force =    -0.01197991   -0.00148432    0.00369950
     atom    6 type  2   force =     0.01343428   -0.00064322    0.00223602
     atom    7 type  1   force =    -0.00108677    0.00055785   -0.00698259
     atom    8 type  1   force =     0.00064436    0.00917887    0.02676302
     atom    9 type  2   force =     0.00017721    0.00020097   -0.00044918
     atom   10 type  2   force =    -0.00157668   -0.00030795   -0.01788945
     atom   11 type  2   force =     0.00091418    0.00089731    0.00000367
     atom   12 type  2   force =    -0.00061636    0.00060107   -0.00003024
     atom   13 type  1   force =    -0.00027359    0.00024351   -0.00035486
     atom   14 type  1   force =     0.00026554    0.00026767    0.00005570
     atom   15 type  2   force =     0.00008293    0.00021058   -0.00028887
     atom   16 type  2   force =     0.00001156    0.00020906    0.00080069
     atom   17 type  2   force =     0.00103569    0.00003148    0.00013107
     atom   18 type  2   force =    -0.00135612   -0.00005330   -0.00005450
     atom   19 type  1   force =    -0.00006421    0.00130619   -0.00009169
     atom   20 type  1   force =    -0.00025293   -0.00013143   -0.00015571
     atom   21 type  2   force =     0.00009914    0.00001554    0.10321852
     atom   22 type  2   force =    -0.00012391    0.00031810    0.00054061
     atom   23 type  2   force =    -0.07145222   -0.00009111   -0.02777242
     atom   24 type  2   force =     0.07144068    0.00035451   -0.02776690
     atom   25 type  1   force =     0.00001683   -0.00032169    0.09608022
     atom   26 type  1   force =    -0.00030404   -0.00044803   -0.17577350
     atom   27 type  2   force =     0.00008812   -0.00025102   -0.02369945
     atom   28 type  2   force =     0.00011973   -0.00130031    0.05282895
     atom   29 type  2   force =    -0.01224944    0.00021293    0.00357696
     atom   30 type  2   force =     0.01358779    0.00042694    0.00207719
     atom   31 type  1   force =    -0.00117820    0.00349932   -0.01017469
     atom   32 type  1   force =     0.00082960   -0.01100115    0.02705635
     atom   33 type  2   force =     0.00010194   -0.00000059    0.00060038
     atom   34 type  2   force =    -0.00116162   -0.00122966   -0.02344839
     atom   35 type  2   force =     0.00083515   -0.00052176   -0.00010803
     atom   36 type  2   force =    -0.00059621   -0.00018452   -0.00013534
     atom   37 type  1   force =    -0.00056299    0.00019847   -0.00042488
     atom   38 type  1   force =     0.00028064   -0.00025102    0.00011126
     atom   39 type  2   force =     0.00011834    0.00045814    0.00009891
     atom   40 type  2   force =     0.00019893    0.00015059   -0.00055840
     atom   41 type  2   force =     0.00080722    0.00070427    0.00033537
     atom   42 type  2   force =    -0.00088843    0.00068278    0.00019983
     atom   43 type  1   force =    -0.00000484   -0.00093757   -0.00081916
     atom   44 type  1   force =    -0.00027178    0.00108786    0.00033497
     atom   45 type  2   force =     0.00008691   -0.00002637    0.10321164
     atom   46 type  2   force =    -0.07146044   -0.00001854   -0.02777986
     atom   47 type  2   force =     0.07144499    0.00039628   -0.02777738
     atom   48 type  3   force =    -0.00017151   -0.00160117    0.00037863
     atom   49 type  3   force =     0.00003337   -0.00002001    0.00033208
     atom   50 type  4   force =    -0.00423240   -0.00057242    0.00730358
     atom   51 type  5   force =    -0.00020439   -0.00067814   -0.00069748
     atom   52 type  5   force =     0.00507497    0.00161331   -0.00771123
     atom   53 type  5   force =     0.00033936   -0.00013708   -0.00083319
     atom   54 type  2   force =     0.00162674    0.00013080   -0.00024709
     atom   55 type  5   force =    -0.00061379   -0.00007486   -0.00011328
     atom   56 type  5   force =    -0.00107186    0.00076067    0.00052775

     Total force =     0.367961     Total SCF correction =     0.000318
  @ DRIVER MODE: Message from server: STATUS
  @ DRIVER MODE: Message from server: GETFORCE
  @ DRIVER MODE: Returning v,forces,stress,ensemble 

     Writing output data file ./calc.save/
  @ DRIVER MODE: Message from server: EXIT
  @ DRIVE MODE: Exiting  
 
     init_run     :     10.90s CPU     11.14s WALL (       1 calls)
     electrons    :   1210.46s CPU   1226.99s WALL (       1 calls)
     forces       :      2.45s CPU      2.55s WALL (       1 calls)

     Called by init_run:
     wfcinit      :      4.92s CPU      4.98s WALL (       1 calls)
     potinit      :      5.34s CPU      5.41s WALL (       1 calls)
     hinit0       :      0.29s CPU      0.30s WALL (       1 calls)

     Called by electrons:
     c_bands      :   1041.70s CPU   1048.85s WALL (      69 calls)
     sum_band     :    114.60s CPU    118.36s WALL (      69 calls)
     v_of_rho     :     40.50s CPU     42.50s WALL (      70 calls)
     newd         :     16.74s CPU     20.39s WALL (      70 calls)
     mix_rho      :      1.50s CPU      1.53s WALL (      69 calls)
     vdW_kernel   :      4.54s CPU      4.56s WALL (       1 calls)

     Called by c_bands:
     init_us_2    :      7.84s CPU      7.88s WALL (    1400 calls)
     cegterg      :   1021.76s CPU   1028.60s WALL (     706 calls)

     Called by *egterg:
     cdiaghg      :    169.15s CPU    169.87s WALL (    7499 calls)
     h_psi        :    533.12s CPU    537.92s WALL (    7514 calls)
     s_psi        :     72.97s CPU     73.21s WALL (    7514 calls)
     g_psi        :      2.12s CPU      2.13s WALL (    6798 calls)

     Called by h_psi:
     h_psi:calbec :     68.86s CPU     69.17s WALL (    7514 calls)
     vloc_psi     :    386.39s CPU    390.19s WALL (    7514 calls)
     add_vuspsi   :     73.81s CPU     74.24s WALL (    7514 calls)

     General routines
     calbec       :     89.06s CPU     89.44s WALL (    8244 calls)
     fft          :     20.77s CPU     20.91s WALL (    4410 calls)
     ffts         :      0.14s CPU      0.14s WALL (     139 calls)
     fftw         :    428.53s CPU    432.71s WALL ( 1016918 calls)
     interpolate  :      0.43s CPU      0.44s WALL (      70 calls)
     davcio       :      0.00s CPU      0.18s WALL (      10 calls)
 
     Parallel routines
 
     PWSCF        :  20m24.13s CPU  20m41.41s WALL

 
   This run was terminated on:   1:25: 6  16Sep2021            

=------------------------------------------------------------------------------=
   JOB DONE.
=------------------------------------------------------------------------------=
