
     Program PWSCF v.6.7GPU starts on 15Sep2021 at 19:25:51 

     This program is part of the open-source Quantum ESPRESSO suite
     for quantum simulation of materials; please cite
         "P. Giannozzi et al., J. Phys.:Condens. Matter 21 395502 (2009);
         "P. Giannozzi et al., J. Phys.:Condens. Matter 29 465901 (2017);
         "P. Giannozzi et al., J. Chem. Phys. 152 154105 (2020);
          URL http://www.quantum-espresso.org", 
     in publications or presentations arising from this work. More details at
     http://www.quantum-espresso.org/quote

     Parallel version (MPI), running on    10 processors

     MPI processes distributed on     1 nodes
     R & G space division:  proc/nbgrp/npool/nimage =      10
     Reading input from /storage/home/hcoda1/3/ntian30/research/carbon/CxH_vib/H2O_calc/ads_slab/CH3NHH2O_a/out_0012/pw.inp
Warning: card &CELL ignored
Warning: card   CELL_DYNAMICS='IPI', ignored
Warning: card / ignored

     Current dimensions of program PWSCF are:
     Max number of different atomic species (ntypx) = 10
     Max number of k-points (npk) =  40000
     Max angular momentum in pseudopotentials (lmaxx) =  3
     Presently no symmetry can be used with electric field

     Message from routine cell_base_init:
     DEPRECATED: use true lattice parameter, not A to a.u. conversion factor

     **************************************************************************
     Initializing libbeef V0.1.2 with the BEEF-vdW functional.
     Citation: Wellendorff et al., PRB 85, 235149 (2012).
     **************************************************************************


     IMPORTANT: XC functional enforced from input :
     Exchange-correlation= BEEF-VDW
                           (   1   4  43  14   2   0   0)
     Any further DFT definition will be discarded
     Please, verify this is what you really want


     Subspace diagonalization in iterative solution of the eigenvalue problem:
     one sub-group per band group will be used
     scalapack distributed-memory algorithm (size of sub-group:  3*  3 procs)

  @ DRIVER MODE: Connecting to 
 qe_1139763_2852633.sched-torque.pace.gatech.edujblrydf1_scratch
  using UNIX socket
  @ DRIVER MODE: Message from server: STATUS
  @ DRIVER MODE: Message from server: INIT
  @ DRIVER MODE: Receiving replica           0          -1
  @ DRIVER MODE: Receiving encoded integer          25
  @ DRIVER MODE:  SCF:  T  FORCE:  T  STRESS:  F  VC:  F  ENSEMBLE:  F
  @ DRIVER MODE:  SCF:  T  FORCE:  T  STRESS:  F  VC:  F  ENSEMBLE:  F
 
     Parallelization info
     --------------------
     sticks:   dense  smooth     PW     G-vecs:    dense   smooth      PW
     Min         327     131     37                56683    14340    2191
     Max         328     133     38                56694    14346    2206
     Sum        3275    1317    379               566857   143421   21985
 
     Using Slab Decomposition
 


     bravais-lattice index     =            0
     lattice parameter (alat)  =       1.8897  a.u.
     unit-cell volume          =    6658.9804 (a.u.)^3
     number of atoms/cell      =           56
     number of atomic types    =            5
     number of electrons       =       399.00
     number of Kohn-Sham states=          209
     kinetic-energy cutoff     =      29.3995  Ry
     charge density cutoff     =     293.9946  Ry
     scf convergence threshold =      7.3E-08
     mixing beta               =       0.0500
     number of iterations used =            8  plain     mixing
     Exchange-correlation= BEEF-VDW
                           (   1   4  43  14   2   0   0)

     celldm(1)=   1.889726  celldm(2)=   0.000000  celldm(3)=   0.000000
     celldm(4)=   0.000000  celldm(5)=   0.000000  celldm(6)=   0.000000

     crystal axes: (cart. coord. in units of alat)
               a(1) = (   6.579727   0.000000   0.000000 )  
               a(2) = (  -0.000775   5.961596   0.000000 )  
               a(3) = (   0.000000   0.000000  25.155947 )  

     reciprocal axes: (cart. coord. in units 2 pi/alat)
               b(1) = (  0.151982  0.000020  0.000000 )  
               b(2) = (  0.000000  0.167740  0.000000 )  
               b(3) = (  0.000000  0.000000  0.039752 )  


     PseudoPot. # 1 for Ti read from file:
     /storage/coda1/p-amedford6/0/shared/rich_project_chbe-medford/medford-share/data/pseudos_module/espresso/nninc/pbe/van/Ti.UPF
     MD5 check sum: 8e4df49b7f0d34bbd5052bf3f5ea0213
     Pseudo is Ultrasoft, Zval = 12.0
     Generated by new atomic code, or converted to UPF format
     Using radial grid of  851 points,  6 beta functions with: 
                l(1) =   0
                l(2) =   0
                l(3) =   1
                l(4) =   1
                l(5) =   2
                l(6) =   2
     Q(r) pseudized with  8 coefficients,  rinner =    1.000   1.000   1.000
                                                       1.000   1.000

     PseudoPot. # 2 for O  read from file:
     /storage/coda1/p-amedford6/0/shared/rich_project_chbe-medford/medford-share/data/pseudos_module/espresso/nninc/pbe/van/O.UPF
     MD5 check sum: 78c19812648e8988a0fe644b0f25305e
     Pseudo is Ultrasoft, Zval =  6.0
     Generated by new atomic code, or converted to UPF format
     Using radial grid of  737 points,  4 beta functions with: 
                l(1) =   0
                l(2) =   0
                l(3) =   1
                l(4) =   1
     Q(r) pseudized with  8 coefficients,  rinner =    0.800   0.800   0.800


     PseudoPot. # 3 for H  read from file:
     /storage/coda1/p-amedford6/0/shared/rich_project_chbe-medford/medford-share/data/pseudos_module/espresso/nninc/pbe/van/H.UPF
     MD5 check sum: b5ee9d7bfd3a09ee7748110bda690ff7
     Pseudo is Ultrasoft, Zval =  1.0
     Generated by new atomic code, or converted to UPF format
     Using radial grid of  615 points,  1 beta functions with: 
                l(1) =   0
     Q(r) pseudized with  8 coefficients,  rinner =    0.800

     PseudoPot. # 4 for N  read from file:
     /storage/coda1/p-amedford6/0/shared/rich_project_chbe-medford/medford-share/data/pseudos_module/espresso/nninc/pbe/van/N.UPF
     MD5 check sum: 90d10febe142ad51ac9d5be1deb811c4
     Pseudo is Ultrasoft, Zval =  5.0
     Generated by new atomic code, or converted to UPF format
     Using radial grid of  729 points,  4 beta functions with: 
                l(1) =   0
                l(2) =   0
                l(3) =   1
                l(4) =   1
     Q(r) pseudized with  8 coefficients,  rinner =    0.800   0.800   0.800


     PseudoPot. # 5 for C  read from file:
     /storage/coda1/p-amedford6/0/shared/rich_project_chbe-medford/medford-share/data/pseudos_module/espresso/nninc/pbe/van/C.UPF
     MD5 check sum: 1a69bf6b8db32088f5b2163dbdb77a27
     Pseudo is Ultrasoft, Zval =  4.0
     Generated by new atomic code, or converted to UPF format
     Using radial grid of  721 points,  4 beta functions with: 
                l(1) =   0
                l(2) =   0
                l(3) =   1
                l(4) =   1
     Q(r) pseudized with  8 coefficients,  rinner =    0.800   0.800   0.800


     atomic species   valence    mass     pseudopotential
        Ti1           12.00    47.86700     Ti( 1.00)
        O1             6.00    15.99900     O ( 1.00)
        H1             1.00     1.00800     H ( 1.00)
        N1             5.00    14.00700     N ( 1.00)
        C1             4.00    12.01100     C ( 1.00)

     No symmetry found



   Cartesian axes

     site n.     atom                  positions (alat units)
         1           Ti1 tau(   1) = (   0.0004258   2.9801865   6.0000000  )
         2           Ti1 tau(   2) = (   3.2906075   1.4906267   6.0002472  )
         3           O1  tau(   3) = (   0.0006271   0.0005054   7.9858123  )
         4           O1  tau(   4) = (   3.2906025   0.0005020   7.3038282  )
         5           O1  tau(   5) = (   4.5942328   1.4918067   9.2879030  )
         6           O1  tau(   6) = (   1.9868534   1.4903216   9.2879459  )
         7           Ti1 tau(   7) = (   3.2907910   2.8959150   9.1758416  )
         8           Ti1 tau(   8) = (   0.0015273   1.4827037   9.2680791  )
         9           O1  tau(   9) = (   3.2896571   0.0076959  11.3233140  )
        10           O1  tau(  10) = (   0.0116148   5.9584955  10.6183126  )
        11           O1  tau(  11) = (   1.3168077   1.5009220  12.6157425  )
        12           O1  tau(  12) = (   5.2956243   1.4929856  12.6075824  )
        13           Ti1 tau(  13) = (   6.5239244   2.9540340  12.6210794  )
        14           Ti1 tau(  14) = (   3.2085880   1.4976218  12.4699624  )
        15           O1  tau(  15) = (   6.5712616   0.0419518  14.6436513  )
        16           O1  tau(  16) = (   3.3111435   0.0202601  13.9161875  )
        17           O1  tau(  17) = (   4.5291760   1.5523016  16.0784362  )
        18           O1  tau(  18) = (   2.0445308   1.5488630  16.0432715  )
        19           Ti1 tau(  19) = (   3.3059752   3.0257308  15.6838679  )
        20           Ti1 tau(  20) = (   0.0592185   1.5662548  15.8694889  )
        21           O1  tau(  21) = (   3.2904802   0.0005063   4.7018136  )
        22           O1  tau(  22) = (   0.0264932   0.0561689  17.2024660  )
        23           O1  tau(  23) = (   1.3043587   1.4918075   6.0039043  )
        24           O1  tau(  24) = (   5.2767064   1.4903225   6.0039473  )
        25           Ti1 tau(  25) = (   0.0000382   5.9609847   6.0000000  )
        26           Ti1 tau(  26) = (   3.2902200   4.4714249   6.0002472  )
        27           O1  tau(  27) = (   0.0002396   2.9813036   7.9858123  )
        28           O1  tau(  28) = (   3.2902150   2.9813002   7.3038282  )
        29           O1  tau(  29) = (   4.5938453   4.4726049   9.2879030  )
        30           O1  tau(  30) = (   1.9864658   4.4711199   9.2879459  )
        31           Ti1 tau(  31) = (   3.2891106   5.8743827   9.1763621  )
        32           Ti1 tau(  32) = (   0.0006254   4.4649316   9.2693709  )
        33           O1  tau(  33) = (   3.2898653   2.9926188  11.3210358  )
        34           O1  tau(  34) = (   0.0092240   2.9805883  10.6323155  )
        35           O1  tau(  35) = (   1.3106253   4.4883450  12.6271249  )
        36           O1  tau(  36) = (   5.2968722   4.4793810  12.6200386  )
        37           Ti1 tau(  37) = (   6.5212985   5.9329073  12.5685303  )
        38           Ti1 tau(  38) = (   3.2059443   4.4781599  12.4721232  )
        39           O1  tau(  39) = (   6.5764971   2.9600267  14.6431433  )
        40           O1  tau(  40) = (   3.3056941   3.0038382  13.8936370  )
        41           O1  tau(  41) = (   4.5394310   4.5052612  16.0827012  )
        42           O1  tau(  42) = (   2.0570581   4.5113261  16.0718816  )
        43           Ti1 tau(  43) = (   3.3383738   0.0382055  15.7109988  )
        44           Ti1 tau(  44) = (   0.0469139   4.6840235  16.0886640  )
        45           O1  tau(  45) = (   3.2900926   2.9813045   4.7018136  )
        46           O1  tau(  46) = (   1.3039711   4.4726057   6.0039043  )
        47           O1  tau(  47) = (   5.2763189   4.4711207   6.0039473  )
        48           H1  tau(  48) = (   5.6101632   2.9904038  17.7880820  )
        49           N1  tau(  49) = (   6.5649722   3.0046358  17.4538072  )
        50           C1  tau(  50) = (   0.8874553   2.9889031  18.6120612  )
        51           H1  tau(  51) = (   1.3591778   3.9628686  18.7739097  )
        52           H1  tau(  52) = (   0.3310755   2.7322232  19.5165709  )
        53           H1  tau(  53) = (   1.6717793   2.2402645  18.4914768  )
        54           O1  tau(  54) = (   3.2567199   5.9268012  21.6217354  )
        55           H1  tau(  55) = (   4.0245811   5.9269051  22.2091127  )
        56           H1  tau(  56) = (   2.4887544   5.9269923  22.2092946  )

     number of k points=    10  Fermi-Dirac smearing, width (Ry)=  0.0073
                       cart. coord. in units 2pi/alat
        k(    1) = (   0.0000000   0.0000000   0.0000000), wk =   0.1250000
        k(    2) = (   0.0000000   0.0419351   0.0000000), wk =   0.2500000
        k(    3) = (   0.0000000  -0.0838702   0.0000000), wk =   0.1250000
        k(    4) = (   0.0379955   0.0000049   0.0000000), wk =   0.2500000
        k(    5) = (   0.0379955   0.0419400   0.0000000), wk =   0.2500000
        k(    6) = (   0.0379955  -0.0838652   0.0000000), wk =   0.2500000
        k(    7) = (   0.0379955  -0.0419301   0.0000000), wk =   0.2500000
        k(    8) = (  -0.0759910  -0.0000099   0.0000000), wk =   0.1250000
        k(    9) = (  -0.0759910   0.0419252   0.0000000), wk =   0.2500000
        k(   10) = (  -0.0759910  -0.0838800   0.0000000), wk =   0.1250000

     Dense  grid:   566857 G-vectors     FFT dimensions: (  72,  64, 270)

     Smooth grid:   143421 G-vectors     FFT dimensions: (  45,  40, 180)

     Estimated max dynamical RAM per process >     366.69 MB

     Estimated total dynamical RAM >       3.58 GB
     Cannot read rho : file not found

     Initial potential from superposition of free atoms

     starting charge  382.99914, renormalised to  399.00000

     negative rho (up, down):  9.622E-03 0.000E+00


     %%%%%%%%%%%%%%%%%%%%%%%%%%%%%%%%%%%%%%%%%%%%%%%%%%%%%%%%%%%%%%%%%%%%%%%%
     %                                                                      %
     % You are using vdW-DF, which was implemented by the Thonhauser group. %
     % Please cite the following two papers that made this development      %
     % possible and the two reviews that describe the various versions:     %
     %                                                                      %
     %   T. Thonhauser et al., PRL 115, 136402 (2015).                      %
     %   T. Thonhauser et al., PRB 76, 125112 (2007).                       %
     %   K. Berland et al., Rep. Prog. Phys. 78, 066501 (2015).             %
     %   D.C. Langreth et al., J. Phys.: Condens. Matter 21, 084203 (2009). %
     %                                                                      %
     %                                                                      %
     % If you are calculating the stress with vdW-DF, please also cite:     %
     %                                                                      %
     %   R. Sabatini et al., J. Phys.: Condens. Matter 24, 424209 (2012).   %
     %                                                                      %
     %%%%%%%%%%%%%%%%%%%%%%%%%%%%%%%%%%%%%%%%%%%%%%%%%%%%%%%%%%%%%%%%%%%%%%%%


 
     Adding external electric field

     Computed dipole along edir(3) : 
        Dipole              -12.5533 Ry au,        -31.9073 Debye
        Dipole field         -0.0237 Ry au, 
 
        Potential amp.        2.1960 Ry
        Total length         46.3494 bohr
 
     Starting wfcs are  302 atomic wfcs
  @ DRIVER MODE: Message from server: STATUS
  @ DRIVER MODE: Message from server: POSDATA
  @ DRIVER MODE: Reading and sharing cell 
  @ DRIVER MODE: Reading and sharing positions 
  @ DRIVER MODE: Received positions 

     total cpu time spent up to now is       11.2 secs

     Self-consistent Calculation

     iteration #  1     ecut=    29.40 Ry     beta= 0.05
     Davidson diagonalization with overlap
     c_bands:  2 eigenvalues not converged
     c_bands:  2 eigenvalues not converged
     c_bands:  4 eigenvalues not converged
     c_bands:  2 eigenvalues not converged
     c_bands:  3 eigenvalues not converged
     c_bands:  3 eigenvalues not converged
     c_bands:  5 eigenvalues not converged
     c_bands:  4 eigenvalues not converged
     c_bands:  5 eigenvalues not converged
     ethr =  1.00E-05,  avg # of iterations = 22.0

     negative rho (up, down):  7.498E-03 0.000E+00
 
     Adding external electric field

     Computed dipole along edir(3) : 
        Dipole               48.7303 Ry au,        123.8601 Debye
        Dipole field          0.0920 Ry au, 
 
        Potential amp.       -8.5246 Ry
        Total length         46.3494 bohr
 

     total cpu time spent up to now is       53.3 secs

     total energy              =   -2445.23903254 Ry
     estimated scf accuracy    <    5722.20412697 Ry

     iteration #  2     ecut=    29.40 Ry     beta= 0.05
     Davidson diagonalization with overlap
     ethr =  1.00E-02,  avg # of iterations = 22.2

     negative rho (up, down):  1.225E-03 0.000E+00
 
     Adding external electric field

     Computed dipole along edir(3) : 
        Dipole               -3.1115 Ry au,         -7.9088 Debye
        Dipole field         -0.0059 Ry au, 
 
        Potential amp.        0.5443 Ry
        Total length         46.3494 bohr
 

     total cpu time spent up to now is      131.1 secs

     total energy              =   -2420.72162362 Ry
     estimated scf accuracy    <   74932.73836496 Ry

     iteration #  3     ecut=    29.40 Ry     beta= 0.05
     Davidson diagonalization with overlap
     ethr =  1.00E-02,  avg # of iterations = 17.0

     negative rho (up, down):  1.293E-03 0.000E+00
 
     Adding external electric field

     Computed dipole along edir(3) : 
        Dipole               -5.1597 Ry au,        -13.1146 Debye
        Dipole field         -0.0097 Ry au, 
 
        Potential amp.        0.9026 Ry
        Total length         46.3494 bohr
 

     total cpu time spent up to now is      179.8 secs

     total energy              =   -2943.53874759 Ry
     estimated scf accuracy    <    5293.53789242 Ry

     iteration #  4     ecut=    29.40 Ry     beta= 0.05
     Davidson diagonalization with overlap
     ethr =  1.00E-02,  avg # of iterations = 11.4

     negative rho (up, down):  1.318E-03 0.000E+00
 
     Adding external electric field

     Computed dipole along edir(3) : 
        Dipole               -6.1718 Ry au,        -15.6872 Debye
        Dipole field         -0.0116 Ry au, 
 
        Potential amp.        1.0797 Ry
        Total length         46.3494 bohr
 

     total cpu time spent up to now is      198.7 secs

     total energy              =   -2941.91318820 Ry
     estimated scf accuracy    <    2090.85556249 Ry

     iteration #  5     ecut=    29.40 Ry     beta= 0.05
     Davidson diagonalization with overlap
     c_bands:  3 eigenvalues not converged
     ethr =  1.00E-02,  avg # of iterations = 10.8

     negative rho (up, down):  1.333E-03 0.000E+00
 
     Adding external electric field

     Computed dipole along edir(3) : 
        Dipole               -5.5292 Ry au,        -14.0538 Debye
        Dipole field         -0.0104 Ry au, 
 
        Potential amp.        0.9672 Ry
        Total length         46.3494 bohr
 

     total cpu time spent up to now is      214.7 secs

     total energy              =   -2948.14157961 Ry
     estimated scf accuracy    <     609.28790870 Ry

     iteration #  6     ecut=    29.40 Ry     beta= 0.05
     Davidson diagonalization with overlap
     ethr =  1.00E-02,  avg # of iterations =  5.1

     negative rho (up, down):  1.333E-03 0.000E+00
 
     Adding external electric field

     Computed dipole along edir(3) : 
        Dipole               -4.8875 Ry au,        -12.4229 Debye
        Dipole field         -0.0092 Ry au, 
 
        Potential amp.        0.8550 Ry
        Total length         46.3494 bohr
 

     total cpu time spent up to now is      226.9 secs

     total energy              =   -2950.94037765 Ry
     estimated scf accuracy    <     251.24608112 Ry

     iteration #  7     ecut=    29.40 Ry     beta= 0.05
     Davidson diagonalization with overlap
     ethr =  1.00E-02,  avg # of iterations =  2.0

     negative rho (up, down):  1.343E-03 0.000E+00
 
     Adding external electric field

     Computed dipole along edir(3) : 
        Dipole               -4.2454 Ry au,        -10.7907 Debye
        Dipole field         -0.0080 Ry au, 
 
        Potential amp.        0.7427 Ry
        Total length         46.3494 bohr
 

     total cpu time spent up to now is      237.1 secs

     total energy              =   -2950.26443131 Ry
     estimated scf accuracy    <     251.83610662 Ry

     iteration #  8     ecut=    29.40 Ry     beta= 0.05
     Davidson diagonalization with overlap
     ethr =  1.00E-02,  avg # of iterations =  2.8

     negative rho (up, down):  1.550E-03 0.000E+00
 
     Adding external electric field

     Computed dipole along edir(3) : 
        Dipole                1.5031 Ry au,          3.8205 Debye
        Dipole field          0.0028 Ry au, 
 
        Potential amp.       -0.2629 Ry
        Total length         46.3494 bohr
 

     total cpu time spent up to now is      247.6 secs

     total energy              =   -2941.67440700 Ry
     estimated scf accuracy    <     219.39416035 Ry

     iteration #  9     ecut=    29.40 Ry     beta= 0.05
     Davidson diagonalization with overlap
     ethr =  1.00E-02,  avg # of iterations =  9.4

     negative rho (up, down):  1.486E-03 0.000E+00
 
     Adding external electric field

     Computed dipole along edir(3) : 
        Dipole               -0.3239 Ry au,         -0.8233 Debye
        Dipole field         -0.0006 Ry au, 
 
        Potential amp.        0.0567 Ry
        Total length         46.3494 bohr
 

     total cpu time spent up to now is      264.3 secs

     total energy              =   -2955.52405460 Ry
     estimated scf accuracy    <      31.73098381 Ry

     iteration # 10     ecut=    29.40 Ry     beta= 0.05
     Davidson diagonalization with overlap
     ethr =  7.95E-03,  avg # of iterations =  2.8

     negative rho (up, down):  1.603E-03 0.000E+00
 
     Adding external electric field

     Computed dipole along edir(3) : 
        Dipole                3.7102 Ry au,          9.4303 Debye
        Dipole field          0.0070 Ry au, 
 
        Potential amp.       -0.6490 Ry
        Total length         46.3494 bohr
 

     total cpu time spent up to now is      275.1 secs

     total energy              =   -2959.90746288 Ry
     estimated scf accuracy    <      17.11728139 Ry

     iteration # 11     ecut=    29.40 Ry     beta= 0.05
     Davidson diagonalization with overlap
     ethr =  4.29E-03,  avg # of iterations = 15.3

     negative rho (up, down):  1.683E-03 0.000E+00
 
     Adding external electric field

     Computed dipole along edir(3) : 
        Dipole                3.5307 Ry au,          8.9740 Debye
        Dipole field          0.0067 Ry au, 
 
        Potential amp.       -0.6176 Ry
        Total length         46.3494 bohr
 

     total cpu time spent up to now is      301.1 secs

     total energy              =   -2971.33691939 Ry
     estimated scf accuracy    <    1669.29404510 Ry

     iteration # 12     ecut=    29.40 Ry     beta= 0.05
     Davidson diagonalization with overlap
     ethr =  4.29E-03,  avg # of iterations =  1.8

     negative rho (up, down):  1.358E-03 0.000E+00
 
     Adding external electric field

     Computed dipole along edir(3) : 
        Dipole                2.7166 Ry au,          6.9050 Debye
        Dipole field          0.0051 Ry au, 
 
        Potential amp.       -0.4752 Ry
        Total length         46.3494 bohr
 

     total cpu time spent up to now is      311.2 secs

     total energy              =   -2964.30492092 Ry
     estimated scf accuracy    <    1678.18242159 Ry

     iteration # 13     ecut=    29.40 Ry     beta= 0.05
     Davidson diagonalization with overlap
     ethr =  4.29E-03,  avg # of iterations =  2.0

     negative rho (up, down):  1.377E-03 0.000E+00
 
     Adding external electric field

     Computed dipole along edir(3) : 
        Dipole                3.1441 Ry au,          7.9916 Debye
        Dipole field          0.0059 Ry au, 
 
        Potential amp.       -0.5500 Ry
        Total length         46.3494 bohr
 

     total cpu time spent up to now is      321.6 secs

     total energy              =   -2967.22653304 Ry
     estimated scf accuracy    <     935.58315451 Ry

     iteration # 14     ecut=    29.40 Ry     beta= 0.05
     Davidson diagonalization with overlap
     ethr =  4.29E-03,  avg # of iterations =  1.0

     negative rho (up, down):  1.224E-03 0.000E+00
 
     Adding external electric field

     Computed dipole along edir(3) : 
        Dipole               -0.3986 Ry au,         -1.0130 Debye
        Dipole field         -0.0008 Ry au, 
 
        Potential amp.        0.0697 Ry
        Total length         46.3494 bohr
 

     total cpu time spent up to now is      331.4 secs

     total energy              =   -2946.53746341 Ry
     estimated scf accuracy    <    1295.63813153 Ry

     iteration # 15     ecut=    29.40 Ry     beta= 0.05
     Davidson diagonalization with overlap
     ethr =  4.29E-03,  avg # of iterations = 16.8

     negative rho (up, down):  1.022E-03 0.000E+00
 
     Adding external electric field

     Computed dipole along edir(3) : 
        Dipole               -0.8838 Ry au,         -2.2464 Debye
        Dipole field         -0.0017 Ry au, 
 
        Potential amp.        0.1546 Ry
        Total length         46.3494 bohr
 

     total cpu time spent up to now is      350.1 secs

     total energy              =   -2956.74415219 Ry
     estimated scf accuracy    <      48.03057922 Ry

     iteration # 16     ecut=    29.40 Ry     beta= 0.05
     Davidson diagonalization with overlap
     ethr =  4.29E-03,  avg # of iterations =  1.2

     negative rho (up, down):  9.689E-04 0.000E+00
 
     Adding external electric field

     Computed dipole along edir(3) : 
        Dipole                1.4191 Ry au,          3.6070 Debye
        Dipole field          0.0027 Ry au, 
 
        Potential amp.       -0.2483 Ry
        Total length         46.3494 bohr
 

     total cpu time spent up to now is      360.0 secs

     total energy              =   -2958.40635037 Ry
     estimated scf accuracy    <      16.83128560 Ry

     iteration # 17     ecut=    29.40 Ry     beta= 0.05
     Davidson diagonalization with overlap
     ethr =  4.22E-03,  avg # of iterations =  2.6

     negative rho (up, down):  6.410E-03 0.000E+00
 
     Adding external electric field

     Computed dipole along edir(3) : 
        Dipole                2.9472 Ry au,          7.4911 Debye
        Dipole field          0.0056 Ry au, 
 
        Potential amp.       -0.5156 Ry
        Total length         46.3494 bohr
 

     total cpu time spent up to now is      370.4 secs

     total energy              =   -2960.71527713 Ry
     estimated scf accuracy    <      63.35279991 Ry

     iteration # 18     ecut=    29.40 Ry     beta= 0.05
     Davidson diagonalization with overlap
     ethr =  4.22E-03,  avg # of iterations =  4.8

     negative rho (up, down):  9.788E-03 0.000E+00
 
     Adding external electric field

     Computed dipole along edir(3) : 
        Dipole               -0.7254 Ry au,         -1.8438 Debye
        Dipole field         -0.0014 Ry au, 
 
        Potential amp.        0.1269 Ry
        Total length         46.3494 bohr
 

     total cpu time spent up to now is      382.2 secs

     total energy              =   -2952.75001461 Ry
     estimated scf accuracy    <     124.20100403 Ry

     iteration # 19     ecut=    29.40 Ry     beta= 0.05
     Davidson diagonalization with overlap
     ethr =  4.22E-03,  avg # of iterations =  2.5

     negative rho (up, down):  5.257E-02 0.000E+00
 
     Adding external electric field

     Computed dipole along edir(3) : 
        Dipole               -1.2948 Ry au,         -3.2912 Debye
        Dipole field         -0.0024 Ry au, 
 
        Potential amp.        0.2265 Ry
        Total length         46.3494 bohr
 

     total cpu time spent up to now is      393.0 secs

     total energy              =   -2955.46906665 Ry
     estimated scf accuracy    <       6.21263777 Ry

     iteration # 20     ecut=    29.40 Ry     beta= 0.05
     Davidson diagonalization with overlap
     ethr =  1.56E-03,  avg # of iterations =  9.5

     negative rho (up, down):  4.131E-02 0.000E+00
 
     Adding external electric field

     Computed dipole along edir(3) : 
        Dipole               -2.7339 Ry au,         -6.9488 Debye
        Dipole field         -0.0052 Ry au, 
 
        Potential amp.        0.4782 Ry
        Total length         46.3494 bohr
 

     total cpu time spent up to now is      405.8 secs

     total energy              =   -2955.29387698 Ry
     estimated scf accuracy    <       6.68606859 Ry

     iteration # 21     ecut=    29.40 Ry     beta= 0.05
     Davidson diagonalization with overlap
     ethr =  1.56E-03,  avg # of iterations =  8.2

     negative rho (up, down):  4.056E-02 0.000E+00
 
     Adding external electric field

     Computed dipole along edir(3) : 
        Dipole               -3.0846 Ry au,         -7.8403 Debye
        Dipole field         -0.0058 Ry au, 
 
        Potential amp.        0.5396 Ry
        Total length         46.3494 bohr
 

     total cpu time spent up to now is      417.9 secs

     total energy              =   -2955.41590091 Ry
     estimated scf accuracy    <       9.71153639 Ry

     iteration # 22     ecut=    29.40 Ry     beta= 0.05
     Davidson diagonalization with overlap
     ethr =  1.56E-03,  avg # of iterations =  1.1

     negative rho (up, down):  4.636E-02 0.000E+00
 
     Adding external electric field

     Computed dipole along edir(3) : 
        Dipole               -3.5911 Ry au,         -9.1277 Debye
        Dipole field         -0.0068 Ry au, 
 
        Potential amp.        0.6282 Ry
        Total length         46.3494 bohr
 

     total cpu time spent up to now is      427.7 secs

     total energy              =   -2955.43009585 Ry
     estimated scf accuracy    <       5.16501204 Ry

     iteration # 23     ecut=    29.40 Ry     beta= 0.05
     Davidson diagonalization with overlap
     ethr =  1.29E-03,  avg # of iterations =  6.5

     negative rho (up, down):  1.141E-02 0.000E+00
 
     Adding external electric field

     Computed dipole along edir(3) : 
        Dipole               -3.1940 Ry au,         -8.1184 Debye
        Dipole field         -0.0060 Ry au, 
 
        Potential amp.        0.5587 Ry
        Total length         46.3494 bohr
 

     total cpu time spent up to now is      439.0 secs

     total energy              =   -2955.13579614 Ry
     estimated scf accuracy    <       6.96908334 Ry

     iteration # 24     ecut=    29.40 Ry     beta= 0.05
     Davidson diagonalization with overlap
     ethr =  1.29E-03,  avg # of iterations =  9.0

     negative rho (up, down):  1.766E-03 0.000E+00
 
     Adding external electric field

     Computed dipole along edir(3) : 
        Dipole               -3.0349 Ry au,         -7.7139 Debye
        Dipole field         -0.0057 Ry au, 
 
        Potential amp.        0.5309 Ry
        Total length         46.3494 bohr
 

     total cpu time spent up to now is      451.6 secs

     total energy              =   -2955.32816359 Ry
     estimated scf accuracy    <       1.38690333 Ry

     iteration # 25     ecut=    29.40 Ry     beta= 0.05
     Davidson diagonalization with overlap
     c_bands:  1 eigenvalues not converged
     c_bands:  2 eigenvalues not converged
     c_bands:  1 eigenvalues not converged
     c_bands:  1 eigenvalues not converged
     c_bands:  1 eigenvalues not converged
     c_bands:  2 eigenvalues not converged
     ethr =  3.48E-04,  avg # of iterations = 19.3

     negative rho (up, down):  2.270E-03 0.000E+00
 
     Adding external electric field

     Computed dipole along edir(3) : 
        Dipole               -3.3194 Ry au,         -8.4370 Debye
        Dipole field         -0.0063 Ry au, 
 
        Potential amp.        0.5807 Ry
        Total length         46.3494 bohr
 

     total cpu time spent up to now is      470.2 secs

     total energy              =   -2955.44652231 Ry
     estimated scf accuracy    <       0.94475992 Ry

     iteration # 26     ecut=    29.40 Ry     beta= 0.05
     Davidson diagonalization with overlap
     ethr =  2.37E-04,  avg # of iterations =  8.2

     negative rho (up, down):  2.428E-03 0.000E+00
 
     Adding external electric field

     Computed dipole along edir(3) : 
        Dipole               -3.2664 Ry au,         -8.3023 Debye
        Dipole field         -0.0062 Ry au, 
 
        Potential amp.        0.5714 Ry
        Total length         46.3494 bohr
 

     total cpu time spent up to now is      482.3 secs

     total energy              =   -2955.53005940 Ry
     estimated scf accuracy    <       9.19853282 Ry

     iteration # 27     ecut=    29.40 Ry     beta= 0.05
     Davidson diagonalization with overlap
     ethr =  2.37E-04,  avg # of iterations =  1.1

     negative rho (up, down):  5.145E-03 0.000E+00
 
     Adding external electric field

     Computed dipole along edir(3) : 
        Dipole               -2.7977 Ry au,         -7.1111 Debye
        Dipole field         -0.0053 Ry au, 
 
        Potential amp.        0.4894 Ry
        Total length         46.3494 bohr
 

     total cpu time spent up to now is      492.1 secs

     total energy              =   -2955.23891828 Ry
     estimated scf accuracy    <       8.91342155 Ry

     iteration # 28     ecut=    29.40 Ry     beta= 0.05
     Davidson diagonalization with overlap
     ethr =  2.37E-04,  avg # of iterations =  2.4

     negative rho (up, down):  4.808E-02 0.000E+00
 
     Adding external electric field

     Computed dipole along edir(3) : 
        Dipole               -1.5978 Ry au,         -4.0613 Debye
        Dipole field         -0.0030 Ry au, 
 
        Potential amp.        0.2795 Ry
        Total length         46.3494 bohr
 

     total cpu time spent up to now is      502.4 secs

     total energy              =   -2955.23255298 Ry
     estimated scf accuracy    <       0.76555643 Ry

     iteration # 29     ecut=    29.40 Ry     beta= 0.05
     Davidson diagonalization with overlap
     c_bands:  2 eigenvalues not converged
     c_bands:  3 eigenvalues not converged
     c_bands:  1 eigenvalues not converged
     c_bands:  1 eigenvalues not converged
     c_bands:  1 eigenvalues not converged
     c_bands:  2 eigenvalues not converged
     c_bands:  1 eigenvalues not converged
     c_bands:  1 eigenvalues not converged
     c_bands:  1 eigenvalues not converged
     ethr =  1.92E-04,  avg # of iterations = 19.9

     negative rho (up, down):  4.371E-03 0.000E+00
 
     Adding external electric field

     Computed dipole along edir(3) : 
        Dipole               -0.3968 Ry au,         -1.0085 Debye
        Dipole field         -0.0007 Ry au, 
 
        Potential amp.        0.0694 Ry
        Total length         46.3494 bohr
 

     total cpu time spent up to now is      524.2 secs

     total energy              =   -2955.25120509 Ry
     estimated scf accuracy    <       2.24243130 Ry

     iteration # 30     ecut=    29.40 Ry     beta= 0.05
     Davidson diagonalization with overlap
     ethr =  1.92E-04,  avg # of iterations =  7.5

     negative rho (up, down):  1.261E-03 0.000E+00
 
     Adding external electric field

     Computed dipole along edir(3) : 
        Dipole               -0.3583 Ry au,         -0.9108 Debye
        Dipole field         -0.0007 Ry au, 
 
        Potential amp.        0.0627 Ry
        Total length         46.3494 bohr
 

     total cpu time spent up to now is      536.9 secs

     total energy              =   -2955.23030766 Ry
     estimated scf accuracy    <       1.02849355 Ry

     iteration # 31     ecut=    29.40 Ry     beta= 0.05
     Davidson diagonalization with overlap
     c_bands:  1 eigenvalues not converged
     c_bands:  3 eigenvalues not converged
     c_bands:  1 eigenvalues not converged
     c_bands:  3 eigenvalues not converged
     ethr =  1.92E-04,  avg # of iterations = 17.6

     negative rho (up, down):  5.173E-03 0.000E+00
 
     Adding external electric field

     Computed dipole along edir(3) : 
        Dipole               -0.6982 Ry au,         -1.7747 Debye
        Dipole field         -0.0013 Ry au, 
 
        Potential amp.        0.1221 Ry
        Total length         46.3494 bohr
 

     total cpu time spent up to now is      553.7 secs

     total energy              =   -2955.25344018 Ry
     estimated scf accuracy    <       0.57169665 Ry

     iteration # 32     ecut=    29.40 Ry     beta= 0.05
     Davidson diagonalization with overlap
     ethr =  1.43E-04,  avg # of iterations = 12.3

     negative rho (up, down):  1.478E-02 0.000E+00
 
     Adding external electric field

     Computed dipole along edir(3) : 
        Dipole               -1.7014 Ry au,         -4.3244 Debye
        Dipole field         -0.0032 Ry au, 
 
        Potential amp.        0.2976 Ry
        Total length         46.3494 bohr
 

     total cpu time spent up to now is      567.6 secs

     total energy              =   -2955.26298129 Ry
     estimated scf accuracy    <       0.78693053 Ry

     iteration # 33     ecut=    29.40 Ry     beta= 0.05
     Davidson diagonalization with overlap
     ethr =  1.43E-04,  avg # of iterations =  5.1

     negative rho (up, down):  2.171E-03 0.000E+00
 
     Adding external electric field

     Computed dipole along edir(3) : 
        Dipole               -1.8637 Ry au,         -4.7370 Debye
        Dipole field         -0.0035 Ry au, 
 
        Potential amp.        0.3260 Ry
        Total length         46.3494 bohr
 

     total cpu time spent up to now is      579.5 secs

     total energy              =   -2955.21997099 Ry
     estimated scf accuracy    <       0.69191886 Ry

     iteration # 34     ecut=    29.40 Ry     beta= 0.05
     Davidson diagonalization with overlap
     c_bands:  3 eigenvalues not converged
     c_bands:  4 eigenvalues not converged
     c_bands:  4 eigenvalues not converged
     c_bands:  3 eigenvalues not converged
     c_bands:  5 eigenvalues not converged
     c_bands:  1 eigenvalues not converged
     ethr =  1.43E-04,  avg # of iterations = 17.8

     negative rho (up, down):  2.415E-03 0.000E+00
 
     Adding external electric field

     Computed dipole along edir(3) : 
        Dipole               -0.7019 Ry au,         -1.7840 Debye
        Dipole field         -0.0013 Ry au, 
 
        Potential amp.        0.1228 Ry
        Total length         46.3494 bohr
 

     total cpu time spent up to now is      599.0 secs

     total energy              =   -2955.13690891 Ry
     estimated scf accuracy    <       9.88104804 Ry

     iteration # 35     ecut=    29.40 Ry     beta= 0.05
     Davidson diagonalization with overlap
     ethr =  1.43E-04,  avg # of iterations =  7.3

     negative rho (up, down):  2.134E-03 0.000E+00
 
     Adding external electric field

     Computed dipole along edir(3) : 
        Dipole                0.6329 Ry au,          1.6086 Debye
        Dipole field          0.0012 Ry au, 
 
        Potential amp.       -0.1107 Ry
        Total length         46.3494 bohr
 

     total cpu time spent up to now is      611.1 secs

     total energy              =   -2954.64714281 Ry
     estimated scf accuracy    <       8.23422012 Ry

     iteration # 36     ecut=    29.40 Ry     beta= 0.05
     Davidson diagonalization with overlap
     c_bands:  1 eigenvalues not converged
     ethr =  1.43E-04,  avg # of iterations = 14.9

     negative rho (up, down):  2.101E-03 0.000E+00
 
     Adding external electric field

     Computed dipole along edir(3) : 
        Dipole               -0.4152 Ry au,         -1.0552 Debye
        Dipole field         -0.0008 Ry au, 
 
        Potential amp.        0.0726 Ry
        Total length         46.3494 bohr
 

     total cpu time spent up to now is      628.0 secs

     total energy              =   -2955.21867248 Ry
     estimated scf accuracy    <       0.18906324 Ry

     iteration # 37     ecut=    29.40 Ry     beta= 0.05
     Davidson diagonalization with overlap
     ethr =  4.74E-05,  avg # of iterations = 11.5

     negative rho (up, down):  2.006E-03 0.000E+00
 
     Adding external electric field

     Computed dipole along edir(3) : 
        Dipole                0.0991 Ry au,          0.2520 Debye
        Dipole field          0.0002 Ry au, 
 
        Potential amp.       -0.0173 Ry
        Total length         46.3494 bohr
 

     total cpu time spent up to now is      641.5 secs

     total energy              =   -2955.22498793 Ry
     estimated scf accuracy    <       0.06708202 Ry

     iteration # 38     ecut=    29.40 Ry     beta= 0.05
     Davidson diagonalization with overlap
     c_bands:  1 eigenvalues not converged
     ethr =  1.68E-05,  avg # of iterations = 14.1

     negative rho (up, down):  2.475E-03 0.000E+00
 
     Adding external electric field

     Computed dipole along edir(3) : 
        Dipole                0.4918 Ry au,          1.2501 Debye
        Dipole field          0.0009 Ry au, 
 
        Potential amp.       -0.0860 Ry
        Total length         46.3494 bohr
 

     total cpu time spent up to now is      656.3 secs

     total energy              =   -2955.21869589 Ry
     estimated scf accuracy    <       0.08786875 Ry

     iteration # 39     ecut=    29.40 Ry     beta= 0.05
     Davidson diagonalization with overlap
     ethr =  1.68E-05,  avg # of iterations =  8.0

     negative rho (up, down):  3.427E-03 0.000E+00
 
     Adding external electric field

     Computed dipole along edir(3) : 
        Dipole                0.5686 Ry au,          1.4452 Debye
        Dipole field          0.0011 Ry au, 
 
        Potential amp.       -0.0995 Ry
        Total length         46.3494 bohr
 

     total cpu time spent up to now is      668.8 secs

     total energy              =   -2955.21206768 Ry
     estimated scf accuracy    <       0.04661346 Ry

     iteration # 40     ecut=    29.40 Ry     beta= 0.05
     Davidson diagonalization with overlap
     c_bands:  3 eigenvalues not converged
     c_bands:  1 eigenvalues not converged
     ethr =  1.17E-05,  avg # of iterations = 16.0

     negative rho (up, down):  3.402E-03 0.000E+00
 
     Adding external electric field

     Computed dipole along edir(3) : 
        Dipole                0.9130 Ry au,          2.3205 Debye
        Dipole field          0.0017 Ry au, 
 
        Potential amp.       -0.1597 Ry
        Total length         46.3494 bohr
 

     total cpu time spent up to now is      687.6 secs

     total energy              =   -2955.21181910 Ry
     estimated scf accuracy    <       0.05038236 Ry

     iteration # 41     ecut=    29.40 Ry     beta= 0.05
     Davidson diagonalization with overlap
     ethr =  1.17E-05,  avg # of iterations =  5.4

     negative rho (up, down):  3.779E-03 0.000E+00
 
     Adding external electric field

     Computed dipole along edir(3) : 
        Dipole                1.0052 Ry au,          2.5549 Debye
        Dipole field          0.0019 Ry au, 
 
        Potential amp.       -0.1758 Ry
        Total length         46.3494 bohr
 

     total cpu time spent up to now is      699.4 secs

     total energy              =   -2955.21431494 Ry
     estimated scf accuracy    <       0.00841213 Ry

     iteration # 42     ecut=    29.40 Ry     beta= 0.05
     Davidson diagonalization with overlap
     c_bands:  4 eigenvalues not converged
     c_bands:  1 eigenvalues not converged
     c_bands:  2 eigenvalues not converged
     c_bands:  1 eigenvalues not converged
     c_bands:  4 eigenvalues not converged
     ethr =  2.11E-06,  avg # of iterations = 17.1

     negative rho (up, down):  5.302E-03 0.000E+00
 
     Adding external electric field

     Computed dipole along edir(3) : 
        Dipole                1.1061 Ry au,          2.8114 Debye
        Dipole field          0.0021 Ry au, 
 
        Potential amp.       -0.1935 Ry
        Total length         46.3494 bohr
 

     total cpu time spent up to now is      716.1 secs

     total energy              =   -2955.21478387 Ry
     estimated scf accuracy    <       0.00571018 Ry

     iteration # 43     ecut=    29.40 Ry     beta= 0.05
     Davidson diagonalization with overlap
     c_bands:  1 eigenvalues not converged
     ethr =  1.43E-06,  avg # of iterations = 12.7

     negative rho (up, down):  6.585E-03 0.000E+00
 
     Adding external electric field

     Computed dipole along edir(3) : 
        Dipole                1.1923 Ry au,          3.0304 Debye
        Dipole field          0.0022 Ry au, 
 
        Potential amp.       -0.2086 Ry
        Total length         46.3494 bohr
 

     total cpu time spent up to now is      732.0 secs

     total energy              =   -2955.21495478 Ry
     estimated scf accuracy    <       0.00637772 Ry

     iteration # 44     ecut=    29.40 Ry     beta= 0.05
     Davidson diagonalization with overlap
     ethr =  1.43E-06,  avg # of iterations =  4.2

     negative rho (up, down):  7.794E-03 0.000E+00
 
     Adding external electric field

     Computed dipole along edir(3) : 
        Dipole                1.2481 Ry au,          3.1724 Debye
        Dipole field          0.0024 Ry au, 
 
        Potential amp.       -0.2183 Ry
        Total length         46.3494 bohr
 

     total cpu time spent up to now is      743.3 secs

     total energy              =   -2955.21491022 Ry
     estimated scf accuracy    <       0.00171863 Ry

     iteration # 45     ecut=    29.40 Ry     beta= 0.05
     Davidson diagonalization with overlap
     ethr =  4.31E-07,  avg # of iterations = 10.3

     negative rho (up, down):  7.783E-03 0.000E+00
 
     Adding external electric field

     Computed dipole along edir(3) : 
        Dipole                1.2522 Ry au,          3.1827 Debye
        Dipole field          0.0024 Ry au, 
 
        Potential amp.       -0.2190 Ry
        Total length         46.3494 bohr
 

     total cpu time spent up to now is      761.3 secs

     total energy              =   -2955.21541873 Ry
     estimated scf accuracy    <       0.00153965 Ry

     iteration # 46     ecut=    29.40 Ry     beta= 0.05
     Davidson diagonalization with overlap
     ethr =  3.86E-07,  avg # of iterations =  2.3

     negative rho (up, down):  7.930E-03 0.000E+00
 
     Adding external electric field

     Computed dipole along edir(3) : 
        Dipole                1.2519 Ry au,          3.1821 Debye
        Dipole field          0.0024 Ry au, 
 
        Potential amp.       -0.2190 Ry
        Total length         46.3494 bohr
 

     total cpu time spent up to now is      771.5 secs

     total energy              =   -2955.21522337 Ry
     estimated scf accuracy    <       0.00122540 Ry

     iteration # 47     ecut=    29.40 Ry     beta= 0.05
     Davidson diagonalization with overlap
     ethr =  3.07E-07,  avg # of iterations =  8.0

     negative rho (up, down):  1.026E-02 0.000E+00
 
     Adding external electric field

     Computed dipole along edir(3) : 
        Dipole                1.2997 Ry au,          3.3036 Debye
        Dipole field          0.0025 Ry au, 
 
        Potential amp.       -0.2274 Ry
        Total length         46.3494 bohr
 

     total cpu time spent up to now is      785.1 secs

     total energy              =   -2955.21535432 Ry
     estimated scf accuracy    <       0.00059942 Ry

     iteration # 48     ecut=    29.40 Ry     beta= 0.05
     Davidson diagonalization with overlap
     c_bands:  2 eigenvalues not converged
     ethr =  1.50E-07,  avg # of iterations =  9.1

     negative rho (up, down):  1.099E-02 0.000E+00
 
     Adding external electric field

     Computed dipole along edir(3) : 
        Dipole                1.3106 Ry au,          3.3312 Debye
        Dipole field          0.0025 Ry au, 
 
        Potential amp.       -0.2293 Ry
        Total length         46.3494 bohr
 

     total cpu time spent up to now is      799.4 secs

     total energy              =   -2955.21542195 Ry
     estimated scf accuracy    <       0.00026731 Ry

     iteration # 49     ecut=    29.40 Ry     beta= 0.05
     Davidson diagonalization with overlap
     c_bands:  1 eigenvalues not converged
     ethr =  6.70E-08,  avg # of iterations =  9.6

     negative rho (up, down):  1.119E-02 0.000E+00
 
     Adding external electric field

     Computed dipole along edir(3) : 
        Dipole                1.3174 Ry au,          3.3485 Debye
        Dipole field          0.0025 Ry au, 
 
        Potential amp.       -0.2305 Ry
        Total length         46.3494 bohr
 

     total cpu time spent up to now is      813.1 secs

     total energy              =   -2955.21541280 Ry
     estimated scf accuracy    <       0.00023846 Ry

     iteration # 50     ecut=    29.40 Ry     beta= 0.05
     Davidson diagonalization with overlap
     ethr =  5.98E-08,  avg # of iterations = 10.6

     negative rho (up, down):  1.249E-02 0.000E+00
 
     Adding external electric field

     Computed dipole along edir(3) : 
        Dipole                1.3421 Ry au,          3.4112 Debye
        Dipole field          0.0025 Ry au, 
 
        Potential amp.       -0.2348 Ry
        Total length         46.3494 bohr
 

     total cpu time spent up to now is      828.9 secs

     total energy              =   -2955.21544506 Ry
     estimated scf accuracy    <       0.00016666 Ry

     iteration # 51     ecut=    29.40 Ry     beta= 0.05
     Davidson diagonalization with overlap
     ethr =  4.18E-08,  avg # of iterations =  7.3

     negative rho (up, down):  1.132E-02 0.000E+00
 
     Adding external electric field

     Computed dipole along edir(3) : 
        Dipole                1.3258 Ry au,          3.3699 Debye
        Dipole field          0.0025 Ry au, 
 
        Potential amp.       -0.2319 Ry
        Total length         46.3494 bohr
 

     total cpu time spent up to now is      841.5 secs

     total energy              =   -2955.21545014 Ry
     estimated scf accuracy    <       0.00009452 Ry

     iteration # 52     ecut=    29.40 Ry     beta= 0.05
     Davidson diagonalization with overlap
     ethr =  2.37E-08,  avg # of iterations =  8.8

     negative rho (up, down):  1.071E-02 0.000E+00
 
     Adding external electric field

     Computed dipole along edir(3) : 
        Dipole                1.3175 Ry au,          3.3486 Debye
        Dipole field          0.0025 Ry au, 
 
        Potential amp.       -0.2305 Ry
        Total length         46.3494 bohr
 

     total cpu time spent up to now is      855.3 secs

     total energy              =   -2955.21544508 Ry
     estimated scf accuracy    <       0.00006984 Ry

     iteration # 53     ecut=    29.40 Ry     beta= 0.05
     Davidson diagonalization with overlap
     ethr =  1.75E-08,  avg # of iterations =  7.6

     negative rho (up, down):  1.113E-02 0.000E+00
 
     Adding external electric field

     Computed dipole along edir(3) : 
        Dipole                1.3222 Ry au,          3.3606 Debye
        Dipole field          0.0025 Ry au, 
 
        Potential amp.       -0.2313 Ry
        Total length         46.3494 bohr
 

     total cpu time spent up to now is      870.6 secs

     total energy              =   -2955.21545975 Ry
     estimated scf accuracy    <       0.00004243 Ry

     iteration # 54     ecut=    29.40 Ry     beta= 0.05
     Davidson diagonalization with overlap
     c_bands:  1 eigenvalues not converged
     ethr =  1.06E-08,  avg # of iterations = 10.1

     negative rho (up, down):  1.103E-02 0.000E+00
 
     Adding external electric field

     Computed dipole along edir(3) : 
        Dipole                1.3194 Ry au,          3.3536 Debye
        Dipole field          0.0025 Ry au, 
 
        Potential amp.       -0.2308 Ry
        Total length         46.3494 bohr
 

     total cpu time spent up to now is      887.3 secs

     total energy              =   -2955.21546709 Ry
     estimated scf accuracy    <       0.00003222 Ry

     iteration # 55     ecut=    29.40 Ry     beta= 0.05
     Davidson diagonalization with overlap
     ethr =  8.08E-09,  avg # of iterations =  9.0

     negative rho (up, down):  1.097E-02 0.000E+00
 
     Adding external electric field

     Computed dipole along edir(3) : 
        Dipole                1.3185 Ry au,          3.3514 Debye
        Dipole field          0.0025 Ry au, 
 
        Potential amp.       -0.2307 Ry
        Total length         46.3494 bohr
 

     total cpu time spent up to now is      902.3 secs

     total energy              =   -2955.21547803 Ry
     estimated scf accuracy    <       0.00000735 Ry

     iteration # 56     ecut=    29.40 Ry     beta= 0.05
     Davidson diagonalization with overlap
     c_bands:  1 eigenvalues not converged
     ethr =  1.84E-09,  avg # of iterations = 11.0

     negative rho (up, down):  1.091E-02 0.000E+00
 
     Adding external electric field

     Computed dipole along edir(3) : 
        Dipole                1.3175 Ry au,          3.3487 Debye
        Dipole field          0.0025 Ry au, 
 
        Potential amp.       -0.2305 Ry
        Total length         46.3494 bohr
 

     total cpu time spent up to now is      919.6 secs

     total energy              =   -2955.21548457 Ry
     estimated scf accuracy    <       0.00000798 Ry

     iteration # 57     ecut=    29.40 Ry     beta= 0.05
     Davidson diagonalization with overlap
     ethr =  1.84E-09,  avg # of iterations =  2.9

     negative rho (up, down):  1.103E-02 0.000E+00
 
     Adding external electric field

     Computed dipole along edir(3) : 
        Dipole                1.3196 Ry au,          3.3541 Debye
        Dipole field          0.0025 Ry au, 
 
        Potential amp.       -0.2308 Ry
        Total length         46.3494 bohr
 

     total cpu time spent up to now is      930.5 secs

     total energy              =   -2955.21548968 Ry
     estimated scf accuracy    <       0.00000361 Ry

     iteration # 58     ecut=    29.40 Ry     beta= 0.05
     Davidson diagonalization with overlap
     ethr =  9.04E-10,  avg # of iterations = 12.5

     negative rho (up, down):  1.107E-02 0.000E+00
 
     Adding external electric field

     Computed dipole along edir(3) : 
        Dipole                1.3196 Ry au,          3.3540 Debye
        Dipole field          0.0025 Ry au, 
 
        Potential amp.       -0.2308 Ry
        Total length         46.3494 bohr
 

     total cpu time spent up to now is      951.6 secs

     total energy              =   -2955.21549579 Ry
     estimated scf accuracy    <       0.00000876 Ry

     iteration # 59     ecut=    29.40 Ry     beta= 0.05
     Davidson diagonalization with overlap
     ethr =  9.04E-10,  avg # of iterations =  4.1

     negative rho (up, down):  1.107E-02 0.000E+00
 
     Adding external electric field

     Computed dipole along edir(3) : 
        Dipole                1.3191 Ry au,          3.3527 Debye
        Dipole field          0.0025 Ry au, 
 
        Potential amp.       -0.2307 Ry
        Total length         46.3494 bohr
 

     total cpu time spent up to now is      963.6 secs

     total energy              =   -2955.21549996 Ry
     estimated scf accuracy    <       0.00000369 Ry

     iteration # 60     ecut=    29.40 Ry     beta= 0.05
     Davidson diagonalization with overlap
     ethr =  9.04E-10,  avg # of iterations =  8.4

     negative rho (up, down):  1.106E-02 0.000E+00
 
     Adding external electric field

     Computed dipole along edir(3) : 
        Dipole                1.3189 Ry au,          3.3524 Debye
        Dipole field          0.0025 Ry au, 
 
        Potential amp.       -0.2307 Ry
        Total length         46.3494 bohr
 

     total cpu time spent up to now is      980.1 secs

     total energy              =   -2955.21550503 Ry
     estimated scf accuracy    <       0.00000062 Ry

     iteration # 61     ecut=    29.40 Ry     beta= 0.05
     Davidson diagonalization with overlap
     c_bands:  1 eigenvalues not converged
     ethr =  1.55E-10,  avg # of iterations = 10.1

     negative rho (up, down):  1.106E-02 0.000E+00
 
     Adding external electric field

     Computed dipole along edir(3) : 
        Dipole                1.3190 Ry au,          3.3524 Debye
        Dipole field          0.0025 Ry au, 
 
        Potential amp.       -0.2307 Ry
        Total length         46.3494 bohr
 

     total cpu time spent up to now is      994.5 secs

     total energy              =   -2955.21550879 Ry
     estimated scf accuracy    <       0.00000056 Ry

     iteration # 62     ecut=    29.40 Ry     beta= 0.05
     Davidson diagonalization with overlap
     ethr =  1.41E-10,  avg # of iterations =  9.2

     negative rho (up, down):  1.105E-02 0.000E+00
 
     Adding external electric field

     Computed dipole along edir(3) : 
        Dipole                1.3187 Ry au,          3.3517 Debye
        Dipole field          0.0025 Ry au, 
 
        Potential amp.       -0.2307 Ry
        Total length         46.3494 bohr
 

     total cpu time spent up to now is     1012.3 secs

     total energy              =   -2955.21551238 Ry
     estimated scf accuracy    <       0.00000049 Ry

     iteration # 63     ecut=    29.40 Ry     beta= 0.05
     Davidson diagonalization with overlap
     ethr =  1.22E-10,  avg # of iterations =  4.6

     negative rho (up, down):  1.103E-02 0.000E+00
 
     Adding external electric field

     Computed dipole along edir(3) : 
        Dipole                1.3181 Ry au,          3.3502 Debye
        Dipole field          0.0025 Ry au, 
 
        Potential amp.       -0.2306 Ry
        Total length         46.3494 bohr
 

     total cpu time spent up to now is     1023.6 secs

     total energy              =   -2955.21551549 Ry
     estimated scf accuracy    <       0.00000020 Ry

     iteration # 64     ecut=    29.40 Ry     beta= 0.05
     Davidson diagonalization with overlap
     ethr =  4.98E-11,  avg # of iterations = 13.3

     negative rho (up, down):  1.103E-02 0.000E+00
 
     Adding external electric field

     Computed dipole along edir(3) : 
        Dipole                1.3181 Ry au,          3.3504 Debye
        Dipole field          0.0025 Ry au, 
 
        Potential amp.       -0.2306 Ry
        Total length         46.3494 bohr
 

     total cpu time spent up to now is     1043.4 secs

     total energy              =   -2955.21551840 Ry
     estimated scf accuracy    <       0.00000024 Ry

     iteration # 65     ecut=    29.40 Ry     beta= 0.05
     Davidson diagonalization with overlap
     ethr =  4.98E-11,  avg # of iterations =  2.0

     negative rho (up, down):  1.105E-02 0.000E+00
 
     Adding external electric field

     Computed dipole along edir(3) : 
        Dipole                1.3185 Ry au,          3.3514 Debye
        Dipole field          0.0025 Ry au, 
 
        Potential amp.       -0.2307 Ry
        Total length         46.3494 bohr
 

     total cpu time spent up to now is     1054.0 secs

     total energy              =   -2955.21552086 Ry
     estimated scf accuracy    <       0.00000025 Ry

     iteration # 66     ecut=    29.40 Ry     beta= 0.05
     Davidson diagonalization with overlap
     ethr =  4.98E-11,  avg # of iterations =  5.0

     negative rho (up, down):  1.105E-02 0.000E+00
 
     Adding external electric field

     Computed dipole along edir(3) : 
        Dipole                1.3185 Ry au,          3.3513 Debye
        Dipole field          0.0025 Ry au, 
 
        Potential amp.       -0.2307 Ry
        Total length         46.3494 bohr
 

     total cpu time spent up to now is     1065.5 secs

     total energy              =   -2955.21552310 Ry
     estimated scf accuracy    <       0.00000014 Ry

     iteration # 67     ecut=    29.40 Ry     beta= 0.05
     Davidson diagonalization with overlap
     ethr =  3.45E-11,  avg # of iterations =  2.0

     negative rho (up, down):  1.106E-02 0.000E+00
 
     Adding external electric field

     Computed dipole along edir(3) : 
        Dipole                1.3186 Ry au,          3.3515 Debye
        Dipole field          0.0025 Ry au, 
 
        Potential amp.       -0.2307 Ry
        Total length         46.3494 bohr
 

     total cpu time spent up to now is     1076.0 secs

     total energy              =   -2955.21552510 Ry
     estimated scf accuracy    <       0.00000011 Ry

     iteration # 68     ecut=    29.40 Ry     beta= 0.05
     Davidson diagonalization with overlap
     ethr =  2.87E-11,  avg # of iterations =  6.3

     negative rho (up, down):  1.111E-02 0.000E+00
 
     Adding external electric field

     Computed dipole along edir(3) : 
        Dipole                1.3178 Ry au,          3.3494 Debye
        Dipole field          0.0025 Ry au, 
 
        Potential amp.       -0.2305 Ry
        Total length         46.3494 bohr
 

     total cpu time spent up to now is     1088.0 secs

     End of self-consistent calculation

          k = 0.0000 0.0000 0.0000 ( 18029 PWs)   bands (ev):

   -55.5029 -55.4950 -55.4688 -55.4590 -55.4137 -55.3447 -55.3419 -55.3075
   -55.3073 -55.2736 -55.2658 -55.2321 -55.0795 -54.7963 -54.4748 -54.4407
   -32.0534 -31.9841 -31.8583 -31.8437 -31.8227 -31.8069 -31.7962 -31.7569
   -31.7445 -31.7444 -31.7181 -31.7102 -31.6773 -31.6551 -31.6475 -31.6438
   -31.6373 -31.6061 -31.5850 -31.5601 -31.5533 -31.5485 -31.5325 -31.5117
   -31.5024 -31.4974 -31.4937 -31.4856 -31.4689 -31.4662 -31.4614 -31.4572
   -31.4432 -31.4377 -31.4192 -31.4145 -31.3785 -31.3437 -31.2476 -31.0701
   -31.0641 -30.9944 -30.8816 -30.7940 -30.7715 -30.6984 -30.6119 -30.5009
   -18.5663 -16.2617 -15.9795 -15.7993 -15.6570 -15.6253 -15.5370 -15.3390
   -15.2133 -15.1982 -15.0939 -15.0618 -15.0368 -15.0301 -15.0016 -14.9983
   -14.9439 -14.9360 -14.9272 -14.9139 -14.8550 -14.8312 -14.7911 -14.6993
   -14.6760 -14.6602 -14.6324 -14.5502 -14.5447 -14.1010 -13.6682 -12.9772
   -12.8609  -8.4625  -6.3695  -3.9269  -3.6322  -3.4584  -3.4207  -3.4050
    -3.3549  -3.1043  -3.0867  -2.8487  -2.7230  -2.7037  -2.6874  -2.6745
    -2.6572  -2.6389  -2.4015  -2.4003  -2.3337  -2.3175  -2.2957  -2.2873
    -2.2814  -2.2717  -2.2682  -2.2234  -2.1680  -2.0535  -2.0363  -1.9303
    -1.8870  -1.8659  -1.8120  -1.7679  -1.7616  -1.7522  -1.7324  -1.7227
    -1.6980  -1.6802  -1.5455  -1.4825  -1.3477  -1.3040  -1.2963  -1.1025
    -1.0618  -0.9718  -0.9455  -0.9290  -0.9209  -0.8888  -0.8072  -0.7134
    -0.6619  -0.6492  -0.5959  -0.5163  -0.5029  -0.3923  -0.3878  -0.3848
    -0.3191  -0.2715  -0.2615  -0.2529  -0.2066  -0.1235  -0.0602   0.0115
     0.0643   0.0862   0.1124   0.1912   0.2197   0.3153   0.3372   0.3829
     0.3874   0.4341   0.4761   0.4846   0.4900   0.5062   0.5252   0.6732
     0.7812   0.8376   0.8709   0.8816   1.0379   1.0744   1.1618   1.2487
     1.4744   1.5472   1.6413   1.7403   1.8269   2.1180   2.1633   3.6402
     3.7193   3.7730   3.7817   3.8778   3.8849   4.0900   4.0986   4.1096
     4.2949

          k = 0.0000 0.0419 0.0000 ( 17933 PWs)   bands (ev):

   -55.4979 -55.4897 -55.4738 -55.4642 -55.4114 -55.3468 -55.3369 -55.3123
   -55.3025 -55.2785 -55.2608 -55.2370 -55.0789 -54.7966 -54.4697 -54.4456
   -31.9959 -31.9302 -31.8108 -31.8046 -31.7915 -31.7891 -31.7823 -31.7511
   -31.7292 -31.7208 -31.7053 -31.7042 -31.6832 -31.6788 -31.6627 -31.6567
   -31.6413 -31.6325 -31.5740 -31.5719 -31.5487 -31.5448 -31.5388 -31.5227
   -31.5140 -31.5102 -31.5072 -31.4976 -31.4926 -31.4836 -31.4725 -31.4663
   -31.4522 -31.4396 -31.4393 -31.4345 -31.4223 -31.3428 -31.2447 -31.0953
   -31.0646 -31.0085 -30.8275 -30.7905 -30.7745 -30.6858 -30.6245 -30.5580
   -18.5662 -16.1261 -15.8600 -15.6889 -15.5497 -15.5270 -15.4994 -15.3866
   -15.2846 -15.2531 -15.1166 -15.1110 -15.0379 -15.0182 -15.0064 -14.9788
   -14.9732 -14.9548 -14.9511 -14.8882 -14.8794 -14.8373 -14.7612 -14.7501
   -14.7151 -14.6938 -14.6909 -14.6067 -14.5592 -14.1721 -13.6819 -12.9813
   -12.9004  -8.4625  -6.3692  -3.9339  -3.4415  -3.2935  -3.2535  -3.2288
    -3.1959  -2.9455  -2.8809  -2.7966  -2.7623  -2.6885  -2.6308  -2.5854
    -2.5533  -2.5346  -2.4735  -2.4706  -2.4447  -2.3988  -2.3853  -2.3680
    -2.3472  -2.2971  -2.2501  -2.2365  -2.1870  -2.1758  -2.1583  -2.1326
    -2.0027  -1.9908  -1.9573  -1.9171  -1.8661  -1.7824  -1.7536  -1.7331
    -1.6510  -1.5808  -1.4728  -1.4258  -1.2775  -1.2360  -1.1726  -1.1490
    -1.0967  -0.9732  -0.8688  -0.8341  -0.8115  -0.7389  -0.7129  -0.6099
    -0.5542  -0.5256  -0.4521  -0.4430  -0.4227  -0.3964  -0.3950  -0.3882
    -0.3451  -0.3106  -0.2545  -0.2105  -0.1876  -0.1570  -0.0889  -0.0604
    -0.0043   0.0076   0.0330   0.0452   0.1968   0.2315   0.2583   0.2876
     0.3189   0.3496   0.3733   0.4158   0.4700   0.5234   0.5448   0.6148
     0.6925   0.7580   0.7807   0.8380   0.8517   0.8861   1.0257   1.1666
     1.1802   1.5117   1.7367   1.7518   1.8214   2.0719   2.0754   3.8299
     3.8533   3.8899   3.9336   3.9899   4.0395   4.0817   4.1107   4.1685
     4.1839

          k = 0.0000-0.0839 0.0000 ( 17884 PWs)   bands (ev):

   -55.4863 -55.4853 -55.4771 -55.4767 -55.4090 -55.3492 -55.3266 -55.3225
   -55.2913 -55.2895 -55.2491 -55.2485 -55.0784 -54.7971 -54.4577 -54.4575
   -31.8571 -31.8553 -31.7983 -31.7975 -31.7900 -31.7820 -31.7810 -31.7657
   -31.7051 -31.7040 -31.6814 -31.6801 -31.6715 -31.6579 -31.6520 -31.6373
   -31.6167 -31.6081 -31.6074 -31.6072 -31.6017 -31.5712 -31.5685 -31.5602
   -31.5400 -31.5396 -31.5280 -31.5272 -31.5186 -31.5048 -31.4822 -31.4820
   -31.4641 -31.4605 -31.4305 -31.4303 -31.4119 -31.3418 -31.2428 -31.1331
   -31.0645 -31.0189 -30.7824 -30.7822 -30.6946 -30.6944 -30.6552 -30.6551
   -18.5662 -15.7883 -15.7763 -15.5836 -15.5777 -15.4412 -15.4311 -15.3326
   -15.3159 -15.2889 -15.2630 -15.2237 -15.2220 -15.0606 -15.0551 -14.8896
   -14.8807 -14.8787 -14.8730 -14.8594 -14.8449 -14.8430 -14.8337 -14.8318
   -14.7572 -14.7491 -14.7371 -14.7051 -14.5415 -14.2748 -13.6945 -12.9633
   -12.9630  -8.4625  -6.3690  -3.9419  -3.0127  -2.9780  -2.9008  -2.8928
    -2.8871  -2.8804  -2.8717  -2.8578  -2.7907  -2.7905  -2.7310  -2.6231
    -2.6190  -2.6085  -2.5851  -2.5526  -2.5291  -2.4752  -2.4465  -2.4418
    -2.3974  -2.3425  -2.3068  -2.2969  -2.2486  -2.2249  -2.1659  -2.1334
    -2.0935  -2.0633  -1.9584  -1.8949  -1.8740  -1.8577  -1.8339  -1.5618
    -1.5106  -1.4025  -1.3638  -1.3301  -1.2188  -1.1928  -1.1398  -1.0901
    -1.0092  -0.9368  -0.9311  -0.8926  -0.8795  -0.8495  -0.8158  -0.7236
    -0.6880  -0.6790  -0.6300  -0.5858  -0.4051  -0.3699  -0.3028  -0.2232
    -0.1838  -0.1526  -0.1342  -0.1284  -0.1053  -0.0849  -0.0632  -0.0301
     0.0158   0.0529   0.0687   0.0805   0.1206   0.1386   0.1866   0.2176
     0.2308   0.2489   0.2986   0.3162   0.3511   0.3687   0.4009   0.4852
     0.5108   0.5809   0.7459   0.7477   0.7533   0.7781   1.0935   1.1340
     1.1994   1.2389   1.7350   1.8803   1.8806   2.0089   2.0097   3.9147
     3.9416   3.9722   3.9943   4.0697   4.0791   4.1497   4.1819   4.2298
     4.2367

          k = 0.0380 0.0000 0.0000 ( 17913 PWs)   bands (ev):

   -55.5028 -55.4949 -55.4687 -55.4589 -55.4135 -55.3446 -55.3419 -55.3073
   -55.3072 -55.2735 -55.2658 -55.2320 -55.0794 -54.7962 -54.4747 -54.4406
   -32.0535 -31.9850 -31.8598 -31.8499 -31.8226 -31.8070 -31.7960 -31.7617
   -31.7444 -31.7442 -31.7130 -31.6994 -31.6773 -31.6522 -31.6402 -31.6391
   -31.6369 -31.6058 -31.5696 -31.5646 -31.5599 -31.5483 -31.5358 -31.5078
   -31.5017 -31.4969 -31.4867 -31.4857 -31.4688 -31.4659 -31.4642 -31.4608
   -31.4570 -31.4376 -31.4194 -31.4136 -31.3787 -31.3462 -31.2474 -31.0701
   -31.0644 -30.9942 -30.8812 -30.7973 -30.7695 -30.6982 -30.6118 -30.5006
   -18.5662 -16.1933 -15.8929 -15.7182 -15.6374 -15.5544 -15.5361 -15.3832
   -15.2108 -15.2041 -15.1954 -15.1915 -15.1584 -15.1113 -15.0890 -15.0438
   -15.0208 -14.8807 -14.8572 -14.8134 -14.7656 -14.7520 -14.7448 -14.7029
   -14.6933 -14.6843 -14.6715 -14.6294 -14.5320 -14.0981 -13.6638 -12.9739
   -12.8606  -8.4655  -6.3704  -3.9749  -3.5645  -3.2459  -3.1937  -3.1354
    -3.1244  -3.0721  -3.0330  -2.9740  -2.8468  -2.7465  -2.7370  -2.7030
    -2.6171  -2.5766  -2.5156  -2.4731  -2.3999  -2.3740  -2.2796  -2.2754
    -2.2265  -2.2129  -2.1470  -2.1062  -2.0814  -2.0411  -2.0066  -1.9607
    -1.8906  -1.8444  -1.8388  -1.7724  -1.7267  -1.7067  -1.6693  -1.5460
    -1.5199  -1.4853  -1.4324  -1.3920  -1.3710  -1.3170  -1.2879  -1.1801
    -1.0991  -1.0713  -1.0537  -0.9591  -0.9343  -0.9066  -0.8023  -0.7866
    -0.7761  -0.7428  -0.6814  -0.6359  -0.5285  -0.4037  -0.3846  -0.3709
    -0.3581  -0.3271  -0.3052  -0.2578  -0.2249  -0.1294  -0.0805  -0.0231
     0.0311   0.0703   0.1237   0.1505   0.2129   0.2335   0.2616   0.2949
     0.3146   0.3504   0.3616   0.3780   0.3907   0.4225   0.5775   0.6327
     0.6877   0.7085   0.8031   0.8619   0.9080   0.9570   1.1322   1.1950
     1.4775   1.5067   1.5591   1.7100   1.8243   2.0066   2.0804   3.6781
     3.6944   3.9770   3.9952   4.0155   4.0464   4.0641   4.0897   4.1150
     4.1418

          k = 0.0380 0.0419 0.0000 ( 17878 PWs)   bands (ev):

   -55.4978 -55.4896 -55.4737 -55.4642 -55.4113 -55.3468 -55.3368 -55.3122
   -55.3023 -55.2784 -55.2608 -55.2370 -55.0789 -54.7966 -54.4696 -54.4456
   -31.9961 -31.9310 -31.8107 -31.8060 -31.7968 -31.7913 -31.7825 -31.7511
   -31.7291 -31.7210 -31.7092 -31.6928 -31.6831 -31.6792 -31.6628 -31.6459
   -31.6388 -31.6286 -31.5736 -31.5631 -31.5545 -31.5442 -31.5385 -31.5232
   -31.5129 -31.5119 -31.4971 -31.4961 -31.4923 -31.4837 -31.4725 -31.4668
   -31.4607 -31.4517 -31.4392 -31.4302 -31.4268 -31.3450 -31.2446 -31.0953
   -31.0652 -31.0083 -30.8272 -30.7931 -30.7735 -30.6856 -30.6245 -30.5578
   -18.5662 -16.0644 -15.7801 -15.6146 -15.5321 -15.5011 -15.4521 -15.3864
   -15.3189 -15.2545 -15.1563 -15.1546 -15.1178 -15.1091 -15.0790 -14.9917
   -14.9798 -14.9515 -14.9151 -14.8804 -14.8250 -14.8110 -14.7836 -14.7467
   -14.7429 -14.7253 -14.6970 -14.6604 -14.5489 -14.1700 -13.6785 -12.9791
   -12.9007  -8.4648  -6.3702  -3.9571  -3.3881  -3.0779  -3.0337  -2.9863
    -2.9532  -2.8804  -2.8760  -2.8146  -2.7895  -2.6923  -2.6276  -2.5900
    -2.5348  -2.5113  -2.4806  -2.4001  -2.3918  -2.3834  -2.3645  -2.3094
    -2.2845  -2.2605  -2.2250  -2.2098  -2.2075  -2.1512  -2.1246  -2.1192
    -2.0471  -1.9843  -1.9598  -1.8610  -1.8094  -1.7839  -1.7030  -1.6442
    -1.5702  -1.5085  -1.4840  -1.4573  -1.2721  -1.2358  -1.1993  -1.1084
    -1.0467  -0.9553  -0.9427  -0.9175  -0.8291  -0.8047  -0.7804  -0.7470
    -0.6677  -0.6337  -0.6200  -0.5627  -0.4923  -0.4561  -0.4314  -0.3946
    -0.3917  -0.3357  -0.3045  -0.2566  -0.2186  -0.1966  -0.1791  -0.1530
    -0.1198  -0.0799  -0.0648  -0.0017   0.0376   0.0813   0.1698   0.1968
     0.2063   0.2546   0.3058   0.3990   0.4373   0.4673   0.5799   0.6396
     0.6906   0.7378   0.8141   0.8620   0.8925   0.9297   0.9521   1.0896
     1.1545   1.4495   1.7475   1.7598   1.8260   1.9944   2.0561   3.8189
     3.8878   3.9191   3.9952   4.0590   4.0799   4.1447   4.1751   4.2034
     4.2360

          k = 0.0380-0.0839 0.0000 ( 17916 PWs)   bands (ev):

   -55.4863 -55.4853 -55.4771 -55.4767 -55.4090 -55.3492 -55.3266 -55.3226
   -55.2913 -55.2895 -55.2492 -55.2486 -55.0785 -54.7971 -54.4578 -54.4576
   -31.8573 -31.8556 -31.7990 -31.7983 -31.7901 -31.7820 -31.7810 -31.7658
   -31.7059 -31.7043 -31.6920 -31.6890 -31.6725 -31.6395 -31.6389 -31.6354
   -31.6142 -31.6080 -31.6069 -31.6061 -31.6024 -31.5825 -31.5801 -31.5575
   -31.5358 -31.5347 -31.5191 -31.5163 -31.5161 -31.5048 -31.4822 -31.4818
   -31.4642 -31.4605 -31.4423 -31.4420 -31.4117 -31.3441 -31.2428 -31.1329
   -31.0655 -31.0189 -30.7833 -30.7832 -30.6945 -30.6943 -30.6552 -30.6551
   -18.5661 -15.7527 -15.7333 -15.5325 -15.5263 -15.4049 -15.3976 -15.2984
   -15.2899 -15.2708 -15.2560 -15.1962 -15.1898 -15.0746 -15.0688 -14.9763
   -14.9597 -14.9269 -14.9209 -14.9094 -14.9066 -14.8612 -14.8523 -14.8177
   -14.7969 -14.7882 -14.7397 -14.6808 -14.5355 -14.2713 -13.6921 -12.9631
   -12.9628  -8.4644  -6.3700  -3.9403  -3.0070  -2.9686  -2.8383  -2.7699
    -2.7523  -2.7365  -2.6866  -2.6711  -2.6303  -2.6011  -2.5793  -2.5671
    -2.5516  -2.5105  -2.4991  -2.4698  -2.4387  -2.4040  -2.3964  -2.3414
    -2.3338  -2.3245  -2.3045  -2.2644  -2.2178  -2.2105  -2.1863  -2.1448
    -2.1147  -2.0834  -2.0284  -1.9723  -1.8175  -1.6212  -1.5965  -1.5864
    -1.4799  -1.4158  -1.3958  -1.3491  -1.3370  -1.2876  -1.2575  -1.2319
    -1.2016  -1.1501  -1.1314  -1.0718  -0.9993  -0.9676  -0.9275  -0.7717
    -0.7108  -0.6666  -0.6280  -0.5263  -0.5056  -0.4413  -0.4229  -0.4044
    -0.3542  -0.2976  -0.2676  -0.2547  -0.2363  -0.2136  -0.1919  -0.1520
    -0.1120  -0.0996  -0.0734  -0.0495  -0.0400   0.0445   0.0730   0.1318
     0.1602   0.2219   0.3327   0.3560   0.4604   0.5167   0.5941   0.6003
     0.6417   0.6563   0.6749   0.7207   0.8580   0.8816   1.0401   1.0554
     1.1825   1.2397   1.7553   1.8934   1.8939   1.9979   1.9988   3.8929
     3.9065   3.9872   4.0088   4.0544   4.0630   4.2049   4.2362   4.2622
     4.2665

          k = 0.0380-0.0419 0.0000 ( 17876 PWs)   bands (ev):

   -55.4978 -55.4896 -55.4737 -55.4642 -55.4113 -55.3468 -55.3368 -55.3122
   -55.3023 -55.2784 -55.2608 -55.2370 -55.0789 -54.7966 -54.4696 -54.4456
   -31.9961 -31.9310 -31.8107 -31.8060 -31.7968 -31.7913 -31.7825 -31.7510
   -31.7291 -31.7210 -31.7092 -31.6932 -31.6827 -31.6792 -31.6628 -31.6461
   -31.6388 -31.6286 -31.5736 -31.5627 -31.5545 -31.5447 -31.5385 -31.5230
   -31.5131 -31.5118 -31.4971 -31.4960 -31.4923 -31.4837 -31.4725 -31.4666
   -31.4609 -31.4516 -31.4391 -31.4303 -31.4268 -31.3451 -31.2446 -31.0952
   -31.0653 -31.0083 -30.8271 -30.7931 -30.7735 -30.6856 -30.6245 -30.5578
   -18.5662 -16.0642 -15.7801 -15.6148 -15.5313 -15.5014 -15.4516 -15.3877
   -15.3188 -15.2550 -15.1551 -15.1526 -15.1184 -15.1096 -15.0793 -14.9923
   -14.9805 -14.9539 -14.9133 -14.8800 -14.8247 -14.8129 -14.7818 -14.7466
   -14.7419 -14.7255 -14.6973 -14.6606 -14.5490 -14.1698 -13.6786 -12.9791
   -12.9007  -8.4649  -6.3702  -3.9553  -3.3888  -3.0755  -3.0333  -2.9856
    -2.9525  -2.8796  -2.8740  -2.8209  -2.7908  -2.6903  -2.6300  -2.5917
    -2.5390  -2.5128  -2.4794  -2.3995  -2.3917  -2.3814  -2.3479  -2.3173
    -2.2880  -2.2477  -2.2247  -2.2088  -2.2018  -2.1526  -2.1352  -2.1039
    -2.0476  -1.9849  -1.9597  -1.8721  -1.8179  -1.7650  -1.6999  -1.6389
    -1.5592  -1.5020  -1.4896  -1.4514  -1.2999  -1.2479  -1.2030  -1.1238
    -1.0548  -0.9597  -0.9368  -0.9169  -0.8315  -0.8156  -0.7835  -0.7340
    -0.6635  -0.6336  -0.6210  -0.5677  -0.5079  -0.4633  -0.4287  -0.3980
    -0.3945  -0.3405  -0.3058  -0.2816  -0.2249  -0.2023  -0.1767  -0.1487
    -0.1259  -0.0962  -0.0309   0.0066   0.0529   0.0891   0.1701   0.1945
     0.2063   0.2607   0.3033   0.4304   0.4423   0.4700   0.6037   0.6329
     0.6852   0.7400   0.8191   0.8515   0.8974   0.9221   0.9541   1.0924
     1.1557   1.4512   1.7475   1.7626   1.8258   1.9942   2.0567   3.8196
     3.8867   3.9151   4.0143   4.0404   4.0645   4.1326   4.1809   4.1946
     4.2383

          k =-0.0760-0.0000 0.0000 ( 17886 PWs)   bands (ev):

   -55.5028 -55.4948 -55.4688 -55.4589 -55.4135 -55.3446 -55.3419 -55.3073
   -55.3070 -55.2735 -55.2659 -55.2320 -55.0794 -54.7961 -54.4746 -54.4406
   -32.0537 -31.9859 -31.8613 -31.8558 -31.8224 -31.8072 -31.7959 -31.7662
   -31.7445 -31.7442 -31.7124 -31.6785 -31.6772 -31.6493 -31.6368 -31.6343
   -31.6338 -31.6057 -31.5914 -31.5603 -31.5482 -31.5385 -31.5207 -31.5093
   -31.5049 -31.5016 -31.4960 -31.4859 -31.4806 -31.4686 -31.4658 -31.4604
   -31.4571 -31.4375 -31.4202 -31.4129 -31.3793 -31.3491 -31.2474 -31.0702
   -31.0650 -30.9941 -30.8808 -30.8005 -30.7682 -30.6981 -30.6117 -30.5007
   -18.5662 -16.1074 -15.7967 -15.6390 -15.5886 -15.5382 -15.4911 -15.3523
   -15.2846 -15.2746 -15.2158 -15.2075 -15.1942 -15.1938 -15.1790 -15.1543
   -15.0643 -14.8596 -14.8426 -14.8285 -14.8177 -14.7728 -14.7455 -14.6966
   -14.6747 -14.6554 -14.6529 -14.5834 -14.5288 -14.0958 -13.6596 -12.9709
   -12.8603  -8.4685  -6.3715  -4.0073  -3.5455  -3.1714  -3.1039  -3.0576
    -2.8952  -2.8924  -2.8447  -2.8305  -2.7798  -2.7600  -2.7457  -2.7153
    -2.7076  -2.5323  -2.5081  -2.3998  -2.3818  -2.3003  -2.2649  -2.2488
    -2.1579  -2.1408  -2.0661  -2.0632  -2.0020  -1.9975  -1.9304  -1.8822
    -1.8312  -1.8073  -1.7950  -1.7606  -1.7299  -1.7274  -1.6741  -1.6549
    -1.6323  -1.5907  -1.5148  -1.3180  -1.3080  -1.2989  -1.1543  -1.1408
    -1.1134  -1.0928  -1.0828  -1.0695  -0.9849  -0.9642  -0.8795  -0.8590
    -0.8291  -0.7773  -0.7301  -0.7049  -0.6572  -0.6539  -0.5803  -0.3846
    -0.3773  -0.3406  -0.3324  -0.2481  -0.1797  -0.1563  -0.1505  -0.1071
    -0.0451  -0.0161   0.0093   0.0679   0.0971   0.1799   0.2220   0.2409
     0.2702   0.3061   0.3169   0.3522   0.4049   0.4831   0.5159   0.5575
     0.6142   0.7542   0.7625   0.8086   0.9859   0.9994   1.1202   1.1949
     1.2432   1.4895   1.5802   1.6856   1.8199   1.8773   2.0248   3.6778
     3.6847   3.8008   3.9213   3.9688   4.0482   4.0891   4.1411   4.1618
     4.1707

          k =-0.0760 0.0419 0.0000 ( 17914 PWs)   bands (ev):

   -55.4978 -55.4896 -55.4738 -55.4642 -55.4113 -55.3468 -55.3369 -55.3123
   -55.3022 -55.2784 -55.2609 -55.2370 -55.0789 -54.7966 -54.4697 -54.4456
   -31.9964 -31.9320 -31.8109 -31.8075 -31.8039 -31.7913 -31.7827 -31.7510
   -31.7291 -31.7212 -31.7142 -31.6838 -31.6797 -31.6765 -31.6631 -31.6367
   -31.6361 -31.6250 -31.5799 -31.5736 -31.5443 -31.5385 -31.5240 -31.5221
   -31.5146 -31.5122 -31.4994 -31.4962 -31.4916 -31.4839 -31.4822 -31.4724
   -31.4642 -31.4511 -31.4389 -31.4332 -31.4301 -31.3477 -31.2447 -31.0953
   -31.0662 -31.0084 -30.8269 -30.7959 -30.7728 -30.6857 -30.6246 -30.5579
   -18.5662 -15.9881 -15.6836 -15.5507 -15.4999 -15.4819 -15.4016 -15.3881
   -15.2555 -15.2477 -15.2362 -15.1849 -15.1634 -15.1544 -15.1272 -15.1091
   -15.0590 -14.9313 -14.9127 -14.8958 -14.8789 -14.8257 -14.7824 -14.7652
   -14.7532 -14.7010 -14.6746 -14.6569 -14.5456 -14.1682 -13.6755 -12.9770
   -12.9010  -8.4674  -6.3713  -3.9720  -3.3753  -3.0086  -2.8830  -2.8323
    -2.8013  -2.7534  -2.6936  -2.6510  -2.6148  -2.5924  -2.5735  -2.5455
    -2.5040  -2.4883  -2.4608  -2.4439  -2.3982  -2.3674  -2.3121  -2.2766
    -2.2602  -2.2208  -2.2037  -2.1885  -2.1638  -2.1052  -2.0822  -1.9905
    -1.9770  -1.9748  -1.9566  -1.8622  -1.7490  -1.7167  -1.6306  -1.6232
    -1.5870  -1.5396  -1.4720  -1.4517  -1.2865  -1.2575  -1.1501  -1.1080
    -1.0611  -1.0532  -0.9879  -0.9761  -0.9339  -0.9070  -0.8278  -0.8114
    -0.7825  -0.7367  -0.7248  -0.7130  -0.6635  -0.6389  -0.6013  -0.5459
    -0.5190  -0.4932  -0.4364  -0.3937  -0.3355  -0.3062  -0.2675  -0.2340
    -0.2163  -0.1828  -0.1283  -0.0931  -0.0441  -0.0098   0.0881   0.1613
     0.1980   0.2142   0.3342   0.4076   0.4999   0.5360   0.5873   0.6954
     0.7354   0.8073   0.8487   0.8890   0.9511   0.9614   1.0241   1.0740
     1.1000   1.2972   1.7623   1.7691   1.8292   1.9179   2.0454   3.8057
     3.8629   3.8853   3.9525   3.9675   3.9978   4.1225   4.1560   4.2078
     4.2646

          k =-0.0760-0.0839 0.0000 ( 17948 PWs)   bands (ev):

   -55.4863 -55.4853 -55.4771 -55.4767 -55.4090 -55.3492 -55.3266 -55.3226
   -55.2912 -55.2894 -55.2493 -55.2487 -55.0785 -54.7971 -54.4578 -54.4576
   -31.8576 -31.8559 -31.7998 -31.7990 -31.7903 -31.7821 -31.7810 -31.7660
   -31.7068 -31.7047 -31.6982 -31.6946 -31.6730 -31.6403 -31.6240 -31.6207
   -31.6120 -31.6080 -31.6057 -31.6049 -31.6024 -31.5897 -31.5874 -31.5549
   -31.5451 -31.5440 -31.5189 -31.5048 -31.4876 -31.4872 -31.4819 -31.4815
   -31.4647 -31.4644 -31.4640 -31.4604 -31.4114 -31.3464 -31.2428 -31.1328
   -31.0665 -31.0189 -30.7843 -30.7841 -30.6945 -30.6943 -30.6552 -30.6552
   -18.5661 -15.7129 -15.6806 -15.4422 -15.4361 -15.4263 -15.4115 -15.2703
   -15.2154 -15.2065 -15.1995 -15.1737 -15.1520 -15.0999 -15.0728 -15.0357
   -15.0297 -15.0242 -15.0217 -14.9594 -14.9535 -14.9322 -14.9249 -14.8109
   -14.8089 -14.8069 -14.7362 -14.6664 -14.5313 -14.2681 -13.6899 -12.9629
   -12.9626  -8.4663  -6.3710  -3.9381  -3.0064  -2.9689  -2.8172  -2.7331
    -2.6832  -2.6692  -2.6521  -2.5745  -2.4139  -2.3979  -2.3966  -2.3802
    -2.3660  -2.3286  -2.3221  -2.3092  -2.2972  -2.2895  -2.2711  -2.2353
    -2.1961  -2.1691  -2.1612  -2.1516  -2.1269  -2.1146  -2.0894  -2.0836
    -2.0492  -2.0412  -2.0254  -2.0011  -1.7489  -1.7219  -1.7027  -1.6318
    -1.6246  -1.5922  -1.5837  -1.5639  -1.5507  -1.4981  -1.3986  -1.2327
    -1.1998  -1.1852  -1.1684  -1.1051  -1.0850  -0.9368  -0.9099  -0.8905
    -0.8522  -0.8023  -0.7724  -0.7330  -0.6950  -0.6615  -0.5978  -0.5890
    -0.5108  -0.4617  -0.4611  -0.4342  -0.4038  -0.3644  -0.2867  -0.2674
    -0.2571  -0.2143  -0.2001  -0.1203  -0.0975  -0.0001   0.0145   0.0883
     0.1191   0.1862   0.3881   0.4824   0.5418   0.5668   0.6201   0.7155
     0.7707   0.7848   0.8177   0.8229   0.8834   0.9260   1.0394   1.0463
     1.1137   1.2158   1.7732   1.9116   1.9124   1.9830   1.9832   3.9010
     3.9077   3.9583   3.9870   4.1399   4.1446   4.1673   4.1683   4.2877
     4.3065

     the Fermi energy is     3.6330 ev

!    total energy              =   -2955.21554369 Ry
     estimated scf accuracy    <       0.00000005 Ry
     smearing contrib. (-TS)   =      -0.02204233 Ry
     internal energy E=F+TS    =   -2955.19350136 Ry

     The total energy is F=E-TS. E is the sum of the following terms:
     one-electron contribution =  -23377.31626140 Ry
     hartree contribution      =   11780.49908568 Ry
     xc contribution           =    -489.68349766 Ry
     ewald contribution        =    9131.30389501 Ry
     electric field correction =       0.00327702 Ry

     convergence has been achieved in  68 iterations

     Forces acting on atoms (cartesian axes, Ry/au):

     atom    1 type  1   force =     0.00012566   -0.00019044    0.09688855
     atom    2 type  1   force =     0.00004449   -0.00046172   -0.17496525
     atom    3 type  2   force =     0.00012931    0.00001697   -0.02538696
     atom    4 type  2   force =    -0.00003089   -0.00126782    0.05226376
     atom    5 type  2   force =    -0.01218463    0.00000667    0.00288088
     atom    6 type  2   force =     0.01362974    0.00054759    0.00225534
     atom    7 type  1   force =     0.00060091    0.00030646   -0.01254613
     atom    8 type  1   force =     0.00045049    0.00707107    0.03083344
     atom    9 type  2   force =     0.00032467    0.00016607    0.00044683
     atom   10 type  2   force =    -0.00271791    0.00207518   -0.01686338
     atom   11 type  2   force =     0.00016810   -0.00035587    0.00013933
     atom   12 type  2   force =     0.00007709   -0.00035070    0.00024057
     atom   13 type  1   force =    -0.00018961    0.00035668   -0.00011248
     atom   14 type  1   force =    -0.00011622    0.00033596   -0.00034482
     atom   15 type  2   force =     0.00001495   -0.00009851    0.00023820
     atom   16 type  2   force =     0.00014946    0.00038323    0.00125598
     atom   17 type  2   force =    -0.00010318   -0.00022923    0.00031853
     atom   18 type  2   force =     0.00027160   -0.00031212    0.00000158
     atom   19 type  1   force =     0.00016892   -0.00036585    0.00058034
     atom   20 type  1   force =    -0.00055515    0.00094541    0.00187478
     atom   21 type  2   force =     0.00005983   -0.00001911    0.10305381
     atom   22 type  2   force =     0.00022058   -0.00096320   -0.00000204
     atom   23 type  2   force =    -0.07166001   -0.00016100   -0.02783883
     atom   24 type  2   force =     0.07155720    0.00034132   -0.02789476
     atom   25 type  1   force =     0.00008034   -0.00017106    0.09667314
     atom   26 type  1   force =     0.00009995   -0.00025070   -0.17509173
     atom   27 type  2   force =     0.00011760   -0.00010840   -0.02444571
     atom   28 type  2   force =     0.00004045   -0.00101632    0.05209509
     atom   29 type  2   force =    -0.01237722    0.00067293    0.00264741
     atom   30 type  2   force =     0.01369498    0.00106148    0.00202718
     atom   31 type  1   force =     0.00049602    0.00307153   -0.01336626
     atom   32 type  1   force =     0.00030581   -0.00926479    0.03125894
     atom   33 type  2   force =    -0.00012565    0.00015996    0.00078265
     atom   34 type  2   force =    -0.00203089    0.00179757   -0.02548126
     atom   35 type  2   force =     0.00025410    0.00019275    0.00036643
     atom   36 type  2   force =     0.00023461    0.00010429    0.00036092
     atom   37 type  1   force =    -0.00025794   -0.00063812    0.00003172
     atom   38 type  1   force =    -0.00007682    0.00002256   -0.00020851
     atom   39 type  2   force =     0.00004321   -0.00075910    0.00084171
     atom   40 type  2   force =     0.00024741    0.00003328   -0.00013465
     atom   41 type  2   force =    -0.00026131   -0.00002447   -0.00003470
     atom   42 type  2   force =     0.00033853   -0.00013883   -0.00036948
     atom   43 type  1   force =    -0.00038420    0.00047987   -0.00054309
     atom   44 type  1   force =    -0.00045407   -0.00136587    0.00242760
     atom   45 type  2   force =     0.00004042   -0.00004786    0.10310247
     atom   46 type  2   force =    -0.07165238   -0.00005698   -0.02784058
     atom   47 type  2   force =     0.07157153    0.00036190   -0.02790610
     atom   48 type  3   force =    -0.00394449   -0.00058443    0.00353659
     atom   49 type  4   force =     0.00116803   -0.00032931   -0.01420686
     atom   50 type  5   force =     0.00095725   -0.00019299    0.00634701
     atom   51 type  3   force =    -0.00004419   -0.00021952    0.00087323
     atom   52 type  3   force =     0.00144107   -0.00067132    0.00039381
     atom   53 type  3   force =     0.00054762    0.00016962    0.00004380
     atom   54 type  2   force =    -0.00066359   -0.00006806   -0.00031475
     atom   55 type  3   force =    -0.00057588   -0.00001828   -0.00043358
     atom   56 type  3   force =     0.00073428    0.00002166   -0.00074968

     Total force =     0.368684     Total SCF correction =     0.000618
  @ DRIVER MODE: Message from server: STATUS
  @ DRIVER MODE: Message from server: GETFORCE
  @ DRIVER MODE: Returning v,forces,stress,ensemble 

     Writing output data file ./calc.save/
  @ DRIVER MODE: Message from server: EXIT
  @ DRIVE MODE: Exiting  
 
     init_run     :     10.71s CPU     10.92s WALL (       1 calls)
     electrons    :   1061.47s CPU   1076.87s WALL (       1 calls)
     forces       :      2.32s CPU      2.41s WALL (       1 calls)

     Called by init_run:
     wfcinit      :      4.75s CPU      4.81s WALL (       1 calls)
     potinit      :      5.30s CPU      5.37s WALL (       1 calls)
     hinit0       :      0.30s CPU      0.31s WALL (       1 calls)

     Called by electrons:
     c_bands      :    903.35s CPU    909.81s WALL (      68 calls)
     sum_band     :    107.47s CPU    111.03s WALL (      68 calls)
     v_of_rho     :     38.25s CPU     40.17s WALL (      69 calls)
     newd         :     15.59s CPU     19.00s WALL (      69 calls)
     mix_rho      :      1.40s CPU      1.45s WALL (      68 calls)
     vdW_kernel   :      4.54s CPU      4.55s WALL (       1 calls)

     Called by c_bands:
     init_us_2    :      6.31s CPU      6.34s WALL (    1380 calls)
     cegterg      :    885.19s CPU    891.36s WALL (     692 calls)

     Called by *egterg:
     cdiaghg      :    141.13s CPU    141.78s WALL (    6634 calls)
     h_psi        :    476.44s CPU    480.73s WALL (    6645 calls)
     s_psi        :     62.46s CPU     62.66s WALL (    6645 calls)
     g_psi        :      1.74s CPU      1.76s WALL (    5943 calls)

     Called by h_psi:
     h_psi:calbec :     59.17s CPU     59.47s WALL (    6645 calls)
     vloc_psi     :    351.48s CPU    354.89s WALL (    6645 calls)
     add_vuspsi   :     62.63s CPU     62.98s WALL (    6645 calls)

     General routines
     calbec       :     78.26s CPU     78.63s WALL (    7365 calls)
     fft          :     19.13s CPU     19.26s WALL (    4347 calls)
     ffts         :      0.12s CPU      0.13s WALL (     137 calls)
     fftw         :    393.43s CPU    397.26s WALL (  940786 calls)
     interpolate  :      0.39s CPU      0.40s WALL (      69 calls)
     davcio       :      0.00s CPU      0.25s WALL (      10 calls)
 
     Parallel routines
 
     PWSCF        :  17m54.86s CPU  18m11.16s WALL

 
   This run was terminated on:  19:44: 3  15Sep2021            

=------------------------------------------------------------------------------=
   JOB DONE.
=------------------------------------------------------------------------------=
