
     Program PWSCF v.6.7GPU starts on 25Aug2021 at 15:44:35 

     This program is part of the open-source Quantum ESPRESSO suite
     for quantum simulation of materials; please cite
         "P. Giannozzi et al., J. Phys.:Condens. Matter 21 395502 (2009);
         "P. Giannozzi et al., J. Phys.:Condens. Matter 29 465901 (2017);
         "P. Giannozzi et al., J. Chem. Phys. 152 154105 (2020);
          URL http://www.quantum-espresso.org", 
     in publications or presentations arising from this work. More details at
     http://www.quantum-espresso.org/quote

     Parallel version (MPI), running on     6 processors

     MPI processes distributed on     1 nodes
     R & G space division:  proc/nbgrp/npool/nimage =       6
     Reading input from /storage/home/hcoda1/3/ntian30/research/carbon/CH3_vib_end_on/ads_slab/CH3N2H2_f/out_0044/pw.inp
Warning: card &CELL ignored
Warning: card   CELL_DYNAMICS='IPI', ignored
Warning: card / ignored

     Current dimensions of program PWSCF are:
     Max number of different atomic species (ntypx) = 10
     Max number of k-points (npk) =  40000
     Max angular momentum in pseudopotentials (lmaxx) =  3
     Presently no symmetry can be used with electric field

     Message from routine cell_base_init:
     DEPRECATED: use true lattice parameter, not A to a.u. conversion factor

     **************************************************************************
     Initializing libbeef V0.1.2 with the BEEF-vdW functional.
     Citation: Wellendorff et al., PRB 85, 235149 (2012).
     **************************************************************************


     IMPORTANT: XC functional enforced from input :
     Exchange-correlation= BEEF-VDW
                           (   1   4  43  14   2   0   0)
     Any further DFT definition will be discarded
     Please, verify this is what you really want


     Subspace diagonalization in iterative solution of the eigenvalue problem:
     one sub-group per band group will be used
     scalapack distributed-memory algorithm (size of sub-group:  2*  2 procs)

  @ DRIVER MODE: Connecting to 
 qe_1139763_2643870.sched-torque.pace.gatech.edu26vkk_3m_scratch
  using UNIX socket
  @ DRIVER MODE: Message from server: STATUS
  @ DRIVER MODE: Message from server: INIT
  @ DRIVER MODE: Receiving replica           0          -1
  @ DRIVER MODE: Receiving encoded integer          25
  @ DRIVER MODE:  SCF:  T  FORCE:  T  STRESS:  F  VC:  F  ENSEMBLE:  F
  @ DRIVER MODE:  SCF:  T  FORCE:  T  STRESS:  F  VC:  F  ENSEMBLE:  F
 
     Parallelization info
     --------------------
     sticks:   dense  smooth     PW     G-vecs:    dense   smooth      PW
     Min         545     219     63                94473    23902    3663
     Max         546     222     64                94484    23905    3665
     Sum        3275    1317    379               566857   143421   21985
 
     Using Slab Decomposition
 


     bravais-lattice index     =            0
     lattice parameter (alat)  =       1.8897  a.u.
     unit-cell volume          =    6658.9804 (a.u.)^3
     number of atoms/cell      =           55
     number of atomic types    =            5
     number of electrons       =       397.00
     number of Kohn-Sham states=          208
     kinetic-energy cutoff     =      29.3995  Ry
     charge density cutoff     =     293.9946  Ry
     scf convergence threshold =      7.3E-08
     mixing beta               =       0.0500
     number of iterations used =            8  plain     mixing
     Exchange-correlation= BEEF-VDW
                           (   1   4  43  14   2   0   0)

     celldm(1)=   1.889726  celldm(2)=   0.000000  celldm(3)=   0.000000
     celldm(4)=   0.000000  celldm(5)=   0.000000  celldm(6)=   0.000000

     crystal axes: (cart. coord. in units of alat)
               a(1) = (   6.579727   0.000000   0.000000 )  
               a(2) = (  -0.000775   5.961596   0.000000 )  
               a(3) = (   0.000000   0.000000  25.155947 )  

     reciprocal axes: (cart. coord. in units 2 pi/alat)
               b(1) = (  0.151982  0.000020  0.000000 )  
               b(2) = (  0.000000  0.167740  0.000000 )  
               b(3) = (  0.000000  0.000000  0.039752 )  


     PseudoPot. # 1 for Ti read from file:
     /storage/coda1/p-amedford6/0/shared/rich_project_chbe-medford/medford-share/data/pseudos_module/espresso/nninc/pbe/van/Ti.UPF
     MD5 check sum: 8e4df49b7f0d34bbd5052bf3f5ea0213
     Pseudo is Ultrasoft, Zval = 12.0
     Generated by new atomic code, or converted to UPF format
     Using radial grid of  851 points,  6 beta functions with: 
                l(1) =   0
                l(2) =   0
                l(3) =   1
                l(4) =   1
                l(5) =   2
                l(6) =   2
     Q(r) pseudized with  8 coefficients,  rinner =    1.000   1.000   1.000
                                                       1.000   1.000

     PseudoPot. # 2 for O  read from file:
     /storage/coda1/p-amedford6/0/shared/rich_project_chbe-medford/medford-share/data/pseudos_module/espresso/nninc/pbe/van/O.UPF
     MD5 check sum: 78c19812648e8988a0fe644b0f25305e
     Pseudo is Ultrasoft, Zval =  6.0
     Generated by new atomic code, or converted to UPF format
     Using radial grid of  737 points,  4 beta functions with: 
                l(1) =   0
                l(2) =   0
                l(3) =   1
                l(4) =   1
     Q(r) pseudized with  8 coefficients,  rinner =    0.800   0.800   0.800


     PseudoPot. # 3 for N  read from file:
     /storage/coda1/p-amedford6/0/shared/rich_project_chbe-medford/medford-share/data/pseudos_module/espresso/nninc/pbe/van/N.UPF
     MD5 check sum: 90d10febe142ad51ac9d5be1deb811c4
     Pseudo is Ultrasoft, Zval =  5.0
     Generated by new atomic code, or converted to UPF format
     Using radial grid of  729 points,  4 beta functions with: 
                l(1) =   0
                l(2) =   0
                l(3) =   1
                l(4) =   1
     Q(r) pseudized with  8 coefficients,  rinner =    0.800   0.800   0.800


     PseudoPot. # 4 for C  read from file:
     /storage/coda1/p-amedford6/0/shared/rich_project_chbe-medford/medford-share/data/pseudos_module/espresso/nninc/pbe/van/C.UPF
     MD5 check sum: 1a69bf6b8db32088f5b2163dbdb77a27
     Pseudo is Ultrasoft, Zval =  4.0
     Generated by new atomic code, or converted to UPF format
     Using radial grid of  721 points,  4 beta functions with: 
                l(1) =   0
                l(2) =   0
                l(3) =   1
                l(4) =   1
     Q(r) pseudized with  8 coefficients,  rinner =    0.800   0.800   0.800


     PseudoPot. # 5 for H  read from file:
     /storage/coda1/p-amedford6/0/shared/rich_project_chbe-medford/medford-share/data/pseudos_module/espresso/nninc/pbe/van/H.UPF
     MD5 check sum: b5ee9d7bfd3a09ee7748110bda690ff7
     Pseudo is Ultrasoft, Zval =  1.0
     Generated by new atomic code, or converted to UPF format
     Using radial grid of  615 points,  1 beta functions with: 
                l(1) =   0
     Q(r) pseudized with  8 coefficients,  rinner =    0.800

     atomic species   valence    mass     pseudopotential
        Ti1           12.00    47.86700     Ti( 1.00)
        O1             6.00    15.99900     O ( 1.00)
        N1             5.00    14.00700     N ( 1.00)
        C1             4.00    12.01100     C ( 1.00)
        H1             1.00     1.00800     H ( 1.00)

     No symmetry found



   Cartesian axes

     site n.     atom                  positions (alat units)
         1           Ti1 tau(   1) = (   0.0004258   2.9801865   6.0000000  )
         2           Ti1 tau(   2) = (   3.2906075   1.4906267   6.0002472  )
         3           O1  tau(   3) = (   0.0006271   0.0005054   7.9858123  )
         4           O1  tau(   4) = (   3.2906025   0.0005020   7.3038282  )
         5           O1  tau(   5) = (   4.5942328   1.4918067   9.2879030  )
         6           O1  tau(   6) = (   1.9868534   1.4903216   9.2879459  )
         7           Ti1 tau(   7) = (   3.2907910   2.8959150   9.1758416  )
         8           Ti1 tau(   8) = (   0.0015273   1.4827037   9.2680791  )
         9           O1  tau(   9) = (   3.2830128   5.9597860  11.3344455  )
        10           O1  tau(  10) = (   0.0116148   5.9584955  10.6183126  )
        11           O1  tau(  11) = (   1.2885291   1.4855062  12.6376555  )
        12           O1  tau(  12) = (   5.2724004   1.4911608  12.5936499  )
        13           Ti1 tau(  13) = (   0.0410009   3.0319447  12.6084003  )
        14           Ti1 tau(  14) = (   3.3739341   1.4916561  12.4823474  )
        15           O1  tau(  15) = (   6.4862162   0.0153916  14.6455093  )
        16           O1  tau(  16) = (   3.3439542   5.9611638  13.9051029  )
        17           O1  tau(  17) = (   4.4933269   1.5483200  16.1231154  )
        18           O1  tau(  18) = (   1.9964937   1.4536654  15.9127221  )
        19           Ti1 tau(  19) = (   3.1412959   3.0017366  15.7441667  )
        20           Ti1 tau(  20) = (   6.4823597   1.5369342  15.8006069  )
        21           O1  tau(  21) = (   3.2904802   0.0005063   4.7018136  )
        22           O1  tau(  22) = (   6.5709111   0.0522475  17.2082838  )
        23           O1  tau(  23) = (   1.3043587   1.4918075   6.0039043  )
        24           O1  tau(  24) = (   5.2767064   1.4903225   6.0039473  )
        25           Ti1 tau(  25) = (   0.0000382   5.9609847   6.0000000  )
        26           Ti1 tau(  26) = (   3.2902200   4.4714249   6.0002472  )
        27           O1  tau(  27) = (   0.0002396   2.9813036   7.9858123  )
        28           O1  tau(  28) = (   3.2902150   2.9813002   7.3038282  )
        29           O1  tau(  29) = (   4.5938453   4.4726049   9.2879030  )
        30           O1  tau(  30) = (   1.9864658   4.4711199   9.2879459  )
        31           Ti1 tau(  31) = (   3.2891106   5.8743827   9.1763621  )
        32           Ti1 tau(  32) = (   0.0006254   4.4649316   9.2693709  )
        33           O1  tau(  33) = (   3.2833609   2.9822938  11.3349093  )
        34           O1  tau(  34) = (   0.0092240   2.9805883  10.6323155  )
        35           O1  tau(  35) = (   1.2838611   4.4860338  12.6468719  )
        36           O1  tau(  36) = (   5.2760156   4.4607002  12.6015494  )
        37           Ti1 tau(  37) = (   0.0673138   0.0440259  12.5461749  )
        38           Ti1 tau(  38) = (   3.3712377   4.4654930  12.4933830  )
        39           O1  tau(  39) = (   6.5217465   2.9589972  14.6412948  )
        40           O1  tau(  40) = (   3.2809526   2.9956502  13.9333893  )
        41           O1  tau(  41) = (   4.4911989   4.4583117  16.1637052  )
        42           O1  tau(  42) = (   1.9937212   4.5427850  15.9740970  )
        43           Ti1 tau(  43) = (   3.2955853   0.0167752  15.6963065  )
        44           Ti1 tau(  44) = (   6.5082246   4.6715011  16.1069148  )
        45           O1  tau(  45) = (   3.2900926   2.9813045   4.7018136  )
        46           O1  tau(  46) = (   1.3039711   4.4726057   6.0039043  )
        47           O1  tau(  47) = (   5.2763189   4.4711207   6.0039473  )
        48           N1  tau(  48) = (   1.3945086   2.8365607  18.1849301  )
        49           N1  tau(  49) = (   0.1777896   2.9650562  17.4211889  )
        50           C1  tau(  50) = (   1.4118813   3.7128676  19.3556819  )
        51           H1  tau(  51) = (   0.5171711   3.5996102  19.9880000  )
        52           H1  tau(  52) = (   2.2935099   3.4681107  19.9517681  )
        53           H1  tau(  53) = (   1.4703795   4.7520035  19.0319817  )
        54           H1  tau(  54) = (   1.4579882   1.8621926  18.4823179  )
        55           H1  tau(  55) = (   5.9658665   2.8747675  18.0551794  )

     number of k points=    10  Fermi-Dirac smearing, width (Ry)=  0.0073
                       cart. coord. in units 2pi/alat
        k(    1) = (   0.0000000   0.0000000   0.0000000), wk =   0.1250000
        k(    2) = (   0.0000000   0.0419351   0.0000000), wk =   0.2500000
        k(    3) = (   0.0000000  -0.0838702   0.0000000), wk =   0.1250000
        k(    4) = (   0.0379955   0.0000049   0.0000000), wk =   0.2500000
        k(    5) = (   0.0379955   0.0419400   0.0000000), wk =   0.2500000
        k(    6) = (   0.0379955  -0.0838652   0.0000000), wk =   0.2500000
        k(    7) = (   0.0379955  -0.0419301   0.0000000), wk =   0.2500000
        k(    8) = (  -0.0759910  -0.0000099   0.0000000), wk =   0.1250000
        k(    9) = (  -0.0759910   0.0419252   0.0000000), wk =   0.2500000
        k(   10) = (  -0.0759910  -0.0838800   0.0000000), wk =   0.1250000

     Dense  grid:   566857 G-vectors     FFT dimensions: (  72,  64, 270)

     Smooth grid:   143421 G-vectors     FFT dimensions: (  45,  40, 180)

     Estimated max dynamical RAM per process >     601.58 MB

     Estimated total dynamical RAM >       3.52 GB
     Cannot read rho : file not found

     Initial potential from superposition of free atoms

     starting charge  380.99914, renormalised to  397.00000

     negative rho (up, down):  1.540E-02 0.000E+00


     %%%%%%%%%%%%%%%%%%%%%%%%%%%%%%%%%%%%%%%%%%%%%%%%%%%%%%%%%%%%%%%%%%%%%%%%
     %                                                                      %
     % You are using vdW-DF, which was implemented by the Thonhauser group. %
     % Please cite the following two papers that made this development      %
     % possible and the two reviews that describe the various versions:     %
     %                                                                      %
     %   T. Thonhauser et al., PRL 115, 136402 (2015).                      %
     %   T. Thonhauser et al., PRB 76, 125112 (2007).                       %
     %   K. Berland et al., Rep. Prog. Phys. 78, 066501 (2015).             %
     %   D.C. Langreth et al., J. Phys.: Condens. Matter 21, 084203 (2009). %
     %                                                                      %
     %                                                                      %
     % If you are calculating the stress with vdW-DF, please also cite:     %
     %                                                                      %
     %   R. Sabatini et al., J. Phys.: Condens. Matter 24, 424209 (2012).   %
     %                                                                      %
     %%%%%%%%%%%%%%%%%%%%%%%%%%%%%%%%%%%%%%%%%%%%%%%%%%%%%%%%%%%%%%%%%%%%%%%%


 
     Adding external electric field

     Computed dipole along edir(3) : 
        Dipole               -9.6180 Ry au,        -24.4465 Debye
        Dipole field         -0.0182 Ry au, 
 
        Potential amp.        1.6825 Ry
        Total length         46.3494 bohr
 
     Starting wfcs are  301 atomic wfcs
  @ DRIVER MODE: Message from server: STATUS
  @ DRIVER MODE: Message from server: POSDATA
  @ DRIVER MODE: Reading and sharing cell 
  @ DRIVER MODE: Reading and sharing positions 
  @ DRIVER MODE: Received positions 

     total cpu time spent up to now is       21.7 secs

     Self-consistent Calculation

     iteration #  1     ecut=    29.40 Ry     beta= 0.05
     Davidson diagonalization with overlap
     c_bands:  1 eigenvalues not converged
     c_bands:  1 eigenvalues not converged
     c_bands:  1 eigenvalues not converged
     c_bands:  1 eigenvalues not converged
     c_bands:  1 eigenvalues not converged
     c_bands:  2 eigenvalues not converged
     ethr =  1.00E-05,  avg # of iterations = 18.8

     negative rho (up, down):  1.192E-02 0.000E+00
 
     Adding external electric field

     Computed dipole along edir(3) : 
        Dipole               42.9999 Ry au,        109.2948 Debye
        Dipole field          0.0811 Ry au, 
 
        Potential amp.       -7.5222 Ry
        Total length         46.3494 bohr
 

     total cpu time spent up to now is       88.1 secs

     total energy              =   -2533.82146844 Ry
     estimated scf accuracy    <    4536.72104499 Ry

     iteration #  2     ecut=    29.40 Ry     beta= 0.05
     Davidson diagonalization with overlap
     ethr =  1.00E-02,  avg # of iterations = 24.8

     negative rho (up, down):  3.082E-03 0.000E+00
 
     Adding external electric field

     Computed dipole along edir(3) : 
        Dipole               -2.4211 Ry au,         -6.1539 Debye
        Dipole field         -0.0046 Ry au, 
 
        Potential amp.        0.4235 Ry
        Total length         46.3494 bohr
 

     total cpu time spent up to now is      211.6 secs

     total energy              =   -2464.80578809 Ry
     estimated scf accuracy    <   66281.31018459 Ry

     iteration #  3     ecut=    29.40 Ry     beta= 0.05
     Davidson diagonalization with overlap
     ethr =  1.00E-02,  avg # of iterations = 14.6

     negative rho (up, down):  3.153E-03 0.000E+00
 
     Adding external electric field

     Computed dipole along edir(3) : 
        Dipole               -4.5288 Ry au,        -11.5110 Debye
        Dipole field         -0.0085 Ry au, 
 
        Potential amp.        0.7922 Ry
        Total length         46.3494 bohr
 

     total cpu time spent up to now is      290.3 secs

     total energy              =   -2924.16698915 Ry
     estimated scf accuracy    <    4326.26835290 Ry

     iteration #  4     ecut=    29.40 Ry     beta= 0.05
     Davidson diagonalization with overlap
     ethr =  1.00E-02,  avg # of iterations = 14.6

     negative rho (up, down):  3.202E-03 0.000E+00
 
     Adding external electric field

     Computed dipole along edir(3) : 
        Dipole               -6.0536 Ry au,        -15.3868 Debye
        Dipole field         -0.0114 Ry au, 
 
        Potential amp.        1.0590 Ry
        Total length         46.3494 bohr
 

     total cpu time spent up to now is      322.7 secs

     total energy              =   -2928.66045237 Ry
     estimated scf accuracy    <    1465.14544579 Ry

     iteration #  5     ecut=    29.40 Ry     beta= 0.05
     Davidson diagonalization with overlap
     ethr =  1.00E-02,  avg # of iterations = 14.6

     negative rho (up, down):  3.216E-03 0.000E+00
 
     Adding external electric field

     Computed dipole along edir(3) : 
        Dipole               -5.5436 Ry au,        -14.0904 Debye
        Dipole field         -0.0105 Ry au, 
 
        Potential amp.        0.9698 Ry
        Total length         46.3494 bohr
 

     total cpu time spent up to now is      352.6 secs

     total energy              =   -2943.97128895 Ry
     estimated scf accuracy    <      39.34394709 Ry

     iteration #  6     ecut=    29.40 Ry     beta= 0.05
     Davidson diagonalization with overlap
     ethr =  9.91E-03,  avg # of iterations =  1.4

     negative rho (up, down):  3.241E-03 0.000E+00
 
     Adding external electric field

     Computed dipole along edir(3) : 
        Dipole               -5.0544 Ry au,        -12.8469 Debye
        Dipole field         -0.0095 Ry au, 
 
        Potential amp.        0.8842 Ry
        Total length         46.3494 bohr
 

     total cpu time spent up to now is      369.9 secs

     total energy              =   -2943.65728629 Ry
     estimated scf accuracy    <      32.36182118 Ry

     iteration #  7     ecut=    29.40 Ry     beta= 0.05
     Davidson diagonalization with overlap
     ethr =  8.15E-03,  avg # of iterations =  1.0

     negative rho (up, down):  3.602E-03 0.000E+00
 
     Adding external electric field

     Computed dipole along edir(3) : 
        Dipole               -2.2836 Ry au,         -5.8044 Debye
        Dipole field         -0.0043 Ry au, 
 
        Potential amp.        0.3995 Ry
        Total length         46.3494 bohr
 

     total cpu time spent up to now is      387.0 secs

     total energy              =   -2941.34668962 Ry
     estimated scf accuracy    <      31.54041543 Ry

     iteration #  8     ecut=    29.40 Ry     beta= 0.05
     Davidson diagonalization with overlap
     ethr =  7.94E-03,  avg # of iterations =  2.0

     negative rho (up, down):  3.647E-03 0.000E+00
 
     Adding external electric field

     Computed dipole along edir(3) : 
        Dipole               -2.0813 Ry au,         -5.2900 Debye
        Dipole field         -0.0039 Ry au, 
 
        Potential amp.        0.3641 Ry
        Total length         46.3494 bohr
 

     total cpu time spent up to now is      405.5 secs

     total energy              =   -2944.01383211 Ry
     estimated scf accuracy    <     425.00373578 Ry

     iteration #  9     ecut=    29.40 Ry     beta= 0.05
     Davidson diagonalization with overlap
     ethr =  7.94E-03,  avg # of iterations =  1.0

     negative rho (up, down):  3.836E-03 0.000E+00
 
     Adding external electric field

     Computed dipole along edir(3) : 
        Dipole               -1.8235 Ry au,         -4.6348 Debye
        Dipole field         -0.0034 Ry au, 
 
        Potential amp.        0.3190 Ry
        Total length         46.3494 bohr
 

     total cpu time spent up to now is      422.6 secs

     total energy              =   -2943.14862232 Ry
     estimated scf accuracy    <     524.11596738 Ry

     iteration # 10     ecut=    29.40 Ry     beta= 0.05
     Davidson diagonalization with overlap
     ethr =  7.94E-03,  avg # of iterations =  1.0

     negative rho (up, down):  4.231E-03 0.000E+00
 
     Adding external electric field

     Computed dipole along edir(3) : 
        Dipole               -2.5935 Ry au,         -6.5920 Debye
        Dipole field         -0.0049 Ry au, 
 
        Potential amp.        0.4537 Ry
        Total length         46.3494 bohr
 

     total cpu time spent up to now is      439.7 secs

     total energy              =   -2937.17519621 Ry
     estimated scf accuracy    <     419.07664636 Ry

     iteration # 11     ecut=    29.40 Ry     beta= 0.05
     Davidson diagonalization with overlap
     ethr =  7.94E-03,  avg # of iterations =  2.5

     negative rho (up, down):  4.158E-03 0.000E+00
 
     Adding external electric field

     Computed dipole along edir(3) : 
        Dipole               -2.5713 Ry au,         -6.5356 Debye
        Dipole field         -0.0049 Ry au, 
 
        Potential amp.        0.4498 Ry
        Total length         46.3494 bohr
 

     total cpu time spent up to now is      458.1 secs

     total energy              =   -2941.61575665 Ry
     estimated scf accuracy    <       2.94176815 Ry

     iteration # 12     ecut=    29.40 Ry     beta= 0.05
     Davidson diagonalization with overlap
     c_bands:  1 eigenvalues not converged
     ethr =  7.41E-04,  avg # of iterations = 14.0

     negative rho (up, down):  4.203E-03 0.000E+00
 
     Adding external electric field

     Computed dipole along edir(3) : 
        Dipole               -2.3238 Ry au,         -5.9064 Debye
        Dipole field         -0.0044 Ry au, 
 
        Potential amp.        0.4065 Ry
        Total length         46.3494 bohr
 

     total cpu time spent up to now is      490.4 secs

     total energy              =   -2942.67138291 Ry
     estimated scf accuracy    <       5.79893592 Ry

     iteration # 13     ecut=    29.40 Ry     beta= 0.05
     Davidson diagonalization with overlap
     ethr =  7.41E-04,  avg # of iterations =  1.7

     negative rho (up, down):  4.096E-03 0.000E+00
 
     Adding external electric field

     Computed dipole along edir(3) : 
        Dipole               -2.9028 Ry au,         -7.3782 Debye
        Dipole field         -0.0055 Ry au, 
 
        Potential amp.        0.5078 Ry
        Total length         46.3494 bohr
 

     total cpu time spent up to now is      508.6 secs

     total energy              =   -2942.18243259 Ry
     estimated scf accuracy    <       7.44758189 Ry

     iteration # 14     ecut=    29.40 Ry     beta= 0.05
     Davidson diagonalization with overlap
     ethr =  7.41E-04,  avg # of iterations =  2.0

     negative rho (up, down):  3.956E-03 0.000E+00
 
     Adding external electric field

     Computed dipole along edir(3) : 
        Dipole               -2.4657 Ry au,         -6.2673 Debye
        Dipole field         -0.0047 Ry au, 
 
        Potential amp.        0.4313 Ry
        Total length         46.3494 bohr
 

     total cpu time spent up to now is      526.3 secs

     total energy              =   -2941.85830445 Ry
     estimated scf accuracy    <       8.85487545 Ry

     iteration # 15     ecut=    29.40 Ry     beta= 0.05
     Davidson diagonalization with overlap
     ethr =  7.41E-04,  avg # of iterations =  1.3

     negative rho (up, down):  3.851E-03 0.000E+00
 
     Adding external electric field

     Computed dipole along edir(3) : 
        Dipole               -2.5324 Ry au,         -6.4368 Debye
        Dipole field         -0.0048 Ry au, 
 
        Potential amp.        0.4430 Ry
        Total length         46.3494 bohr
 

     total cpu time spent up to now is      543.9 secs

     total energy              =   -2941.58220977 Ry
     estimated scf accuracy    <       3.24442112 Ry

     iteration # 16     ecut=    29.40 Ry     beta= 0.05
     Davidson diagonalization with overlap
     ethr =  7.41E-04,  avg # of iterations =  2.9

     negative rho (up, down):  4.002E-03 0.000E+00
 
     Adding external electric field

     Computed dipole along edir(3) : 
        Dipole               -1.7015 Ry au,         -4.3248 Debye
        Dipole field         -0.0032 Ry au, 
 
        Potential amp.        0.2977 Ry
        Total length         46.3494 bohr
 

     total cpu time spent up to now is      563.8 secs

     total energy              =   -2941.66808393 Ry
     estimated scf accuracy    <       1.66462300 Ry

     iteration # 17     ecut=    29.40 Ry     beta= 0.05
     Davidson diagonalization with overlap
     c_bands:  1 eigenvalues not converged
     c_bands:  3 eigenvalues not converged
     ethr =  4.19E-04,  avg # of iterations = 16.9

     negative rho (up, down):  4.451E-03 0.000E+00
 
     Adding external electric field

     Computed dipole along edir(3) : 
        Dipole               -0.9256 Ry au,         -2.3526 Debye
        Dipole field         -0.0017 Ry au, 
 
        Potential amp.        0.1619 Ry
        Total length         46.3494 bohr
 

     total cpu time spent up to now is      593.4 secs

     total energy              =   -2941.75589170 Ry
     estimated scf accuracy    <       1.68365415 Ry

     iteration # 18     ecut=    29.40 Ry     beta= 0.05
     Davidson diagonalization with overlap
     ethr =  4.19E-04,  avg # of iterations =  7.3

     negative rho (up, down):  4.536E-03 0.000E+00
 
     Adding external electric field

     Computed dipole along edir(3) : 
        Dipole               -1.1028 Ry au,         -2.8031 Debye
        Dipole field         -0.0021 Ry au, 
 
        Potential amp.        0.1929 Ry
        Total length         46.3494 bohr
 

     total cpu time spent up to now is      617.2 secs

     total energy              =   -2941.78734314 Ry
     estimated scf accuracy    <       2.79159524 Ry

     iteration # 19     ecut=    29.40 Ry     beta= 0.05
     Davidson diagonalization with overlap
     c_bands:  3 eigenvalues not converged
     c_bands:  3 eigenvalues not converged
     c_bands:  2 eigenvalues not converged
     ethr =  4.19E-04,  avg # of iterations = 13.7

     negative rho (up, down):  4.628E-03 0.000E+00
 
     Adding external electric field

     Computed dipole along edir(3) : 
        Dipole               -0.8560 Ry au,         -2.1756 Debye
        Dipole field         -0.0016 Ry au, 
 
        Potential amp.        0.1497 Ry
        Total length         46.3494 bohr
 

     total cpu time spent up to now is      641.2 secs

     total energy              =   -2941.47538719 Ry
     estimated scf accuracy    <       1.86060697 Ry

     iteration # 20     ecut=    29.40 Ry     beta= 0.05
     Davidson diagonalization with overlap
     ethr =  4.19E-04,  avg # of iterations =  5.7

     negative rho (up, down):  5.318E-03 0.000E+00
 
     Adding external electric field

     Computed dipole along edir(3) : 
        Dipole               -0.0177 Ry au,         -0.0449 Debye
        Dipole field         -0.0000 Ry au, 
 
        Potential amp.        0.0031 Ry
        Total length         46.3494 bohr
 

     total cpu time spent up to now is      662.2 secs

     total energy              =   -2941.56967510 Ry
     estimated scf accuracy    <       0.35273012 Ry

     iteration # 21     ecut=    29.40 Ry     beta= 0.05
     Davidson diagonalization with overlap
     c_bands:  2 eigenvalues not converged
     c_bands:  1 eigenvalues not converged
     c_bands:  1 eigenvalues not converged
     c_bands:  1 eigenvalues not converged
     c_bands:  1 eigenvalues not converged
     c_bands:  3 eigenvalues not converged
     c_bands:  1 eigenvalues not converged
     ethr =  8.88E-05,  avg # of iterations = 19.6

     negative rho (up, down):  5.648E-03 0.000E+00
 
     Adding external electric field

     Computed dipole along edir(3) : 
        Dipole                0.2671 Ry au,          0.6790 Debye
        Dipole field          0.0005 Ry au, 
 
        Potential amp.       -0.0467 Ry
        Total length         46.3494 bohr
 

     total cpu time spent up to now is      701.7 secs

     total energy              =   -2941.60190653 Ry
     estimated scf accuracy    <       0.42206092 Ry

     iteration # 22     ecut=    29.40 Ry     beta= 0.05
     Davidson diagonalization with overlap
     ethr =  8.88E-05,  avg # of iterations = 10.9

     negative rho (up, down):  5.855E-03 0.000E+00
 
     Adding external electric field

     Computed dipole along edir(3) : 
        Dipole                0.4316 Ry au,          1.0969 Debye
        Dipole field          0.0008 Ry au, 
 
        Potential amp.       -0.0755 Ry
        Total length         46.3494 bohr
 

     total cpu time spent up to now is      729.6 secs

     total energy              =   -2941.65300673 Ry
     estimated scf accuracy    <       0.17579056 Ry

     iteration # 23     ecut=    29.40 Ry     beta= 0.05
     Davidson diagonalization with overlap
     c_bands:  1 eigenvalues not converged
     c_bands:  2 eigenvalues not converged
     c_bands:  1 eigenvalues not converged
     c_bands:  1 eigenvalues not converged
     c_bands:  1 eigenvalues not converged
     c_bands:  3 eigenvalues not converged
     c_bands:  1 eigenvalues not converged
     ethr =  4.43E-05,  avg # of iterations = 17.6

     negative rho (up, down):  5.847E-03 0.000E+00
 
     Adding external electric field

     Computed dipole along edir(3) : 
        Dipole                0.4384 Ry au,          1.1142 Debye
        Dipole field          0.0008 Ry au, 
 
        Potential amp.       -0.0767 Ry
        Total length         46.3494 bohr
 

     total cpu time spent up to now is      762.9 secs

     total energy              =   -2941.66003820 Ry
     estimated scf accuracy    <       0.25910373 Ry

     iteration # 24     ecut=    29.40 Ry     beta= 0.05
     Davidson diagonalization with overlap
     ethr =  4.43E-05,  avg # of iterations =  1.8

     negative rho (up, down):  5.893E-03 0.000E+00
 
     Adding external electric field

     Computed dipole along edir(3) : 
        Dipole                0.3870 Ry au,          0.9836 Debye
        Dipole field          0.0007 Ry au, 
 
        Potential amp.       -0.0677 Ry
        Total length         46.3494 bohr
 

     total cpu time spent up to now is      781.2 secs

     total energy              =   -2941.62193263 Ry
     estimated scf accuracy    <       0.16320476 Ry

     iteration # 25     ecut=    29.40 Ry     beta= 0.05
     Davidson diagonalization with overlap
     ethr =  4.11E-05,  avg # of iterations = 11.5

     negative rho (up, down):  6.539E-03 0.000E+00
 
     Adding external electric field

     Computed dipole along edir(3) : 
        Dipole                0.6706 Ry au,          1.7045 Debye
        Dipole field          0.0013 Ry au, 
 
        Potential amp.       -0.1173 Ry
        Total length         46.3494 bohr
 

     total cpu time spent up to now is      811.8 secs

     total energy              =   -2941.64536198 Ry
     estimated scf accuracy    <       0.08041862 Ry

     iteration # 26     ecut=    29.40 Ry     beta= 0.05
     Davidson diagonalization with overlap
     c_bands:  2 eigenvalues not converged
     ethr =  2.03E-05,  avg # of iterations = 13.5

     negative rho (up, down):  7.056E-03 0.000E+00
 
     Adding external electric field

     Computed dipole along edir(3) : 
        Dipole                0.7472 Ry au,          1.8993 Debye
        Dipole field          0.0014 Ry au, 
 
        Potential amp.       -0.1307 Ry
        Total length         46.3494 bohr
 

     total cpu time spent up to now is      839.6 secs

     total energy              =   -2941.65649105 Ry
     estimated scf accuracy    <       0.02416124 Ry

     iteration # 27     ecut=    29.40 Ry     beta= 0.05
     Davidson diagonalization with overlap
     c_bands:  2 eigenvalues not converged
     c_bands:  1 eigenvalues not converged
     ethr =  6.09E-06,  avg # of iterations = 11.0

     negative rho (up, down):  9.567E-03 0.000E+00
 
     Adding external electric field

     Computed dipole along edir(3) : 
        Dipole                0.8892 Ry au,          2.2601 Debye
        Dipole field          0.0017 Ry au, 
 
        Potential amp.       -0.1555 Ry
        Total length         46.3494 bohr
 

     total cpu time spent up to now is      862.9 secs

     total energy              =   -2941.65775380 Ry
     estimated scf accuracy    <       0.01365164 Ry

     iteration # 28     ecut=    29.40 Ry     beta= 0.05
     Davidson diagonalization with overlap
     c_bands:  1 eigenvalues not converged
     c_bands:  2 eigenvalues not converged
     c_bands:  1 eigenvalues not converged
     ethr =  3.44E-06,  avg # of iterations = 15.5

     negative rho (up, down):  1.017E-02 0.000E+00
 
     Adding external electric field

     Computed dipole along edir(3) : 
        Dipole                0.9203 Ry au,          2.3392 Debye
        Dipole field          0.0017 Ry au, 
 
        Potential amp.       -0.1610 Ry
        Total length         46.3494 bohr
 

     total cpu time spent up to now is      894.1 secs

     total energy              =   -2941.66011634 Ry
     estimated scf accuracy    <       0.00602188 Ry

     iteration # 29     ecut=    29.40 Ry     beta= 0.05
     Davidson diagonalization with overlap
     c_bands:  4 eigenvalues not converged
     ethr =  1.52E-06,  avg # of iterations = 10.9

     negative rho (up, down):  1.145E-02 0.000E+00
 
     Adding external electric field

     Computed dipole along edir(3) : 
        Dipole                0.9301 Ry au,          2.3641 Debye
        Dipole field          0.0018 Ry au, 
 
        Potential amp.       -0.1627 Ry
        Total length         46.3494 bohr
 

     total cpu time spent up to now is      916.8 secs

     total energy              =   -2941.65939866 Ry
     estimated scf accuracy    <       0.00547002 Ry

     iteration # 30     ecut=    29.40 Ry     beta= 0.05
     Davidson diagonalization with overlap
     c_bands:  1 eigenvalues not converged
     c_bands:  2 eigenvalues not converged
     ethr =  1.38E-06,  avg # of iterations = 16.3

     negative rho (up, down):  1.247E-02 0.000E+00
 
     Adding external electric field

     Computed dipole along edir(3) : 
        Dipole                0.9244 Ry au,          2.3496 Debye
        Dipole field          0.0017 Ry au, 
 
        Potential amp.       -0.1617 Ry
        Total length         46.3494 bohr
 

     total cpu time spent up to now is      955.3 secs

     total energy              =   -2941.66327748 Ry
     estimated scf accuracy    <       0.01487056 Ry

     iteration # 31     ecut=    29.40 Ry     beta= 0.05
     Davidson diagonalization with overlap
     ethr =  1.38E-06,  avg # of iterations =  4.2

     negative rho (up, down):  1.422E-02 0.000E+00
 
     Adding external electric field

     Computed dipole along edir(3) : 
        Dipole                0.9146 Ry au,          2.3246 Debye
        Dipole field          0.0017 Ry au, 
 
        Potential amp.       -0.1600 Ry
        Total length         46.3494 bohr
 

     total cpu time spent up to now is      974.7 secs

     total energy              =   -2941.66004320 Ry
     estimated scf accuracy    <       0.01770061 Ry

     iteration # 32     ecut=    29.40 Ry     beta= 0.05
     Davidson diagonalization with overlap
     ethr =  1.38E-06,  avg # of iterations =  6.1

     negative rho (up, down):  1.396E-02 0.000E+00
 
     Adding external electric field

     Computed dipole along edir(3) : 
        Dipole                0.9039 Ry au,          2.2974 Debye
        Dipole field          0.0017 Ry au, 
 
        Potential amp.       -0.1581 Ry
        Total length         46.3494 bohr
 

     total cpu time spent up to now is      999.2 secs

     total energy              =   -2941.66028044 Ry
     estimated scf accuracy    <       0.00635643 Ry

     iteration # 33     ecut=    29.40 Ry     beta= 0.05
     Davidson diagonalization with overlap
     ethr =  1.38E-06,  avg # of iterations =  4.0

     negative rho (up, down):  1.395E-02 0.000E+00
 
     Adding external electric field

     Computed dipole along edir(3) : 
        Dipole                0.9046 Ry au,          2.2991 Debye
        Dipole field          0.0017 Ry au, 
 
        Potential amp.       -0.1582 Ry
        Total length         46.3494 bohr
 

     total cpu time spent up to now is     1018.5 secs

     total energy              =   -2941.66061641 Ry
     estimated scf accuracy    <       0.00279359 Ry

     iteration # 34     ecut=    29.40 Ry     beta= 0.05
     Davidson diagonalization with overlap
     ethr =  7.04E-07,  avg # of iterations =  3.7

     negative rho (up, down):  1.387E-02 0.000E+00
 
     Adding external electric field

     Computed dipole along edir(3) : 
        Dipole                0.9204 Ry au,          2.3394 Debye
        Dipole field          0.0017 Ry au, 
 
        Potential amp.       -0.1610 Ry
        Total length         46.3494 bohr
 

     total cpu time spent up to now is     1037.7 secs

     total energy              =   -2941.66049301 Ry
     estimated scf accuracy    <       0.00253901 Ry

     iteration # 35     ecut=    29.40 Ry     beta= 0.05
     Davidson diagonalization with overlap
     ethr =  6.40E-07,  avg # of iterations = 10.3

     negative rho (up, down):  1.403E-02 0.000E+00
 
     Adding external electric field

     Computed dipole along edir(3) : 
        Dipole                0.9312 Ry au,          2.3668 Debye
        Dipole field          0.0018 Ry au, 
 
        Potential amp.       -0.1629 Ry
        Total length         46.3494 bohr
 

     total cpu time spent up to now is     1061.8 secs

     total energy              =   -2941.66081680 Ry
     estimated scf accuracy    <       0.00085076 Ry

     iteration # 36     ecut=    29.40 Ry     beta= 0.05
     Davidson diagonalization with overlap
     ethr =  2.14E-07,  avg # of iterations = 11.9

     negative rho (up, down):  1.427E-02 0.000E+00
 
     Adding external electric field

     Computed dipole along edir(3) : 
        Dipole                0.9240 Ry au,          2.3486 Debye
        Dipole field          0.0017 Ry au, 
 
        Potential amp.       -0.1616 Ry
        Total length         46.3494 bohr
 

     total cpu time spent up to now is     1088.4 secs

     total energy              =   -2941.66095595 Ry
     estimated scf accuracy    <       0.00047199 Ry

     iteration # 37     ecut=    29.40 Ry     beta= 0.05
     Davidson diagonalization with overlap
     ethr =  1.19E-07,  avg # of iterations =  3.6

     negative rho (up, down):  1.496E-02 0.000E+00
 
     Adding external electric field

     Computed dipole along edir(3) : 
        Dipole                0.9222 Ry au,          2.3439 Debye
        Dipole field          0.0017 Ry au, 
 
        Potential amp.       -0.1613 Ry
        Total length         46.3494 bohr
 

     total cpu time spent up to now is     1107.9 secs

     total energy              =   -2941.66104391 Ry
     estimated scf accuracy    <       0.00031383 Ry

     iteration # 38     ecut=    29.40 Ry     beta= 0.05
     Davidson diagonalization with overlap
     ethr =  7.91E-08,  avg # of iterations = 12.8

     negative rho (up, down):  1.515E-02 0.000E+00
 
     Adding external electric field

     Computed dipole along edir(3) : 
        Dipole                0.9345 Ry au,          2.3752 Debye
        Dipole field          0.0018 Ry au, 
 
        Potential amp.       -0.1635 Ry
        Total length         46.3494 bohr
 

     total cpu time spent up to now is     1136.2 secs

     total energy              =   -2941.66109128 Ry
     estimated scf accuracy    <       0.00029742 Ry

     iteration # 39     ecut=    29.40 Ry     beta= 0.05
     Davidson diagonalization with overlap
     ethr =  7.49E-08,  avg # of iterations =  2.9

     negative rho (up, down):  1.534E-02 0.000E+00
 
     Adding external electric field

     Computed dipole along edir(3) : 
        Dipole                0.9399 Ry au,          2.3889 Debye
        Dipole field          0.0018 Ry au, 
 
        Potential amp.       -0.1644 Ry
        Total length         46.3494 bohr
 

     total cpu time spent up to now is     1155.1 secs

     total energy              =   -2941.66109833 Ry
     estimated scf accuracy    <       0.00016111 Ry

     iteration # 40     ecut=    29.40 Ry     beta= 0.05
     Davidson diagonalization with overlap
     ethr =  4.06E-08,  avg # of iterations = 13.3

     negative rho (up, down):  1.546E-02 0.000E+00
 
     Adding external electric field

     Computed dipole along edir(3) : 
        Dipole                0.9406 Ry au,          2.3908 Debye
        Dipole field          0.0018 Ry au, 
 
        Potential amp.       -0.1645 Ry
        Total length         46.3494 bohr
 

     total cpu time spent up to now is     1188.2 secs

     total energy              =   -2941.66117135 Ry
     estimated scf accuracy    <       0.00014704 Ry

     iteration # 41     ecut=    29.40 Ry     beta= 0.05
     Davidson diagonalization with overlap
     ethr =  3.70E-08,  avg # of iterations =  6.4

     negative rho (up, down):  1.567E-02 0.000E+00
 
     Adding external electric field

     Computed dipole along edir(3) : 
        Dipole                0.9452 Ry au,          2.4024 Debye
        Dipole field          0.0018 Ry au, 
 
        Potential amp.       -0.1653 Ry
        Total length         46.3494 bohr
 

     total cpu time spent up to now is     1208.5 secs

     total energy              =   -2941.66120142 Ry
     estimated scf accuracy    <       0.00005921 Ry

     iteration # 42     ecut=    29.40 Ry     beta= 0.05
     Davidson diagonalization with overlap
     ethr =  1.49E-08,  avg # of iterations = 11.7

     negative rho (up, down):  1.574E-02 0.000E+00
 
     Adding external electric field

     Computed dipole along edir(3) : 
        Dipole                0.9412 Ry au,          2.3923 Debye
        Dipole field          0.0018 Ry au, 
 
        Potential amp.       -0.1646 Ry
        Total length         46.3494 bohr
 

     total cpu time spent up to now is     1239.2 secs

     total energy              =   -2941.66123976 Ry
     estimated scf accuracy    <       0.00004163 Ry

     iteration # 43     ecut=    29.40 Ry     beta= 0.05
     Davidson diagonalization with overlap
     ethr =  1.05E-08,  avg # of iterations =  7.7

     negative rho (up, down):  1.585E-02 0.000E+00
 
     Adding external electric field

     Computed dipole along edir(3) : 
        Dipole                0.9388 Ry au,          2.3862 Debye
        Dipole field          0.0018 Ry au, 
 
        Potential amp.       -0.1642 Ry
        Total length         46.3494 bohr
 

     total cpu time spent up to now is     1260.8 secs

     total energy              =   -2941.66126917 Ry
     estimated scf accuracy    <       0.00002312 Ry

     iteration # 44     ecut=    29.40 Ry     beta= 0.05
     Davidson diagonalization with overlap
     c_bands:  1 eigenvalues not converged
     ethr =  5.82E-09,  avg # of iterations = 12.8

     negative rho (up, down):  1.591E-02 0.000E+00
 
     Adding external electric field

     Computed dipole along edir(3) : 
        Dipole                0.9423 Ry au,          2.3952 Debye
        Dipole field          0.0018 Ry au, 
 
        Potential amp.       -0.1648 Ry
        Total length         46.3494 bohr
 

     total cpu time spent up to now is     1292.6 secs

     total energy              =   -2941.66128421 Ry
     estimated scf accuracy    <       0.00007036 Ry

     iteration # 45     ecut=    29.40 Ry     beta= 0.05
     Davidson diagonalization with overlap
     ethr =  5.82E-09,  avg # of iterations =  9.9

     negative rho (up, down):  1.597E-02 0.000E+00
 
     Adding external electric field

     Computed dipole along edir(3) : 
        Dipole                0.9439 Ry au,          2.3992 Debye
        Dipole field          0.0018 Ry au, 
 
        Potential amp.       -0.1651 Ry
        Total length         46.3494 bohr
 

     total cpu time spent up to now is     1322.4 secs

     total energy              =   -2941.66131157 Ry
     estimated scf accuracy    <       0.00000916 Ry

     iteration # 46     ecut=    29.40 Ry     beta= 0.05
     Davidson diagonalization with overlap
     ethr =  2.31E-09,  avg # of iterations = 13.4

     negative rho (up, down):  1.596E-02 0.000E+00
 
     Adding external electric field

     Computed dipole along edir(3) : 
        Dipole                0.9419 Ry au,          2.3941 Debye
        Dipole field          0.0018 Ry au, 
 
        Potential amp.       -0.1648 Ry
        Total length         46.3494 bohr
 

     total cpu time spent up to now is     1349.3 secs

     total energy              =   -2941.66132959 Ry
     estimated scf accuracy    <       0.00000673 Ry

     iteration # 47     ecut=    29.40 Ry     beta= 0.05
     Davidson diagonalization with overlap
     ethr =  1.69E-09,  avg # of iterations = 11.5

     negative rho (up, down):  1.599E-02 0.000E+00
 
     Adding external electric field

     Computed dipole along edir(3) : 
        Dipole                0.9405 Ry au,          2.3904 Debye
        Dipole field          0.0018 Ry au, 
 
        Potential amp.       -0.1645 Ry
        Total length         46.3494 bohr
 

     total cpu time spent up to now is     1377.4 secs

     total energy              =   -2941.66134679 Ry
     estimated scf accuracy    <       0.00000353 Ry

     iteration # 48     ecut=    29.40 Ry     beta= 0.05
     Davidson diagonalization with overlap
     ethr =  8.88E-10,  avg # of iterations =  9.8

     negative rho (up, down):  1.598E-02 0.000E+00
 
     Adding external electric field

     Computed dipole along edir(3) : 
        Dipole                0.9410 Ry au,          2.3918 Debye
        Dipole field          0.0018 Ry au, 
 
        Potential amp.       -0.1646 Ry
        Total length         46.3494 bohr
 

     total cpu time spent up to now is     1407.5 secs

     total energy              =   -2941.66136194 Ry
     estimated scf accuracy    <       0.00000489 Ry

     iteration # 49     ecut=    29.40 Ry     beta= 0.05
     Davidson diagonalization with overlap
     ethr =  8.88E-10,  avg # of iterations =  6.6

     negative rho (up, down):  1.598E-02 0.000E+00
 
     Adding external electric field

     Computed dipole along edir(3) : 
        Dipole                0.9411 Ry au,          2.3921 Debye
        Dipole field          0.0018 Ry au, 
 
        Potential amp.       -0.1646 Ry
        Total length         46.3494 bohr
 

     total cpu time spent up to now is     1429.4 secs

     total energy              =   -2941.66137596 Ry
     estimated scf accuracy    <       0.00000151 Ry

     iteration # 50     ecut=    29.40 Ry     beta= 0.05
     Davidson diagonalization with overlap
     ethr =  3.80E-10,  avg # of iterations = 13.0

     negative rho (up, down):  1.595E-02 0.000E+00
 
     Adding external electric field

     Computed dipole along edir(3) : 
        Dipole                0.9406 Ry au,          2.3907 Debye
        Dipole field          0.0018 Ry au, 
 
        Potential amp.       -0.1645 Ry
        Total length         46.3494 bohr
 

     total cpu time spent up to now is     1461.0 secs

     total energy              =   -2941.66138852 Ry
     estimated scf accuracy    <       0.00000204 Ry

     iteration # 51     ecut=    29.40 Ry     beta= 0.05
     Davidson diagonalization with overlap
     ethr =  3.80E-10,  avg # of iterations =  3.7

     negative rho (up, down):  1.594E-02 0.000E+00
 
     Adding external electric field

     Computed dipole along edir(3) : 
        Dipole                0.9402 Ry au,          2.3897 Debye
        Dipole field          0.0018 Ry au, 
 
        Potential amp.       -0.1645 Ry
        Total length         46.3494 bohr
 

     total cpu time spent up to now is     1480.2 secs

     total energy              =   -2941.66139943 Ry
     estimated scf accuracy    <       0.00000123 Ry

     iteration # 52     ecut=    29.40 Ry     beta= 0.05
     Davidson diagonalization with overlap
     c_bands:  1 eigenvalues not converged
     ethr =  3.09E-10,  avg # of iterations = 16.5

     negative rho (up, down):  1.597E-02 0.000E+00
 
     Adding external electric field

     Computed dipole along edir(3) : 
        Dipole                0.9407 Ry au,          2.3911 Debye
        Dipole field          0.0018 Ry au, 
 
        Potential amp.       -0.1646 Ry
        Total length         46.3494 bohr
 

     total cpu time spent up to now is     1515.7 secs

     total energy              =   -2941.66140965 Ry
     estimated scf accuracy    <       0.00000086 Ry

     iteration # 53     ecut=    29.40 Ry     beta= 0.05
     Davidson diagonalization with overlap
     ethr =  2.16E-10,  avg # of iterations = 10.6

     negative rho (up, down):  1.599E-02 0.000E+00
 
     Adding external electric field

     Computed dipole along edir(3) : 
        Dipole                0.9409 Ry au,          2.3916 Debye
        Dipole field          0.0018 Ry au, 
 
        Potential amp.       -0.1646 Ry
        Total length         46.3494 bohr
 

     total cpu time spent up to now is     1538.9 secs

     total energy              =   -2941.66141864 Ry
     estimated scf accuracy    <       0.00000029 Ry

     iteration # 54     ecut=    29.40 Ry     beta= 0.05
     Davidson diagonalization with overlap
     ethr =  7.35E-11,  avg # of iterations =  8.9

     negative rho (up, down):  1.599E-02 0.000E+00
 
     Adding external electric field

     Computed dipole along edir(3) : 
        Dipole                0.9410 Ry au,          2.3919 Debye
        Dipole field          0.0018 Ry au, 
 
        Potential amp.       -0.1646 Ry
        Total length         46.3494 bohr
 

     total cpu time spent up to now is     1568.5 secs

     total energy              =   -2941.66142685 Ry
     estimated scf accuracy    <       0.00000029 Ry

     iteration # 55     ecut=    29.40 Ry     beta= 0.05
     Davidson diagonalization with overlap
     ethr =  7.35E-11,  avg # of iterations =  8.8

     negative rho (up, down):  1.598E-02 0.000E+00
 
     Adding external electric field

     Computed dipole along edir(3) : 
        Dipole                0.9414 Ry au,          2.3927 Debye
        Dipole field          0.0018 Ry au, 
 
        Potential amp.       -0.1647 Ry
        Total length         46.3494 bohr
 

     total cpu time spent up to now is     1592.0 secs

     total energy              =   -2941.66143423 Ry
     estimated scf accuracy    <       0.00000007 Ry

     iteration # 56     ecut=    29.40 Ry     beta= 0.05
     Davidson diagonalization with overlap
     ethr =  1.89E-11,  avg # of iterations = 16.4

     negative rho (up, down):  1.598E-02 0.000E+00
 
     Adding external electric field

     Computed dipole along edir(3) : 
        Dipole                0.9412 Ry au,          2.3924 Debye
        Dipole field          0.0018 Ry au, 
 
        Potential amp.       -0.1647 Ry
        Total length         46.3494 bohr
 

     total cpu time spent up to now is     1633.3 secs

     total energy              =   -2941.66144093 Ry
     estimated scf accuracy    <       0.00000030 Ry

     iteration # 57     ecut=    29.40 Ry     beta= 0.05
     Davidson diagonalization with overlap
     ethr =  1.89E-11,  avg # of iterations =  1.1

     negative rho (up, down):  1.598E-02 0.000E+00
 
     Adding external electric field

     Computed dipole along edir(3) : 
        Dipole                0.9412 Ry au,          2.3924 Debye
        Dipole field          0.0018 Ry au, 
 
        Potential amp.       -0.1647 Ry
        Total length         46.3494 bohr
 

     total cpu time spent up to now is     1650.6 secs

     total energy              =   -2941.66144683 Ry
     estimated scf accuracy    <       0.00000024 Ry

     iteration # 58     ecut=    29.40 Ry     beta= 0.05
     Davidson diagonalization with overlap
     ethr =  1.89E-11,  avg # of iterations = 11.9

     negative rho (up, down):  1.607E-02 0.000E+00
 
     Adding external electric field

     Computed dipole along edir(3) : 
        Dipole                0.9412 Ry au,          2.3923 Debye
        Dipole field          0.0018 Ry au, 
 
        Potential amp.       -0.1646 Ry
        Total length         46.3494 bohr
 

     total cpu time spent up to now is     1683.0 secs

     End of self-consistent calculation

          k = 0.0000 0.0000 0.0000 ( 18029 PWs)   bands (ev):

   -55.6872 -55.6702 -55.6531 -55.6336 -55.5927 -55.5385 -55.5317 -55.5017
   -55.4957 -55.4677 -55.4660 -55.4319 -55.2594 -55.0354 -54.6678 -54.6338
   -32.2212 -32.1702 -32.0431 -32.0332 -32.0001 -31.9852 -31.9801 -31.9563
   -31.9313 -31.8992 -31.8969 -31.8907 -31.8477 -31.8393 -31.8254 -31.8239
   -31.8073 -31.7921 -31.7835 -31.7481 -31.7442 -31.7374 -31.7216 -31.7185
   -31.6957 -31.6909 -31.6882 -31.6805 -31.6667 -31.6642 -31.6563 -31.6472
   -31.6419 -31.6321 -31.6190 -31.6092 -31.5781 -31.5095 -31.4658 -31.3017
   -31.2921 -31.2380 -31.0751 -30.9865 -30.9641 -30.8918 -30.8053 -30.6942
   -16.7828 -16.4180 -16.1632 -15.9338 -15.8427 -15.8123 -15.6598 -15.5283
   -15.4189 -15.3371 -15.2522 -15.2332 -15.2258 -15.2150 -15.1892 -15.1834
   -15.1363 -15.1314 -15.1119 -15.0991 -15.0492 -15.0327 -15.0292 -14.9344
   -14.8703 -14.8350 -14.8203 -14.7857 -14.7484 -14.3347 -13.1702 -13.0538
   -11.8271  -8.9875  -5.4384  -4.3714  -3.8429  -3.7893  -3.6453  -3.5947
    -3.5345  -3.4958  -3.3180  -3.2154  -2.9428  -2.8859  -2.8562  -2.8470
    -2.7909  -2.7598  -2.6021  -2.5759  -2.5050  -2.4956  -2.4808  -2.4519
    -2.4431  -2.4364  -2.3974  -2.3764  -2.3480  -2.2438  -2.1040  -2.0946
    -2.0719  -2.0389  -2.0011  -1.9525  -1.9363  -1.9159  -1.8975  -1.8847
    -1.8723  -1.7374  -1.7028  -1.5865  -1.4966  -1.4500  -1.3712  -1.2996
    -1.2719  -1.1585  -1.1189  -1.1076  -1.0921  -1.0814  -0.9818  -0.8758
    -0.8588  -0.8209  -0.7668  -0.7102  -0.6394  -0.5946  -0.5436  -0.4915
    -0.4685  -0.4518  -0.4491  -0.4139  -0.3227  -0.1810  -0.1291  -0.0948
    -0.0724   0.0042   0.0393   0.0953   0.1198   0.1432   0.1791   0.2320
     0.2757   0.2822   0.2956   0.3101   0.3148   0.4892   0.5386   0.5804
     0.6135   0.6597   0.8208   0.8429   0.9646   1.0388   1.2010   1.2799
     1.3544   1.4325   1.5461   1.6236   1.9258   1.9715   3.4435   3.5310
     3.5756   3.5895   3.6847   3.7268   3.8963   3.9268   3.9413   4.0013

          k = 0.0000 0.0419 0.0000 ( 17933 PWs)   bands (ev):

   -55.6821 -55.6651 -55.6580 -55.6387 -55.5898 -55.5413 -55.5269 -55.5004
   -55.4966 -55.4726 -55.4611 -55.4367 -55.2588 -55.0359 -54.6628 -54.6387
   -32.1640 -32.1163 -31.9907 -31.9787 -31.9755 -31.9713 -31.9696 -31.9136
   -31.9112 -31.9034 -31.9017 -31.8842 -31.8555 -31.8501 -31.8487 -31.8333
   -31.8254 -31.8130 -31.7702 -31.7581 -31.7390 -31.7373 -31.7334 -31.7095
   -31.7064 -31.7049 -31.6986 -31.6949 -31.6913 -31.6792 -31.6700 -31.6624
   -31.6542 -31.6382 -31.6362 -31.6333 -31.6217 -31.5087 -31.4631 -31.3264
   -31.2921 -31.2532 -31.0209 -30.9830 -30.9671 -30.8793 -30.8179 -30.7514
   -16.7710 -16.2845 -16.0442 -15.8301 -15.7354 -15.7122 -15.6238 -15.5434
   -15.4584 -15.4482 -15.2809 -15.2533 -15.2262 -15.2105 -15.1866 -15.1661
   -15.1569 -15.1497 -15.1402 -15.1258 -15.0794 -15.0381 -14.9991 -14.9424
   -14.9224 -14.8882 -14.8774 -14.8064 -14.7996 -14.4086 -13.1743 -13.0933
   -11.8296  -8.9949  -5.4491  -4.3648  -3.7954  -3.5992  -3.4790  -3.4187
    -3.3795  -3.3426  -3.1610  -2.9870  -2.9012  -2.8585  -2.7709  -2.7514
    -2.7347  -2.6936  -2.6522  -2.6463  -2.6131  -2.5873  -2.5503  -2.5330
    -2.5041  -2.4531  -2.4383  -2.4078  -2.3750  -2.3564  -2.2896  -2.2426
    -2.1869  -2.1729  -2.1540  -2.1090  -1.9942  -1.9578  -1.9269  -1.8736
    -1.8132  -1.6566  -1.6203  -1.5071  -1.4494  -1.3745  -1.3488  -1.3249
    -1.2867  -1.0795  -1.0425  -1.0049  -0.9712  -0.9129  -0.9029  -0.7949
    -0.7157  -0.6981  -0.6674  -0.6414  -0.6248  -0.5895  -0.5690  -0.5280
    -0.5058  -0.4537  -0.3929  -0.3254  -0.3042  -0.2635  -0.2165  -0.1795
    -0.1726  -0.1519  -0.0371   0.0291   0.0689   0.0910   0.1105   0.1405
     0.1492   0.1865   0.2545   0.3120   0.3456   0.4112   0.4672   0.5213
     0.5851   0.6367   0.6477   0.6772   0.8007   0.9563   0.9720   1.0745
     1.3074   1.5432   1.6258   1.6357   1.8799   1.8834   3.6357   3.6840
     3.7005   3.7669   3.7994   3.8433   3.9080   3.9283   3.9494   4.0009

          k = 0.0000-0.0839 0.0000 ( 17884 PWs)   bands (ev):

   -55.6704 -55.6697 -55.6555 -55.6481 -55.5866 -55.5444 -55.5190 -55.5082
   -55.4854 -55.4837 -55.4517 -55.4460 -55.2582 -55.0364 -54.6507 -54.6507
   -32.0297 -32.0200 -31.9842 -31.9837 -31.9658 -31.9650 -31.9445 -31.9380
   -31.8838 -31.8697 -31.8632 -31.8556 -31.8512 -31.8488 -31.8384 -31.8320
   -31.8041 -31.7975 -31.7942 -31.7922 -31.7914 -31.7722 -31.7668 -31.7497
   -31.7384 -31.7373 -31.7188 -31.7174 -31.7071 -31.7061 -31.6837 -31.6767
   -31.6584 -31.6561 -31.6309 -31.6280 -31.6163 -31.5078 -31.4624 -31.3640
   -31.2922 -31.2638 -30.9749 -30.9748 -30.8880 -30.8879 -30.8486 -30.8486
   -16.7602 -15.9665 -15.9137 -15.7747 -15.7374 -15.6049 -15.5765 -15.5164
   -15.4703 -15.4623 -15.4372 -15.4136 -15.3648 -15.2482 -15.2473 -15.1298
   -15.0804 -15.0723 -15.0666 -15.0633 -15.0304 -15.0247 -15.0235 -15.0156
   -14.9871 -14.9487 -14.9399 -14.9340 -14.7805 -14.5115 -13.1560 -13.1559
   -11.8321  -9.0025  -5.4598  -4.3592  -3.7584  -3.1634  -3.1135  -3.0862
    -3.0792  -3.0596  -3.0296  -2.9802  -2.9788  -2.9472  -2.9289  -2.8428
    -2.8152  -2.7881  -2.7672  -2.7231  -2.7069  -2.6514  -2.6352  -2.5698
    -2.5475  -2.5123  -2.5076  -2.4467  -2.4095  -2.3845  -2.2909  -2.2819
    -2.2498  -2.1310  -2.1101  -2.0739  -2.0387  -2.0150  -1.9724  -1.7641
    -1.6797  -1.5993  -1.5462  -1.4849  -1.3834  -1.3643  -1.3320  -1.2256
    -1.1232  -1.1096  -1.1062  -1.0825  -1.0466  -1.0425  -0.9459  -0.9214
    -0.8594  -0.8241  -0.7959  -0.6788  -0.5873  -0.5127  -0.4235  -0.3510
    -0.3335  -0.3265  -0.3034  -0.2648  -0.2275  -0.2066  -0.1723  -0.1653
    -0.1349  -0.1268  -0.0868  -0.0550  -0.0421   0.0047   0.0215   0.0344
     0.1006   0.1102   0.1315   0.1623   0.1937   0.2196   0.2750   0.3780
     0.5454   0.5493   0.5632   0.5880   0.8773   0.9186   0.9945   1.0305
     1.0384   1.6436   1.6864   1.6874   1.8167   1.8173   3.7585   3.7668
     3.8210   3.8624   3.8758   3.8908   3.9564   4.0077   4.0419   4.0889

          k = 0.0380 0.0000 0.0000 ( 17913 PWs)   bands (ev):

   -55.6871 -55.6701 -55.6530 -55.6335 -55.5926 -55.5384 -55.5317 -55.5014
   -55.4956 -55.4676 -55.4661 -55.4318 -55.2593 -55.0353 -54.6677 -54.6337
   -32.2213 -32.1711 -32.0445 -32.0391 -32.0002 -31.9850 -31.9799 -31.9611
   -31.9313 -31.8974 -31.8940 -31.8783 -31.8477 -31.8364 -31.8204 -31.8168
   -31.8068 -31.7918 -31.7632 -31.7548 -31.7474 -31.7440 -31.7301 -31.7096
   -31.6954 -31.6877 -31.6839 -31.6807 -31.6665 -31.6635 -31.6628 -31.6559
   -31.6470 -31.6320 -31.6192 -31.6082 -31.5784 -31.5118 -31.4658 -31.3015
   -31.2926 -31.2378 -31.0746 -30.9898 -30.9621 -30.8916 -30.8052 -30.6940
   -16.7765 -16.3442 -16.0808 -15.8587 -15.8321 -15.7413 -15.6617 -15.5707
   -15.4172 -15.3935 -15.3804 -15.3338 -15.3266 -15.3124 -15.2484 -15.2366
   -15.2056 -15.0604 -15.0500 -15.0112 -14.9568 -14.9524 -14.9337 -14.9203
   -14.8822 -14.8769 -14.8723 -14.8463 -14.7650 -14.3325 -13.1670 -13.0534
   -11.8273  -8.9876  -5.4429  -4.3812  -3.8088  -3.7006  -3.4338  -3.3882
    -3.3172  -3.2837  -3.2382  -3.2015  -3.1461  -2.9421  -2.9360  -2.8439
    -2.7985  -2.7677  -2.7346  -2.6483  -2.5282  -2.5111  -2.4430  -2.4012
    -2.3878  -2.3684  -2.2943  -2.2618  -2.2544  -2.2162  -2.1692  -2.0909
    -2.0577  -2.0334  -1.9613  -1.9268  -1.8939  -1.8809  -1.8630  -1.7227
    -1.6609  -1.6425  -1.6174  -1.5388  -1.5004  -1.4827  -1.4214  -1.2960
    -1.2888  -1.2274  -1.1842  -1.1241  -1.1210  -1.0917  -1.0106  -0.9799
    -0.9631  -0.9513  -0.8657  -0.8286  -0.7273  -0.6120  -0.5864  -0.5119
    -0.4888  -0.4695  -0.4182  -0.4032  -0.2893  -0.2225  -0.1407  -0.1202
    -0.0992  -0.0375  -0.0109   0.0434   0.0516   0.0930   0.1230   0.1458
     0.1525   0.1838   0.2051   0.2363   0.3650   0.3951   0.4621   0.4883
     0.5785   0.6439   0.6618   0.7028   0.9287   0.9991   1.1912   1.2813
     1.3027   1.3663   1.5156   1.6434   1.8142   1.8887   3.4749   3.5039
     3.7945   3.8112   3.8276   3.8659   3.8689   3.8977   3.9125   3.9631

          k = 0.0380 0.0419 0.0000 ( 17878 PWs)   bands (ev):

   -55.6820 -55.6650 -55.6580 -55.6386 -55.5897 -55.5412 -55.5269 -55.5004
   -55.4964 -55.4725 -55.4612 -55.4367 -55.2587 -55.0358 -54.6627 -54.6387
   -32.1642 -32.1171 -31.9921 -31.9858 -31.9752 -31.9712 -31.9698 -31.9140
   -31.9122 -31.9061 -31.9029 -31.8712 -31.8555 -31.8501 -31.8488 -31.8229
   -31.8227 -31.8089 -31.7577 -31.7531 -31.7487 -31.7389 -31.7369 -31.7103
   -31.7051 -31.6984 -31.6963 -31.6935 -31.6910 -31.6792 -31.6700 -31.6636
   -31.6590 -31.6533 -31.6352 -31.6297 -31.6263 -31.5109 -31.4633 -31.3263
   -31.2928 -31.2531 -31.0206 -30.9856 -30.9661 -30.8791 -30.8180 -30.7512
   -16.7673 -16.2165 -15.9679 -15.7624 -15.7264 -15.6414 -15.6202 -15.5442
   -15.4958 -15.4496 -15.3457 -15.3227 -15.2981 -15.2833 -15.2457 -15.1997
   -15.1835 -15.1239 -15.0924 -15.0754 -15.0198 -15.0134 -14.9822 -14.9525
   -14.9418 -14.9276 -14.9053 -14.8827 -14.7842 -14.4064 -13.1720 -13.0935
   -11.8300  -8.9945  -5.4518  -4.3671  -3.7827  -3.5227  -3.2700  -3.2242
    -3.1439  -3.1168  -3.0823  -2.9945  -2.9665  -2.8390  -2.7933  -2.7289
    -2.7040  -2.6789  -2.6555  -2.6065  -2.5701  -2.5424  -2.5189  -2.4914
    -2.4353  -2.4222  -2.4034  -2.3876  -2.3472  -2.3334  -2.3153  -2.2754
    -2.1798  -2.1716  -2.1231  -2.0297  -1.9647  -1.9248  -1.8771  -1.8213
    -1.6943  -1.6773  -1.6380  -1.5201  -1.4675  -1.4132  -1.3776  -1.2771
    -1.1543  -1.1354  -1.1099  -1.0781  -1.0092  -0.9993  -0.9431  -0.9340
    -0.8791  -0.8217  -0.7730  -0.7421  -0.6662  -0.6305  -0.6172  -0.5866
    -0.5163  -0.4967  -0.4415  -0.4064  -0.3860  -0.3536  -0.3262  -0.2985
    -0.2704  -0.2120  -0.1429  -0.1230  -0.0653  -0.0075   0.0085   0.0349
     0.0987   0.1803   0.2393   0.2864   0.3784   0.4067   0.4876   0.5302
     0.5843   0.6361   0.6898   0.7132   0.7508   0.8910   0.9535   1.0821
     1.2439   1.5539   1.6302   1.6482   1.8023   1.8642   3.6286   3.6863
     3.7539   3.8236   3.8454   3.8998   3.9631   3.9878   4.0120   4.0451

          k = 0.0380-0.0839 0.0000 ( 17916 PWs)   bands (ev):

   -55.6704 -55.6697 -55.6555 -55.6481 -55.5866 -55.5444 -55.5191 -55.5082
   -55.4853 -55.4837 -55.4518 -55.4461 -55.2582 -55.0364 -54.6508 -54.6507
   -32.0300 -32.0203 -31.9850 -31.9845 -31.9658 -31.9651 -31.9446 -31.9381
   -31.8845 -31.8781 -31.8702 -31.8670 -31.8522 -31.8333 -31.8267 -31.8177
   -31.8046 -31.7982 -31.7922 -31.7910 -31.7902 -31.7828 -31.7782 -31.7475
   -31.7268 -31.7182 -31.7157 -31.7146 -31.7137 -31.7063 -31.6836 -31.6766
   -31.6585 -31.6562 -31.6426 -31.6398 -31.6158 -31.5099 -31.4625 -31.3639
   -31.2932 -31.2639 -30.9758 -30.9758 -30.8879 -30.8878 -30.8486 -30.8486
   -16.7586 -15.9217 -15.8662 -15.7235 -15.6857 -15.5696 -15.5455 -15.5144
   -15.4450 -15.4428 -15.4020 -15.3910 -15.3639 -15.2627 -15.2581 -15.1707
   -15.1419 -15.1148 -15.1062 -15.0965 -15.0803 -15.0651 -15.0466 -15.0338
   -15.0028 -14.9939 -14.9816 -14.9096 -14.7736 -14.5068 -13.1558 -13.1557
   -11.8327  -9.0020  -5.4562  -4.3587  -3.7627  -3.1565  -3.0728  -2.9390
    -2.9163  -2.8730  -2.8655  -2.8378  -2.7996  -2.7729  -2.7624  -2.7416
    -2.7261  -2.7031  -2.6739  -2.6520  -2.6420  -2.5563  -2.5452  -2.5333
    -2.5153  -2.4987  -2.4918  -2.4144  -2.3993  -2.3773  -2.3365  -2.2925
    -2.2677  -2.1818  -2.1684  -2.1115  -1.9325  -1.8273  -1.7883  -1.7645
    -1.6512  -1.6042  -1.5797  -1.5345  -1.5098  -1.4646  -1.4358  -1.4106
    -1.3520  -1.3295  -1.3021  -1.2545  -1.1782  -1.1331  -0.9908  -0.9214
    -0.8662  -0.8126  -0.7580  -0.7353  -0.7051  -0.6217  -0.6017  -0.5051
    -0.4841  -0.4530  -0.4388  -0.4179  -0.4018  -0.3653  -0.3289  -0.3010
    -0.2763  -0.2417  -0.2295  -0.1846  -0.1597  -0.0990  -0.0660  -0.0041
     0.0919   0.1464   0.2274   0.3021   0.3919   0.4037   0.4289   0.4600
     0.4734   0.5407   0.6478   0.6758   0.8314   0.8376   0.9658   1.0336
     1.0819   1.6398   1.6996   1.7005   1.8060   1.8067   3.7320   3.7491
     3.8283   3.8479   3.8650   3.8859   4.0242   4.0440   4.0713   4.0745

          k = 0.0380-0.0419 0.0000 ( 17876 PWs)   bands (ev):

   -55.6820 -55.6650 -55.6580 -55.6386 -55.5897 -55.5412 -55.5269 -55.5004
   -55.4964 -55.4725 -55.4612 -55.4367 -55.2587 -55.0358 -54.6627 -54.6387
   -32.1642 -32.1171 -31.9919 -31.9858 -31.9752 -31.9712 -31.9698 -31.9140
   -31.9122 -31.9061 -31.9029 -31.8714 -31.8551 -31.8500 -31.8488 -31.8232
   -31.8229 -31.8093 -31.7577 -31.7530 -31.7482 -31.7389 -31.7368 -31.7107
   -31.7050 -31.6978 -31.6970 -31.6935 -31.6909 -31.6793 -31.6700 -31.6633
   -31.6594 -31.6534 -31.6352 -31.6295 -31.6264 -31.5106 -31.4632 -31.3263
   -31.2929 -31.2531 -31.0206 -30.9856 -30.9661 -30.8791 -30.8180 -30.7512
   -16.7672 -16.2163 -15.9677 -15.7608 -15.7261 -15.6415 -15.6198 -15.5453
   -15.4967 -15.4502 -15.3462 -15.3314 -15.2978 -15.2862 -15.2471 -15.1951
   -15.1819 -15.1221 -15.0838 -15.0737 -15.0166 -15.0116 -14.9869 -14.9582
   -14.9415 -14.9286 -14.9053 -14.8815 -14.7840 -14.4068 -13.1720 -13.0935
   -11.8300  -8.9951  -5.4471  -4.3715  -3.7852  -3.5240  -3.2655  -3.2235
    -3.1433  -3.1143  -3.0814  -2.9974  -2.9675  -2.8369  -2.7940  -2.7313
    -2.6941  -2.6819  -2.6544  -2.6157  -2.5768  -2.5601  -2.5264  -2.4919
    -2.4393  -2.4272  -2.4047  -2.3916  -2.3551  -2.3354  -2.3019  -2.2679
    -2.1822  -2.1697  -2.0736  -2.0258  -1.9634  -1.9284  -1.8798  -1.8263
    -1.6946  -1.6731  -1.6409  -1.5031  -1.4460  -1.4125  -1.3838  -1.2829
    -1.1525  -1.1387  -1.1187  -1.0773  -1.0217  -0.9970  -0.9466  -0.9104
    -0.8818  -0.8225  -0.7848  -0.7189  -0.6821  -0.6553  -0.6215  -0.5699
    -0.5507  -0.5028  -0.4686  -0.4037  -0.3728  -0.3621  -0.3341  -0.2954
    -0.2577  -0.2045  -0.1479  -0.1194  -0.0356  -0.0099   0.0135   0.0414
     0.1026   0.1786   0.2502   0.2606   0.3676   0.4194   0.4960   0.5196
     0.5925   0.6389   0.6823   0.7092   0.7473   0.8923   0.9540   1.0960
     1.2441   1.5541   1.6300   1.6407   1.8022   1.8648   3.6247   3.6851
     3.7513   3.8234   3.8530   3.8881   3.9654   3.9916   4.0181   4.0435

          k =-0.0760-0.0000 0.0000 ( 17886 PWs)   bands (ev):

   -55.6870 -55.6700 -55.6530 -55.6335 -55.5925 -55.5384 -55.5317 -55.5012
   -55.4956 -55.4676 -55.4662 -55.4318 -55.2593 -55.0353 -54.6677 -54.6337
   -32.2215 -32.1720 -32.0461 -32.0447 -32.0004 -31.9848 -31.9798 -31.9656
   -31.9314 -31.8972 -31.8935 -31.8556 -31.8476 -31.8335 -31.8157 -31.8106
   -31.8067 -31.7917 -31.7784 -31.7474 -31.7444 -31.7341 -31.7179 -31.7093
   -31.7057 -31.6944 -31.6878 -31.6809 -31.6777 -31.6663 -31.6628 -31.6558
   -31.6471 -31.6319 -31.6201 -31.6075 -31.5791 -31.5146 -31.4659 -31.3015
   -31.2933 -31.2378 -31.0742 -30.9931 -30.9607 -30.8916 -30.8051 -30.6941
   -16.7708 -16.2435 -16.0063 -15.8013 -15.7867 -15.6794 -15.6423 -15.5521
   -15.4736 -15.4635 -15.4138 -15.3953 -15.3876 -15.3704 -15.3273 -15.3247
   -15.1997 -15.0764 -15.0530 -15.0221 -14.9803 -14.9549 -14.9371 -14.9135
   -14.8859 -14.8622 -14.8442 -14.7845 -14.7631 -14.3308 -13.1639 -13.0531
   -11.8276  -8.9880  -5.4469  -4.3892  -3.7944  -3.6772  -3.3804  -3.2761
    -3.1869  -3.0984  -3.0695  -3.0449  -2.9502  -2.9452  -2.9373  -2.9200
    -2.8587  -2.7328  -2.7098  -2.5225  -2.5025  -2.4834  -2.3905  -2.3802
    -2.3259  -2.2663  -2.2307  -2.1891  -2.1842  -2.1679  -2.0916  -2.0387
    -2.0022  -1.9917  -1.9485  -1.9359  -1.9231  -1.9180  -1.8912  -1.8517
    -1.8092  -1.7195  -1.6620  -1.4716  -1.4183  -1.3632  -1.3285  -1.2999
    -1.2925  -1.2787  -1.2727  -1.2497  -1.1940  -1.1525  -1.0614  -1.0358
    -0.9999  -0.9698  -0.9293  -0.8673  -0.8560  -0.8316  -0.7014  -0.6283
    -0.5121  -0.4484  -0.3777  -0.3736  -0.3396  -0.3306  -0.2791  -0.2089
    -0.1737  -0.1353  -0.0895  -0.0342  -0.0047   0.0301   0.0466   0.1141
     0.1207   0.1514   0.1889   0.2775   0.3417   0.3577   0.4271   0.5018
     0.5421   0.5721   0.7514   0.7869   0.8993   1.0022   1.0262   1.1899
     1.2939   1.3875   1.4912   1.6644   1.6850   1.8331   3.4795   3.4841
     3.6118   3.7219   3.7806   3.8743   3.8954   3.9457   3.9771   3.9838

          k =-0.0760 0.0419 0.0000 ( 17914 PWs)   bands (ev):

   -55.6820 -55.6649 -55.6580 -55.6386 -55.5898 -55.5412 -55.5270 -55.5004
   -55.4962 -55.4725 -55.4613 -55.4367 -55.2587 -55.0358 -54.6627 -54.6387
   -32.1645 -32.1181 -31.9936 -31.9925 -31.9753 -31.9714 -31.9700 -31.9154
   -31.9139 -31.9084 -31.9027 -31.8561 -31.8537 -31.8503 -31.8491 -31.8208
   -31.8132 -31.8054 -31.7669 -31.7576 -31.7394 -31.7368 -31.7195 -31.7116
   -31.7047 -31.7004 -31.6988 -31.6959 -31.6902 -31.6811 -31.6780 -31.6698
   -31.6604 -31.6524 -31.6350 -31.6331 -31.6297 -31.5132 -31.4634 -31.3263
   -31.2938 -31.2532 -31.0203 -30.9884 -30.9654 -30.8791 -30.8180 -30.7513
   -16.7639 -16.1250 -15.8930 -15.7130 -15.6851 -15.6218 -15.5650 -15.5409
   -15.4547 -15.4456 -15.4250 -15.3719 -15.3407 -15.3318 -15.3170 -15.2748
   -15.2202 -15.1419 -15.0768 -15.0733 -15.0560 -15.0302 -14.9752 -14.9648
   -14.9600 -14.9433 -14.8766 -14.8741 -14.7807 -14.4051 -13.1699 -13.0939
   -11.8305  -8.9948  -5.4496  -4.3732  -3.7790  -3.5072  -3.2195  -3.0145
    -2.9777  -2.8899  -2.8316  -2.8098  -2.7919  -2.7694  -2.7398  -2.7296
    -2.7056  -2.6686  -2.6367  -2.6191  -2.5868  -2.5544  -2.4711  -2.4688
    -2.4069  -2.3930  -2.3715  -2.3390  -2.2910  -2.2658  -2.2573  -2.1834
    -2.1666  -2.1624  -2.1249  -2.0500  -1.8995  -1.8396  -1.7981  -1.7868
    -1.7518  -1.6631  -1.6224  -1.5825  -1.4749  -1.3752  -1.2993  -1.2835
    -1.2463  -1.2268  -1.1839  -1.1437  -1.0917  -1.0541  -1.0056  -0.9827
    -0.9620  -0.9368  -0.9122  -0.8814  -0.8640  -0.8411  -0.7636  -0.7279
    -0.6805  -0.6546  -0.6361  -0.5580  -0.4573  -0.4479  -0.4131  -0.3665
    -0.3407  -0.3164  -0.2402  -0.2049  -0.1527  -0.1080  -0.0045   0.0154
     0.1392   0.1757   0.2553   0.3185   0.3699   0.4965   0.5591   0.5838
     0.6405   0.6841   0.7287   0.7592   0.8253   0.8740   0.8992   1.0802
     1.1055   1.5688   1.6335   1.6544   1.7256   1.8535   3.6136   3.6726
     3.6832   3.7707   3.7949   3.8092   3.9392   3.9692   4.0393   4.0898

          k =-0.0760-0.0839 0.0000 ( 17948 PWs)   bands (ev):

   -55.6704 -55.6697 -55.6555 -55.6481 -55.5866 -55.5444 -55.5191 -55.5083
   -55.4853 -55.4836 -55.4520 -55.4462 -55.2582 -55.0364 -54.6508 -54.6507
   -32.0303 -32.0206 -31.9858 -31.9852 -31.9659 -31.9651 -31.9448 -31.9382
   -31.8855 -31.8849 -31.8747 -31.8694 -31.8524 -31.8344 -31.8100 -31.8053
   -31.8009 -31.7973 -31.7907 -31.7903 -31.7893 -31.7890 -31.7854 -31.7453
   -31.7371 -31.7256 -31.7174 -31.7063 -31.6857 -31.6848 -31.6829 -31.6762
   -31.6662 -31.6622 -31.6586 -31.6562 -31.6154 -31.5120 -31.4625 -31.3638
   -31.2942 -31.2640 -30.9768 -30.9767 -30.8879 -30.8878 -30.8486 -30.8486
   -16.7571 -15.8651 -15.8040 -15.6462 -15.6109 -15.5914 -15.5564 -15.4957
   -15.4125 -15.3853 -15.3807 -15.3335 -15.3077 -15.2750 -15.2370 -15.2226
   -15.2154 -15.1965 -15.1841 -15.1505 -15.1410 -15.1293 -15.1221 -15.0466
   -15.0091 -15.0047 -14.9992 -14.8955 -14.7691 -14.5027 -13.1556 -13.1555
   -11.8334  -9.0016  -5.4525  -4.3582  -3.7672  -3.1578  -3.0708  -2.8961
    -2.8405  -2.8117  -2.7959  -2.6297  -2.6194  -2.6040  -2.5576  -2.5365
    -2.5264  -2.5179  -2.5092  -2.4881  -2.4753  -2.4405  -2.4306  -2.3953
    -2.3811  -2.3635  -2.3467  -2.3295  -2.3098  -2.2955  -2.2790  -2.2383
    -2.2184  -2.2077  -2.1874  -2.1446  -1.9330  -1.8829  -1.8387  -1.8340
    -1.8226  -1.8031  -1.7482  -1.7432  -1.7091  -1.6586  -1.5794  -1.4346
    -1.3893  -1.3728  -1.2796  -1.2581  -1.2055  -1.1333  -1.0875  -1.0705
    -1.0356  -0.9715  -0.9354  -0.8979  -0.8314  -0.8068  -0.8011  -0.7075
    -0.6865  -0.6502  -0.6435  -0.5650  -0.5145  -0.4515  -0.4361  -0.4198
    -0.3885  -0.3547  -0.3367  -0.2716  -0.1767  -0.1756  -0.1528  -0.0435
     0.0468   0.2756   0.3383   0.3752   0.4203   0.5138   0.5822   0.6069
     0.6228   0.6445   0.6639   0.7119   0.8390   0.8490   0.8833   0.9962
     1.0996   1.6394   1.7179   1.7187   1.7913   1.7914   3.7452   3.7634
     3.7839   3.8304   3.9494   3.9565   3.9787   3.9808   4.1035   4.1166

     the Fermi energy is     3.4451 ev

!    total energy              =   -2941.66150181 Ry
     estimated scf accuracy    <       0.00000004 Ry
     smearing contrib. (-TS)   =      -0.02151219 Ry
     internal energy E=F+TS    =   -2941.63998962 Ry

     The total energy is F=E-TS. E is the sum of the following terms:
     one-electron contribution =  -24276.12904779 Ry
     hartree contribution      =   12228.51423162 Ry
     xc contribution           =    -486.87960494 Ry
     ewald contribution        =    9592.85275977 Ry
     electric field correction =       0.00167172 Ry

     convergence has been achieved in  58 iterations

     Forces acting on atoms (cartesian axes, Ry/au):

     atom    1 type  1   force =     0.00017886   -0.00011152    0.09637910
     atom    2 type  1   force =    -0.00021119   -0.00063296   -0.17550813
     atom    3 type  2   force =    -0.00004068   -0.00003461   -0.02419367
     atom    4 type  2   force =     0.00005156   -0.00143900    0.05290018
     atom    5 type  2   force =    -0.01182050   -0.00049314    0.00395931
     atom    6 type  2   force =     0.01313417    0.00023634    0.00229739
     atom    7 type  1   force =    -0.00140360    0.00080055   -0.01148183
     atom    8 type  1   force =     0.00053446    0.00921219    0.02521505
     atom    9 type  2   force =    -0.00010672    0.00017823    0.00038882
     atom   10 type  2   force =    -0.00086564    0.00148806   -0.01579759
     atom   11 type  2   force =    -0.00020154   -0.00049893    0.00038816
     atom   12 type  2   force =    -0.00012542   -0.00026422    0.00002457
     atom   13 type  1   force =     0.00054906   -0.00091207    0.00005759
     atom   14 type  1   force =    -0.00007858   -0.00039951    0.00026039
     atom   15 type  2   force =     0.00017221    0.00003956   -0.00028922
     atom   16 type  2   force =     0.00006795    0.00024842    0.00002957
     atom   17 type  2   force =    -0.00045565    0.00034727    0.00049346
     atom   18 type  2   force =     0.00008379    0.00009957    0.00026269
     atom   19 type  1   force =     0.00010557   -0.00057296    0.00037066
     atom   20 type  1   force =     0.00012054    0.00032828    0.00051512
     atom   21 type  2   force =     0.00007385   -0.00007949    0.10321685
     atom   22 type  2   force =    -0.00044384   -0.00025494    0.00025900
     atom   23 type  2   force =    -0.07147102   -0.00018529   -0.02771766
     atom   24 type  2   force =     0.07139550    0.00024860   -0.02771735
     atom   25 type  1   force =     0.00002924   -0.00027660    0.09583788
     atom   26 type  1   force =    -0.00014631   -0.00022789   -0.17568071
     atom   27 type  2   force =     0.00009333   -0.00013014   -0.02329424
     atom   28 type  2   force =     0.00007961   -0.00129620    0.05332736
     atom   29 type  2   force =    -0.01194982   -0.00005751    0.00375276
     atom   30 type  2   force =     0.01320284    0.00043152    0.00213116
     atom   31 type  1   force =    -0.00142036    0.00344911   -0.01081168
     atom   32 type  1   force =     0.00064116   -0.01010165    0.02562545
     atom   33 type  2   force =    -0.00038875    0.00004872    0.00004798
     atom   34 type  2   force =     0.00074819    0.00089711   -0.02306301
     atom   35 type  2   force =    -0.00011779    0.00029400   -0.00002596
     atom   36 type  2   force =    -0.00021299    0.00059566   -0.00029277
     atom   37 type  1   force =    -0.00082627   -0.00101558   -0.00014377
     atom   38 type  1   force =    -0.00002355   -0.00010832   -0.00000718
     atom   39 type  2   force =    -0.00033944    0.00003840    0.00059231
     atom   40 type  2   force =     0.00048726    0.00024894    0.00022501
     atom   41 type  2   force =     0.00010084    0.00051676    0.00027217
     atom   42 type  2   force =     0.00004257    0.00028714   -0.00019865
     atom   43 type  1   force =     0.00020517    0.00009659   -0.00016353
     atom   44 type  1   force =    -0.00029656   -0.00056779   -0.00007532
     atom   45 type  2   force =     0.00006876   -0.00008864    0.10323934
     atom   46 type  2   force =    -0.07147096   -0.00016926   -0.02771889
     atom   47 type  2   force =     0.07139740    0.00030826   -0.02773234
     atom   48 type  3   force =     0.00097138   -0.00020058   -0.00046450
     atom   49 type  3   force =     0.00900865    0.00065738   -0.00551198
     atom   50 type  4   force =     0.00058275   -0.00004003    0.00091163
     atom   51 type  5   force =     0.00112152    0.00043377   -0.00054358
     atom   52 type  5   force =    -0.00032222    0.00071289   -0.00067285
     atom   53 type  5   force =    -0.00022555   -0.00165822    0.00055009
     atom   54 type  5   force =     0.00002304    0.00071262   -0.00046390
     atom   55 type  5   force =    -0.01030627   -0.00113888    0.00603922

     Total force =     0.367677     Total SCF correction =     0.000431
  @ DRIVER MODE: Message from server: STATUS
  @ DRIVER MODE: Message from server: GETFORCE
  @ DRIVER MODE: Returning v,forces,stress,ensemble 

     Writing output data file ./calc.save/
  @ DRIVER MODE: Message from server: EXIT
  @ DRIVE MODE: Exiting  
 
     init_run     :     18.36s CPU     19.68s WALL (       1 calls)
     electrons    :   1627.52s CPU   1661.27s WALL (       1 calls)
     forces       :      3.94s CPU      4.40s WALL (       1 calls)

     Called by init_run:
     wfcinit      :      8.18s CPU      8.43s WALL (       1 calls)
     potinit      :      9.10s CPU      9.27s WALL (       1 calls)
     hinit0       :      0.49s CPU      0.72s WALL (       1 calls)

     Called by electrons:
     c_bands      :   1384.02s CPU   1401.59s WALL (      58 calls)
     sum_band     :    163.86s CPU    171.41s WALL (      58 calls)
     v_of_rho     :     61.61s CPU     63.92s WALL (      59 calls)
     newd         :     23.95s CPU     30.28s WALL (      59 calls)
     mix_rho      :      2.24s CPU      2.32s WALL (      58 calls)
     vdW_kernel   :      7.56s CPU      7.63s WALL (       1 calls)

     Called by c_bands:
     init_us_2    :      8.94s CPU      9.01s WALL (    1180 calls)
     cegterg      :   1358.43s CPU   1375.41s WALL (     591 calls)

     Called by *egterg:
     cdiaghg      :    182.33s CPU    183.59s WALL (    6030 calls)
     h_psi        :    756.68s CPU    767.20s WALL (    6040 calls)
     s_psi        :     99.92s CPU    100.25s WALL (    6040 calls)
     g_psi        :      2.83s CPU      2.85s WALL (    5439 calls)

     Called by h_psi:
     h_psi:calbec :     94.78s CPU     95.96s WALL (    6040 calls)
     vloc_psi     :    558.24s CPU    563.01s WALL (    6040 calls)
     add_vuspsi   :     99.69s CPU    101.66s WALL (    6040 calls)

     General routines
     calbec       :    123.69s CPU    124.93s WALL (    6660 calls)
     fft          :     32.95s CPU     33.17s WALL (    3717 calls)
     ffts         :      0.19s CPU      0.19s WALL (     117 calls)
     fftw         :    605.55s CPU    610.63s WALL (  838426 calls)
     interpolate  :      0.62s CPU      0.64s WALL (      59 calls)
     davcio       :      0.00s CPU      0.31s WALL (      10 calls)
 
     Parallel routines
 
     PWSCF        :  27m30.10s CPU  28m 9.04s WALL

 
   This run was terminated on:  16:12:44  25Aug2021            

=------------------------------------------------------------------------------=
   JOB DONE.
=------------------------------------------------------------------------------=
