
     Program PWSCF v.6.7GPU starts on 23Sep2021 at  0:36:30 

     This program is part of the open-source Quantum ESPRESSO suite
     for quantum simulation of materials; please cite
         "P. Giannozzi et al., J. Phys.:Condens. Matter 21 395502 (2009);
         "P. Giannozzi et al., J. Phys.:Condens. Matter 29 465901 (2017);
         "P. Giannozzi et al., J. Chem. Phys. 152 154105 (2020);
          URL http://www.quantum-espresso.org", 
     in publications or presentations arising from this work. More details at
     http://www.quantum-espresso.org/quote

     Parallel version (MPI), running on    10 processors

     MPI processes distributed on     1 nodes
     R & G space division:  proc/nbgrp/npool/nimage =      10
     Reading input from /storage/home/hcoda1/3/ntian30/research/carbon/CxH_vib/H2O_calc/ads_slab/CH2NHO_a/out_0027/pw.inp
Warning: card &CELL ignored
Warning: card   CELL_DYNAMICS='IPI', ignored
Warning: card / ignored

     Current dimensions of program PWSCF are:
     Max number of different atomic species (ntypx) = 10
     Max number of k-points (npk) =  40000
     Max angular momentum in pseudopotentials (lmaxx) =  3
     Presently no symmetry can be used with electric field

     Message from routine cell_base_init:
     DEPRECATED: use true lattice parameter, not A to a.u. conversion factor

     **************************************************************************
     Initializing libbeef V0.1.2 with the BEEF-vdW functional.
     Citation: Wellendorff et al., PRB 85, 235149 (2012).
     **************************************************************************


     IMPORTANT: XC functional enforced from input :
     Exchange-correlation= BEEF-VDW
                           (   1   4  43  14   2   0   0)
     Any further DFT definition will be discarded
     Please, verify this is what you really want


     Subspace diagonalization in iterative solution of the eigenvalue problem:
     one sub-group per band group will be used
     scalapack distributed-memory algorithm (size of sub-group:  3*  3 procs)

  @ DRIVER MODE: Connecting to 
 qe_1139763_2937321.sched-torque.pace.gatech.edus8dlf1q5_scratch
  using UNIX socket
  @ DRIVER MODE: Message from server: STATUS
  @ DRIVER MODE: Message from server: INIT
  @ DRIVER MODE: Receiving replica           0          -1
  @ DRIVER MODE: Receiving encoded integer          25
  @ DRIVER MODE:  SCF:  T  FORCE:  T  STRESS:  F  VC:  F  ENSEMBLE:  F
  @ DRIVER MODE:  SCF:  T  FORCE:  T  STRESS:  F  VC:  F  ENSEMBLE:  F
 
     Parallelization info
     --------------------
     sticks:   dense  smooth     PW     G-vecs:    dense   smooth      PW
     Min         327     131     37                56683    14340    2191
     Max         328     133     38                56694    14346    2206
     Sum        3275    1317    379               566857   143421   21985
 
     Using Slab Decomposition
 


     bravais-lattice index     =            0
     lattice parameter (alat)  =       1.8897  a.u.
     unit-cell volume          =    6658.9804 (a.u.)^3
     number of atoms/cell      =           53
     number of atomic types    =            5
     number of electrons       =       396.00
     number of Kohn-Sham states=          208
     kinetic-energy cutoff     =      29.3995  Ry
     charge density cutoff     =     293.9946  Ry
     scf convergence threshold =      7.3E-08
     mixing beta               =       0.0500
     number of iterations used =            8  plain     mixing
     Exchange-correlation= BEEF-VDW
                           (   1   4  43  14   2   0   0)

     celldm(1)=   1.889726  celldm(2)=   0.000000  celldm(3)=   0.000000
     celldm(4)=   0.000000  celldm(5)=   0.000000  celldm(6)=   0.000000

     crystal axes: (cart. coord. in units of alat)
               a(1) = (   6.579727   0.000000   0.000000 )  
               a(2) = (  -0.000775   5.961596   0.000000 )  
               a(3) = (   0.000000   0.000000  25.155947 )  

     reciprocal axes: (cart. coord. in units 2 pi/alat)
               b(1) = (  0.151982  0.000020  0.000000 )  
               b(2) = (  0.000000  0.167740  0.000000 )  
               b(3) = (  0.000000  0.000000  0.039752 )  


     PseudoPot. # 1 for Ti read from file:
     /storage/coda1/p-amedford6/0/shared/rich_project_chbe-medford/medford-share/data/pseudos_module/espresso/nninc/pbe/van/Ti.UPF
     MD5 check sum: 8e4df49b7f0d34bbd5052bf3f5ea0213
     Pseudo is Ultrasoft, Zval = 12.0
     Generated by new atomic code, or converted to UPF format
     Using radial grid of  851 points,  6 beta functions with: 
                l(1) =   0
                l(2) =   0
                l(3) =   1
                l(4) =   1
                l(5) =   2
                l(6) =   2
     Q(r) pseudized with  8 coefficients,  rinner =    1.000   1.000   1.000
                                                       1.000   1.000

     PseudoPot. # 2 for O  read from file:
     /storage/coda1/p-amedford6/0/shared/rich_project_chbe-medford/medford-share/data/pseudos_module/espresso/nninc/pbe/van/O.UPF
     MD5 check sum: 78c19812648e8988a0fe644b0f25305e
     Pseudo is Ultrasoft, Zval =  6.0
     Generated by new atomic code, or converted to UPF format
     Using radial grid of  737 points,  4 beta functions with: 
                l(1) =   0
                l(2) =   0
                l(3) =   1
                l(4) =   1
     Q(r) pseudized with  8 coefficients,  rinner =    0.800   0.800   0.800


     PseudoPot. # 3 for N  read from file:
     /storage/coda1/p-amedford6/0/shared/rich_project_chbe-medford/medford-share/data/pseudos_module/espresso/nninc/pbe/van/N.UPF
     MD5 check sum: 90d10febe142ad51ac9d5be1deb811c4
     Pseudo is Ultrasoft, Zval =  5.0
     Generated by new atomic code, or converted to UPF format
     Using radial grid of  729 points,  4 beta functions with: 
                l(1) =   0
                l(2) =   0
                l(3) =   1
                l(4) =   1
     Q(r) pseudized with  8 coefficients,  rinner =    0.800   0.800   0.800


     PseudoPot. # 4 for C  read from file:
     /storage/coda1/p-amedford6/0/shared/rich_project_chbe-medford/medford-share/data/pseudos_module/espresso/nninc/pbe/van/C.UPF
     MD5 check sum: 1a69bf6b8db32088f5b2163dbdb77a27
     Pseudo is Ultrasoft, Zval =  4.0
     Generated by new atomic code, or converted to UPF format
     Using radial grid of  721 points,  4 beta functions with: 
                l(1) =   0
                l(2) =   0
                l(3) =   1
                l(4) =   1
     Q(r) pseudized with  8 coefficients,  rinner =    0.800   0.800   0.800


     PseudoPot. # 5 for H  read from file:
     /storage/coda1/p-amedford6/0/shared/rich_project_chbe-medford/medford-share/data/pseudos_module/espresso/nninc/pbe/van/H.UPF
     MD5 check sum: b5ee9d7bfd3a09ee7748110bda690ff7
     Pseudo is Ultrasoft, Zval =  1.0
     Generated by new atomic code, or converted to UPF format
     Using radial grid of  615 points,  1 beta functions with: 
                l(1) =   0
     Q(r) pseudized with  8 coefficients,  rinner =    0.800

     atomic species   valence    mass     pseudopotential
        Ti1           12.00    47.86700     Ti( 1.00)
        O1             6.00    15.99900     O ( 1.00)
        N1             5.00    14.00700     N ( 1.00)
        C1             4.00    12.01100     C ( 1.00)
        H1             1.00     1.00800     H ( 1.00)

     No symmetry found



   Cartesian axes

     site n.     atom                  positions (alat units)
         1           Ti1 tau(   1) = (   0.0004258   2.9801865   6.0000000  )
         2           Ti1 tau(   2) = (   3.2906075   1.4906267   6.0002472  )
         3           O1  tau(   3) = (   0.0006271   0.0005054   7.9858123  )
         4           O1  tau(   4) = (   3.2906025   0.0005020   7.3038282  )
         5           O1  tau(   5) = (   4.5942328   1.4918067   9.2879030  )
         6           O1  tau(   6) = (   1.9868534   1.4903216   9.2879459  )
         7           Ti1 tau(   7) = (   3.2907910   2.8959150   9.1758416  )
         8           Ti1 tau(   8) = (   0.0015273   1.4827037   9.2680791  )
         9           O1  tau(   9) = (   3.3049783   5.9490022  11.2668993  )
        10           O1  tau(  10) = (   0.0116148   5.9584955  10.6183126  )
        11           O1  tau(  11) = (   1.3054562   1.4902858  12.6165390  )
        12           O1  tau(  12) = (   5.3128925   1.4966897  12.6222362  )
        13           Ti1 tau(  13) = (   0.0227526   2.8513963  12.7011302  )
        14           Ti1 tau(  14) = (   3.3146314   1.3157910  12.6511296  )
        15           O1  tau(  15) = (   0.0292331   0.0037381  14.6451560  )
        16           O1  tau(  16) = (   3.3105559   0.0332628  13.8611824  )
        17           O1  tau(  17) = (   4.5798417   1.5533887  16.0574704  )
        18           O1  tau(  18) = (   2.0659959   1.5620864  16.0379710  )
        19           Ti1 tau(  19) = (   3.3199680   3.0150018  15.6455324  )
        20           Ti1 tau(  20) = (   6.5662113   1.5085715  15.8767718  )
        21           O1  tau(  21) = (   3.2904802   0.0005063   4.7018136  )
        22           O1  tau(  22) = (   0.0336757   0.0283057  17.1922241  )
        23           O1  tau(  23) = (   1.3043587   1.4918075   6.0039043  )
        24           O1  tau(  24) = (   5.2767064   1.4903225   6.0039473  )
        25           Ti1 tau(  25) = (   0.0000382   5.9609847   6.0000000  )
        26           Ti1 tau(  26) = (   3.2902200   4.4714249   6.0002472  )
        27           O1  tau(  27) = (   0.0002396   2.9813036   7.9858123  )
        28           O1  tau(  28) = (   3.2902150   2.9813002   7.3038282  )
        29           O1  tau(  29) = (   4.5938453   4.4726049   9.2879030  )
        30           O1  tau(  30) = (   1.9864658   4.4711199   9.2879459  )
        31           Ti1 tau(  31) = (   3.2891106   5.8743827   9.1763621  )
        32           Ti1 tau(  32) = (   0.0006254   4.4649316   9.2693709  )
        33           O1  tau(  33) = (   3.3044035   3.0314990  11.2389097  )
        34           O1  tau(  34) = (   0.0092240   2.9805883  10.6323155  )
        35           O1  tau(  35) = (   1.3090660   4.4724101  12.6204063  )
        36           O1  tau(  36) = (   5.3093727   4.4739031  12.6240458  )
        37           Ti1 tau(  37) = (   0.0315986   5.8296340  12.6341251  )
        38           Ti1 tau(  38) = (   3.3217628   4.4127071  12.4104736  )
        39           O1  tau(  39) = (   0.0286309   2.9529265  14.6620113  )
        40           O1  tau(  40) = (   3.3111648   2.9942334  13.8608864  )
        41           O1  tau(  41) = (   4.5850423   4.4544105  16.0703757  )
        42           O1  tau(  42) = (   2.0817017   4.4739285  16.0881885  )
        43           Ti1 tau(  43) = (   3.2564312   0.0343949  16.3346327  )
        44           Ti1 tau(  44) = (   6.5491996   4.6347227  16.0815441  )
        45           O1  tau(  45) = (   3.2900926   2.9813045   4.7018136  )
        46           O1  tau(  46) = (   1.3039711   4.4726057   6.0039043  )
        47           O1  tau(  47) = (   5.2763189   4.4711207   6.0039473  )
        48           N1  tau(  48) = (   0.0476609   2.9608057  17.4046342  )
        49           C1  tau(  49) = (   0.0744360   2.8714357  18.6596517  )
        50           H1  tau(  50) = (   0.0810575   3.7616739  19.3027278  )
        51           H1  tau(  51) = (   0.0872865   1.8968143  19.1621030  )
        52           O1  tau(  52) = (   3.2917830   0.0472188  18.1605702  )
        53           H1  tau(  53) = (   2.8914424   5.3141097  18.6896264  )

     number of k points=    10  Fermi-Dirac smearing, width (Ry)=  0.0073
                       cart. coord. in units 2pi/alat
        k(    1) = (   0.0000000   0.0000000   0.0000000), wk =   0.1250000
        k(    2) = (   0.0000000   0.0419351   0.0000000), wk =   0.2500000
        k(    3) = (   0.0000000  -0.0838702   0.0000000), wk =   0.1250000
        k(    4) = (   0.0379955   0.0000049   0.0000000), wk =   0.2500000
        k(    5) = (   0.0379955   0.0419400   0.0000000), wk =   0.2500000
        k(    6) = (   0.0379955  -0.0838652   0.0000000), wk =   0.2500000
        k(    7) = (   0.0379955  -0.0419301   0.0000000), wk =   0.2500000
        k(    8) = (  -0.0759910  -0.0000099   0.0000000), wk =   0.1250000
        k(    9) = (  -0.0759910   0.0419252   0.0000000), wk =   0.2500000
        k(   10) = (  -0.0759910  -0.0838800   0.0000000), wk =   0.1250000

     Dense  grid:   566857 G-vectors     FFT dimensions: (  72,  64, 270)

     Smooth grid:   143421 G-vectors     FFT dimensions: (  45,  40, 180)

     Estimated max dynamical RAM per process >     366.30 MB

     Estimated total dynamical RAM >       3.58 GB
     Cannot read rho : file not found

     Initial potential from superposition of free atoms

     starting charge  379.99917, renormalised to  396.00000

     negative rho (up, down):  1.694E-02 0.000E+00


     %%%%%%%%%%%%%%%%%%%%%%%%%%%%%%%%%%%%%%%%%%%%%%%%%%%%%%%%%%%%%%%%%%%%%%%%
     %                                                                      %
     % You are using vdW-DF, which was implemented by the Thonhauser group. %
     % Please cite the following two papers that made this development      %
     % possible and the two reviews that describe the various versions:     %
     %                                                                      %
     %   T. Thonhauser et al., PRL 115, 136402 (2015).                      %
     %   T. Thonhauser et al., PRB 76, 125112 (2007).                       %
     %   K. Berland et al., Rep. Prog. Phys. 78, 066501 (2015).             %
     %   D.C. Langreth et al., J. Phys.: Condens. Matter 21, 084203 (2009). %
     %                                                                      %
     %                                                                      %
     % If you are calculating the stress with vdW-DF, please also cite:     %
     %                                                                      %
     %   R. Sabatini et al., J. Phys.: Condens. Matter 24, 424209 (2012).   %
     %                                                                      %
     %%%%%%%%%%%%%%%%%%%%%%%%%%%%%%%%%%%%%%%%%%%%%%%%%%%%%%%%%%%%%%%%%%%%%%%%


 
     Adding external electric field

     Computed dipole along edir(3) : 
        Dipole               -7.7051 Ry au,        -19.5845 Debye
        Dipole field         -0.0145 Ry au, 
 
        Potential amp.        1.3479 Ry
        Total length         46.3494 bohr
 
     Starting wfcs are  299 atomic wfcs
  @ DRIVER MODE: Message from server: STATUS
  @ DRIVER MODE: Message from server: POSDATA
  @ DRIVER MODE: Reading and sharing cell 
  @ DRIVER MODE: Reading and sharing positions 
  @ DRIVER MODE: Received positions 

     total cpu time spent up to now is       11.2 secs

     Self-consistent Calculation

     iteration #  1     ecut=    29.40 Ry     beta= 0.05
     Davidson diagonalization with overlap
     c_bands:  1 eigenvalues not converged
     c_bands:  4 eigenvalues not converged
     c_bands:  2 eigenvalues not converged
     c_bands:  3 eigenvalues not converged
     c_bands:  2 eigenvalues not converged
     c_bands:  3 eigenvalues not converged
     c_bands:  2 eigenvalues not converged
     ethr =  1.00E-05,  avg # of iterations = 19.5

     negative rho (up, down):  1.507E-02 0.000E+00
 
     Adding external electric field

     Computed dipole along edir(3) : 
        Dipole               36.7006 Ry au,         93.2836 Debye
        Dipole field          0.0693 Ry au, 
 
        Potential amp.       -6.4202 Ry
        Total length         46.3494 bohr
 

     total cpu time spent up to now is       51.3 secs

     total energy              =   -2658.45184830 Ry
     estimated scf accuracy    <    3232.56458322 Ry

     iteration #  2     ecut=    29.40 Ry     beta= 0.05
     Davidson diagonalization with overlap
     c_bands:  5 eigenvalues not converged
     c_bands:  5 eigenvalues not converged
     ethr =  1.00E-02,  avg # of iterations = 21.0

     negative rho (up, down):  5.542E-03 0.000E+00
 
     Adding external electric field

     Computed dipole along edir(3) : 
        Dipole               -2.5883 Ry au,         -6.5787 Debye
        Dipole field         -0.0049 Ry au, 
 
        Potential amp.        0.4528 Ry
        Total length         46.3494 bohr
 

     total cpu time spent up to now is      118.1 secs

     total energy              =   -2466.63094156 Ry
     estimated scf accuracy    <   64423.24915364 Ry

     iteration #  3     ecut=    29.40 Ry     beta= 0.05
     Davidson diagonalization with overlap
     ethr =  1.00E-02,  avg # of iterations = 14.6

     negative rho (up, down):  5.618E-03 0.000E+00
 
     Adding external electric field

     Computed dipole along edir(3) : 
        Dipole               -4.5536 Ry au,        -11.5740 Debye
        Dipole field         -0.0086 Ry au, 
 
        Potential amp.        0.7966 Ry
        Total length         46.3494 bohr
 

     total cpu time spent up to now is      162.7 secs

     total energy              =   -2927.90270625 Ry
     estimated scf accuracy    <    3555.97127558 Ry

     iteration #  4     ecut=    29.40 Ry     beta= 0.05
     Davidson diagonalization with overlap
     c_bands:  2 eigenvalues not converged
     c_bands:  3 eigenvalues not converged
     c_bands:  3 eigenvalues not converged
     c_bands:  1 eigenvalues not converged
     c_bands:  2 eigenvalues not converged
     c_bands:  2 eigenvalues not converged
     ethr =  1.00E-02,  avg # of iterations = 18.4

     negative rho (up, down):  5.635E-03 0.000E+00
 
     Adding external electric field

     Computed dipole along edir(3) : 
        Dipole               -5.1293 Ry au,        -13.0374 Debye
        Dipole field         -0.0097 Ry au, 
 
        Potential amp.        0.8973 Ry
        Total length         46.3494 bohr
 

     total cpu time spent up to now is      184.4 secs

     total energy              =   -2949.47527210 Ry
     estimated scf accuracy    <     217.76714007 Ry

     iteration #  5     ecut=    29.40 Ry     beta= 0.05
     Davidson diagonalization with overlap
     ethr =  1.00E-02,  avg # of iterations =  3.5

     negative rho (up, down):  5.620E-03 0.000E+00
 
     Adding external electric field

     Computed dipole along edir(3) : 
        Dipole               -5.3580 Ry au,        -13.6186 Debye
        Dipole field         -0.0101 Ry au, 
 
        Potential amp.        0.9373 Ry
        Total length         46.3494 bohr
 

     total cpu time spent up to now is      195.4 secs

     total energy              =   -2949.39647130 Ry
     estimated scf accuracy    <     147.66637320 Ry

     iteration #  6     ecut=    29.40 Ry     beta= 0.05
     Davidson diagonalization with overlap
     ethr =  1.00E-02,  avg # of iterations =  1.4

     negative rho (up, down):  5.983E-03 0.000E+00
 
     Adding external electric field

     Computed dipole along edir(3) : 
        Dipole               -7.7069 Ry au,        -19.5889 Debye
        Dipole field         -0.0145 Ry au, 
 
        Potential amp.        1.3482 Ry
        Total length         46.3494 bohr
 

     total cpu time spent up to now is      205.5 secs

     total energy              =   -2939.31157525 Ry
     estimated scf accuracy    <     147.31319296 Ry

     iteration #  7     ecut=    29.40 Ry     beta= 0.05
     Davidson diagonalization with overlap
     ethr =  1.00E-02,  avg # of iterations =  7.0

     negative rho (up, down):  4.863E-03 0.000E+00
 
     Adding external electric field

     Computed dipole along edir(3) : 
        Dipole               -6.7914 Ry au,        -17.2620 Debye
        Dipole field         -0.0128 Ry au, 
 
        Potential amp.        1.1881 Ry
        Total length         46.3494 bohr
 

     total cpu time spent up to now is      223.7 secs

     total energy              =   -2953.57360543 Ry
     estimated scf accuracy    <     545.84414596 Ry

     iteration #  8     ecut=    29.40 Ry     beta= 0.05
     Davidson diagonalization with overlap
     ethr =  1.00E-02,  avg # of iterations =  1.7

     negative rho (up, down):  4.900E-03 0.000E+00
 
     Adding external electric field

     Computed dipole along edir(3) : 
        Dipole               -6.9142 Ry au,        -17.5740 Debye
        Dipole field         -0.0130 Ry au, 
 
        Potential amp.        1.2095 Ry
        Total length         46.3494 bohr
 

     total cpu time spent up to now is      234.2 secs

     total energy              =   -2955.17642135 Ry
     estimated scf accuracy    <     160.25971522 Ry

     iteration #  9     ecut=    29.40 Ry     beta= 0.05
     Davidson diagonalization with overlap
     ethr =  1.00E-02,  avg # of iterations =  1.0

     negative rho (up, down):  1.007E-02 0.000E+00
 
     Adding external electric field

     Computed dipole along edir(3) : 
        Dipole               -6.8108 Ry au,        -17.3112 Debye
        Dipole field         -0.0129 Ry au, 
 
        Potential amp.        1.1914 Ry
        Total length         46.3494 bohr
 

     total cpu time spent up to now is      244.1 secs

     total energy              =   -2954.40787996 Ry
     estimated scf accuracy    <     225.95360792 Ry

     iteration # 10     ecut=    29.40 Ry     beta= 0.05
     Davidson diagonalization with overlap
     ethr =  1.00E-02,  avg # of iterations =  1.0

     negative rho (up, down):  2.369E-02 0.000E+00
 
     Adding external electric field

     Computed dipole along edir(3) : 
        Dipole               -7.5063 Ry au,        -19.0792 Debye
        Dipole field         -0.0142 Ry au, 
 
        Potential amp.        1.3131 Ry
        Total length         46.3494 bohr
 

     total cpu time spent up to now is      254.0 secs

     total energy              =   -2956.37839411 Ry
     estimated scf accuracy    <     157.03644255 Ry

     iteration # 11     ecut=    29.40 Ry     beta= 0.05
     Davidson diagonalization with overlap
     ethr =  1.00E-02,  avg # of iterations =  1.0

     negative rho (up, down):  4.933E-02 0.000E+00
 
     Adding external electric field

     Computed dipole along edir(3) : 
        Dipole               -6.8195 Ry au,        -17.3335 Debye
        Dipole field         -0.0129 Ry au, 
 
        Potential amp.        1.1930 Ry
        Total length         46.3494 bohr
 

     total cpu time spent up to now is      264.0 secs

     total energy              =   -2954.98210515 Ry
     estimated scf accuracy    <     552.62521478 Ry

     iteration # 12     ecut=    29.40 Ry     beta= 0.05
     Davidson diagonalization with overlap
     ethr =  1.00E-02,  avg # of iterations =  1.2

     negative rho (up, down):  1.747E-01 0.000E+00
 
     Adding external electric field

     Computed dipole along edir(3) : 
        Dipole               -5.9301 Ry au,        -15.0729 Debye
        Dipole field         -0.0112 Ry au, 
 
        Potential amp.        1.0374 Ry
        Total length         46.3494 bohr
 

     total cpu time spent up to now is      274.0 secs

     total energy              =   -2951.63111703 Ry
     estimated scf accuracy    <     337.38141868 Ry

     iteration # 13     ecut=    29.40 Ry     beta= 0.05
     Davidson diagonalization with overlap
     ethr =  1.00E-02,  avg # of iterations =  1.2

     negative rho (up, down):  2.106E-01 0.000E+00
 
     Adding external electric field

     Computed dipole along edir(3) : 
        Dipole               -5.2273 Ry au,        -13.2866 Debye
        Dipole field         -0.0099 Ry au, 
 
        Potential amp.        0.9144 Ry
        Total length         46.3494 bohr
 

     total cpu time spent up to now is      284.0 secs

     total energy              =   -2951.47815787 Ry
     estimated scf accuracy    <      53.38848398 Ry

     iteration # 14     ecut=    29.40 Ry     beta= 0.05
     Davidson diagonalization with overlap
     ethr =  1.00E-02,  avg # of iterations =  1.6

     negative rho (up, down):  2.295E-01 0.000E+00
 
     Adding external electric field

     Computed dipole along edir(3) : 
        Dipole               -4.8796 Ry au,        -12.4028 Debye
        Dipole field         -0.0092 Ry au, 
 
        Potential amp.        0.8536 Ry
        Total length         46.3494 bohr
 

     total cpu time spent up to now is      294.1 secs

     total energy              =   -2951.56595809 Ry
     estimated scf accuracy    <      24.02560760 Ry

     iteration # 15     ecut=    29.40 Ry     beta= 0.05
     Davidson diagonalization with overlap
     ethr =  6.07E-03,  avg # of iterations =  1.1

     negative rho (up, down):  3.230E-01 0.000E+00
 
     Adding external electric field

     Computed dipole along edir(3) : 
        Dipole               -3.5818 Ry au,         -9.1040 Debye
        Dipole field         -0.0068 Ry au, 
 
        Potential amp.        0.6266 Ry
        Total length         46.3494 bohr
 

     total cpu time spent up to now is      304.1 secs

     total energy              =   -2950.67994271 Ry
     estimated scf accuracy    <      21.33981153 Ry

     iteration # 16     ecut=    29.40 Ry     beta= 0.05
     Davidson diagonalization with overlap
     ethr =  5.39E-03,  avg # of iterations =  8.3

     negative rho (up, down):  3.104E-01 0.000E+00
 
     Adding external electric field

     Computed dipole along edir(3) : 
        Dipole               -3.5642 Ry au,         -9.0593 Debye
        Dipole field         -0.0067 Ry au, 
 
        Potential amp.        0.6235 Ry
        Total length         46.3494 bohr
 

     total cpu time spent up to now is      316.6 secs

     total energy              =   -2951.60455785 Ry
     estimated scf accuracy    <       1.79241690 Ry

     iteration # 17     ecut=    29.40 Ry     beta= 0.05
     Davidson diagonalization with overlap
     c_bands:  1 eigenvalues not converged
     c_bands:  1 eigenvalues not converged
     ethr =  4.53E-04,  avg # of iterations = 17.2

     negative rho (up, down):  2.665E-01 0.000E+00
 
     Adding external electric field

     Computed dipole along edir(3) : 
        Dipole               -2.7201 Ry au,         -6.9138 Debye
        Dipole field         -0.0051 Ry au, 
 
        Potential amp.        0.4758 Ry
        Total length         46.3494 bohr
 

     total cpu time spent up to now is      335.0 secs

     total energy              =   -2951.68400603 Ry
     estimated scf accuracy    <       1.56581502 Ry

     iteration # 18     ecut=    29.40 Ry     beta= 0.05
     Davidson diagonalization with overlap
     ethr =  3.95E-04,  avg # of iterations =  3.8

     negative rho (up, down):  2.368E-01 0.000E+00
 
     Adding external electric field

     Computed dipole along edir(3) : 
        Dipole               -0.4053 Ry au,         -1.0301 Debye
        Dipole field         -0.0008 Ry au, 
 
        Potential amp.        0.0709 Ry
        Total length         46.3494 bohr
 

     total cpu time spent up to now is      346.3 secs

     total energy              =   -2951.62895782 Ry
     estimated scf accuracy    <       1.22759129 Ry

     iteration # 19     ecut=    29.40 Ry     beta= 0.05
     Davidson diagonalization with overlap
     c_bands:  4 eigenvalues not converged
     c_bands:  2 eigenvalues not converged
     c_bands:  5 eigenvalues not converged
     c_bands:  2 eigenvalues not converged
     c_bands:  3 eigenvalues not converged
     c_bands:  2 eigenvalues not converged
     c_bands:  2 eigenvalues not converged
     c_bands:  1 eigenvalues not converged
     ethr =  3.10E-04,  avg # of iterations = 19.9

     negative rho (up, down):  2.346E-01 0.000E+00
 
     Adding external electric field

     Computed dipole along edir(3) : 
        Dipole               -0.3128 Ry au,         -0.7949 Debye
        Dipole field         -0.0006 Ry au, 
 
        Potential amp.        0.0547 Ry
        Total length         46.3494 bohr
 

     total cpu time spent up to now is      369.3 secs

     total energy              =   -2953.80819833 Ry
     estimated scf accuracy    <     243.65277963 Ry

     iteration # 20     ecut=    29.40 Ry     beta= 0.05
     Davidson diagonalization with overlap
     ethr =  3.10E-04,  avg # of iterations =  8.0

     negative rho (up, down):  2.366E-01 0.000E+00
 
     Adding external electric field

     Computed dipole along edir(3) : 
        Dipole               -0.5915 Ry au,         -1.5034 Debye
        Dipole field         -0.0011 Ry au, 
 
        Potential amp.        0.1035 Ry
        Total length         46.3494 bohr
 

     total cpu time spent up to now is      381.7 secs

     total energy              =   -2953.23628337 Ry
     estimated scf accuracy    <     256.85905539 Ry

     iteration # 21     ecut=    29.40 Ry     beta= 0.05
     Davidson diagonalization with overlap
     ethr =  3.10E-04,  avg # of iterations =  1.3

     negative rho (up, down):  2.355E-01 0.000E+00
 
     Adding external electric field

     Computed dipole along edir(3) : 
        Dipole               -0.5040 Ry au,         -1.2809 Debye
        Dipole field         -0.0010 Ry au, 
 
        Potential amp.        0.0882 Ry
        Total length         46.3494 bohr
 

     total cpu time spent up to now is      391.8 secs

     total energy              =   -2953.31074782 Ry
     estimated scf accuracy    <     232.84162330 Ry

     iteration # 22     ecut=    29.40 Ry     beta= 0.05
     Davidson diagonalization with overlap
     ethr =  3.10E-04,  avg # of iterations =  1.1

     negative rho (up, down):  2.504E-01 0.000E+00
 
     Adding external electric field

     Computed dipole along edir(3) : 
        Dipole               -0.9629 Ry au,         -2.4476 Debye
        Dipole field         -0.0018 Ry au, 
 
        Potential amp.        0.1685 Ry
        Total length         46.3494 bohr
 

     total cpu time spent up to now is      401.8 secs

     total energy              =   -2952.46164565 Ry
     estimated scf accuracy    <     236.17737178 Ry

     iteration # 23     ecut=    29.40 Ry     beta= 0.05
     Davidson diagonalization with overlap
     ethr =  3.10E-04,  avg # of iterations =  3.5

     negative rho (up, down):  2.397E-01 0.000E+00
 
     Adding external electric field

     Computed dipole along edir(3) : 
        Dipole               -2.0303 Ry au,         -5.1606 Debye
        Dipole field         -0.0038 Ry au, 
 
        Potential amp.        0.3552 Ry
        Total length         46.3494 bohr
 

     total cpu time spent up to now is      412.7 secs

     total energy              =   -2950.21122012 Ry
     estimated scf accuracy    <     193.72074902 Ry

     iteration # 24     ecut=    29.40 Ry     beta= 0.05
     Davidson diagonalization with overlap
     ethr =  3.10E-04,  avg # of iterations = 14.0

     negative rho (up, down):  2.396E-01 0.000E+00
 
     Adding external electric field

     Computed dipole along edir(3) : 
        Dipole               -2.2715 Ry au,         -5.7736 Debye
        Dipole field         -0.0043 Ry au, 
 
        Potential amp.        0.3974 Ry
        Total length         46.3494 bohr
 

     total cpu time spent up to now is      431.5 secs

     total energy              =   -2951.58602998 Ry
     estimated scf accuracy    <       1.09963672 Ry

     iteration # 25     ecut=    29.40 Ry     beta= 0.05
     Davidson diagonalization with overlap
     ethr =  2.78E-04,  avg # of iterations =  1.6

     negative rho (up, down):  1.231E-01 0.000E+00
 
     Adding external electric field

     Computed dipole along edir(3) : 
        Dipole               -0.5427 Ry au,         -1.3795 Debye
        Dipole field         -0.0010 Ry au, 
 
        Potential amp.        0.0949 Ry
        Total length         46.3494 bohr
 

     total cpu time spent up to now is      441.9 secs

     total energy              =   -2951.45933178 Ry
     estimated scf accuracy    <       0.75639234 Ry

     iteration # 26     ecut=    29.40 Ry     beta= 0.05
     Davidson diagonalization with overlap
     ethr =  1.91E-04,  avg # of iterations = 15.3

     negative rho (up, down):  1.339E-01 0.000E+00
 
     Adding external electric field

     Computed dipole along edir(3) : 
        Dipole               -0.6346 Ry au,         -1.6130 Debye
        Dipole field         -0.0012 Ry au, 
 
        Potential amp.        0.1110 Ry
        Total length         46.3494 bohr
 

     total cpu time spent up to now is      463.1 secs

     total energy              =   -2951.54911377 Ry
     estimated scf accuracy    <       0.93021028 Ry

     iteration # 27     ecut=    29.40 Ry     beta= 0.05
     Davidson diagonalization with overlap
     ethr =  1.91E-04,  avg # of iterations =  2.1

     negative rho (up, down):  1.339E-01 0.000E+00
 
     Adding external electric field

     Computed dipole along edir(3) : 
        Dipole               -0.5303 Ry au,         -1.3478 Debye
        Dipole field         -0.0010 Ry au, 
 
        Potential amp.        0.0928 Ry
        Total length         46.3494 bohr
 

     total cpu time spent up to now is      473.8 secs

     total energy              =   -2951.47116564 Ry
     estimated scf accuracy    <       0.64467425 Ry

     iteration # 28     ecut=    29.40 Ry     beta= 0.05
     Davidson diagonalization with overlap
     ethr =  1.63E-04,  avg # of iterations = 13.2

     negative rho (up, down):  8.963E-02 0.000E+00
 
     Adding external electric field

     Computed dipole along edir(3) : 
        Dipole               -0.0021 Ry au,         -0.0053 Debye
        Dipole field         -0.0000 Ry au, 
 
        Potential amp.        0.0004 Ry
        Total length         46.3494 bohr
 

     total cpu time spent up to now is      493.4 secs

     total energy              =   -2951.52435748 Ry
     estimated scf accuracy    <       0.69004268 Ry

     iteration # 29     ecut=    29.40 Ry     beta= 0.05
     Davidson diagonalization with overlap
     ethr =  1.63E-04,  avg # of iterations =  1.6

     negative rho (up, down):  4.599E-02 0.000E+00
 
     Adding external electric field

     Computed dipole along edir(3) : 
        Dipole                0.5853 Ry au,          1.4877 Debye
        Dipole field          0.0011 Ry au, 
 
        Potential amp.       -0.1024 Ry
        Total length         46.3494 bohr
 

     total cpu time spent up to now is      503.8 secs

     total energy              =   -2951.47786717 Ry
     estimated scf accuracy    <       0.42619901 Ry

     iteration # 30     ecut=    29.40 Ry     beta= 0.05
     Davidson diagonalization with overlap
     ethr =  1.08E-04,  avg # of iterations = 13.9

     negative rho (up, down):  4.673E-02 0.000E+00
 
     Adding external electric field

     Computed dipole along edir(3) : 
        Dipole                0.4153 Ry au,          1.0555 Debye
        Dipole field          0.0008 Ry au, 
 
        Potential amp.       -0.0726 Ry
        Total length         46.3494 bohr
 

     total cpu time spent up to now is      521.5 secs

     total energy              =   -2951.51577746 Ry
     estimated scf accuracy    <       0.34140206 Ry

     iteration # 31     ecut=    29.40 Ry     beta= 0.05
     Davidson diagonalization with overlap
     ethr =  8.62E-05,  avg # of iterations =  5.4

     negative rho (up, down):  2.426E-02 0.000E+00
 
     Adding external electric field

     Computed dipole along edir(3) : 
        Dipole                0.5939 Ry au,          1.5095 Debye
        Dipole field          0.0011 Ry au, 
 
        Potential amp.       -0.1039 Ry
        Total length         46.3494 bohr
 

     total cpu time spent up to now is      533.3 secs

     total energy              =   -2951.50870583 Ry
     estimated scf accuracy    <       0.22076336 Ry

     iteration # 32     ecut=    29.40 Ry     beta= 0.05
     Davidson diagonalization with overlap
     c_bands:  2 eigenvalues not converged
     c_bands:  1 eigenvalues not converged
     c_bands:  2 eigenvalues not converged
     c_bands:  3 eigenvalues not converged
     c_bands:  1 eigenvalues not converged
     c_bands:  3 eigenvalues not converged
     c_bands:  5 eigenvalues not converged
     ethr =  5.57E-05,  avg # of iterations = 15.4

     negative rho (up, down):  1.963E-02 0.000E+00
 
     Adding external electric field

     Computed dipole along edir(3) : 
        Dipole                0.5721 Ry au,          1.4541 Debye
        Dipole field          0.0011 Ry au, 
 
        Potential amp.       -0.1001 Ry
        Total length         46.3494 bohr
 

     total cpu time spent up to now is      549.0 secs

     total energy              =   -2951.50622206 Ry
     estimated scf accuracy    <       0.12658363 Ry

     iteration # 33     ecut=    29.40 Ry     beta= 0.05
     Davidson diagonalization with overlap
     c_bands:  2 eigenvalues not converged
     c_bands:  2 eigenvalues not converged
     c_bands:  3 eigenvalues not converged
     c_bands:  1 eigenvalues not converged
     c_bands:  4 eigenvalues not converged
     c_bands:  5 eigenvalues not converged
     c_bands:  3 eigenvalues not converged
     ethr =  3.20E-05,  avg # of iterations = 19.0

     negative rho (up, down):  2.187E-02 0.000E+00
 
     Adding external electric field

     Computed dipole along edir(3) : 
        Dipole                0.5050 Ry au,          1.2835 Debye
        Dipole field          0.0010 Ry au, 
 
        Potential amp.       -0.0883 Ry
        Total length         46.3494 bohr
 

     total cpu time spent up to now is      567.6 secs

     total energy              =   -2951.51293525 Ry
     estimated scf accuracy    <       0.07710259 Ry

     iteration # 34     ecut=    29.40 Ry     beta= 0.05
     Davidson diagonalization with overlap
     c_bands:  1 eigenvalues not converged
     ethr =  1.95E-05,  avg # of iterations =  8.5

     negative rho (up, down):  3.708E-02 0.000E+00
 
     Adding external electric field

     Computed dipole along edir(3) : 
        Dipole                0.1194 Ry au,          0.3034 Debye
        Dipole field          0.0002 Ry au, 
 
        Potential amp.       -0.0209 Ry
        Total length         46.3494 bohr
 

     total cpu time spent up to now is      580.1 secs

     total energy              =   -2951.49898054 Ry
     estimated scf accuracy    <       0.07338444 Ry

     iteration # 35     ecut=    29.40 Ry     beta= 0.05
     Davidson diagonalization with overlap
     c_bands:  1 eigenvalues not converged
     c_bands:  1 eigenvalues not converged
     c_bands:  3 eigenvalues not converged
     c_bands:  1 eigenvalues not converged
     c_bands:  3 eigenvalues not converged
     c_bands:  1 eigenvalues not converged
     ethr =  1.85E-05,  avg # of iterations = 17.4

     negative rho (up, down):  1.628E-02 0.000E+00
 
     Adding external electric field

     Computed dipole along edir(3) : 
        Dipole                0.2841 Ry au,          0.7221 Debye
        Dipole field          0.0005 Ry au, 
 
        Potential amp.       -0.0497 Ry
        Total length         46.3494 bohr
 

     total cpu time spent up to now is      598.7 secs

     total energy              =   -2951.49414003 Ry
     estimated scf accuracy    <       0.04462775 Ry

     iteration # 36     ecut=    29.40 Ry     beta= 0.05
     Davidson diagonalization with overlap
     c_bands:  1 eigenvalues not converged
     c_bands:  1 eigenvalues not converged
     c_bands:  2 eigenvalues not converged
     c_bands:  2 eigenvalues not converged
     c_bands:  1 eigenvalues not converged
     c_bands:  1 eigenvalues not converged
     c_bands:  2 eigenvalues not converged
     ethr =  1.13E-05,  avg # of iterations = 18.3

     negative rho (up, down):  1.560E-02 0.000E+00
 
     Adding external electric field

     Computed dipole along edir(3) : 
        Dipole                0.3596 Ry au,          0.9141 Debye
        Dipole field          0.0007 Ry au, 
 
        Potential amp.       -0.0629 Ry
        Total length         46.3494 bohr
 

     total cpu time spent up to now is      619.1 secs

     total energy              =   -2951.50685269 Ry
     estimated scf accuracy    <       0.03409316 Ry

     iteration # 37     ecut=    29.40 Ry     beta= 0.05
     Davidson diagonalization with overlap
     c_bands:  1 eigenvalues not converged
     ethr =  8.61E-06,  avg # of iterations =  6.2

     negative rho (up, down):  2.106E-02 0.000E+00
 
     Adding external electric field

     Computed dipole along edir(3) : 
        Dipole                0.2195 Ry au,          0.5578 Debye
        Dipole field          0.0004 Ry au, 
 
        Potential amp.       -0.0384 Ry
        Total length         46.3494 bohr
 

     total cpu time spent up to now is      630.5 secs

     total energy              =   -2951.49811548 Ry
     estimated scf accuracy    <       0.02651001 Ry

     iteration # 38     ecut=    29.40 Ry     beta= 0.05
     Davidson diagonalization with overlap
     c_bands:  1 eigenvalues not converged
     c_bands:  1 eigenvalues not converged
     ethr =  6.69E-06,  avg # of iterations = 11.7

     negative rho (up, down):  1.772E-02 0.000E+00
 
     Adding external electric field

     Computed dipole along edir(3) : 
        Dipole                0.2832 Ry au,          0.7199 Debye
        Dipole field          0.0005 Ry au, 
 
        Potential amp.       -0.0495 Ry
        Total length         46.3494 bohr
 

     total cpu time spent up to now is      648.6 secs

     total energy              =   -2951.50325254 Ry
     estimated scf accuracy    <       0.00912823 Ry

     iteration # 39     ecut=    29.40 Ry     beta= 0.05
     Davidson diagonalization with overlap
     c_bands:  2 eigenvalues not converged
     c_bands:  1 eigenvalues not converged
     ethr =  2.31E-06,  avg # of iterations = 10.7

     negative rho (up, down):  1.634E-02 0.000E+00
 
     Adding external electric field

     Computed dipole along edir(3) : 
        Dipole                0.2810 Ry au,          0.7143 Debye
        Dipole field          0.0005 Ry au, 
 
        Potential amp.       -0.0492 Ry
        Total length         46.3494 bohr
 

     total cpu time spent up to now is      662.7 secs

     total energy              =   -2951.50415935 Ry
     estimated scf accuracy    <       0.00353462 Ry

     iteration # 40     ecut=    29.40 Ry     beta= 0.05
     Davidson diagonalization with overlap
     c_bands:  2 eigenvalues not converged
     ethr =  8.93E-07,  avg # of iterations = 10.7

     negative rho (up, down):  1.649E-02 0.000E+00
 
     Adding external electric field

     Computed dipole along edir(3) : 
        Dipole                0.2752 Ry au,          0.6994 Debye
        Dipole field          0.0005 Ry au, 
 
        Potential amp.       -0.0481 Ry
        Total length         46.3494 bohr
 

     total cpu time spent up to now is      681.3 secs

     total energy              =   -2951.50480297 Ry
     estimated scf accuracy    <       0.00749611 Ry

     iteration # 41     ecut=    29.40 Ry     beta= 0.05
     Davidson diagonalization with overlap
     ethr =  8.93E-07,  avg # of iterations =  1.5

     negative rho (up, down):  1.645E-02 0.000E+00
 
     Adding external electric field

     Computed dipole along edir(3) : 
        Dipole                0.3006 Ry au,          0.7641 Debye
        Dipole field          0.0006 Ry au, 
 
        Potential amp.       -0.0526 Ry
        Total length         46.3494 bohr
 

     total cpu time spent up to now is      691.6 secs

     total energy              =   -2951.50446830 Ry
     estimated scf accuracy    <       0.00452449 Ry

     iteration # 42     ecut=    29.40 Ry     beta= 0.05
     Davidson diagonalization with overlap
     ethr =  8.93E-07,  avg # of iterations =  3.9

     negative rho (up, down):  1.646E-02 0.000E+00
 
     Adding external electric field

     Computed dipole along edir(3) : 
        Dipole                0.3033 Ry au,          0.7710 Debye
        Dipole field          0.0006 Ry au, 
 
        Potential amp.       -0.0531 Ry
        Total length         46.3494 bohr
 

     total cpu time spent up to now is      704.6 secs

     total energy              =   -2951.50477599 Ry
     estimated scf accuracy    <       0.00120214 Ry

     iteration # 43     ecut=    29.40 Ry     beta= 0.05
     Davidson diagonalization with overlap
     ethr =  3.04E-07,  avg # of iterations =  5.0

     negative rho (up, down):  1.693E-02 0.000E+00
 
     Adding external electric field

     Computed dipole along edir(3) : 
        Dipole                0.3125 Ry au,          0.7943 Debye
        Dipole field          0.0006 Ry au, 
 
        Potential amp.       -0.0547 Ry
        Total length         46.3494 bohr
 

     total cpu time spent up to now is      717.8 secs

     total energy              =   -2951.50487707 Ry
     estimated scf accuracy    <       0.00061501 Ry

     iteration # 44     ecut=    29.40 Ry     beta= 0.05
     Davidson diagonalization with overlap
     ethr =  1.55E-07,  avg # of iterations =  5.3

     negative rho (up, down):  1.677E-02 0.000E+00
 
     Adding external electric field

     Computed dipole along edir(3) : 
        Dipole                0.3279 Ry au,          0.8334 Debye
        Dipole field          0.0006 Ry au, 
 
        Potential amp.       -0.0574 Ry
        Total length         46.3494 bohr
 

     total cpu time spent up to now is      735.6 secs

     total energy              =   -2951.50505618 Ry
     estimated scf accuracy    <       0.00157873 Ry

     iteration # 45     ecut=    29.40 Ry     beta= 0.05
     Davidson diagonalization with overlap
     ethr =  1.55E-07,  avg # of iterations =  2.4

     negative rho (up, down):  1.638E-02 0.000E+00
 
     Adding external electric field

     Computed dipole along edir(3) : 
        Dipole                0.3486 Ry au,          0.8861 Debye
        Dipole field          0.0007 Ry au, 
 
        Potential amp.       -0.0610 Ry
        Total length         46.3494 bohr
 

     total cpu time spent up to now is      746.5 secs

     total energy              =   -2951.50479007 Ry
     estimated scf accuracy    <       0.00086430 Ry

     iteration # 46     ecut=    29.40 Ry     beta= 0.05
     Davidson diagonalization with overlap
     ethr =  1.55E-07,  avg # of iterations =  5.6

     negative rho (up, down):  1.647E-02 0.000E+00
 
     Adding external electric field

     Computed dipole along edir(3) : 
        Dipole                0.3493 Ry au,          0.8878 Debye
        Dipole field          0.0007 Ry au, 
 
        Potential amp.       -0.0611 Ry
        Total length         46.3494 bohr
 

     total cpu time spent up to now is      765.9 secs

     total energy              =   -2951.50509290 Ry
     estimated scf accuracy    <       0.00095451 Ry

     iteration # 47     ecut=    29.40 Ry     beta= 0.05
     Davidson diagonalization with overlap
     ethr =  1.55E-07,  avg # of iterations =  1.2

     negative rho (up, down):  1.681E-02 0.000E+00
 
     Adding external electric field

     Computed dipole along edir(3) : 
        Dipole                0.3506 Ry au,          0.8912 Debye
        Dipole field          0.0007 Ry au, 
 
        Potential amp.       -0.0613 Ry
        Total length         46.3494 bohr
 

     total cpu time spent up to now is      776.0 secs

     total energy              =   -2951.50497356 Ry
     estimated scf accuracy    <       0.00047018 Ry

     iteration # 48     ecut=    29.40 Ry     beta= 0.05
     Davidson diagonalization with overlap
     ethr =  1.19E-07,  avg # of iterations =  4.8

     negative rho (up, down):  1.675E-02 0.000E+00
 
     Adding external electric field

     Computed dipole along edir(3) : 
        Dipole                0.3589 Ry au,          0.9122 Debye
        Dipole field          0.0007 Ry au, 
 
        Potential amp.       -0.0628 Ry
        Total length         46.3494 bohr
 

     total cpu time spent up to now is      792.5 secs

     total energy              =   -2951.50517291 Ry
     estimated scf accuracy    <       0.00025240 Ry

     iteration # 49     ecut=    29.40 Ry     beta= 0.05
     Davidson diagonalization with overlap
     ethr =  6.37E-08,  avg # of iterations =  1.2

     negative rho (up, down):  1.673E-02 0.000E+00
 
     Adding external electric field

     Computed dipole along edir(3) : 
        Dipole                0.3637 Ry au,          0.9243 Debye
        Dipole field          0.0007 Ry au, 
 
        Potential amp.       -0.0636 Ry
        Total length         46.3494 bohr
 

     total cpu time spent up to now is      802.5 secs

     total energy              =   -2951.50516840 Ry
     estimated scf accuracy    <       0.00013032 Ry

     iteration # 50     ecut=    29.40 Ry     beta= 0.05
     Davidson diagonalization with overlap
     ethr =  3.29E-08,  avg # of iterations =  3.8

     negative rho (up, down):  1.674E-02 0.000E+00
 
     Adding external electric field

     Computed dipole along edir(3) : 
        Dipole                0.3654 Ry au,          0.9287 Debye
        Dipole field          0.0007 Ry au, 
 
        Potential amp.       -0.0639 Ry
        Total length         46.3494 bohr
 

     total cpu time spent up to now is      815.4 secs

     total energy              =   -2951.50519118 Ry
     estimated scf accuracy    <       0.00003324 Ry

     iteration # 51     ecut=    29.40 Ry     beta= 0.05
     Davidson diagonalization with overlap
     ethr =  8.39E-09,  avg # of iterations =  5.0

     negative rho (up, down):  1.672E-02 0.000E+00
 
     Adding external electric field

     Computed dipole along edir(3) : 
        Dipole                0.3665 Ry au,          0.9315 Debye
        Dipole field          0.0007 Ry au, 
 
        Potential amp.       -0.0641 Ry
        Total length         46.3494 bohr
 

     total cpu time spent up to now is      830.8 secs

     total energy              =   -2951.50521264 Ry
     estimated scf accuracy    <       0.00002257 Ry

     iteration # 52     ecut=    29.40 Ry     beta= 0.05
     Davidson diagonalization with overlap
     ethr =  5.70E-09,  avg # of iterations =  4.1

     negative rho (up, down):  1.673E-02 0.000E+00
 
     Adding external electric field

     Computed dipole along edir(3) : 
        Dipole                0.3653 Ry au,          0.9284 Debye
        Dipole field          0.0007 Ry au, 
 
        Potential amp.       -0.0639 Ry
        Total length         46.3494 bohr
 

     total cpu time spent up to now is      842.9 secs

     total energy              =   -2951.50522466 Ry
     estimated scf accuracy    <       0.00002650 Ry

     iteration # 53     ecut=    29.40 Ry     beta= 0.05
     Davidson diagonalization with overlap
     ethr =  5.70E-09,  avg # of iterations =  2.0

     negative rho (up, down):  1.679E-02 0.000E+00
 
     Adding external electric field

     Computed dipole along edir(3) : 
        Dipole                0.3641 Ry au,          0.9255 Debye
        Dipole field          0.0007 Ry au, 
 
        Potential amp.       -0.0637 Ry
        Total length         46.3494 bohr
 

     total cpu time spent up to now is      853.7 secs

     total energy              =   -2951.50523165 Ry
     estimated scf accuracy    <       0.00002176 Ry

     iteration # 54     ecut=    29.40 Ry     beta= 0.05
     Davidson diagonalization with overlap
     ethr =  5.50E-09,  avg # of iterations =  3.7

     negative rho (up, down):  1.683E-02 0.000E+00
 
     Adding external electric field

     Computed dipole along edir(3) : 
        Dipole                0.3643 Ry au,          0.9261 Debye
        Dipole field          0.0007 Ry au, 
 
        Potential amp.       -0.0637 Ry
        Total length         46.3494 bohr
 

     total cpu time spent up to now is      866.6 secs

     total energy              =   -2951.50524411 Ry
     estimated scf accuracy    <       0.00000638 Ry

     iteration # 55     ecut=    29.40 Ry     beta= 0.05
     Davidson diagonalization with overlap
     ethr =  1.61E-09,  avg # of iterations =  5.0

     negative rho (up, down):  1.684E-02 0.000E+00
 
     Adding external electric field

     Computed dipole along edir(3) : 
        Dipole                0.3648 Ry au,          0.9273 Debye
        Dipole field          0.0007 Ry au, 
 
        Potential amp.       -0.0638 Ry
        Total length         46.3494 bohr
 

     total cpu time spent up to now is      883.7 secs

     total energy              =   -2951.50525257 Ry
     estimated scf accuracy    <       0.00001118 Ry

     iteration # 56     ecut=    29.40 Ry     beta= 0.05
     Davidson diagonalization with overlap
     ethr =  1.61E-09,  avg # of iterations =  4.7

     negative rho (up, down):  1.685E-02 0.000E+00
 
     Adding external electric field

     Computed dipole along edir(3) : 
        Dipole                0.3651 Ry au,          0.9279 Debye
        Dipole field          0.0007 Ry au, 
 
        Potential amp.       -0.0639 Ry
        Total length         46.3494 bohr
 

     total cpu time spent up to now is      898.7 secs

     total energy              =   -2951.50526198 Ry
     estimated scf accuracy    <       0.00000241 Ry

     iteration # 57     ecut=    29.40 Ry     beta= 0.05
     Davidson diagonalization with overlap
     ethr =  6.09E-10,  avg # of iterations =  4.4

     negative rho (up, down):  1.686E-02 0.000E+00
 
     Adding external electric field

     Computed dipole along edir(3) : 
        Dipole                0.3655 Ry au,          0.9289 Debye
        Dipole field          0.0007 Ry au, 
 
        Potential amp.       -0.0639 Ry
        Total length         46.3494 bohr
 

     total cpu time spent up to now is      910.5 secs

     total energy              =   -2951.50526923 Ry
     estimated scf accuracy    <       0.00000161 Ry

     iteration # 58     ecut=    29.40 Ry     beta= 0.05
     Davidson diagonalization with overlap
     ethr =  4.07E-10,  avg # of iterations =  4.9

     negative rho (up, down):  1.689E-02 0.000E+00
 
     Adding external electric field

     Computed dipole along edir(3) : 
        Dipole                0.3651 Ry au,          0.9281 Debye
        Dipole field          0.0007 Ry au, 
 
        Potential amp.       -0.0639 Ry
        Total length         46.3494 bohr
 

     total cpu time spent up to now is      923.5 secs

     total energy              =   -2951.50527589 Ry
     estimated scf accuracy    <       0.00000106 Ry

     iteration # 59     ecut=    29.40 Ry     beta= 0.05
     Davidson diagonalization with overlap
     ethr =  2.66E-10,  avg # of iterations =  4.7

     negative rho (up, down):  1.692E-02 0.000E+00
 
     Adding external electric field

     Computed dipole along edir(3) : 
        Dipole                0.3645 Ry au,          0.9264 Debye
        Dipole field          0.0007 Ry au, 
 
        Potential amp.       -0.0638 Ry
        Total length         46.3494 bohr
 

     total cpu time spent up to now is      936.3 secs

     total energy              =   -2951.50528193 Ry
     estimated scf accuracy    <       0.00000050 Ry

     iteration # 60     ecut=    29.40 Ry     beta= 0.05
     Davidson diagonalization with overlap
     ethr =  1.26E-10,  avg # of iterations =  5.3

     negative rho (up, down):  1.691E-02 0.000E+00
 
     Adding external electric field

     Computed dipole along edir(3) : 
        Dipole                0.3645 Ry au,          0.9265 Debye
        Dipole field          0.0007 Ry au, 
 
        Potential amp.       -0.0638 Ry
        Total length         46.3494 bohr
 

     total cpu time spent up to now is      951.5 secs

     total energy              =   -2951.50528712 Ry
     estimated scf accuracy    <       0.00000089 Ry

     iteration # 61     ecut=    29.40 Ry     beta= 0.05
     Davidson diagonalization with overlap
     ethr =  1.26E-10,  avg # of iterations =  4.4

     negative rho (up, down):  1.693E-02 0.000E+00
 
     Adding external electric field

     Computed dipole along edir(3) : 
        Dipole                0.3640 Ry au,          0.9251 Debye
        Dipole field          0.0007 Ry au, 
 
        Potential amp.       -0.0637 Ry
        Total length         46.3494 bohr
 

     total cpu time spent up to now is      964.3 secs

     total energy              =   -2951.50529197 Ry
     estimated scf accuracy    <       0.00000026 Ry

     iteration # 62     ecut=    29.40 Ry     beta= 0.05
     Davidson diagonalization with overlap
     ethr =  6.69E-11,  avg # of iterations =  4.8

     negative rho (up, down):  1.693E-02 0.000E+00
 
     Adding external electric field

     Computed dipole along edir(3) : 
        Dipole                0.3639 Ry au,          0.9249 Debye
        Dipole field          0.0007 Ry au, 
 
        Potential amp.       -0.0637 Ry
        Total length         46.3494 bohr
 

     total cpu time spent up to now is      980.7 secs

     total energy              =   -2951.50529633 Ry
     estimated scf accuracy    <       0.00000020 Ry

     iteration # 63     ecut=    29.40 Ry     beta= 0.05
     Davidson diagonalization with overlap
     ethr =  5.05E-11,  avg # of iterations =  1.1

     negative rho (up, down):  1.693E-02 0.000E+00
 
     Adding external electric field

     Computed dipole along edir(3) : 
        Dipole                0.3634 Ry au,          0.9235 Debye
        Dipole field          0.0007 Ry au, 
 
        Potential amp.       -0.0636 Ry
        Total length         46.3494 bohr
 

     total cpu time spent up to now is      990.6 secs

     total energy              =   -2951.50530018 Ry
     estimated scf accuracy    <       0.00000016 Ry

     iteration # 64     ecut=    29.40 Ry     beta= 0.05
     Davidson diagonalization with overlap
     ethr =  4.05E-11,  avg # of iterations =  5.7

     negative rho (up, down):  1.694E-02 0.000E+00
 
     Adding external electric field

     Computed dipole along edir(3) : 
        Dipole                0.3630 Ry au,          0.9227 Debye
        Dipole field          0.0007 Ry au, 
 
        Potential amp.       -0.0635 Ry
        Total length         46.3494 bohr
 

     total cpu time spent up to now is     1008.2 secs

     total energy              =   -2951.50530373 Ry
     estimated scf accuracy    <       0.00000023 Ry

     iteration # 65     ecut=    29.40 Ry     beta= 0.05
     Davidson diagonalization with overlap
     ethr =  4.05E-11,  avg # of iterations =  5.0

     negative rho (up, down):  1.701E-02 0.000E+00
 
     Adding external electric field

     Computed dipole along edir(3) : 
        Dipole                0.3623 Ry au,          0.9210 Debye
        Dipole field          0.0007 Ry au, 
 
        Potential amp.       -0.0634 Ry
        Total length         46.3494 bohr
 

     total cpu time spent up to now is     1023.0 secs

     End of self-consistent calculation

          k = 0.0000 0.0000 0.0000 ( 18029 PWs)   bands (ev):

   -56.8877 -56.8541 -56.0109 -55.9751 -55.7626 -55.6987 -55.5466 -55.4464
   -55.4125 -55.3933 -55.3297 -55.3064 -55.2776 -55.2586 -55.0767 -55.0129
   -33.3077 -33.1611 -33.1330 -33.0651 -32.9748 -32.9346 -32.4941 -32.2402
   -32.2314 -32.2030 -32.1511 -32.1487 -32.1222 -31.9957 -31.9807 -31.9317
   -31.9031 -31.8939 -31.8708 -31.8623 -31.8256 -31.7949 -31.7930 -31.7686
   -31.7653 -31.7622 -31.7185 -31.6912 -31.6602 -31.6509 -31.5946 -31.5704
   -31.5470 -31.5297 -31.5255 -31.5206 -31.5032 -31.4826 -31.4749 -31.4692
   -31.4588 -31.4285 -31.3393 -31.3180 -31.2831 -31.2758 -31.2533 -31.2150
   -16.9997 -16.4979 -16.4594 -16.2095 -16.1021 -16.0870 -16.0597 -15.9860
   -15.8005 -15.7295 -15.7022 -15.6511 -15.5273 -15.4040 -15.3074 -15.1599
   -15.0762 -15.0311 -15.0298 -15.0129 -14.9767 -14.9623 -14.9403 -14.8781
   -14.8577 -14.7868 -14.6488 -14.6098 -14.6031 -14.3335 -14.3249 -13.9435
   -13.8364  -7.2038  -4.5719  -4.1752  -3.9753  -3.9327  -3.7674  -3.5953
    -3.5824  -3.4448  -3.4110  -3.2698  -3.2654  -3.2512  -3.1662  -3.1509
    -3.0310  -2.9642  -2.9497  -2.8486  -2.8080  -2.6560  -2.6182  -2.5278
    -2.4752  -2.4541  -2.3915  -2.3419  -2.3152  -2.2911  -2.2661  -2.2096
    -2.1896  -2.1556  -2.0900  -2.0535  -1.9670  -1.9293  -1.9184  -1.9122
    -1.7989  -1.7718  -1.7318  -1.5920  -1.5333  -1.5148  -1.4924  -1.4406
    -1.3807  -1.3571  -1.3071  -1.2058  -1.1291  -1.1140  -1.0469  -1.0300
    -1.0175  -0.8927  -0.8380  -0.7455  -0.7364  -0.7229  -0.6534  -0.5951
    -0.5572  -0.4731  -0.3978  -0.3882  -0.3751  -0.3384  -0.3149  -0.2571
    -0.1473  -0.1055  -0.0572   0.0162   0.0400   0.1264   0.2204   0.2551
     0.2689   0.3146   0.3418   0.3622   0.4213   0.4847   0.4990   0.5671
     0.5755   0.5790   0.6650   0.7555   0.7939   0.8450   0.8688   0.8800
     1.0014   1.0877   1.1121   1.1573   1.5258   1.7503   2.4032   2.5726
     2.8487   3.0032   3.3265   3.3895   3.4024   3.4056   3.6731   3.8026

          k = 0.0000 0.0419 0.0000 ( 17933 PWs)   bands (ev):

   -56.8827 -56.8589 -56.0064 -55.9795 -55.7602 -55.7010 -55.5461 -55.4413
   -55.4174 -55.3915 -55.3300 -55.3081 -55.2768 -55.2580 -55.0773 -55.0133
   -33.2544 -33.1568 -33.1368 -33.0519 -32.9904 -32.9879 -32.4418 -32.2198
   -32.1951 -32.1874 -32.1833 -32.1578 -32.1540 -31.9925 -31.9739 -31.9282
   -31.9172 -31.9106 -31.8681 -31.8177 -31.7932 -31.7893 -31.7774 -31.7719
   -31.7578 -31.7324 -31.6822 -31.6787 -31.6490 -31.6392 -31.5919 -31.5821
   -31.5607 -31.5480 -31.5400 -31.5386 -31.5228 -31.5152 -31.5039 -31.4742
   -31.4665 -31.4262 -31.3701 -31.3348 -31.3061 -31.2825 -31.2530 -31.2265
   -16.8792 -16.4943 -16.3552 -16.2596 -16.1497 -16.0361 -16.0238 -15.8768
   -15.8605 -15.6873 -15.6697 -15.5958 -15.4744 -15.4187 -15.3490 -15.1842
   -15.1098 -15.0837 -15.0676 -15.0313 -14.9803 -14.9711 -14.9115 -14.8958
   -14.8195 -14.7906 -14.6985 -14.6609 -14.6167 -14.4178 -14.3844 -13.9521
   -13.8782  -7.2019  -4.3900  -4.1720  -3.9718  -3.7568  -3.6251  -3.5468
    -3.4859  -3.3659  -3.3261  -3.3130  -3.2916  -3.1503  -3.1021  -3.0582
    -2.9789  -2.9537  -2.8997  -2.8228  -2.8135  -2.7722  -2.6580  -2.5808
    -2.5744  -2.5407  -2.4480  -2.4228  -2.3858  -2.3607  -2.3062  -2.2861
    -2.2527  -2.1617  -2.0927  -2.0770  -2.0443  -1.9567  -1.9138  -1.7643
    -1.7514  -1.6752  -1.6570  -1.5861  -1.5683  -1.5010  -1.4343  -1.4019
    -1.3067  -1.2654  -1.2445  -1.1570  -1.1414  -1.0983  -1.0449  -1.0060
    -0.9314  -0.8228  -0.7992  -0.7895  -0.7342  -0.6358  -0.5889  -0.5214
    -0.5019  -0.4774  -0.4440  -0.4132  -0.3968  -0.3267  -0.2980  -0.2768
    -0.2397  -0.2074  -0.1306  -0.1075   0.0089   0.0270   0.1010   0.1604
     0.1800   0.2363   0.2596   0.2693   0.2997   0.3528   0.3991   0.4346
     0.4928   0.5262   0.6368   0.6473   0.7003   0.8405   0.8507   0.9000
     0.9661   0.9817   1.0619   1.0863   1.4369   1.6690   2.6699   2.6779
     2.8627   3.1984   3.2367   3.2725   3.3550   3.5423   3.6975   3.7875

          k = 0.0000-0.0839 0.0000 ( 17884 PWs)   bands (ev):

   -56.8715 -56.8701 -55.9992 -55.9865 -55.7577 -55.7035 -55.5457 -55.4298
   -55.4288 -55.3897 -55.3303 -55.3098 -55.2761 -55.2574 -55.0779 -55.0139
   -33.1475 -33.1460 -33.1244 -33.1230 -33.0204 -33.0193 -32.3191 -32.3082
   -32.1939 -32.1811 -32.1803 -32.1713 -32.0781 -32.0306 -31.9888 -31.9649
   -31.9262 -31.9204 -31.8390 -31.7910 -31.7808 -31.7801 -31.7526 -31.7152
   -31.6993 -31.6510 -31.6499 -31.6478 -31.6407 -31.6375 -31.6341 -31.6112
   -31.6104 -31.6038 -31.5865 -31.5579 -31.5529 -31.5195 -31.5062 -31.4737
   -31.4643 -31.4267 -31.4264 -31.3479 -31.3409 -31.2819 -31.2527 -31.2348
   -16.5808 -16.5792 -16.4915 -16.1443 -16.1352 -16.0052 -16.0051 -15.8581
   -15.8286 -15.6667 -15.5932 -15.5490 -15.4949 -15.3421 -15.3228 -15.2595
   -15.2264 -15.2060 -15.1716 -15.0177 -14.9947 -14.8851 -14.8517 -14.8112
   -14.8033 -14.7847 -14.7767 -14.7308 -14.6262 -14.5379 -14.4705 -13.9412
   -13.9406  -7.2000  -4.1689  -3.9730  -3.9356  -3.9354  -3.4287  -3.4262
    -3.3983  -3.3901  -3.3655  -3.3088  -3.2778  -3.0478  -3.0259  -2.9563
    -2.9000  -2.8794  -2.8572  -2.8403  -2.8136  -2.7669  -2.7026  -2.6270
    -2.5719  -2.5545  -2.5496  -2.4764  -2.4258  -2.3392  -2.3102  -2.2803
    -2.2158  -2.1769  -2.1686  -2.1562  -2.1118  -2.0660  -2.0349  -1.8003
    -1.7300  -1.6720  -1.6115  -1.5185  -1.4351  -1.4028  -1.3404  -1.2506
    -1.2272  -1.1960  -1.1560  -1.1212  -1.0756  -0.9970  -0.9872  -0.9684
    -0.9362  -0.9267  -0.8665  -0.8441  -0.7294  -0.7242  -0.6869  -0.6643
    -0.6478  -0.6069  -0.4951  -0.4330  -0.4213  -0.3747  -0.3225  -0.2927
    -0.2711  -0.2224  -0.1702  -0.0922  -0.0106   0.0306   0.0792   0.0907
     0.1168   0.1382   0.1643   0.1798   0.2494   0.3012   0.3304   0.3904
     0.3917   0.4098   0.4823   0.5574   0.6150   0.7928   0.9086   0.9585
     0.9676   0.9993   1.0273   1.1150   1.2674   1.6197   2.9254   2.9268
     3.0465   3.0475   3.1133   3.1141   3.4656   3.4742   3.7116   3.7669

          k = 0.0380 0.0000 0.0000 ( 17913 PWs)   bands (ev):

   -56.8876 -56.8540 -56.0108 -55.9750 -55.7625 -55.6986 -55.5464 -55.4463
   -55.4124 -55.3932 -55.3296 -55.3063 -55.2775 -55.2586 -55.0766 -55.0128
   -33.3083 -33.1609 -33.1329 -33.0632 -32.9744 -32.9343 -32.4941 -32.2531
   -32.2312 -32.1919 -32.1487 -32.1367 -32.1219 -31.9956 -31.9914 -31.9316
   -31.9033 -31.8953 -31.8731 -31.8620 -31.8253 -31.7953 -31.7948 -31.7668
   -31.7657 -31.7597 -31.7179 -31.6915 -31.6507 -31.6502 -31.5944 -31.5703
   -31.5408 -31.5294 -31.5234 -31.5207 -31.5031 -31.4833 -31.4800 -31.4739
   -31.4586 -31.4283 -31.3392 -31.3178 -31.2849 -31.2757 -31.2539 -31.2148
   -16.8982 -16.4951 -16.3909 -16.3667 -16.1636 -16.0576 -15.9495 -15.9244
   -15.8716 -15.6692 -15.6545 -15.6089 -15.5686 -15.5649 -15.1966 -15.1738
   -15.1595 -15.1246 -15.0944 -15.0737 -15.0153 -14.9624 -14.9005 -14.8099
   -14.7938 -14.7236 -14.7017 -14.6636 -14.5878 -14.3313 -14.3240 -13.9409
   -13.8360  -7.2022  -4.2877  -4.1690  -3.9793  -3.8424  -3.7301  -3.5892
    -3.5564  -3.5068  -3.3352  -3.2718  -3.2461  -3.1482  -3.0839  -3.0232
    -2.9994  -2.9925  -2.8594  -2.8072  -2.7846  -2.7480  -2.6777  -2.6264
    -2.5846  -2.4072  -2.3864  -2.3203  -2.2720  -2.2157  -2.1752  -2.1408
    -2.1013  -2.0979  -2.0612  -2.0149  -1.9792  -1.9082  -1.8948  -1.8621
    -1.7899  -1.7357  -1.7295  -1.6863  -1.6319  -1.5270  -1.5091  -1.3794
    -1.3287  -1.2830  -1.2598  -1.1843  -1.1632  -1.1347  -1.0688  -1.0363
    -0.9850  -0.9107  -0.8803  -0.8568  -0.8299  -0.8222  -0.7579  -0.6868
    -0.6059  -0.5741  -0.5366  -0.5036  -0.3361  -0.3124  -0.2654  -0.1966
    -0.1484  -0.1202  -0.0652   0.0030   0.0482   0.0642   0.1374   0.1960
     0.2162   0.2389   0.2664   0.3191   0.3449   0.3948   0.4338   0.4653
     0.5553   0.5878   0.6177   0.7380   0.7694   0.7851   0.8252   0.8361
     0.9218   0.9787   1.0115   1.0682   1.4015   1.7752   2.5461   2.5681
     2.8478   3.0485   3.0807   3.4043   3.4861   3.5534   3.5786   3.8691

          k = 0.0380 0.0419 0.0000 ( 17878 PWs)   bands (ev):

   -56.8826 -56.8589 -56.0063 -55.9794 -55.7602 -55.7009 -55.5460 -55.4413
   -55.4173 -55.3914 -55.3299 -55.3080 -55.2768 -55.2580 -55.0772 -55.0133
   -33.2550 -33.1566 -33.1368 -33.0503 -32.9904 -32.9876 -32.4419 -32.2196
   -32.2092 -32.1866 -32.1828 -32.1541 -32.1338 -31.9925 -31.9830 -31.9281
   -31.9162 -31.9126 -31.8693 -31.8201 -31.7932 -31.7911 -31.7771 -31.7710
   -31.7556 -31.7326 -31.6819 -31.6797 -31.6398 -31.6390 -31.5918 -31.5822
   -31.5632 -31.5417 -31.5396 -31.5348 -31.5226 -31.5150 -31.5040 -31.4791
   -31.4718 -31.4261 -31.3699 -31.3347 -31.3060 -31.2847 -31.2540 -31.2264
   -16.7834 -16.4926 -16.3469 -16.2998 -16.1260 -16.1062 -15.9676 -15.9193
   -15.7993 -15.6845 -15.6271 -15.5378 -15.5118 -15.4965 -15.2564 -15.2061
   -15.1722 -15.1404 -15.1087 -15.0630 -15.0338 -14.9587 -14.8890 -14.8542
   -14.8259 -14.7727 -14.7354 -14.7046 -14.6029 -14.4143 -14.3846 -13.9502
   -13.8784  -7.2008  -4.1657  -4.1099  -3.9766  -3.6899  -3.5618  -3.4632
    -3.4439  -3.4278  -3.2607  -3.2223  -3.1770  -3.0974  -3.0124  -3.0018
    -2.9367  -2.9162  -2.8761  -2.8043  -2.7579  -2.7109  -2.6459  -2.6127
    -2.5578  -2.5048  -2.4693  -2.4364  -2.3782  -2.3055  -2.2887  -2.2178
    -2.1833  -2.1680  -2.0815  -2.0351  -1.9998  -1.9538  -1.9149  -1.7586
    -1.7373  -1.7056  -1.6665  -1.6082  -1.5783  -1.5443  -1.4874  -1.4084
    -1.3641  -1.3487  -1.3081  -1.2427  -1.1493  -1.0971  -1.0297  -0.9921
    -0.9584  -0.9425  -0.8839  -0.7971  -0.7624  -0.7401  -0.6995  -0.6330
    -0.6211  -0.5730  -0.5310  -0.5089  -0.4716  -0.4016  -0.3738  -0.3124
    -0.2656  -0.2024  -0.1593  -0.1309  -0.0677  -0.0296   0.0362   0.0670
     0.1294   0.1993   0.2066   0.2264   0.2624   0.2903   0.3755   0.4161
     0.4801   0.5647   0.6144   0.7190   0.7751   0.8108   0.8737   0.8881
     0.9246   0.9896   0.9940   1.0463   1.3486   1.7052   2.6621   2.8095
     2.9127   3.0949   3.2318   3.3408   3.3916   3.6031   3.7161   3.8324

          k = 0.0380-0.0839 0.0000 ( 17916 PWs)   bands (ev):

   -56.8715 -56.8701 -55.9993 -55.9865 -55.7577 -55.7035 -55.5457 -55.4298
   -55.4289 -55.3897 -55.3303 -55.3098 -55.2762 -55.2575 -55.0780 -55.0139
   -33.1475 -33.1460 -33.1250 -33.1236 -33.0197 -33.0187 -32.3193 -32.3084
   -32.1938 -32.1811 -32.1805 -32.1723 -32.0709 -32.0262 -31.9888 -31.9707
   -31.9263 -31.9253 -31.8396 -31.7917 -31.7814 -31.7807 -31.7509 -31.7178
   -31.6994 -31.6530 -31.6501 -31.6487 -31.6438 -31.6369 -31.6237 -31.6112
   -31.6104 -31.6068 -31.5866 -31.5520 -31.5460 -31.5192 -31.5064 -31.4787
   -31.4706 -31.4263 -31.4258 -31.3475 -31.3410 -31.2845 -31.2541 -31.2348
   -16.5121 -16.5103 -16.4905 -16.1659 -16.1618 -16.0569 -16.0522 -15.8294
   -15.7999 -15.6319 -15.5682 -15.5274 -15.4435 -15.3188 -15.2936 -15.2770
   -15.2636 -15.2406 -15.1730 -15.0122 -15.0062 -14.9533 -14.9015 -14.8688
   -14.8549 -14.8138 -14.7617 -14.7197 -14.6184 -14.5257 -14.4691 -13.9410
   -13.9405  -7.1995  -4.1720  -3.9691  -3.7246  -3.7233  -3.3942  -3.3897
    -3.3576  -3.3284  -3.3241  -3.1248  -3.0844  -3.0203  -3.0077  -2.9273
    -2.8786  -2.8447  -2.7914  -2.7367  -2.6811  -2.6468  -2.6246  -2.5828
    -2.5413  -2.5335  -2.4586  -2.4075  -2.3798  -2.3609  -2.3189  -2.2755
    -2.2429  -2.1998  -2.1551  -2.1251  -2.1029  -2.0291  -1.9746  -1.8513
    -1.7507  -1.7114  -1.6745  -1.6008  -1.5107  -1.4700  -1.3816  -1.3570
    -1.3398  -1.3277  -1.2906  -1.2674  -1.2226  -1.1841  -1.1749  -1.1116
    -1.0594  -1.0216  -0.9102  -0.8370  -0.7907  -0.7575  -0.7496  -0.7321
    -0.6725  -0.5973  -0.5746  -0.5271  -0.4828  -0.4004  -0.3546  -0.3184
    -0.3055  -0.2709  -0.2354  -0.2062  -0.1631  -0.1193  -0.0990   0.0374
     0.0588   0.0921   0.1778   0.2189   0.2767   0.3116   0.3566   0.3719
     0.4741   0.5629   0.5978   0.6728   0.7401   0.7922   0.8522   0.9569
     0.9610   0.9897   1.0073   1.1113   1.1989   1.6584   2.9331   2.9353
     3.0814   3.0833   3.2803   3.2813   3.4376   3.4467   3.7480   3.7775

          k = 0.0380-0.0419 0.0000 ( 17876 PWs)   bands (ev):

   -56.8826 -56.8589 -56.0063 -55.9794 -55.7602 -55.7009 -55.5460 -55.4413
   -55.4173 -55.3914 -55.3299 -55.3080 -55.2768 -55.2580 -55.0772 -55.0133
   -33.2549 -33.1566 -33.1368 -33.0503 -32.9904 -32.9876 -32.4419 -32.2196
   -32.2093 -32.1867 -32.1828 -32.1541 -32.1338 -31.9925 -31.9831 -31.9281
   -31.9163 -31.9126 -31.8692 -31.8201 -31.7936 -31.7911 -31.7771 -31.7710
   -31.7556 -31.7329 -31.6819 -31.6796 -31.6398 -31.6390 -31.5918 -31.5822
   -31.5601 -31.5428 -31.5413 -31.5351 -31.5227 -31.5150 -31.5039 -31.4792
   -31.4718 -31.4261 -31.3699 -31.3347 -31.3059 -31.2846 -31.2539 -31.2264
   -16.7832 -16.4927 -16.3477 -16.2997 -16.1255 -16.1062 -15.9673 -15.9195
   -15.8001 -15.6846 -15.6272 -15.5380 -15.5144 -15.4967 -15.2557 -15.2063
   -15.1722 -15.1431 -15.0884 -15.0664 -15.0329 -14.9599 -14.8972 -14.8580
   -14.8291 -14.7729 -14.7319 -14.7039 -14.6019 -14.4147 -14.3846 -13.9503
   -13.8784  -7.2008  -4.1748  -4.1093  -3.9675  -3.6901  -3.5628  -3.4633
    -3.4453  -3.4283  -3.2607  -3.2224  -3.1766  -3.0976  -3.0137  -3.0030
    -2.9369  -2.9170  -2.8801  -2.8042  -2.7571  -2.7116  -2.6471  -2.6101
    -2.5573  -2.5028  -2.4717  -2.4388  -2.3786  -2.2992  -2.2946  -2.2240
    -2.1801  -2.1686  -2.0848  -2.0367  -1.9926  -1.9509  -1.9104  -1.7588
    -1.7383  -1.7105  -1.6741  -1.6116  -1.5760  -1.5438  -1.4896  -1.3985
    -1.3648  -1.3471  -1.2994  -1.2303  -1.1486  -1.0947  -1.0343  -0.9936
    -0.9540  -0.9333  -0.8862  -0.7966  -0.7544  -0.7473  -0.7001  -0.6282
    -0.6158  -0.5782  -0.5392  -0.5165  -0.4761  -0.3944  -0.3709  -0.3205
    -0.2619  -0.2119  -0.1540  -0.1139  -0.0684  -0.0082   0.0384   0.0709
     0.1275   0.1920   0.2080   0.2219   0.2712   0.3115   0.3538   0.3970
     0.4986   0.5626   0.6032   0.7076   0.7639   0.8050   0.8658   0.8829
     0.9343   0.9880   0.9944   1.0460   1.3415   1.6958   2.6625   2.8097
     2.9127   3.0941   3.2317   3.3415   3.3912   3.6018   3.7157   3.8319

          k =-0.0760-0.0000 0.0000 ( 17886 PWs)   bands (ev):

   -56.8875 -56.8540 -56.0107 -55.9749 -55.7625 -55.6986 -55.5464 -55.4462
   -55.4124 -55.3931 -55.3295 -55.3063 -55.2775 -55.2585 -55.0766 -55.0128
   -33.3089 -33.1607 -33.1328 -33.0614 -32.9747 -32.9343 -32.4943 -32.2633
   -32.2311 -32.1795 -32.1486 -32.1257 -32.1218 -32.0039 -31.9954 -31.9314
   -31.9040 -31.8968 -31.8755 -31.8619 -31.8250 -31.7975 -31.7948 -31.7661
   -31.7658 -31.7574 -31.7173 -31.6919 -31.6507 -31.6396 -31.5943 -31.5702
   -31.5338 -31.5282 -31.5218 -31.5212 -31.5032 -31.4875 -31.4865 -31.4779
   -31.4586 -31.4282 -31.3392 -31.3179 -31.2868 -31.2757 -31.2547 -31.2148
   -16.7482 -16.4929 -16.4496 -16.3094 -16.3035 -16.0554 -15.9853 -15.8370
   -15.7649 -15.6612 -15.6533 -15.6504 -15.6140 -15.4536 -15.3215 -15.2602
   -15.2409 -15.1517 -15.0756 -15.0470 -15.0377 -14.9614 -14.9387 -14.8030
   -14.7548 -14.7306 -14.7074 -14.6391 -14.5827 -14.3290 -14.3247 -13.9385
   -13.8357  -7.2006  -4.1625  -3.9837  -3.8954  -3.8911  -3.8309  -3.5070
    -3.4562  -3.4062  -3.3563  -3.2615  -3.1983  -3.1037  -2.9719  -2.9516
    -2.9339  -2.8634  -2.8384  -2.7608  -2.6995  -2.6545  -2.6070  -2.5822
    -2.5342  -2.5194  -2.5022  -2.3996  -2.2481  -2.2212  -2.1629  -2.1314
    -2.1056  -2.0551  -2.0493  -1.9850  -1.9405  -1.8982  -1.8954  -1.8873
    -1.8851  -1.8166  -1.7808  -1.6544  -1.5627  -1.5113  -1.4604  -1.4160
    -1.3813  -1.2967  -1.2446  -1.2175  -1.1842  -1.1324  -1.0578  -0.9930
    -0.9774  -0.9588  -0.9247  -0.9210  -0.9179  -0.8063  -0.7583  -0.7046
    -0.6685  -0.6478  -0.6429  -0.5590  -0.5156  -0.3580  -0.3039  -0.2582
    -0.2283  -0.1486  -0.1183  -0.1044  -0.0153   0.0243   0.1103   0.1868
     0.1927   0.2297   0.2496   0.2885   0.3468   0.3838   0.4138   0.4227
     0.5760   0.5978   0.6174   0.6941   0.7007   0.7510   0.7901   0.8232
     0.8456   0.9018   0.9934   1.0927   1.1551   1.8018   2.5229   2.6510
     2.7949   2.8471   3.1729   3.3549   3.4162   3.5907   3.7493   3.8050

          k =-0.0760 0.0419 0.0000 ( 17914 PWs)   bands (ev):

   -56.8826 -56.8589 -56.0063 -55.9795 -55.7602 -55.7010 -55.5460 -55.4413
   -55.4174 -55.3914 -55.3299 -55.3080 -55.2769 -55.2580 -55.0773 -55.0133
   -33.2557 -33.1566 -33.1369 -33.0491 -32.9906 -32.9876 -32.4422 -32.2220
   -32.2196 -32.1834 -32.1771 -32.1542 -32.1190 -31.9933 -31.9923 -31.9281
   -31.9154 -31.9151 -31.8707 -31.8227 -31.7937 -31.7931 -31.7769 -31.7704
   -31.7536 -31.7332 -31.6815 -31.6806 -31.6391 -31.6301 -31.5918 -31.5822
   -31.5629 -31.5437 -31.5332 -31.5320 -31.5223 -31.5151 -31.5040 -31.4856
   -31.4780 -31.4261 -31.3698 -31.3347 -31.3059 -31.2869 -31.2551 -31.2265
   -16.6346 -16.4912 -16.4030 -16.2813 -16.2241 -16.1188 -15.9322 -15.9136
   -15.7018 -15.6721 -15.6045 -15.5692 -15.5624 -15.3597 -15.3366 -15.2430
   -15.2140 -15.1529 -15.1479 -15.0863 -15.0574 -14.9489 -14.9429 -14.8593
   -14.8389 -14.7514 -14.7281 -14.7186 -14.5971 -14.4110 -14.3867 -13.9485
   -13.8787  -7.1998  -4.1688  -3.9723  -3.6890  -3.6857  -3.5835  -3.4065
    -3.3867  -3.3387  -3.3122  -3.1437  -3.1329  -3.0464  -3.0238  -2.9089
    -2.8359  -2.7894  -2.7150  -2.6796  -2.6708  -2.6565  -2.6056  -2.5915
    -2.5045  -2.4756  -2.4688  -2.4248  -2.3598  -2.3425  -2.2550  -2.2125
    -2.1626  -2.1417  -2.0968  -2.0205  -2.0042  -1.9332  -1.8875  -1.8345
    -1.8059  -1.7914  -1.7816  -1.6978  -1.5808  -1.5174  -1.4776  -1.3935
    -1.3748  -1.3491  -1.2967  -1.2543  -1.1980  -1.1671  -1.1562  -1.1023
    -1.0170  -0.9796  -0.9596  -0.9198  -0.8779  -0.8108  -0.7914  -0.7058
    -0.6602  -0.6160  -0.6117  -0.5751  -0.5380  -0.5244  -0.4877  -0.4410
    -0.3727  -0.3326  -0.2314  -0.1726  -0.1100  -0.0830  -0.0194   0.0154
     0.1180   0.1677   0.1922   0.2718   0.2922   0.3066   0.3505   0.4583
     0.5207   0.5660   0.6988   0.7219   0.7647   0.8400   0.8654   0.9006
     0.9224   0.9743   1.0058   1.1019   1.1314   1.7317   2.6776   2.8453
     2.8833   2.9572   3.3293   3.4294   3.4592   3.4971   3.7996   3.8307

          k =-0.0760-0.0839 0.0000 ( 17948 PWs)   bands (ev):

   -56.8715 -56.8701 -55.9993 -55.9865 -55.7577 -55.7035 -55.5457 -55.4298
   -55.4289 -55.3897 -55.3303 -55.3098 -55.2762 -55.2575 -55.0780 -55.0139
   -33.1475 -33.1461 -33.1256 -33.1241 -33.0190 -33.0180 -32.3196 -32.3087
   -32.1939 -32.1814 -32.1810 -32.1728 -32.0633 -32.0205 -31.9889 -31.9777
   -31.9308 -31.9263 -31.8404 -31.7924 -31.7820 -31.7813 -31.7491 -31.7203
   -31.6994 -31.6519 -31.6502 -31.6500 -31.6477 -31.6364 -31.6161 -31.6114
   -31.6105 -31.6088 -31.5868 -31.5460 -31.5379 -31.5185 -31.5066 -31.4847
   -31.4775 -31.4262 -31.4253 -31.3472 -31.3410 -31.2871 -31.2554 -31.2348
   -16.4896 -16.3626 -16.3603 -16.3100 -16.3084 -16.0597 -16.0547 -15.8039
   -15.7729 -15.5890 -15.5121 -15.4800 -15.4300 -15.3889 -15.3542 -15.2526
   -15.2399 -15.1409 -15.1149 -15.1049 -15.0572 -15.0140 -14.9710 -14.9412
   -14.9017 -14.8115 -14.7521 -14.7170 -14.6130 -14.5165 -14.4682 -13.9409
   -13.9403  -7.1989  -4.1749  -3.9655  -3.4311  -3.4263  -3.4163  -3.4082
    -3.3527  -3.1843  -3.1766  -2.9910  -2.9634  -2.9608  -2.8900  -2.8836
    -2.7767  -2.7114  -2.7055  -2.7046  -2.6701  -2.6427  -2.6366  -2.5796
    -2.4725  -2.4212  -2.3968  -2.3751  -2.3459  -2.3176  -2.2634  -2.1742
    -2.1663  -2.1569  -2.1266  -2.1062  -2.0811  -2.0758  -1.9375  -1.8366
    -1.7657  -1.7161  -1.7063  -1.6911  -1.6643  -1.6287  -1.5981  -1.5847
    -1.5387  -1.4798  -1.4544  -1.3983  -1.3503  -1.3014  -1.2196  -1.1587
    -1.0910  -1.0699  -0.9371  -0.9217  -0.9023  -0.8639  -0.8302  -0.8209
    -0.7462  -0.6736  -0.6135  -0.5979  -0.5375  -0.5138  -0.4795  -0.4420
    -0.4325  -0.3768  -0.3547  -0.3053  -0.2913  -0.1704  -0.0871   0.0349
     0.0665   0.0846   0.1452   0.1754   0.3112   0.3206   0.3713   0.4850
     0.5216   0.6650   0.6801   0.7837   0.8343   0.8952   0.9519   0.9557
     0.9562   0.9823   1.0159   1.0371   1.1133   1.6876   2.9933   2.9962
     3.0532   3.0590   3.3657   3.3698   3.4743   3.4800   3.7843   3.7909

     the Fermi energy is     2.1409 ev

!    total energy              =   -2951.50533616 Ry
     estimated scf accuracy    <       0.00000007 Ry
     smearing contrib. (-TS)   =      -0.00232844 Ry
     internal energy E=F+TS    =   -2951.50300773 Ry

     The total energy is F=E-TS. E is the sum of the following terms:
     one-electron contribution =  -24181.85669722 Ry
     hartree contribution      =   12180.42158876 Ry
     xc contribution           =    -487.04533480 Ry
     ewald contribution        =    9536.97718776 Ry
     electric field correction =       0.00024777 Ry

     convergence has been achieved in  65 iterations

     Forces acting on atoms (cartesian axes, Ry/au):

     atom    1 type  1   force =     0.00001704   -0.00051038    0.12458358
     atom    2 type  1   force =    -0.00010133    0.00034585   -0.15489174
     atom    3 type  2   force =     0.00004528   -0.00012364   -0.06536123
     atom    4 type  2   force =     0.00007477    0.00024505    0.01707874
     atom    5 type  2   force =    -0.00338904   -0.00145539   -0.01348502
     atom    6 type  2   force =     0.00542757   -0.00094649   -0.01320071
     atom    7 type  1   force =     0.00030108   -0.00646876    0.05886493
     atom    8 type  1   force =     0.00011565    0.00855501    0.09582709
     atom    9 type  2   force =     0.00026746   -0.00010006    0.00026890
     atom   10 type  2   force =    -0.00166729    0.00093240   -0.05962963
     atom   11 type  2   force =     0.00080073   -0.00034496   -0.00033293
     atom   12 type  2   force =    -0.00102984   -0.00074329   -0.00007857
     atom   13 type  1   force =    -0.00020466   -0.00073032    0.00008587
     atom   14 type  1   force =     0.00003855   -0.00061844   -0.00014488
     atom   15 type  2   force =     0.00007925   -0.00020673   -0.00011882
     atom   16 type  2   force =    -0.00009394   -0.00000448   -0.00031916
     atom   17 type  2   force =     0.00019029   -0.00020841    0.00003488
     atom   18 type  2   force =    -0.00030214   -0.00037780    0.00013590
     atom   19 type  1   force =    -0.00016339   -0.00109680    0.00021512
     atom   20 type  1   force =    -0.00017917   -0.00009499   -0.00018377
     atom   21 type  2   force =     0.00002365    0.00021582    0.09782710
     atom   22 type  2   force =    -0.00028059   -0.00029663    0.00020757
     atom   23 type  2   force =    -0.08254398    0.00005344   -0.03295079
     atom   24 type  2   force =     0.08242875    0.00049358   -0.03300365
     atom   25 type  1   force =     0.00002676   -0.00057381    0.12480441
     atom   26 type  1   force =    -0.00019129   -0.00147036   -0.15527179
     atom   27 type  2   force =     0.00011493   -0.00079917   -0.06367735
     atom   28 type  2   force =     0.00005638    0.00197889    0.01253554
     atom   29 type  2   force =    -0.00156064    0.00507637   -0.01679913
     atom   30 type  2   force =     0.00370839    0.00539939   -0.01641059
     atom   31 type  1   force =     0.00000578    0.00179874    0.04174604
     atom   32 type  1   force =     0.00011000   -0.01184157    0.09590086
     atom   33 type  2   force =     0.00001431   -0.00023454   -0.00027547
     atom   34 type  2   force =    -0.00105227    0.00153939   -0.07413951
     atom   35 type  2   force =    -0.00040567    0.00017787    0.00009425
     atom   36 type  2   force =     0.00111597    0.00043789    0.00016622
     atom   37 type  1   force =    -0.00030364    0.00060293    0.00028123
     atom   38 type  1   force =     0.00021095   -0.00056814    0.00002070
     atom   39 type  2   force =     0.00016058    0.00021254    0.00010240
     atom   40 type  2   force =    -0.00005390   -0.00051692   -0.00062876
     atom   41 type  2   force =     0.00062573   -0.00000933   -0.00053430
     atom   42 type  2   force =    -0.00087867   -0.00018009   -0.00025554
     atom   43 type  1   force =     0.00005018    0.00039496   -0.00017113
     atom   44 type  1   force =    -0.00005816    0.00000459   -0.00047988
     atom   45 type  2   force =     0.00003903    0.00001613    0.09765100
     atom   46 type  2   force =    -0.08260839    0.00001273   -0.03295789
     atom   47 type  2   force =     0.08248317    0.00044365   -0.03300974
     atom   48 type  3   force =    -0.00014774   -0.00009398    0.00016489
     atom   49 type  4   force =    -0.00013460   -0.00006693    0.00015552
     atom   50 type  5   force =    -0.00010808   -0.00001107   -0.00013289
     atom   51 type  5   force =    -0.00013237    0.00001867    0.00013929
     atom   52 type  2   force =     0.00618149    0.01199380   -0.00819905
     atom   53 type  5   force =    -0.00712293   -0.01025623    0.00775188

     Total force =     0.416028     Total SCF correction =     0.000818
  @ DRIVER MODE: Message from server: STATUS
  @ DRIVER MODE: Message from server: GETFORCE
  @ DRIVER MODE: Returning v,forces,stress,ensemble 

     Writing output data file ./calc.save/
  @ DRIVER MODE: Message from server: EXIT
  @ DRIVE MODE: Exiting  
 
     init_run     :     10.71s CPU     11.01s WALL (       1 calls)
     electrons    :    995.73s CPU   1011.73s WALL (       1 calls)
     forces       :      2.37s CPU      2.46s WALL (       1 calls)

     Called by init_run:
     wfcinit      :      4.74s CPU      4.85s WALL (       1 calls)
     potinit      :      5.33s CPU      5.43s WALL (       1 calls)
     hinit0       :      0.29s CPU      0.30s WALL (       1 calls)

     Called by electrons:
     c_bands      :    842.39s CPU    849.59s WALL (      65 calls)
     sum_band     :    104.02s CPU    107.68s WALL (      65 calls)
     v_of_rho     :     37.45s CPU     39.35s WALL (      66 calls)
     newd         :     15.13s CPU     18.43s WALL (      66 calls)
     mix_rho      :      1.43s CPU      1.45s WALL (      65 calls)
     vdW_kernel   :      4.55s CPU      4.59s WALL (       1 calls)

     Called by c_bands:
     init_us_2    :      6.10s CPU      6.13s WALL (    1320 calls)
     cegterg      :    824.81s CPU    831.73s WALL (     659 calls)

     Called by *egterg:
     cdiaghg      :    119.26s CPU    119.94s WALL (    5087 calls)
     h_psi        :    456.73s CPU    461.52s WALL (    5097 calls)
     s_psi        :     57.11s CPU     57.36s WALL (    5097 calls)
     g_psi        :      1.69s CPU      1.71s WALL (    4428 calls)

     Called by h_psi:
     h_psi:calbec :     56.15s CPU     56.48s WALL (    5097 calls)
     vloc_psi     :    340.03s CPU    343.83s WALL (    5097 calls)
     add_vuspsi   :     57.39s CPU     57.87s WALL (    5097 calls)

     General routines
     calbec       :     75.09s CPU     75.50s WALL (    5787 calls)
     fft          :     19.13s CPU     19.31s WALL (    4158 calls)
     ffts         :      0.12s CPU      0.12s WALL (     131 calls)
     fftw         :    380.23s CPU    384.48s WALL (  899432 calls)
     interpolate  :      0.39s CPU      0.39s WALL (      66 calls)
     davcio       :      0.00s CPU      0.17s WALL (      10 calls)
 
     Parallel routines
 
     PWSCF        :  16m49.18s CPU  17m 6.50s WALL

 
   This run was terminated on:   0:53:36  23Sep2021            

=------------------------------------------------------------------------------=
   JOB DONE.
=------------------------------------------------------------------------------=
