
     Program PWSCF v.6.7GPU starts on 15Sep2021 at 23:48:57 

     This program is part of the open-source Quantum ESPRESSO suite
     for quantum simulation of materials; please cite
         "P. Giannozzi et al., J. Phys.:Condens. Matter 21 395502 (2009);
         "P. Giannozzi et al., J. Phys.:Condens. Matter 29 465901 (2017);
         "P. Giannozzi et al., J. Chem. Phys. 152 154105 (2020);
          URL http://www.quantum-espresso.org", 
     in publications or presentations arising from this work. More details at
     http://www.quantum-espresso.org/quote

     Parallel version (MPI), running on    10 processors

     MPI processes distributed on     1 nodes
     R & G space division:  proc/nbgrp/npool/nimage =      10
     Reading input from /storage/home/hcoda1/3/ntian30/research/carbon/CxH_vib/H2O_calc/ads_slab/CH3NHNHH2O_a/out_0025/pw.inp
Warning: card &CELL ignored
Warning: card   CELL_DYNAMICS='IPI', ignored
Warning: card / ignored

     Current dimensions of program PWSCF are:
     Max number of different atomic species (ntypx) = 10
     Max number of k-points (npk) =  40000
     Max angular momentum in pseudopotentials (lmaxx) =  3
     Presently no symmetry can be used with electric field

     Message from routine cell_base_init:
     DEPRECATED: use true lattice parameter, not A to a.u. conversion factor

     **************************************************************************
     Initializing libbeef V0.1.2 with the BEEF-vdW functional.
     Citation: Wellendorff et al., PRB 85, 235149 (2012).
     **************************************************************************


     IMPORTANT: XC functional enforced from input :
     Exchange-correlation= BEEF-VDW
                           (   1   4  43  14   2   0   0)
     Any further DFT definition will be discarded
     Please, verify this is what you really want


     Subspace diagonalization in iterative solution of the eigenvalue problem:
     one sub-group per band group will be used
     scalapack distributed-memory algorithm (size of sub-group:  3*  3 procs)

  @ DRIVER MODE: Connecting to 
 qe_1139763_2852620.sched-torque.pace.gatech.edutx4eeo5o_scratch
  using UNIX socket
  @ DRIVER MODE: Message from server: STATUS
  @ DRIVER MODE: Message from server: INIT
  @ DRIVER MODE: Receiving replica           0          -1
  @ DRIVER MODE: Receiving encoded integer          25
  @ DRIVER MODE:  SCF:  T  FORCE:  T  STRESS:  F  VC:  F  ENSEMBLE:  F
  @ DRIVER MODE:  SCF:  T  FORCE:  T  STRESS:  F  VC:  F  ENSEMBLE:  F
 
     Parallelization info
     --------------------
     sticks:   dense  smooth     PW     G-vecs:    dense   smooth      PW
     Min         327     131     37                56683    14340    2191
     Max         328     133     38                56694    14346    2206
     Sum        3275    1317    379               566857   143421   21985
 
     Using Slab Decomposition
 


     bravais-lattice index     =            0
     lattice parameter (alat)  =       1.8897  a.u.
     unit-cell volume          =    6658.9804 (a.u.)^3
     number of atoms/cell      =           58
     number of atomic types    =            5
     number of electrons       =       405.00
     number of Kohn-Sham states=          212
     kinetic-energy cutoff     =      29.3995  Ry
     charge density cutoff     =     293.9946  Ry
     scf convergence threshold =      7.3E-08
     mixing beta               =       0.0500
     number of iterations used =            8  plain     mixing
     Exchange-correlation= BEEF-VDW
                           (   1   4  43  14   2   0   0)

     celldm(1)=   1.889726  celldm(2)=   0.000000  celldm(3)=   0.000000
     celldm(4)=   0.000000  celldm(5)=   0.000000  celldm(6)=   0.000000

     crystal axes: (cart. coord. in units of alat)
               a(1) = (   6.579727   0.000000   0.000000 )  
               a(2) = (  -0.000775   5.961596   0.000000 )  
               a(3) = (   0.000000   0.000000  25.155947 )  

     reciprocal axes: (cart. coord. in units 2 pi/alat)
               b(1) = (  0.151982  0.000020  0.000000 )  
               b(2) = (  0.000000  0.167740  0.000000 )  
               b(3) = (  0.000000  0.000000  0.039752 )  


     PseudoPot. # 1 for Ti read from file:
     /storage/coda1/p-amedford6/0/shared/rich_project_chbe-medford/medford-share/data/pseudos_module/espresso/nninc/pbe/van/Ti.UPF
     MD5 check sum: 8e4df49b7f0d34bbd5052bf3f5ea0213
     Pseudo is Ultrasoft, Zval = 12.0
     Generated by new atomic code, or converted to UPF format
     Using radial grid of  851 points,  6 beta functions with: 
                l(1) =   0
                l(2) =   0
                l(3) =   1
                l(4) =   1
                l(5) =   2
                l(6) =   2
     Q(r) pseudized with  8 coefficients,  rinner =    1.000   1.000   1.000
                                                       1.000   1.000

     PseudoPot. # 2 for O  read from file:
     /storage/coda1/p-amedford6/0/shared/rich_project_chbe-medford/medford-share/data/pseudos_module/espresso/nninc/pbe/van/O.UPF
     MD5 check sum: 78c19812648e8988a0fe644b0f25305e
     Pseudo is Ultrasoft, Zval =  6.0
     Generated by new atomic code, or converted to UPF format
     Using radial grid of  737 points,  4 beta functions with: 
                l(1) =   0
                l(2) =   0
                l(3) =   1
                l(4) =   1
     Q(r) pseudized with  8 coefficients,  rinner =    0.800   0.800   0.800


     PseudoPot. # 3 for N  read from file:
     /storage/coda1/p-amedford6/0/shared/rich_project_chbe-medford/medford-share/data/pseudos_module/espresso/nninc/pbe/van/N.UPF
     MD5 check sum: 90d10febe142ad51ac9d5be1deb811c4
     Pseudo is Ultrasoft, Zval =  5.0
     Generated by new atomic code, or converted to UPF format
     Using radial grid of  729 points,  4 beta functions with: 
                l(1) =   0
                l(2) =   0
                l(3) =   1
                l(4) =   1
     Q(r) pseudized with  8 coefficients,  rinner =    0.800   0.800   0.800


     PseudoPot. # 4 for C  read from file:
     /storage/coda1/p-amedford6/0/shared/rich_project_chbe-medford/medford-share/data/pseudos_module/espresso/nninc/pbe/van/C.UPF
     MD5 check sum: 1a69bf6b8db32088f5b2163dbdb77a27
     Pseudo is Ultrasoft, Zval =  4.0
     Generated by new atomic code, or converted to UPF format
     Using radial grid of  721 points,  4 beta functions with: 
                l(1) =   0
                l(2) =   0
                l(3) =   1
                l(4) =   1
     Q(r) pseudized with  8 coefficients,  rinner =    0.800   0.800   0.800


     PseudoPot. # 5 for H  read from file:
     /storage/coda1/p-amedford6/0/shared/rich_project_chbe-medford/medford-share/data/pseudos_module/espresso/nninc/pbe/van/H.UPF
     MD5 check sum: b5ee9d7bfd3a09ee7748110bda690ff7
     Pseudo is Ultrasoft, Zval =  1.0
     Generated by new atomic code, or converted to UPF format
     Using radial grid of  615 points,  1 beta functions with: 
                l(1) =   0
     Q(r) pseudized with  8 coefficients,  rinner =    0.800

     atomic species   valence    mass     pseudopotential
        Ti1           12.00    47.86700     Ti( 1.00)
        O1             6.00    15.99900     O ( 1.00)
        N1             5.00    14.00700     N ( 1.00)
        C1             4.00    12.01100     C ( 1.00)
        H1             1.00     1.00800     H ( 1.00)

     No symmetry found



   Cartesian axes

     site n.     atom                  positions (alat units)
         1           Ti1 tau(   1) = (   0.0004258   2.9801865   6.0000000  )
         2           Ti1 tau(   2) = (   3.2906075   1.4906267   6.0002472  )
         3           O1  tau(   3) = (   0.0006271   0.0005054   7.9858123  )
         4           O1  tau(   4) = (   3.2906025   0.0005020   7.3038282  )
         5           O1  tau(   5) = (   4.5942328   1.4918067   9.2879030  )
         6           O1  tau(   6) = (   1.9868534   1.4903216   9.2879459  )
         7           Ti1 tau(   7) = (   3.2907910   2.8959150   9.1758416  )
         8           Ti1 tau(   8) = (   0.0015273   1.4827037   9.2680791  )
         9           O1  tau(   9) = (   3.2925356   5.9605122  11.3387169  )
        10           O1  tau(  10) = (   0.0116148   5.9584955  10.6183126  )
        11           O1  tau(  11) = (   1.2897729   1.4809555  12.6268520  )
        12           O1  tau(  12) = (   5.2791511   1.4810064  12.6173870  )
        13           Ti1 tau(  13) = (   0.0595640   3.0140846  12.5912772  )
        14           Ti1 tau(  14) = (   3.3761946   1.4800080  12.4968112  )
        15           O1  tau(  15) = (   6.5629824   0.0009262  14.6613707  )
        16           O1  tau(  16) = (   3.3123588   5.9604043  13.9421911  )
        17           O1  tau(  17) = (   4.5376415   1.5680301  16.0260299  )
        18           O1  tau(  18) = (   2.0142527   1.4857506  15.9764776  )
        19           Ti1 tau(  19) = (   3.2467940   3.0138708  15.6952036  )
        20           Ti1 tau(  20) = (   6.5376764   1.5432071  15.7832198  )
        21           O1  tau(  21) = (   3.2904802   0.0005063   4.7018136  )
        22           O1  tau(  22) = (   6.4898080   0.0110182  17.2547379  )
        23           O1  tau(  23) = (   1.3043587   1.4918075   6.0039043  )
        24           O1  tau(  24) = (   5.2767064   1.4903225   6.0039473  )
        25           Ti1 tau(  25) = (   0.0000382   5.9609847   6.0000000  )
        26           Ti1 tau(  26) = (   3.2902200   4.4714249   6.0002472  )
        27           O1  tau(  27) = (   0.0002396   2.9813036   7.9858123  )
        28           O1  tau(  28) = (   3.2902150   2.9813002   7.3038282  )
        29           O1  tau(  29) = (   4.5938453   4.4726049   9.2879030  )
        30           O1  tau(  30) = (   1.9864658   4.4711199   9.2879459  )
        31           Ti1 tau(  31) = (   3.2891106   5.8743827   9.1763621  )
        32           Ti1 tau(  32) = (   0.0006254   4.4649316   9.2693709  )
        33           O1  tau(  33) = (   3.2967638   2.9790471  11.3409087  )
        34           O1  tau(  34) = (   0.0092240   2.9805883  10.6323155  )
        35           O1  tau(  35) = (   1.2869154   4.4778632  12.6304858  )
        36           O1  tau(  36) = (   5.2845859   4.4648683  12.6187650  )
        37           Ti1 tau(  37) = (   0.0627082   0.0241251  12.5486904  )
        38           Ti1 tau(  38) = (   3.3788516   4.4738568  12.4976958  )
        39           O1  tau(  39) = (   6.5772583   2.9562949  14.6416036  )
        40           O1  tau(  40) = (   3.2725681   2.9944745  13.9013672  )
        41           O1  tau(  41) = (   4.5452577   4.4055011  16.0651929  )
        42           O1  tau(  42) = (   2.0228361   4.5129635  16.0417754  )
        43           Ti1 tau(  43) = (   3.2583029   0.0391736  15.7773877  )
        44           Ti1 tau(  44) = (   6.5476622   4.6515957  16.1089089  )
        45           O1  tau(  45) = (   3.2900926   2.9813045   4.7018136  )
        46           O1  tau(  46) = (   1.3039711   4.4726057   6.0039043  )
        47           O1  tau(  47) = (   5.2763189   4.4711207   6.0039473  )
        48           N1  tau(  48) = (   1.2275869   2.8250850  18.3327965  )
        49           N1  tau(  49) = (   0.1007212   2.9268546  17.4424539  )
        50           C1  tau(  50) = (   0.9834745   3.5098297  19.5973225  )
        51           H1  tau(  51) = (   0.0800711   3.1483545  20.1177682  )
        52           H1  tau(  52) = (   1.8328167   3.3484677  20.2521386  )
        53           H1  tau(  53) = (   0.8645268   4.5787652  19.4145101  )
        54           H1  tau(  54) = (   1.4038961   1.8348574  18.5000659  )
        55           H1  tau(  55) = (   5.8167727   2.7947134  17.9807349  )
        56           O1  tau(  56) = (   3.6251350   0.0523402  18.1652986  )
        57           H1  tau(  57) = (   4.6063402   0.0342754  18.1216558  )
        58           H1  tau(  58) = (   3.3562690   5.1322054  18.4688733  )

     number of k points=    10  Fermi-Dirac smearing, width (Ry)=  0.0073
                       cart. coord. in units 2pi/alat
        k(    1) = (   0.0000000   0.0000000   0.0000000), wk =   0.1250000
        k(    2) = (   0.0000000   0.0419351   0.0000000), wk =   0.2500000
        k(    3) = (   0.0000000  -0.0838702   0.0000000), wk =   0.1250000
        k(    4) = (   0.0379955   0.0000049   0.0000000), wk =   0.2500000
        k(    5) = (   0.0379955   0.0419400   0.0000000), wk =   0.2500000
        k(    6) = (   0.0379955  -0.0838652   0.0000000), wk =   0.2500000
        k(    7) = (   0.0379955  -0.0419301   0.0000000), wk =   0.2500000
        k(    8) = (  -0.0759910  -0.0000099   0.0000000), wk =   0.1250000
        k(    9) = (  -0.0759910   0.0419252   0.0000000), wk =   0.2500000
        k(   10) = (  -0.0759910  -0.0838800   0.0000000), wk =   0.1250000

     Dense  grid:   566857 G-vectors     FFT dimensions: (  72,  64, 270)

     Smooth grid:   143421 G-vectors     FFT dimensions: (  45,  40, 180)

     Estimated max dynamical RAM per process >     367.84 MB

     Estimated total dynamical RAM >       3.59 GB
     Cannot read rho : file not found

     Initial potential from superposition of free atoms

     starting charge  388.99913, renormalised to  405.00000

     negative rho (up, down):  1.445E-02 0.000E+00


     %%%%%%%%%%%%%%%%%%%%%%%%%%%%%%%%%%%%%%%%%%%%%%%%%%%%%%%%%%%%%%%%%%%%%%%%
     %                                                                      %
     % You are using vdW-DF, which was implemented by the Thonhauser group. %
     % Please cite the following two papers that made this development      %
     % possible and the two reviews that describe the various versions:     %
     %                                                                      %
     %   T. Thonhauser et al., PRL 115, 136402 (2015).                      %
     %   T. Thonhauser et al., PRB 76, 125112 (2007).                       %
     %   K. Berland et al., Rep. Prog. Phys. 78, 066501 (2015).             %
     %   D.C. Langreth et al., J. Phys.: Condens. Matter 21, 084203 (2009). %
     %                                                                      %
     %                                                                      %
     % If you are calculating the stress with vdW-DF, please also cite:     %
     %                                                                      %
     %   R. Sabatini et al., J. Phys.: Condens. Matter 24, 424209 (2012).   %
     %                                                                      %
     %%%%%%%%%%%%%%%%%%%%%%%%%%%%%%%%%%%%%%%%%%%%%%%%%%%%%%%%%%%%%%%%%%%%%%%%


 
     Adding external electric field

     Computed dipole along edir(3) : 
        Dipole              -14.1501 Ry au,        -35.9660 Debye
        Dipole field         -0.0267 Ry au, 
 
        Potential amp.        2.4753 Ry
        Total length         46.3494 bohr
 
     Starting wfcs are  307 atomic wfcs
  @ DRIVER MODE: Message from server: STATUS
  @ DRIVER MODE: Message from server: POSDATA
  @ DRIVER MODE: Reading and sharing cell 
  @ DRIVER MODE: Reading and sharing positions 
  @ DRIVER MODE: Received positions 

     total cpu time spent up to now is       11.4 secs

     Self-consistent Calculation

     iteration #  1     ecut=    29.40 Ry     beta= 0.05
     Davidson diagonalization with overlap
     c_bands:  4 eigenvalues not converged
     c_bands:  1 eigenvalues not converged
     c_bands:  1 eigenvalues not converged
     c_bands:  3 eigenvalues not converged
     c_bands:  2 eigenvalues not converged
     ethr =  1.00E-05,  avg # of iterations = 29.4

     negative rho (up, down):  8.114E-03 0.000E+00
 
     Adding external electric field

     Computed dipole along edir(3) : 
        Dipole               59.5061 Ry au,        151.2494 Debye
        Dipole field          0.1123 Ry au, 
 
        Potential amp.      -10.4097 Ry
        Total length         46.3494 bohr
 

     total cpu time spent up to now is       63.1 secs

     total energy              =   -2232.55226681 Ry
     estimated scf accuracy    <    8442.87136445 Ry

     iteration #  2     ecut=    29.40 Ry     beta= 0.05
     Davidson diagonalization with overlap
     ethr =  1.00E-02,  avg # of iterations = 29.3

     negative rho (up, down):  2.513E-04 0.000E+00
 
     Adding external electric field

     Computed dipole along edir(3) : 
        Dipole                0.5337 Ry au,          1.3566 Debye
        Dipole field          0.0010 Ry au, 
 
        Potential amp.       -0.0934 Ry
        Total length         46.3494 bohr
 

     total cpu time spent up to now is      154.4 secs

     total energy              =   -2470.38650979 Ry
     estimated scf accuracy    <   75950.97193072 Ry

     iteration #  3     ecut=    29.40 Ry     beta= 0.05
     Davidson diagonalization with overlap
     ethr =  1.00E-02,  avg # of iterations = 15.7

     negative rho (up, down):  3.000E-04 0.000E+00
 
     Adding external electric field

     Computed dipole along edir(3) : 
        Dipole               -3.1740 Ry au,         -8.0674 Debye
        Dipole field         -0.0060 Ry au, 
 
        Potential amp.        0.5552 Ry
        Total length         46.3494 bohr
 

     total cpu time spent up to now is      203.6 secs

     total energy              =   -2958.65524324 Ry
     estimated scf accuracy    <    8081.57636239 Ry

     iteration #  4     ecut=    29.40 Ry     beta= 0.05
     Davidson diagonalization with overlap
     ethr =  1.00E-02,  avg # of iterations = 12.8

     negative rho (up, down):  3.136E-04 0.000E+00
 
     Adding external electric field

     Computed dipole along edir(3) : 
        Dipole               -4.7552 Ry au,        -12.0866 Debye
        Dipole field         -0.0090 Ry au, 
 
        Potential amp.        0.8319 Ry
        Total length         46.3494 bohr
 

     total cpu time spent up to now is      228.6 secs

     total energy              =   -2972.02062515 Ry
     estimated scf accuracy    <    2063.25969241 Ry

     iteration #  5     ecut=    29.40 Ry     beta= 0.05
     Davidson diagonalization with overlap
     ethr =  1.00E-02,  avg # of iterations =  4.3

     negative rho (up, down):  3.755E-04 0.000E+00
 
     Adding external electric field

     Computed dipole along edir(3) : 
        Dipole               -8.3563 Ry au,        -21.2395 Debye
        Dipole field         -0.0158 Ry au, 
 
        Potential amp.        1.4618 Ry
        Total length         46.3494 bohr
 

     total cpu time spent up to now is      240.1 secs

     total energy              =   -2933.64729750 Ry
     estimated scf accuracy    <    1972.95223896 Ry

     iteration #  6     ecut=    29.40 Ry     beta= 0.05
     Davidson diagonalization with overlap
     ethr =  1.00E-02,  avg # of iterations = 11.5

     negative rho (up, down):  3.477E-04 0.000E+00
 
     Adding external electric field

     Computed dipole along edir(3) : 
        Dipole               -6.0869 Ry au,        -15.4713 Debye
        Dipole field         -0.0115 Ry au, 
 
        Potential amp.        1.0648 Ry
        Total length         46.3494 bohr
 

     total cpu time spent up to now is      266.5 secs

     total energy              =   -2978.22826859 Ry
     estimated scf accuracy    <     340.50277513 Ry

     iteration #  7     ecut=    29.40 Ry     beta= 0.05
     Davidson diagonalization with overlap
     ethr =  1.00E-02,  avg # of iterations =  1.8

     negative rho (up, down):  3.575E-04 0.000E+00
 
     Adding external electric field

     Computed dipole along edir(3) : 
        Dipole               -5.5564 Ry au,        -14.1229 Debye
        Dipole field         -0.0105 Ry au, 
 
        Potential amp.        0.9720 Ry
        Total length         46.3494 bohr
 

     total cpu time spent up to now is      277.3 secs

     total energy              =   -2980.56799482 Ry
     estimated scf accuracy    <      33.20536441 Ry

     iteration #  8     ecut=    29.40 Ry     beta= 0.05
     Davidson diagonalization with overlap
     ethr =  8.20E-03,  avg # of iterations =  1.0

     negative rho (up, down):  3.885E-04 0.000E+00
 
     Adding external electric field

     Computed dipole along edir(3) : 
        Dipole               -4.1452 Ry au,        -10.5360 Debye
        Dipole field         -0.0078 Ry au, 
 
        Potential amp.        0.7251 Ry
        Total length         46.3494 bohr
 

     total cpu time spent up to now is      287.4 secs

     total energy              =   -2978.15109369 Ry
     estimated scf accuracy    <      29.15294000 Ry

     iteration #  9     ecut=    29.40 Ry     beta= 0.05
     Davidson diagonalization with overlap
     c_bands:  2 eigenvalues not converged
     ethr =  7.20E-03,  avg # of iterations = 11.6

     negative rho (up, down):  4.258E-04 0.000E+00
 
     Adding external electric field

     Computed dipole along edir(3) : 
        Dipole               -3.2118 Ry au,         -8.1635 Debye
        Dipole field         -0.0061 Ry au, 
 
        Potential amp.        0.5618 Ry
        Total length         46.3494 bohr
 

     total cpu time spent up to now is      301.4 secs

     total energy              =   -2978.51769386 Ry
     estimated scf accuracy    <      17.32789038 Ry

     iteration # 10     ecut=    29.40 Ry     beta= 0.05
     Davidson diagonalization with overlap
     c_bands:  4 eigenvalues not converged
     c_bands:  1 eigenvalues not converged
     c_bands:  4 eigenvalues not converged
     ethr =  4.28E-03,  avg # of iterations = 16.2

     negative rho (up, down):  5.570E-04 0.000E+00
 
     Adding external electric field

     Computed dipole along edir(3) : 
        Dipole               -0.6409 Ry au,         -1.6290 Debye
        Dipole field         -0.0012 Ry au, 
 
        Potential amp.        0.1121 Ry
        Total length         46.3494 bohr
 

     total cpu time spent up to now is      319.1 secs

     total energy              =   -2993.46473885 Ry
     estimated scf accuracy    <     281.21323491 Ry

     iteration # 11     ecut=    29.40 Ry     beta= 0.05
     Davidson diagonalization with overlap
     ethr =  4.28E-03,  avg # of iterations = 14.3

     negative rho (up, down):  6.466E-04 0.000E+00
 
     Adding external electric field

     Computed dipole along edir(3) : 
        Dipole               -2.5771 Ry au,         -6.5503 Debye
        Dipole field         -0.0049 Ry au, 
 
        Potential amp.        0.4508 Ry
        Total length         46.3494 bohr
 

     total cpu time spent up to now is      342.4 secs

     total energy              =   -2972.79999466 Ry
     estimated scf accuracy    <    2754.58050815 Ry

     iteration # 12     ecut=    29.40 Ry     beta= 0.05
     Davidson diagonalization with overlap
     c_bands:  1 eigenvalues not converged
     c_bands:  2 eigenvalues not converged
     ethr =  4.28E-03,  avg # of iterations = 17.9

     negative rho (up, down):  6.582E-04 0.000E+00
 
     Adding external electric field

     Computed dipole along edir(3) : 
        Dipole               -3.4358 Ry au,         -8.7329 Debye
        Dipole field         -0.0065 Ry au, 
 
        Potential amp.        0.6010 Ry
        Total length         46.3494 bohr
 

     total cpu time spent up to now is      364.2 secs

     total energy              =   -2969.32705899 Ry
     estimated scf accuracy    <     700.43232781 Ry

     iteration # 13     ecut=    29.40 Ry     beta= 0.05
     Davidson diagonalization with overlap
     c_bands:  2 eigenvalues not converged
     c_bands:  4 eigenvalues not converged
     ethr =  4.28E-03,  avg # of iterations = 13.8

     negative rho (up, down):  6.906E-04 0.000E+00
 
     Adding external electric field

     Computed dipole along edir(3) : 
        Dipole               -2.5167 Ry au,         -6.3968 Debye
        Dipole field         -0.0047 Ry au, 
 
        Potential amp.        0.4403 Ry
        Total length         46.3494 bohr
 

     total cpu time spent up to now is      383.3 secs

     total energy              =   -2976.59067979 Ry
     estimated scf accuracy    <      47.47762943 Ry

     iteration # 14     ecut=    29.40 Ry     beta= 0.05
     Davidson diagonalization with overlap
     ethr =  4.28E-03,  avg # of iterations =  3.1

     negative rho (up, down):  6.870E-04 0.000E+00
 
     Adding external electric field

     Computed dipole along edir(3) : 
        Dipole               -2.4739 Ry au,         -6.2881 Debye
        Dipole field         -0.0047 Ry au, 
 
        Potential amp.        0.4328 Ry
        Total length         46.3494 bohr
 

     total cpu time spent up to now is      394.5 secs

     total energy              =   -2977.74683471 Ry
     estimated scf accuracy    <     180.10224611 Ry

     iteration # 15     ecut=    29.40 Ry     beta= 0.05
     Davidson diagonalization with overlap
     ethr =  4.28E-03,  avg # of iterations =  1.3

     negative rho (up, down):  6.977E-04 0.000E+00
 
     Adding external electric field

     Computed dipole along edir(3) : 
        Dipole               -2.9647 Ry au,         -7.5356 Debye
        Dipole field         -0.0056 Ry au, 
 
        Potential amp.        0.5186 Ry
        Total length         46.3494 bohr
 

     total cpu time spent up to now is      404.9 secs

     total energy              =   -2974.67791554 Ry
     estimated scf accuracy    <     222.36764110 Ry

     iteration # 16     ecut=    29.40 Ry     beta= 0.05
     Davidson diagonalization with overlap
     ethr =  4.28E-03,  avg # of iterations =  4.3

     negative rho (up, down):  7.455E-04 0.000E+00
 
     Adding external electric field

     Computed dipole along edir(3) : 
        Dipole               -3.2757 Ry au,         -8.3259 Debye
        Dipole field         -0.0062 Ry au, 
 
        Potential amp.        0.5730 Ry
        Total length         46.3494 bohr
 

     total cpu time spent up to now is      417.0 secs

     total energy              =   -2974.66564992 Ry
     estimated scf accuracy    <      37.38374953 Ry

     iteration # 17     ecut=    29.40 Ry     beta= 0.05
     Davidson diagonalization with overlap
     ethr =  4.28E-03,  avg # of iterations =  6.2

     negative rho (up, down):  8.950E-04 0.000E+00
 
     Adding external electric field

     Computed dipole along edir(3) : 
        Dipole               -2.7576 Ry au,         -7.0091 Debye
        Dipole field         -0.0052 Ry au, 
 
        Potential amp.        0.4824 Ry
        Total length         46.3494 bohr
 

     total cpu time spent up to now is      429.8 secs

     total energy              =   -2976.45569621 Ry
     estimated scf accuracy    <       1.65485166 Ry

     iteration # 18     ecut=    29.40 Ry     beta= 0.05
     Davidson diagonalization with overlap
     c_bands:  1 eigenvalues not converged
     c_bands:  1 eigenvalues not converged
     c_bands:  1 eigenvalues not converged
     ethr =  4.09E-04,  avg # of iterations = 18.0

     negative rho (up, down):  1.104E-03 0.000E+00
 
     Adding external electric field

     Computed dipole along edir(3) : 
        Dipole               -2.0502 Ry au,         -5.2110 Debye
        Dipole field         -0.0039 Ry au, 
 
        Potential amp.        0.3586 Ry
        Total length         46.3494 bohr
 

     total cpu time spent up to now is      449.7 secs

     total energy              =   -2976.64231352 Ry
     estimated scf accuracy    <       4.06328347 Ry

     iteration # 19     ecut=    29.40 Ry     beta= 0.05
     Davidson diagonalization with overlap
     ethr =  4.09E-04,  avg # of iterations =  2.0

     negative rho (up, down):  1.390E-03 0.000E+00
 
     Adding external electric field

     Computed dipole along edir(3) : 
        Dipole               -1.3425 Ry au,         -3.4124 Debye
        Dipole field         -0.0025 Ry au, 
 
        Potential amp.        0.2349 Ry
        Total length         46.3494 bohr
 

     total cpu time spent up to now is      460.8 secs

     total energy              =   -2976.59622897 Ry
     estimated scf accuracy    <       1.73144962 Ry

     iteration # 20     ecut=    29.40 Ry     beta= 0.05
     Davidson diagonalization with overlap
     ethr =  4.09E-04,  avg # of iterations =  8.7

     negative rho (up, down):  1.372E-03 0.000E+00
 
     Adding external electric field

     Computed dipole along edir(3) : 
        Dipole               -1.3142 Ry au,         -3.3403 Debye
        Dipole field         -0.0025 Ry au, 
 
        Potential amp.        0.2299 Ry
        Total length         46.3494 bohr
 

     total cpu time spent up to now is      473.8 secs

     total energy              =   -2976.62893444 Ry
     estimated scf accuracy    <       0.93214324 Ry

     iteration # 21     ecut=    29.40 Ry     beta= 0.05
     Davidson diagonalization with overlap
     ethr =  2.30E-04,  avg # of iterations =  2.4

     negative rho (up, down):  1.338E-03 0.000E+00
 
     Adding external electric field

     Computed dipole along edir(3) : 
        Dipole               -1.0431 Ry au,         -2.6513 Debye
        Dipole field         -0.0020 Ry au, 
 
        Potential amp.        0.1825 Ry
        Total length         46.3494 bohr
 

     total cpu time spent up to now is      484.8 secs

     total energy              =   -2976.51915122 Ry
     estimated scf accuracy    <       0.86014747 Ry

     iteration # 22     ecut=    29.40 Ry     beta= 0.05
     Davidson diagonalization with overlap
     ethr =  2.12E-04,  avg # of iterations =  2.0

     negative rho (up, down):  1.978E-03 0.000E+00
 
     Adding external electric field

     Computed dipole along edir(3) : 
        Dipole                0.1120 Ry au,          0.2847 Debye
        Dipole field          0.0002 Ry au, 
 
        Potential amp.       -0.0196 Ry
        Total length         46.3494 bohr
 

     total cpu time spent up to now is      495.9 secs

     total energy              =   -2976.44925461 Ry
     estimated scf accuracy    <       0.58666124 Ry

     iteration # 23     ecut=    29.40 Ry     beta= 0.05
     Davidson diagonalization with overlap
     c_bands:  3 eigenvalues not converged
     c_bands:  3 eigenvalues not converged
     c_bands:  2 eigenvalues not converged
     c_bands:  2 eigenvalues not converged
     c_bands:  3 eigenvalues not converged
     c_bands:  2 eigenvalues not converged
     c_bands:  2 eigenvalues not converged
     c_bands:  2 eigenvalues not converged
     ethr =  1.45E-04,  avg # of iterations = 19.9

     negative rho (up, down):  2.025E-03 0.000E+00
 
     Adding external electric field

     Computed dipole along edir(3) : 
        Dipole                0.1023 Ry au,          0.2600 Debye
        Dipole field          0.0002 Ry au, 
 
        Potential amp.       -0.0179 Ry
        Total length         46.3494 bohr
 

     total cpu time spent up to now is      519.4 secs

     total energy              =   -2976.52111791 Ry
     estimated scf accuracy    <       0.56268768 Ry

     iteration # 24     ecut=    29.40 Ry     beta= 0.05
     Davidson diagonalization with overlap
     ethr =  1.39E-04,  avg # of iterations =  3.7

     negative rho (up, down):  2.260E-03 0.000E+00
 
     Adding external electric field

     Computed dipole along edir(3) : 
        Dipole               -0.1324 Ry au,         -0.3366 Debye
        Dipole field         -0.0002 Ry au, 
 
        Potential amp.        0.0232 Ry
        Total length         46.3494 bohr
 

     total cpu time spent up to now is      530.7 secs

     total energy              =   -2976.45708736 Ry
     estimated scf accuracy    <       0.33613408 Ry

     iteration # 25     ecut=    29.40 Ry     beta= 0.05
     Davidson diagonalization with overlap
     c_bands:  1 eigenvalues not converged
     c_bands:  3 eigenvalues not converged
     c_bands:  3 eigenvalues not converged
     c_bands:  5 eigenvalues not converged
     c_bands:  2 eigenvalues not converged
     c_bands:  1 eigenvalues not converged
     c_bands:  2 eigenvalues not converged
     c_bands:  1 eigenvalues not converged
     ethr =  8.30E-05,  avg # of iterations = 21.9

     negative rho (up, down):  3.134E-03 0.000E+00
 
     Adding external electric field

     Computed dipole along edir(3) : 
        Dipole                0.4642 Ry au,          1.1800 Debye
        Dipole field          0.0009 Ry au, 
 
        Potential amp.       -0.0812 Ry
        Total length         46.3494 bohr
 

     total cpu time spent up to now is      553.0 secs

     total energy              =   -2976.49891669 Ry
     estimated scf accuracy    <       0.51137236 Ry

     iteration # 26     ecut=    29.40 Ry     beta= 0.05
     Davidson diagonalization with overlap
     ethr =  8.30E-05,  avg # of iterations =  7.4

     negative rho (up, down):  4.560E-03 0.000E+00
 
     Adding external electric field

     Computed dipole along edir(3) : 
        Dipole                1.1045 Ry au,          2.8074 Debye
        Dipole field          0.0021 Ry au, 
 
        Potential amp.       -0.1932 Ry
        Total length         46.3494 bohr
 

     total cpu time spent up to now is      565.6 secs

     total energy              =   -2976.47057579 Ry
     estimated scf accuracy    <       0.19109310 Ry

     iteration # 27     ecut=    29.40 Ry     beta= 0.05
     Davidson diagonalization with overlap
     c_bands:  3 eigenvalues not converged
     c_bands:  1 eigenvalues not converged
     c_bands:  4 eigenvalues not converged
     c_bands:  4 eigenvalues not converged
     c_bands:  4 eigenvalues not converged
     c_bands:  3 eigenvalues not converged
     c_bands:  5 eigenvalues not converged
     ethr =  4.72E-05,  avg # of iterations = 23.8

     negative rho (up, down):  3.958E-03 0.000E+00
 
     Adding external electric field

     Computed dipole along edir(3) : 
        Dipole                0.9177 Ry au,          2.3325 Debye
        Dipole field          0.0017 Ry au, 
 
        Potential amp.       -0.1605 Ry
        Total length         46.3494 bohr
 

     total cpu time spent up to now is      592.3 secs

     total energy              =   -2976.51979060 Ry
     estimated scf accuracy    <       0.76315760 Ry

     iteration # 28     ecut=    29.40 Ry     beta= 0.05
     Davidson diagonalization with overlap
     ethr =  4.72E-05,  avg # of iterations =  5.8

     negative rho (up, down):  3.866E-03 0.000E+00
 
     Adding external electric field

     Computed dipole along edir(3) : 
        Dipole                0.8043 Ry au,          2.0444 Debye
        Dipole field          0.0015 Ry au, 
 
        Potential amp.       -0.1407 Ry
        Total length         46.3494 bohr
 

     total cpu time spent up to now is      604.5 secs

     total energy              =   -2976.49613329 Ry
     estimated scf accuracy    <       0.59686749 Ry

     iteration # 29     ecut=    29.40 Ry     beta= 0.05
     Davidson diagonalization with overlap
     c_bands:  2 eigenvalues not converged
     c_bands:  2 eigenvalues not converged
     c_bands:  2 eigenvalues not converged
     ethr =  4.72E-05,  avg # of iterations = 15.6

     negative rho (up, down):  4.461E-03 0.000E+00
 
     Adding external electric field

     Computed dipole along edir(3) : 
        Dipole                0.7886 Ry au,          2.0044 Debye
        Dipole field          0.0015 Ry au, 
 
        Potential amp.       -0.1380 Ry
        Total length         46.3494 bohr
 

     total cpu time spent up to now is      620.8 secs

     total energy              =   -2976.49638352 Ry
     estimated scf accuracy    <       0.13136526 Ry

     iteration # 30     ecut=    29.40 Ry     beta= 0.05
     Davidson diagonalization with overlap
     c_bands:  1 eigenvalues not converged
     c_bands:  2 eigenvalues not converged
     c_bands:  1 eigenvalues not converged
     ethr =  3.24E-05,  avg # of iterations = 13.1

     negative rho (up, down):  6.700E-03 0.000E+00
 
     Adding external electric field

     Computed dipole along edir(3) : 
        Dipole                0.9720 Ry au,          2.4705 Debye
        Dipole field          0.0018 Ry au, 
 
        Potential amp.       -0.1700 Ry
        Total length         46.3494 bohr
 

     total cpu time spent up to now is      635.8 secs

     total energy              =   -2976.50146856 Ry
     estimated scf accuracy    <       0.02124857 Ry

     iteration # 31     ecut=    29.40 Ry     beta= 0.05
     Davidson diagonalization with overlap
     c_bands:  2 eigenvalues not converged
     c_bands:  2 eigenvalues not converged
     c_bands:  1 eigenvalues not converged
     c_bands:  1 eigenvalues not converged
     c_bands:  2 eigenvalues not converged
     c_bands:  2 eigenvalues not converged
     c_bands:  1 eigenvalues not converged
     ethr =  5.25E-06,  avg # of iterations = 18.6

     negative rho (up, down):  8.254E-03 0.000E+00
 
     Adding external electric field

     Computed dipole along edir(3) : 
        Dipole                1.0589 Ry au,          2.6915 Debye
        Dipole field          0.0020 Ry au, 
 
        Potential amp.       -0.1852 Ry
        Total length         46.3494 bohr
 

     total cpu time spent up to now is      656.0 secs

     total energy              =   -2976.50553193 Ry
     estimated scf accuracy    <       0.02676306 Ry

     iteration # 32     ecut=    29.40 Ry     beta= 0.05
     Davidson diagonalization with overlap
     ethr =  5.25E-06,  avg # of iterations =  8.8

     negative rho (up, down):  7.360E-03 0.000E+00
 
     Adding external electric field

     Computed dipole along edir(3) : 
        Dipole                0.9292 Ry au,          2.3617 Debye
        Dipole field          0.0018 Ry au, 
 
        Potential amp.       -0.1625 Ry
        Total length         46.3494 bohr
 

     total cpu time spent up to now is      669.1 secs

     total energy              =   -2976.50233095 Ry
     estimated scf accuracy    <       0.07226712 Ry

     iteration # 33     ecut=    29.40 Ry     beta= 0.05
     Davidson diagonalization with overlap
     c_bands:  2 eigenvalues not converged
     c_bands:  1 eigenvalues not converged
     ethr =  5.25E-06,  avg # of iterations = 12.5

     negative rho (up, down):  7.758E-03 0.000E+00
 
     Adding external electric field

     Computed dipole along edir(3) : 
        Dipole                0.9190 Ry au,          2.3359 Debye
        Dipole field          0.0017 Ry au, 
 
        Potential amp.       -0.1608 Ry
        Total length         46.3494 bohr
 

     total cpu time spent up to now is      683.5 secs

     total energy              =   -2976.50330176 Ry
     estimated scf accuracy    <       0.01082841 Ry

     iteration # 34     ecut=    29.40 Ry     beta= 0.05
     Davidson diagonalization with overlap
     c_bands:  1 eigenvalues not converged
     c_bands:  4 eigenvalues not converged
     c_bands:  3 eigenvalues not converged
     c_bands:  2 eigenvalues not converged
     c_bands:  2 eigenvalues not converged
     c_bands:  2 eigenvalues not converged
     c_bands:  1 eigenvalues not converged
     ethr =  2.67E-06,  avg # of iterations = 18.4

     negative rho (up, down):  9.157E-03 0.000E+00
 
     Adding external electric field

     Computed dipole along edir(3) : 
        Dipole                0.9129 Ry au,          2.3204 Debye
        Dipole field          0.0017 Ry au, 
 
        Potential amp.       -0.1597 Ry
        Total length         46.3494 bohr
 

     total cpu time spent up to now is      702.2 secs

     total energy              =   -2976.50445591 Ry
     estimated scf accuracy    <       0.00932184 Ry

     iteration # 35     ecut=    29.40 Ry     beta= 0.05
     Davidson diagonalization with overlap
     c_bands:  1 eigenvalues not converged
     c_bands:  2 eigenvalues not converged
     ethr =  2.30E-06,  avg # of iterations = 13.6

     negative rho (up, down):  1.184E-02 0.000E+00
 
     Adding external electric field

     Computed dipole along edir(3) : 
        Dipole                0.9601 Ry au,          2.4403 Debye
        Dipole field          0.0018 Ry au, 
 
        Potential amp.       -0.1680 Ry
        Total length         46.3494 bohr
 

     total cpu time spent up to now is      717.5 secs

     total energy              =   -2976.50442998 Ry
     estimated scf accuracy    <       0.01812670 Ry

     iteration # 36     ecut=    29.40 Ry     beta= 0.05
     Davidson diagonalization with overlap
     c_bands:  1 eigenvalues not converged
     ethr =  2.30E-06,  avg # of iterations =  8.2

     negative rho (up, down):  1.223E-02 0.000E+00
 
     Adding external electric field

     Computed dipole along edir(3) : 
        Dipole                0.9733 Ry au,          2.4739 Debye
        Dipole field          0.0018 Ry au, 
 
        Potential amp.       -0.1703 Ry
        Total length         46.3494 bohr
 

     total cpu time spent up to now is      730.3 secs

     total energy              =   -2976.50451880 Ry
     estimated scf accuracy    <       0.00443731 Ry

     iteration # 37     ecut=    29.40 Ry     beta= 0.05
     Davidson diagonalization with overlap
     c_bands:  1 eigenvalues not converged
     c_bands:  1 eigenvalues not converged
     c_bands:  1 eigenvalues not converged
     c_bands:  1 eigenvalues not converged
     c_bands:  1 eigenvalues not converged
     ethr =  1.10E-06,  avg # of iterations = 15.4

     negative rho (up, down):  1.214E-02 0.000E+00
 
     Adding external electric field

     Computed dipole along edir(3) : 
        Dipole                0.9710 Ry au,          2.4680 Debye
        Dipole field          0.0018 Ry au, 
 
        Potential amp.       -0.1699 Ry
        Total length         46.3494 bohr
 

     total cpu time spent up to now is      746.9 secs

     total energy              =   -2976.50495978 Ry
     estimated scf accuracy    <       0.00114412 Ry

     iteration # 38     ecut=    29.40 Ry     beta= 0.05
     Davidson diagonalization with overlap
     c_bands:  1 eigenvalues not converged
     ethr =  2.82E-07,  avg # of iterations = 10.2

     negative rho (up, down):  1.209E-02 0.000E+00
 
     Adding external electric field

     Computed dipole along edir(3) : 
        Dipole                0.9705 Ry au,          2.4668 Debye
        Dipole field          0.0018 Ry au, 
 
        Potential amp.       -0.1698 Ry
        Total length         46.3494 bohr
 

     total cpu time spent up to now is      760.3 secs

     total energy              =   -2976.50498862 Ry
     estimated scf accuracy    <       0.00113232 Ry

     iteration # 39     ecut=    29.40 Ry     beta= 0.05
     Davidson diagonalization with overlap
     ethr =  2.80E-07,  avg # of iterations =  2.7

     negative rho (up, down):  1.171E-02 0.000E+00
 
     Adding external electric field

     Computed dipole along edir(3) : 
        Dipole                0.9544 Ry au,          2.4257 Debye
        Dipole field          0.0018 Ry au, 
 
        Potential amp.       -0.1669 Ry
        Total length         46.3494 bohr
 

     total cpu time spent up to now is      771.5 secs

     total energy              =   -2976.50503032 Ry
     estimated scf accuracy    <       0.00080096 Ry

     iteration # 40     ecut=    29.40 Ry     beta= 0.05
     Davidson diagonalization with overlap
     ethr =  1.98E-07,  avg # of iterations =  2.8

     negative rho (up, down):  1.195E-02 0.000E+00
 
     Adding external electric field

     Computed dipole along edir(3) : 
        Dipole                0.9537 Ry au,          2.4241 Debye
        Dipole field          0.0018 Ry au, 
 
        Potential amp.       -0.1668 Ry
        Total length         46.3494 bohr
 

     total cpu time spent up to now is      782.6 secs

     total energy              =   -2976.50507697 Ry
     estimated scf accuracy    <       0.00087361 Ry

     iteration # 41     ecut=    29.40 Ry     beta= 0.05
     Davidson diagonalization with overlap
     ethr =  1.98E-07,  avg # of iterations =  2.6

     negative rho (up, down):  1.302E-02 0.000E+00
 
     Adding external electric field

     Computed dipole along edir(3) : 
        Dipole                0.9709 Ry au,          2.4678 Debye
        Dipole field          0.0018 Ry au, 
 
        Potential amp.       -0.1698 Ry
        Total length         46.3494 bohr
 

     total cpu time spent up to now is      793.9 secs

     total energy              =   -2976.50510013 Ry
     estimated scf accuracy    <       0.00074808 Ry

     iteration # 42     ecut=    29.40 Ry     beta= 0.05
     Davidson diagonalization with overlap
     ethr =  1.85E-07,  avg # of iterations =  9.5

     negative rho (up, down):  1.293E-02 0.000E+00
 
     Adding external electric field

     Computed dipole along edir(3) : 
        Dipole                0.9852 Ry au,          2.5041 Debye
        Dipole field          0.0019 Ry au, 
 
        Potential amp.       -0.1723 Ry
        Total length         46.3494 bohr
 

     total cpu time spent up to now is      808.8 secs

     total energy              =   -2976.50515347 Ry
     estimated scf accuracy    <       0.00075381 Ry

     iteration # 43     ecut=    29.40 Ry     beta= 0.05
     Davidson diagonalization with overlap
     ethr =  1.85E-07,  avg # of iterations =  2.4

     negative rho (up, down):  1.382E-02 0.000E+00
 
     Adding external electric field

     Computed dipole along edir(3) : 
        Dipole                0.9736 Ry au,          2.4747 Debye
        Dipole field          0.0018 Ry au, 
 
        Potential amp.       -0.1703 Ry
        Total length         46.3494 bohr
 

     total cpu time spent up to now is      820.0 secs

     total energy              =   -2976.50507837 Ry
     estimated scf accuracy    <       0.00055479 Ry

     iteration # 44     ecut=    29.40 Ry     beta= 0.05
     Davidson diagonalization with overlap
     ethr =  1.37E-07,  avg # of iterations = 11.1

     negative rho (up, down):  1.416E-02 0.000E+00
 
     Adding external electric field

     Computed dipole along edir(3) : 
        Dipole                0.9755 Ry au,          2.4795 Debye
        Dipole field          0.0018 Ry au, 
 
        Potential amp.       -0.1706 Ry
        Total length         46.3494 bohr
 

     total cpu time spent up to now is      839.0 secs

     total energy              =   -2976.50521780 Ry
     estimated scf accuracy    <       0.00057482 Ry

     iteration # 45     ecut=    29.40 Ry     beta= 0.05
     Davidson diagonalization with overlap
     ethr =  1.37E-07,  avg # of iterations =  6.0

     negative rho (up, down):  1.414E-02 0.000E+00
 
     Adding external electric field

     Computed dipole along edir(3) : 
        Dipole                0.9772 Ry au,          2.4838 Debye
        Dipole field          0.0018 Ry au, 
 
        Potential amp.       -0.1709 Ry
        Total length         46.3494 bohr
 

     total cpu time spent up to now is      851.4 secs

     total energy              =   -2976.50525095 Ry
     estimated scf accuracy    <       0.00011933 Ry

     iteration # 46     ecut=    29.40 Ry     beta= 0.05
     Davidson diagonalization with overlap
     ethr =  2.95E-08,  avg # of iterations = 12.9

     negative rho (up, down):  1.432E-02 0.000E+00
 
     Adding external electric field

     Computed dipole along edir(3) : 
        Dipole                0.9818 Ry au,          2.4954 Debye
        Dipole field          0.0019 Ry au, 
 
        Potential amp.       -0.1717 Ry
        Total length         46.3494 bohr
 

     total cpu time spent up to now is      871.4 secs

     total energy              =   -2976.50527409 Ry
     estimated scf accuracy    <       0.00017290 Ry

     iteration # 47     ecut=    29.40 Ry     beta= 0.05
     Davidson diagonalization with overlap
     ethr =  2.95E-08,  avg # of iterations =  9.8

     negative rho (up, down):  1.482E-02 0.000E+00
 
     Adding external electric field

     Computed dipole along edir(3) : 
        Dipole                0.9886 Ry au,          2.5128 Debye
        Dipole field          0.0019 Ry au, 
 
        Potential amp.       -0.1729 Ry
        Total length         46.3494 bohr
 

     total cpu time spent up to now is      887.8 secs

     total energy              =   -2976.50532486 Ry
     estimated scf accuracy    <       0.00004743 Ry

     iteration # 48     ecut=    29.40 Ry     beta= 0.05
     Davidson diagonalization with overlap
     c_bands:  1 eigenvalues not converged
     ethr =  1.17E-08,  avg # of iterations = 12.5

     negative rho (up, down):  1.494E-02 0.000E+00
 
     Adding external electric field

     Computed dipole along edir(3) : 
        Dipole                0.9887 Ry au,          2.5131 Debye
        Dipole field          0.0019 Ry au, 
 
        Potential amp.       -0.1730 Ry
        Total length         46.3494 bohr
 

     total cpu time spent up to now is      906.1 secs

     total energy              =   -2976.50534062 Ry
     estimated scf accuracy    <       0.00004971 Ry

     iteration # 49     ecut=    29.40 Ry     beta= 0.05
     Davidson diagonalization with overlap
     ethr =  1.17E-08,  avg # of iterations =  8.4

     negative rho (up, down):  1.490E-02 0.000E+00
 
     Adding external electric field

     Computed dipole along edir(3) : 
        Dipole                0.9873 Ry au,          2.5094 Debye
        Dipole field          0.0019 Ry au, 
 
        Potential amp.       -0.1727 Ry
        Total length         46.3494 bohr
 

     total cpu time spent up to now is      919.8 secs

     total energy              =   -2976.50536063 Ry
     estimated scf accuracy    <       0.00000909 Ry

     iteration # 50     ecut=    29.40 Ry     beta= 0.05
     Davidson diagonalization with overlap
     ethr =  2.24E-09,  avg # of iterations = 13.1

     negative rho (up, down):  1.496E-02 0.000E+00
 
     Adding external electric field

     Computed dipole along edir(3) : 
        Dipole                0.9879 Ry au,          2.5110 Debye
        Dipole field          0.0019 Ry au, 
 
        Potential amp.       -0.1728 Ry
        Total length         46.3494 bohr
 

     total cpu time spent up to now is      937.0 secs

     total energy              =   -2976.50537701 Ry
     estimated scf accuracy    <       0.00000584 Ry

     iteration # 51     ecut=    29.40 Ry     beta= 0.05
     Davidson diagonalization with overlap
     ethr =  1.44E-09,  avg # of iterations =  8.9

     negative rho (up, down):  1.497E-02 0.000E+00
 
     Adding external electric field

     Computed dipole along edir(3) : 
        Dipole                0.9889 Ry au,          2.5136 Debye
        Dipole field          0.0019 Ry au, 
 
        Potential amp.       -0.1730 Ry
        Total length         46.3494 bohr
 

     total cpu time spent up to now is      951.4 secs

     total energy              =   -2976.50539076 Ry
     estimated scf accuracy    <       0.00000318 Ry

     iteration # 52     ecut=    29.40 Ry     beta= 0.05
     Davidson diagonalization with overlap
     ethr =  7.85E-10,  avg # of iterations = 11.5

     negative rho (up, down):  1.496E-02 0.000E+00
 
     Adding external electric field

     Computed dipole along edir(3) : 
        Dipole                0.9890 Ry au,          2.5137 Debye
        Dipole field          0.0019 Ry au, 
 
        Potential amp.       -0.1730 Ry
        Total length         46.3494 bohr
 

     total cpu time spent up to now is      970.8 secs

     total energy              =   -2976.50540337 Ry
     estimated scf accuracy    <       0.00000360 Ry

     iteration # 53     ecut=    29.40 Ry     beta= 0.05
     Davidson diagonalization with overlap
     ethr =  7.85E-10,  avg # of iterations =  1.0

     negative rho (up, down):  1.497E-02 0.000E+00
 
     Adding external electric field

     Computed dipole along edir(3) : 
        Dipole                0.9892 Ry au,          2.5142 Debye
        Dipole field          0.0019 Ry au, 
 
        Potential amp.       -0.1730 Ry
        Total length         46.3494 bohr
 

     total cpu time spent up to now is      980.9 secs

     total energy              =   -2976.50541429 Ry
     estimated scf accuracy    <       0.00000304 Ry

     iteration # 54     ecut=    29.40 Ry     beta= 0.05
     Davidson diagonalization with overlap
     ethr =  7.51E-10,  avg # of iterations =  1.0

     negative rho (up, down):  1.496E-02 0.000E+00
 
     Adding external electric field

     Computed dipole along edir(3) : 
        Dipole                0.9889 Ry au,          2.5134 Debye
        Dipole field          0.0019 Ry au, 
 
        Potential amp.       -0.1730 Ry
        Total length         46.3494 bohr
 

     total cpu time spent up to now is      991.0 secs

     total energy              =   -2976.50542392 Ry
     estimated scf accuracy    <       0.00000339 Ry

     iteration # 55     ecut=    29.40 Ry     beta= 0.05
     Davidson diagonalization with overlap
     ethr =  7.51E-10,  avg # of iterations =  1.0

     negative rho (up, down):  1.496E-02 0.000E+00
 
     Adding external electric field

     Computed dipole along edir(3) : 
        Dipole                0.9887 Ry au,          2.5131 Debye
        Dipole field          0.0019 Ry au, 
 
        Potential amp.       -0.1730 Ry
        Total length         46.3494 bohr
 

     total cpu time spent up to now is     1001.1 secs

     total energy              =   -2976.50543240 Ry
     estimated scf accuracy    <       0.00000312 Ry

     iteration # 56     ecut=    29.40 Ry     beta= 0.05
     Davidson diagonalization with overlap
     ethr =  7.51E-10,  avg # of iterations =  5.8

     negative rho (up, down):  1.495E-02 0.000E+00
 
     Adding external electric field

     Computed dipole along edir(3) : 
        Dipole                0.9886 Ry au,          2.5128 Debye
        Dipole field          0.0019 Ry au, 
 
        Potential amp.       -0.1729 Ry
        Total length         46.3494 bohr
 

     total cpu time spent up to now is     1013.5 secs

     total energy              =   -2976.50544041 Ry
     estimated scf accuracy    <       0.00000184 Ry

     iteration # 57     ecut=    29.40 Ry     beta= 0.05
     Davidson diagonalization with overlap
     ethr =  4.54E-10,  avg # of iterations =  6.3

     negative rho (up, down):  1.495E-02 0.000E+00
 
     Adding external electric field

     Computed dipole along edir(3) : 
        Dipole                0.9885 Ry au,          2.5126 Debye
        Dipole field          0.0019 Ry au, 
 
        Potential amp.       -0.1729 Ry
        Total length         46.3494 bohr
 

     total cpu time spent up to now is     1025.8 secs

     total energy              =   -2976.50544765 Ry
     estimated scf accuracy    <       0.00000184 Ry

     iteration # 58     ecut=    29.40 Ry     beta= 0.05
     Davidson diagonalization with overlap
     ethr =  4.54E-10,  avg # of iterations =  1.0

     negative rho (up, down):  1.492E-02 0.000E+00
 
     Adding external electric field

     Computed dipole along edir(3) : 
        Dipole                0.9880 Ry au,          2.5112 Debye
        Dipole field          0.0019 Ry au, 
 
        Potential amp.       -0.1728 Ry
        Total length         46.3494 bohr
 

     total cpu time spent up to now is     1035.9 secs

     total energy              =   -2976.50545402 Ry
     estimated scf accuracy    <       0.00000204 Ry

     iteration # 59     ecut=    29.40 Ry     beta= 0.05
     Davidson diagonalization with overlap
     ethr =  4.54E-10,  avg # of iterations = 10.1

     negative rho (up, down):  1.494E-02 0.000E+00
 
     Adding external electric field

     Computed dipole along edir(3) : 
        Dipole                0.9883 Ry au,          2.5120 Debye
        Dipole field          0.0019 Ry au, 
 
        Potential amp.       -0.1729 Ry
        Total length         46.3494 bohr
 

     total cpu time spent up to now is     1053.5 secs

     total energy              =   -2976.50545980 Ry
     estimated scf accuracy    <       0.00000417 Ry

     iteration # 60     ecut=    29.40 Ry     beta= 0.05
     Davidson diagonalization with overlap
     ethr =  4.54E-10,  avg # of iterations =  6.1

     negative rho (up, down):  1.498E-02 0.000E+00
 
     Adding external electric field

     Computed dipole along edir(3) : 
        Dipole                0.9887 Ry au,          2.5130 Debye
        Dipole field          0.0019 Ry au, 
 
        Potential amp.       -0.1730 Ry
        Total length         46.3494 bohr
 

     total cpu time spent up to now is     1066.0 secs

     total energy              =   -2976.50546479 Ry
     estimated scf accuracy    <       0.00000224 Ry

     iteration # 61     ecut=    29.40 Ry     beta= 0.05
     Davidson diagonalization with overlap
     c_bands:  1 eigenvalues not converged
     ethr =  4.54E-10,  avg # of iterations = 15.0

     negative rho (up, down):  1.497E-02 0.000E+00
 
     Adding external electric field

     Computed dipole along edir(3) : 
        Dipole                0.9881 Ry au,          2.5116 Debye
        Dipole field          0.0019 Ry au, 
 
        Potential amp.       -0.1729 Ry
        Total length         46.3494 bohr
 

     total cpu time spent up to now is     1086.6 secs

     total energy              =   -2976.50547035 Ry
     estimated scf accuracy    <       0.00000164 Ry

     iteration # 62     ecut=    29.40 Ry     beta= 0.05
     Davidson diagonalization with overlap
     ethr =  4.06E-10,  avg # of iterations =  2.0

     negative rho (up, down):  1.498E-02 0.000E+00
 
     Adding external electric field

     Computed dipole along edir(3) : 
        Dipole                0.9879 Ry au,          2.5109 Debye
        Dipole field          0.0019 Ry au, 
 
        Potential amp.       -0.1728 Ry
        Total length         46.3494 bohr
 

     total cpu time spent up to now is     1097.7 secs

     total energy              =   -2976.50547471 Ry
     estimated scf accuracy    <       0.00000101 Ry

     iteration # 63     ecut=    29.40 Ry     beta= 0.05
     Davidson diagonalization with overlap
     ethr =  2.51E-10,  avg # of iterations = 12.0

     negative rho (up, down):  1.498E-02 0.000E+00
 
     Adding external electric field

     Computed dipole along edir(3) : 
        Dipole                0.9879 Ry au,          2.5110 Debye
        Dipole field          0.0019 Ry au, 
 
        Potential amp.       -0.1728 Ry
        Total length         46.3494 bohr
 

     total cpu time spent up to now is     1114.6 secs

     total energy              =   -2976.50547866 Ry
     estimated scf accuracy    <       0.00000023 Ry

     iteration # 64     ecut=    29.40 Ry     beta= 0.05
     Davidson diagonalization with overlap
     ethr =  5.67E-11,  avg # of iterations =  9.4

     negative rho (up, down):  1.500E-02 0.000E+00
 
     Adding external electric field

     Computed dipole along edir(3) : 
        Dipole                0.9880 Ry au,          2.5112 Debye
        Dipole field          0.0019 Ry au, 
 
        Potential amp.       -0.1728 Ry
        Total length         46.3494 bohr
 

     total cpu time spent up to now is     1131.8 secs

     total energy              =   -2976.50548224 Ry
     estimated scf accuracy    <       0.00000022 Ry

     iteration # 65     ecut=    29.40 Ry     beta= 0.05
     Davidson diagonalization with overlap
     ethr =  5.36E-11,  avg # of iterations =  4.4

     negative rho (up, down):  1.501E-02 0.000E+00
 
     Adding external electric field

     Computed dipole along edir(3) : 
        Dipole                0.9880 Ry au,          2.5113 Debye
        Dipole field          0.0019 Ry au, 
 
        Potential amp.       -0.1728 Ry
        Total length         46.3494 bohr
 

     total cpu time spent up to now is     1143.5 secs

     total energy              =   -2976.50548541 Ry
     estimated scf accuracy    <       0.00000014 Ry

     iteration # 66     ecut=    29.40 Ry     beta= 0.05
     Davidson diagonalization with overlap
     c_bands:  1 eigenvalues not converged
     ethr =  3.37E-11,  avg # of iterations = 13.1

     negative rho (up, down):  1.505E-02 0.000E+00
 
     Adding external electric field

     Computed dipole along edir(3) : 
        Dipole                0.9874 Ry au,          2.5097 Debye
        Dipole field          0.0019 Ry au, 
 
        Potential amp.       -0.1727 Ry
        Total length         46.3494 bohr
 

     total cpu time spent up to now is     1162.1 secs

     End of self-consistent calculation

          k = 0.0000 0.0000 0.0000 ( 18029 PWs)   bands (ev):

   -55.5095 -55.4792 -55.4754 -55.4460 -55.4431 -55.3577 -55.3271 -55.3253
   -55.3225 -55.2932 -55.2916 -55.2579 -55.0499 -54.8851 -54.4922 -54.4581
   -32.0235 -31.9932 -31.8820 -31.8589 -31.8252 -31.8020 -31.7837 -31.7818
   -31.7539 -31.7107 -31.6994 -31.6797 -31.6766 -31.6617 -31.6562 -31.6344
   -31.6150 -31.6096 -31.6087 -31.5763 -31.5666 -31.5576 -31.5318 -31.5197
   -31.5172 -31.5155 -31.5121 -31.5065 -31.4911 -31.4834 -31.4803 -31.4704
   -31.4680 -31.4567 -31.4450 -31.4362 -31.4039 -31.3057 -31.2603 -31.1485
   -31.1401 -31.0759 -30.8994 -30.8107 -30.7883 -30.7162 -30.6297 -30.5185
   -18.7233 -16.5578 -16.2198 -15.9825 -15.7605 -15.6669 -15.6247 -15.4278
   -15.3334 -15.2488 -15.1285 -15.0775 -15.0516 -15.0440 -15.0303 -15.0051
   -14.9708 -14.9648 -14.9615 -14.9374 -14.9180 -14.8666 -14.8606 -14.8537
   -14.7604 -14.6966 -14.6616 -14.6483 -14.6388 -14.5730 -14.2014 -12.9943
   -12.8778 -11.6457  -8.8806  -6.4614  -5.1588  -4.2912  -3.6971  -3.5942
    -3.4661  -3.4183  -3.3706  -3.3430  -3.1499  -3.0940  -2.9419  -2.7703
    -2.6969  -2.6586  -2.6252  -2.5902  -2.5545  -2.4329  -2.4079  -2.3393
    -2.3188  -2.3078  -2.2750  -2.2653  -2.2503  -2.2362  -2.1562  -2.1476
    -2.0615  -1.9519  -1.8996  -1.8847  -1.8661  -1.8248  -1.7875  -1.7740
    -1.7607  -1.7426  -1.7293  -1.6915  -1.5759  -1.5254  -1.4468  -1.3664
    -1.2951  -1.2078  -1.1308  -1.1030  -1.0354  -1.0103  -0.9497  -0.9254
    -0.9122  -0.9049  -0.7876  -0.6796  -0.6614  -0.5918  -0.5307  -0.4543
    -0.4108  -0.3849  -0.3157  -0.2822  -0.2714  -0.2579  -0.2318  -0.2169
    -0.1608  -0.0135   0.0637   0.0821   0.1408   0.1816   0.2330   0.2583
     0.2861   0.3340   0.3655   0.4055   0.4552   0.4588   0.4708   0.4950
     0.5092   0.6683   0.7235   0.7566   0.7822   0.8310   0.9432   0.9863
     1.1401   1.2085   1.2734   1.4564   1.5303   1.6109   1.7218   2.0669
     2.1016   2.1474   3.6161   3.7085   3.7495   3.7708   3.8577   3.8604
     4.0713   4.1160   4.1241   4.1903

          k = 0.0000 0.0419 0.0000 ( 17933 PWs)   bands (ev):

   -55.5044 -55.4803 -55.4739 -55.4483 -55.4446 -55.3527 -55.3274 -55.3265
   -55.3221 -55.2981 -55.2866 -55.2627 -55.0491 -54.8858 -54.4871 -54.4630
   -31.9666 -31.9392 -31.8307 -31.8039 -31.7972 -31.7929 -31.7702 -31.7381
   -31.7286 -31.7070 -31.7038 -31.6962 -31.6717 -31.6697 -31.6571 -31.6520
   -31.6479 -31.6435 -31.5964 -31.5805 -31.5670 -31.5543 -31.5351 -31.5311
   -31.5297 -31.5233 -31.5228 -31.5186 -31.5151 -31.5047 -31.4945 -31.4872
   -31.4670 -31.4642 -31.4601 -31.4551 -31.4477 -31.3049 -31.2563 -31.1678
   -31.1484 -31.0918 -30.8453 -30.8073 -30.7914 -30.7036 -30.6422 -30.5757
   -18.7228 -16.5471 -16.0856 -15.8631 -15.6558 -15.5591 -15.5272 -15.3906
   -15.3407 -15.2737 -15.2545 -15.0917 -15.0597 -15.0343 -15.0167 -15.0133
   -14.9924 -14.9838 -14.9787 -14.9682 -14.9420 -14.9048 -14.8583 -14.8259
   -14.7832 -14.7471 -14.7154 -14.6999 -14.6574 -14.6299 -14.2672 -12.9984
   -12.9173 -11.6487  -8.8848  -6.4617  -5.1670  -4.2874  -3.6553  -3.4087
    -3.2979  -3.2428  -3.2386  -3.1958  -3.0464  -2.9904  -2.7669  -2.6801
    -2.6622  -2.5657  -2.5573  -2.5435  -2.4992  -2.4685  -2.4568  -2.4177
    -2.3910  -2.3654  -2.3444  -2.3044  -2.2729  -2.2612  -2.2356  -2.2052
    -2.1638  -2.1330  -2.0917  -2.0182  -2.0058  -1.9938  -1.9330  -1.8978
    -1.7748  -1.7568  -1.7009  -1.6319  -1.5106  -1.4812  -1.4301  -1.2542
    -1.2178  -1.1870  -1.1625  -1.1253  -0.9208  -0.8842  -0.8502  -0.8072
    -0.7412  -0.7150  -0.6859  -0.6001  -0.5661  -0.5164  -0.4665  -0.4384
    -0.4224  -0.4051  -0.3833  -0.3388  -0.3308  -0.2720  -0.2208  -0.1339
    -0.0952  -0.0453  -0.0266   0.0177   0.0412   0.0650   0.1657   0.2307
     0.2423   0.2824   0.2887   0.3135   0.3263   0.3635   0.4358   0.4790
     0.5352   0.5922   0.6610   0.6921   0.7430   0.8074   0.8205   0.8385
     0.9433   1.0827   1.1477   1.1609   1.4867   1.7190   1.8031   2.0493
     2.0559   2.0593   3.8142   3.8573   3.8814   3.9409   3.9749   4.0171
     4.0899   4.1096   4.1340   4.1746

          k = 0.0000-0.0839 0.0000 ( 17884 PWs)   bands (ev):

   -55.4928 -55.4919 -55.4632 -55.4589 -55.4433 -55.3433 -55.3368 -55.3277
   -55.3103 -55.3097 -55.2757 -55.2736 -55.0483 -54.8865 -54.4751 -54.4750
   -31.8363 -31.8195 -31.8073 -31.8066 -31.7877 -31.7868 -31.7452 -31.7395
   -31.7313 -31.6762 -31.6749 -31.6725 -31.6675 -31.6627 -31.6607 -31.6558
   -31.6294 -31.6263 -31.6239 -31.6146 -31.6138 -31.5966 -31.5935 -31.5648
   -31.5632 -31.5448 -31.5395 -31.5359 -31.5321 -31.5306 -31.5066 -31.5021
   -31.4838 -31.4818 -31.4563 -31.4546 -31.4116 -31.3041 -31.2557 -31.2103
   -31.1487 -31.1033 -30.7991 -30.7990 -30.7123 -30.7122 -30.6729 -30.6729
   -18.7224 -16.5375 -15.7518 -15.7321 -15.5847 -15.5568 -15.4250 -15.3910
   -15.3069 -15.2871 -15.2842 -15.2550 -15.2119 -15.1450 -15.0666 -15.0514
   -14.9428 -14.9162 -14.9022 -14.8959 -14.8850 -14.8513 -14.8488 -14.8468
   -14.8336 -14.8224 -14.8006 -14.7746 -14.7600 -14.6373 -14.3561 -12.9801
   -12.9800 -11.6518  -8.8891  -6.4621  -5.1754  -4.2843  -3.6276  -3.1501
    -2.9576  -2.9191  -2.8992  -2.8876  -2.8685  -2.8342  -2.8041  -2.8031
    -2.7704  -2.7164  -2.6590  -2.6133  -2.5968  -2.5831  -2.5627  -2.5160
    -2.4682  -2.4619  -2.3934  -2.3466  -2.3294  -2.3243  -2.2659  -2.2256
    -2.1920  -2.1195  -2.1025  -2.0701  -2.0114  -1.9209  -1.8926  -1.8725
    -1.8372  -1.7568  -1.5977  -1.5058  -1.4262  -1.3796  -1.3373  -1.2863
    -1.2037  -1.1746  -1.1335  -1.0347  -0.9448  -0.9360  -0.9180  -0.9065
    -0.8743  -0.8458  -0.7471  -0.7275  -0.6846  -0.6231  -0.4789  -0.4453
    -0.3957  -0.3005  -0.1871  -0.1505  -0.1358  -0.1314  -0.1158  -0.0684
    -0.0513  -0.0026   0.0084   0.0366   0.0510   0.0591   0.0841   0.1184
     0.1617   0.1800   0.2038   0.2415   0.2769   0.2884   0.3063   0.3427
     0.3808   0.3972   0.4561   0.5461   0.7200   0.7252   0.7338   0.7568
     1.0187   1.0432   1.0997   1.1980   1.2017   1.8622   1.8627   1.9926
     1.9930   2.0439   3.9458   3.9778   4.0263   4.0544   4.0610   4.0721
     4.1456   4.1789   4.2078   4.2177

          k = 0.0380 0.0000 0.0000 ( 17913 PWs)   bands (ev):

   -55.5094 -55.4790 -55.4753 -55.4459 -55.4430 -55.3576 -55.3269 -55.3252
   -55.3224 -55.2931 -55.2916 -55.2578 -55.0498 -54.8850 -54.4921 -54.4580
   -32.0236 -31.9941 -31.8835 -31.8644 -31.8254 -31.8017 -31.7866 -31.7835
   -31.7539 -31.7005 -31.6925 -31.6790 -31.6728 -31.6588 -31.6561 -31.6278
   -31.6147 -31.6082 -31.5893 -31.5773 -31.5742 -31.5664 -31.5346 -31.5192
   -31.5128 -31.5114 -31.5102 -31.5066 -31.4910 -31.4889 -31.4814 -31.4798
   -31.4702 -31.4566 -31.4451 -31.4352 -31.4041 -31.3084 -31.2602 -31.1489
   -31.1400 -31.0757 -30.8989 -30.8141 -30.7863 -30.7160 -30.6295 -30.5183
   -18.7228 -16.5522 -16.1412 -15.9000 -15.6804 -15.6505 -15.5645 -15.4393
   -15.3693 -15.2467 -15.2065 -15.2038 -15.1825 -15.1386 -15.1232 -15.0696
   -15.0573 -14.9694 -14.8841 -14.8668 -14.8382 -14.7783 -14.7679 -14.7574
   -14.7332 -14.7227 -14.7042 -14.6982 -14.6725 -14.6216 -14.1999 -12.9911
   -12.8775 -11.6453  -8.8816  -6.4563  -5.1634  -4.3022  -3.6628  -3.4955
    -3.2607  -3.2134  -3.1623  -3.1412  -3.0648  -3.0568  -2.9550  -2.9146
    -2.7717  -2.7590  -2.6590  -2.5999  -2.5916  -2.5807  -2.4686  -2.3331
    -2.3127  -2.2625  -2.2423  -2.2125  -2.1546  -2.1077  -2.0897  -2.0653
    -2.0331  -1.9965  -1.9120  -1.8870  -1.8544  -1.7853  -1.7699  -1.7455
    -1.7223  -1.7082  -1.5683  -1.5048  -1.4676  -1.4598  -1.3880  -1.3420
    -1.3078  -1.2497  -1.1224  -1.1170  -1.0689  -1.0248  -0.9996  -0.9464
    -0.9303  -0.8768  -0.8367  -0.7837  -0.7678  -0.7602  -0.6642  -0.5559
    -0.5078  -0.4603  -0.4028  -0.3128  -0.2695  -0.2459  -0.2059  -0.1869
    -0.1261  -0.0291   0.0271   0.0757   0.0976   0.1290   0.1874   0.2231
     0.2403   0.2676   0.3082   0.3279   0.3498   0.3660   0.3866   0.4304
     0.5452   0.5618   0.6265   0.6697   0.7455   0.7852   0.8282   0.8683
     1.1140   1.1745   1.2546   1.4573   1.4795   1.5422   1.6913   1.9900
     2.0646   2.0855   3.6450   3.6795   3.9740   3.9897   4.0090   4.0199
     4.0457   4.0713   4.0803   4.1484

          k = 0.0380 0.0419 0.0000 ( 17878 PWs)   bands (ev):

   -55.5043 -55.4803 -55.4738 -55.4482 -55.4446 -55.3526 -55.3274 -55.3264
   -55.3218 -55.2980 -55.2866 -55.2627 -55.0491 -54.8857 -54.4870 -54.4630
   -31.9668 -31.9400 -31.8321 -31.8105 -31.7970 -31.7930 -31.7700 -31.7384
   -31.7338 -31.7066 -31.7030 -31.6834 -31.6718 -31.6665 -31.6570 -31.6516
   -31.6454 -31.6339 -31.5802 -31.5792 -31.5708 -31.5661 -31.5354 -31.5296
   -31.5240 -31.5215 -31.5198 -31.5191 -31.5147 -31.5048 -31.4945 -31.4890
   -31.4842 -31.4665 -31.4557 -31.4542 -31.4523 -31.3072 -31.2564 -31.1677
   -31.1492 -31.0917 -30.8449 -30.8099 -30.7904 -30.7034 -30.6423 -30.5755
   -18.7224 -16.5439 -16.0129 -15.7869 -15.5822 -15.5456 -15.4614 -15.3949
   -15.3473 -15.2882 -15.2734 -15.1698 -15.1687 -15.1170 -15.1004 -15.0329
   -15.0106 -15.0034 -14.9532 -14.9134 -14.8947 -14.8393 -14.8359 -14.7993
   -14.7822 -14.7710 -14.7521 -14.7390 -14.7122 -14.6393 -14.2664 -12.9961
   -12.9176 -11.6487  -8.8856  -6.4566  -5.1692  -4.2931  -3.6461  -3.3242
    -3.1047  -3.0827  -3.0466  -2.9677  -2.9250  -2.9074  -2.7866  -2.7450
    -2.6267  -2.6107  -2.5361  -2.5146  -2.4806  -2.4368  -2.4287  -2.3999
    -2.3658  -2.3408  -2.3052  -2.2836  -2.2441  -2.2329  -2.2151  -2.1858
    -2.1617  -2.1430  -2.1013  -2.0080  -1.9982  -1.9417  -1.8636  -1.8352
    -1.7596  -1.7088  -1.6436  -1.5429  -1.5088  -1.4823  -1.3877  -1.2728
    -1.2445  -1.2142  -1.1111  -1.0338  -0.9611  -0.9353  -0.9076  -0.8581
    -0.8271  -0.7881  -0.7470  -0.7189  -0.7024  -0.6271  -0.6131  -0.5763
    -0.4913  -0.4467  -0.3961  -0.3709  -0.3312  -0.2861  -0.2555  -0.2316
    -0.2016  -0.1672  -0.1304  -0.1088  -0.0887  -0.0182   0.0523   0.0792
     0.1231   0.1751   0.1825   0.2147   0.2803   0.3724   0.4157   0.4911
     0.5698   0.5875   0.6630   0.7140   0.7562   0.7999   0.8514   0.8714
     0.9224   1.0715   1.1224   1.1476   1.4201   1.7297   1.8071   1.9783
     2.0401   2.0705   3.8038   3.8574   3.9297   4.0042   4.0248   4.0883
     4.1311   4.1693   4.1845   4.2124

          k = 0.0380-0.0839 0.0000 ( 17916 PWs)   bands (ev):

   -55.4928 -55.4919 -55.4632 -55.4589 -55.4434 -55.3433 -55.3368 -55.3277
   -55.3103 -55.3097 -55.2758 -55.2736 -55.0484 -54.8865 -54.4751 -54.4750
   -31.8366 -31.8199 -31.8081 -31.8073 -31.7877 -31.7868 -31.7462 -31.7397
   -31.7316 -31.6961 -31.6854 -31.6736 -31.6600 -31.6566 -31.6447 -31.6359
   -31.6297 -31.6274 -31.6245 -31.6135 -31.6127 -31.6075 -31.6047 -31.5481
   -31.5451 -31.5416 -31.5402 -31.5387 -31.5364 -31.5292 -31.5065 -31.5020
   -31.4838 -31.4819 -31.4682 -31.4663 -31.4113 -31.3063 -31.2557 -31.2101
   -31.1499 -31.1034 -30.8001 -30.8000 -30.7122 -30.7121 -30.6729 -30.6729
   -18.7221 -16.5360 -15.7087 -15.6760 -15.5324 -15.5011 -15.3903 -15.3512
   -15.2969 -15.2773 -15.2432 -15.2245 -15.2030 -15.1808 -15.0741 -15.0643
   -14.9908 -14.9642 -14.9384 -14.9307 -14.9209 -14.9086 -14.8844 -14.8705
   -14.8600 -14.8304 -14.8200 -14.8060 -14.7682 -14.6283 -14.3531 -12.9799
   -12.9798 -11.6522  -8.8893  -6.4597  -5.1689  -4.2854  -3.6338  -3.1120
    -2.9424  -2.8092  -2.7503  -2.7199  -2.6988  -2.6720  -2.6482  -2.6204
    -2.5958  -2.5900  -2.5867  -2.5419  -2.5107  -2.4994  -2.4868  -2.4587
    -2.3775  -2.3627  -2.3544  -2.3394  -2.3128  -2.2964  -2.2452  -2.2160
    -2.1948  -2.1647  -2.1211  -2.0944  -2.0243  -1.9981  -1.9061  -1.7590
    -1.6434  -1.6249  -1.5951  -1.4667  -1.4553  -1.4055  -1.3835  -1.3595
    -1.3241  -1.2711  -1.2433  -1.2187  -1.1576  -1.1480  -1.1227  -1.0725
    -0.9722  -0.9634  -0.7861  -0.6769  -0.6529  -0.5739  -0.5612  -0.5135
    -0.4694  -0.3949  -0.3641  -0.3016  -0.2821  -0.2659  -0.2548  -0.2462
    -0.2145  -0.1737  -0.1470  -0.1103  -0.1011  -0.0659  -0.0525  -0.0434
     0.0405   0.0871   0.1168   0.1964   0.2640   0.3490   0.3998   0.5066
     0.5759   0.5788   0.6147   0.6325   0.6589   0.7033   0.8242   0.8378
     0.9745   1.0066   1.1032   1.1910   1.1994   1.8754   1.8760   1.9818
     1.9826   2.0564   3.9237   3.9395   4.0205   4.0352   4.0394   4.0793
     4.1964   4.2196   4.2443   4.2491

          k = 0.0380-0.0419 0.0000 ( 17876 PWs)   bands (ev):

   -55.5043 -55.4803 -55.4738 -55.4482 -55.4446 -55.3526 -55.3274 -55.3264
   -55.3218 -55.2980 -55.2866 -55.2627 -55.0491 -54.8857 -54.4870 -54.4630
   -31.9668 -31.9400 -31.8321 -31.8104 -31.7970 -31.7930 -31.7700 -31.7384
   -31.7338 -31.7065 -31.7031 -31.6835 -31.6718 -31.6664 -31.6570 -31.6513
   -31.6454 -31.6343 -31.5801 -31.5791 -31.5701 -31.5661 -31.5356 -31.5299
   -31.5244 -31.5213 -31.5196 -31.5192 -31.5147 -31.5049 -31.4945 -31.4888
   -31.4847 -31.4665 -31.4556 -31.4542 -31.4522 -31.3073 -31.2564 -31.1676
   -31.1492 -31.0917 -30.8449 -30.8099 -30.7903 -30.7034 -30.6423 -30.5755
   -18.7224 -16.5437 -16.0128 -15.7868 -15.5827 -15.5455 -15.4612 -15.3945
   -15.3479 -15.2891 -15.2739 -15.1703 -15.1694 -15.1165 -15.1022 -15.0300
   -15.0102 -15.0013 -14.9488 -14.9175 -14.8941 -14.8388 -14.8352 -14.8001
   -14.7845 -14.7710 -14.7525 -14.7392 -14.7122 -14.6393 -14.2660 -12.9961
   -12.9176 -11.6488  -8.8853  -6.4592  -5.1626  -4.2933  -3.6462  -3.3260
    -3.1080  -3.0757  -3.0458  -2.9671  -2.9363  -2.9064  -2.7973  -2.7370
    -2.6223  -2.6150  -2.5239  -2.5147  -2.4781  -2.4558  -2.4294  -2.3950
    -2.3794  -2.3366  -2.3067  -2.2777  -2.2520  -2.2317  -2.2046  -2.1886
    -2.1612  -2.1386  -2.0973  -2.0160  -1.9971  -1.9319  -1.8597  -1.8392
    -1.7513  -1.7103  -1.6496  -1.5254  -1.5143  -1.4867  -1.4543  -1.2547
    -1.2439  -1.2071  -1.1331  -0.9985  -0.9744  -0.9378  -0.9003  -0.8390
    -0.8257  -0.7868  -0.7377  -0.7282  -0.6992  -0.6252  -0.6065  -0.5468
    -0.4908  -0.4478  -0.4375  -0.3626  -0.3255  -0.3120  -0.2737  -0.2241
    -0.1959  -0.1452  -0.1370  -0.0962  -0.0591  -0.0297   0.0456   0.0768
     0.1357   0.1786   0.1960   0.2150   0.2816   0.3521   0.4252   0.4764
     0.5632   0.6019   0.6724   0.6978   0.7515   0.8016   0.8428   0.8664
     0.9203   1.0628   1.1147   1.1658   1.4201   1.7298   1.8072   1.9781
     2.0407   2.0613   3.8011   3.8567   3.9335   4.0007   4.0364   4.0772
     4.1299   4.1673   4.1949   4.2100

          k =-0.0760-0.0000 0.0000 ( 17886 PWs)   bands (ev):

   -55.5093 -55.4789 -55.4753 -55.4458 -55.4430 -55.3576 -55.3266 -55.3252
   -55.3224 -55.2931 -55.2917 -55.2578 -55.0498 -54.8850 -54.4920 -54.4580
   -32.0238 -31.9950 -31.8850 -31.8696 -31.8256 -31.8016 -31.7911 -31.7833
   -31.7540 -31.6998 -31.6806 -31.6701 -31.6643 -31.6560 -31.6559 -31.6221
   -31.6147 -31.6081 -31.6020 -31.5757 -31.5668 -31.5442 -31.5366 -31.5351
   -31.5183 -31.5117 -31.5110 -31.5066 -31.5041 -31.4908 -31.4805 -31.4786
   -31.4704 -31.4564 -31.4460 -31.4344 -31.4048 -31.3115 -31.2603 -31.1495
   -31.1399 -31.0757 -30.8985 -30.8174 -30.7850 -30.7159 -30.6294 -30.5184
   -18.7225 -16.5471 -16.0268 -15.8346 -15.6156 -15.6088 -15.4922 -15.4063
   -15.3781 -15.2874 -15.2855 -15.2505 -15.2437 -15.2209 -15.1923 -15.1583
   -15.1149 -14.9597 -14.9003 -14.8690 -14.8241 -14.8073 -14.7731 -14.7607
   -14.7447 -14.7267 -14.6779 -14.6678 -14.6236 -14.6101 -14.1990 -12.9881
   -12.8772 -11.6451  -8.8828  -6.4513  -5.1677  -4.3107  -3.6519  -3.4702
    -3.2154  -3.0887  -3.0736  -2.9316  -2.9193  -2.8893  -2.8181  -2.7776
    -2.7735  -2.7606  -2.7450  -2.7058  -2.6060  -2.5080  -2.3279  -2.3158
    -2.2835  -2.2548  -2.1493  -2.1191  -2.0913  -2.0319  -2.0284  -2.0102
    -1.9840  -1.9180  -1.8915  -1.8634  -1.8174  -1.7954  -1.7610  -1.7432
    -1.7415  -1.7224  -1.7056  -1.6896  -1.5427  -1.4923  -1.3260  -1.2339
    -1.1828  -1.1601  -1.1353  -1.1152  -1.1122  -1.0960  -1.0932  -0.9956
    -0.9760  -0.9554  -0.8963  -0.8093  -0.7944  -0.7678  -0.7325  -0.6919
    -0.6616  -0.6424  -0.4856  -0.4527  -0.2748  -0.2160  -0.1973  -0.1560
    -0.1517  -0.1347  -0.0697  -0.0097  -0.0038   0.0534   0.0818   0.1378
     0.1545   0.2001   0.2255   0.2856   0.3085   0.3318   0.3552   0.4422
     0.5352   0.5533   0.6360   0.6501   0.7217   0.7408   0.9418   0.9687
     1.0872   1.1780   1.1908   1.2491   1.4700   1.5633   1.6668   1.8609
     2.0091   2.1043   3.6491   3.6563   3.7976   3.8955   3.9578   4.0620
     4.0701   4.1069   4.1262   4.1471

          k =-0.0760 0.0419 0.0000 ( 17914 PWs)   bands (ev):

   -55.5044 -55.4803 -55.4738 -55.4483 -55.4446 -55.3527 -55.3275 -55.3264
   -55.3217 -55.2980 -55.2868 -55.2628 -55.0491 -54.8858 -54.4871 -54.4630
   -31.9671 -31.9411 -31.8337 -31.8167 -31.7970 -31.7933 -31.7700 -31.7393
   -31.7384 -31.7064 -31.7028 -31.6720 -31.6662 -31.6622 -31.6571 -31.6517
   -31.6432 -31.6248 -31.5903 -31.5801 -31.5666 -31.5458 -31.5362 -31.5303
   -31.5255 -31.5243 -31.5230 -31.5174 -31.5140 -31.5074 -31.5037 -31.4944
   -31.4851 -31.4660 -31.4591 -31.4554 -31.4533 -31.3100 -31.2565 -31.1676
   -31.1501 -31.0918 -30.8447 -30.8127 -30.7897 -30.7034 -30.6423 -30.5756
   -18.7222 -16.5407 -15.9090 -15.7208 -15.5257 -15.5051 -15.4089 -15.3584
   -15.3338 -15.2806 -15.2717 -15.2474 -15.2228 -15.1650 -15.1548 -15.1178
   -15.1114 -14.9964 -14.9691 -14.8950 -14.8811 -14.8704 -14.8575 -14.7991
   -14.7965 -14.7837 -14.7670 -14.7153 -14.7004 -14.6365 -14.2657 -12.9940
   -12.9179 -11.6488  -8.8862  -6.4542  -5.1647  -4.2981  -3.6444  -3.3070
    -3.0585  -3.0429  -2.8111  -2.7540  -2.7052  -2.6360  -2.6183  -2.5870
    -2.5713  -2.5587  -2.5394  -2.5106  -2.4911  -2.4601  -2.4397  -2.3985
    -2.3660  -2.3127  -2.2947  -2.2682  -2.2119  -2.1981  -2.1812  -2.1300
    -2.1021  -2.0757  -2.0333  -2.0090  -1.9894  -1.9619  -1.8833  -1.8040
    -1.6564  -1.6254  -1.5981  -1.5744  -1.4795  -1.4554  -1.4115  -1.2986
    -1.2617  -1.1740  -1.1076  -1.0789  -1.0408  -1.0079  -0.9736  -0.9108
    -0.8859  -0.8496  -0.8199  -0.7910  -0.7715  -0.7510  -0.7321  -0.7000
    -0.6826  -0.6535  -0.5719  -0.5361  -0.4897  -0.4716  -0.3672  -0.3185
    -0.2953  -0.2670  -0.2314  -0.1728  -0.1484  -0.1098  -0.0393  -0.0182
     0.0147   0.0614   0.1730   0.2009   0.3147   0.3558   0.4436   0.4945
     0.5596   0.6772   0.7213   0.7565   0.8135   0.8547   0.9379   0.9448
     0.9996   1.0475   1.0763   1.1591   1.2477   1.7444   1.8101   1.9015
     2.0293   2.0829   3.7913   3.8503   3.8594   3.9436   3.9763   3.9858
     4.1125   4.1223   4.2165   4.2674

          k =-0.0760-0.0839 0.0000 ( 17948 PWs)   bands (ev):

   -55.4928 -55.4919 -55.4632 -55.4589 -55.4434 -55.3434 -55.3368 -55.3277
   -55.3102 -55.3096 -55.2759 -55.2738 -55.0484 -54.8865 -54.4752 -54.4750
   -31.8369 -31.8202 -31.8088 -31.8081 -31.7878 -31.7869 -31.7473 -31.7399
   -31.7318 -31.7036 -31.6926 -31.6737 -31.6582 -31.6564 -31.6310 -31.6289
   -31.6263 -31.6243 -31.6162 -31.6151 -31.6128 -31.6115 -31.6110 -31.5592
   -31.5509 -31.5446 -31.5367 -31.5262 -31.5118 -31.5107 -31.5061 -31.5017
   -31.4913 -31.4888 -31.4839 -31.4819 -31.4110 -31.3085 -31.2557 -31.2100
   -31.1510 -31.1035 -30.8011 -30.8010 -30.7122 -30.7120 -30.6730 -30.6729
   -18.7218 -16.5344 -15.6567 -15.5856 -15.4697 -15.4406 -15.3810 -15.3309
   -15.3134 -15.2441 -15.2080 -15.1955 -15.1437 -15.1412 -15.0933 -15.0694
   -15.0426 -15.0388 -15.0237 -14.9811 -14.9703 -14.9550 -14.9509 -14.9474
   -14.8701 -14.8343 -14.8302 -14.8255 -14.7562 -14.6225 -14.3506 -12.9797
   -12.9796 -11.6526  -8.8895  -6.4572  -5.1622  -4.2865  -3.6401  -3.0824
    -2.9420  -2.7844  -2.7190  -2.6381  -2.6371  -2.5946  -2.4699  -2.4452
    -2.4084  -2.3795  -2.3489  -2.3383  -2.3296  -2.3272  -2.3133  -2.2996
    -2.2866  -2.2475  -2.2011  -2.1855  -2.1771  -2.1729  -2.1578  -2.1456
    -2.1289  -2.1262  -2.0911  -2.0613  -2.0345  -1.9996  -1.9449  -1.7441
    -1.7169  -1.6956  -1.6697  -1.6558  -1.6441  -1.6110  -1.5726  -1.5622
    -1.4902  -1.4022  -1.3140  -1.2359  -1.2027  -1.1898  -1.1207  -1.0351
    -0.9938  -0.9547  -0.9174  -0.8577  -0.7988  -0.7606  -0.7233  -0.6418
    -0.6236  -0.6134  -0.5520  -0.5356  -0.4754  -0.4672  -0.3893  -0.3478
    -0.3110  -0.2640  -0.2364  -0.2308  -0.2119  -0.1775  -0.1695  -0.1158
     0.0007   0.0095   0.0289   0.1339   0.2224   0.4616   0.5184   0.5509
     0.6311   0.6937   0.7551   0.7762   0.7980   0.8019   0.8378   0.8983
     1.0125   1.0224   1.0610   1.1491   1.1754   1.8935   1.8944   1.9672
     1.9674   2.0699   3.9281   3.9545   3.9804   4.0161   4.1168   4.1340
     4.1565   4.1584   4.2720   4.2932

     the Fermi energy is     3.6214 ev

!    total energy              =   -2976.50551463 Ry
     estimated scf accuracy    <       0.00000007 Ry
     smearing contrib. (-TS)   =      -0.02132698 Ry
     internal energy E=F+TS    =   -2976.48418765 Ry

     The total energy is F=E-TS. E is the sum of the following terms:
     one-electron contribution =  -23892.33426123 Ry
     hartree contribution      =   12042.70307955 Ry
     xc contribution           =    -495.75996182 Ry
     ewald contribution        =    9368.90511607 Ry
     electric field correction =       0.00183978 Ry

     convergence has been achieved in  66 iterations

     Forces acting on atoms (cartesian axes, Ry/au):

     atom    1 type  1   force =     0.00015046   -0.00028245    0.09583014
     atom    2 type  1   force =    -0.00023021   -0.00062894   -0.17570487
     atom    3 type  2   force =     0.00006280   -0.00014863   -0.02383617
     atom    4 type  2   force =     0.00006456   -0.00154460    0.05351096
     atom    5 type  2   force =    -0.01128299   -0.00076242    0.00357053
     atom    6 type  2   force =     0.01298402    0.00005708    0.00269382
     atom    7 type  1   force =    -0.00096644    0.00065590   -0.00792863
     atom    8 type  1   force =     0.00042756    0.00624207    0.02298967
     atom    9 type  2   force =    -0.00005237   -0.00031047   -0.00094214
     atom   10 type  2   force =    -0.00136767    0.00127875   -0.01511048
     atom   11 type  2   force =    -0.00031994    0.00024659   -0.00023126
     atom   12 type  2   force =    -0.00020119    0.00022642   -0.00033182
     atom   13 type  1   force =     0.00074413   -0.00046727    0.00026874
     atom   14 type  1   force =    -0.00019366    0.00042362    0.00149974
     atom   15 type  2   force =     0.00001102   -0.00004290    0.00031352
     atom   16 type  2   force =     0.00025891    0.00005318    0.00012317
     atom   17 type  2   force =     0.00064328   -0.00023828    0.00034894
     atom   18 type  2   force =     0.00014495   -0.00045421    0.00043405
     atom   19 type  1   force =    -0.00124002    0.00020848    0.00060203
     atom   20 type  1   force =     0.00074930   -0.00002098   -0.00005646
     atom   21 type  2   force =     0.00008671   -0.00008998    0.10324929
     atom   22 type  2   force =    -0.00071146   -0.00047488   -0.00064197
     atom   23 type  2   force =    -0.07142667   -0.00018423   -0.02769402
     atom   24 type  2   force =     0.07139810    0.00027749   -0.02769848
     atom   25 type  1   force =     0.00002404   -0.00031130    0.09554901
     atom   26 type  1   force =    -0.00017822   -0.00031044   -0.17598562
     atom   27 type  2   force =     0.00009847   -0.00011877   -0.02294203
     atom   28 type  2   force =     0.00011584   -0.00127340    0.05316307
     atom   29 type  2   force =    -0.01152934    0.00015100    0.00362968
     atom   30 type  2   force =     0.01318017    0.00046448    0.00271975
     atom   31 type  1   force =    -0.00101013    0.00373836   -0.01104134
     atom   32 type  1   force =     0.00050888   -0.00741277    0.02339149
     atom   33 type  2   force =    -0.00023632    0.00031393   -0.00030913
     atom   34 type  2   force =    -0.00033458    0.00025015   -0.02183531
     atom   35 type  2   force =     0.00009344    0.00030117   -0.00036664
     atom   36 type  2   force =    -0.00035954    0.00030403   -0.00028913
     atom   37 type  1   force =     0.00040353    0.00056714   -0.00026980
     atom   38 type  1   force =    -0.00023194   -0.00042465    0.00133902
     atom   39 type  2   force =    -0.00007529   -0.00028823    0.00038200
     atom   40 type  2   force =     0.00032665    0.00009084   -0.00083914
     atom   41 type  2   force =     0.00117848    0.00051031    0.00012919
     atom   42 type  2   force =    -0.00068745    0.00030861    0.00000878
     atom   43 type  1   force =    -0.00094731   -0.00107291   -0.00012784
     atom   44 type  1   force =     0.00076835    0.00049014   -0.00017260
     atom   45 type  2   force =     0.00008719   -0.00010313    0.10325144
     atom   46 type  2   force =    -0.07143909   -0.00013846   -0.02767784
     atom   47 type  2   force =     0.07143935    0.00029561   -0.02770757
     atom   48 type  3   force =    -0.00021841   -0.00084848   -0.00016217
     atom   49 type  3   force =    -0.00057885    0.00037665   -0.00049378
     atom   50 type  4   force =    -0.00804334    0.00148070   -0.00455246
     atom   51 type  5   force =    -0.00065471    0.00088599   -0.00046354
     atom   52 type  5   force =     0.00794627   -0.00160340    0.00500863
     atom   53 type  5   force =     0.00029699   -0.00040664    0.00032982
     atom   54 type  5   force =     0.00012431    0.00011308    0.00001567
     atom   55 type  5   force =     0.00021070   -0.00008122    0.00051841
     atom   56 type  2   force =    -0.00077068   -0.00004450   -0.00004161
     atom   57 type  5   force =     0.00077140   -0.00005583   -0.00001443
     atom   58 type  5   force =    -0.00001201   -0.00016742    0.00059775

     Total force =     0.366971     Total SCF correction =     0.000612
  @ DRIVER MODE: Message from server: STATUS
  @ DRIVER MODE: Message from server: GETFORCE
  @ DRIVER MODE: Returning v,forces,stress,ensemble 

     Writing output data file ./calc.save/
  @ DRIVER MODE: Message from server: EXIT
  @ DRIVE MODE: Exiting  
 
     init_run     :     10.95s CPU     11.17s WALL (       1 calls)
     electrons    :   1135.11s CPU   1150.75s WALL (       1 calls)
     forces       :      2.52s CPU      2.61s WALL (       1 calls)

     Called by init_run:
     wfcinit      :      4.94s CPU      5.01s WALL (       1 calls)
     potinit      :      5.35s CPU      5.41s WALL (       1 calls)
     hinit0       :      0.30s CPU      0.31s WALL (       1 calls)

     Called by electrons:
     c_bands      :    974.83s CPU    981.51s WALL (      66 calls)
     sum_band     :    108.58s CPU    112.26s WALL (      66 calls)
     v_of_rho     :     38.88s CPU     40.77s WALL (      67 calls)
     newd         :     16.03s CPU     19.46s WALL (      67 calls)
     mix_rho      :      1.43s CPU      1.45s WALL (      66 calls)
     vdW_kernel   :      4.54s CPU      4.56s WALL (       1 calls)

     Called by c_bands:
     init_us_2    :      7.41s CPU      7.44s WALL (    1340 calls)
     cegterg      :    955.49s CPU    961.90s WALL (     683 calls)

     Called by *egterg:
     cdiaghg      :    161.94s CPU    162.60s WALL (    7146 calls)
     h_psi        :    497.47s CPU    501.92s WALL (    7162 calls)
     s_psi        :     68.85s CPU     69.06s WALL (    7162 calls)
     g_psi        :      1.98s CPU      1.99s WALL (    6469 calls)

     Called by h_psi:
     h_psi:calbec :     65.26s CPU     65.57s WALL (    7162 calls)
     vloc_psi     :    358.84s CPU    362.41s WALL (    7162 calls)
     add_vuspsi   :     69.54s CPU     69.89s WALL (    7162 calls)

     General routines
     calbec       :     84.85s CPU     85.23s WALL (    7862 calls)
     fft          :     20.08s CPU     20.22s WALL (    4221 calls)
     ffts         :      0.13s CPU      0.13s WALL (     133 calls)
     fftw         :    398.17s CPU    402.05s WALL (  958066 calls)
     interpolate  :      0.41s CPU      0.41s WALL (      67 calls)
     davcio       :      0.00s CPU      0.17s WALL (      10 calls)
 
     Parallel routines
 
     PWSCF        :  19m 8.80s CPU  19m25.58s WALL

 
   This run was terminated on:   0: 8:23  16Sep2021            

=------------------------------------------------------------------------------=
   JOB DONE.
=------------------------------------------------------------------------------=
