
     Program PWSCF v.6.7GPU starts on 16Sep2021 at  5:46:51 

     This program is part of the open-source Quantum ESPRESSO suite
     for quantum simulation of materials; please cite
         "P. Giannozzi et al., J. Phys.:Condens. Matter 21 395502 (2009);
         "P. Giannozzi et al., J. Phys.:Condens. Matter 29 465901 (2017);
         "P. Giannozzi et al., J. Chem. Phys. 152 154105 (2020);
          URL http://www.quantum-espresso.org", 
     in publications or presentations arising from this work. More details at
     http://www.quantum-espresso.org/quote

     Parallel version (MPI), running on    10 processors

     MPI processes distributed on     1 nodes
     R & G space division:  proc/nbgrp/npool/nimage =      10
     Reading input from /storage/home/hcoda1/3/ntian30/research/carbon/CxH_vib/H2O_calc/ads_slab/CH2NHNH2O_a/out_0045/pw.inp
Warning: card &CELL ignored
Warning: card   CELL_DYNAMICS='IPI', ignored
Warning: card / ignored

     Current dimensions of program PWSCF are:
     Max number of different atomic species (ntypx) = 10
     Max number of k-points (npk) =  40000
     Max angular momentum in pseudopotentials (lmaxx) =  3
     Presently no symmetry can be used with electric field

     Message from routine cell_base_init:
     DEPRECATED: use true lattice parameter, not A to a.u. conversion factor

     **************************************************************************
     Initializing libbeef V0.1.2 with the BEEF-vdW functional.
     Citation: Wellendorff et al., PRB 85, 235149 (2012).
     **************************************************************************


     IMPORTANT: XC functional enforced from input :
     Exchange-correlation= BEEF-VDW
                           (   1   4  43  14   2   0   0)
     Any further DFT definition will be discarded
     Please, verify this is what you really want


     Subspace diagonalization in iterative solution of the eigenvalue problem:
     one sub-group per band group will be used
     scalapack distributed-memory algorithm (size of sub-group:  3*  3 procs)

  @ DRIVER MODE: Connecting to 
 qe_1139763_2852610.sched-torque.pace.gatech.edum0ujm9p5_scratch
  using UNIX socket
  @ DRIVER MODE: Message from server: STATUS
  @ DRIVER MODE: Message from server: INIT
  @ DRIVER MODE: Receiving replica           0          -1
  @ DRIVER MODE: Receiving encoded integer          25
  @ DRIVER MODE:  SCF:  T  FORCE:  T  STRESS:  F  VC:  F  ENSEMBLE:  F
  @ DRIVER MODE:  SCF:  T  FORCE:  T  STRESS:  F  VC:  F  ENSEMBLE:  F
 
     Parallelization info
     --------------------
     sticks:   dense  smooth     PW     G-vecs:    dense   smooth      PW
     Min         327     131     37                56683    14340    2191
     Max         328     133     38                56694    14346    2206
     Sum        3275    1317    379               566857   143421   21985
 
     Using Slab Decomposition
 


     bravais-lattice index     =            0
     lattice parameter (alat)  =       1.8897  a.u.
     unit-cell volume          =    6658.9804 (a.u.)^3
     number of atoms/cell      =           56
     number of atomic types    =            5
     number of electrons       =       403.00
     number of Kohn-Sham states=          211
     kinetic-energy cutoff     =      29.3995  Ry
     charge density cutoff     =     293.9946  Ry
     scf convergence threshold =      7.3E-08
     mixing beta               =       0.0500
     number of iterations used =            8  plain     mixing
     Exchange-correlation= BEEF-VDW
                           (   1   4  43  14   2   0   0)

     celldm(1)=   1.889726  celldm(2)=   0.000000  celldm(3)=   0.000000
     celldm(4)=   0.000000  celldm(5)=   0.000000  celldm(6)=   0.000000

     crystal axes: (cart. coord. in units of alat)
               a(1) = (   6.579727   0.000000   0.000000 )  
               a(2) = (  -0.000775   5.961596   0.000000 )  
               a(3) = (   0.000000   0.000000  25.155947 )  

     reciprocal axes: (cart. coord. in units 2 pi/alat)
               b(1) = (  0.151982  0.000020  0.000000 )  
               b(2) = (  0.000000  0.167740  0.000000 )  
               b(3) = (  0.000000  0.000000  0.039752 )  


     PseudoPot. # 1 for Ti read from file:
     /storage/coda1/p-amedford6/0/shared/rich_project_chbe-medford/medford-share/data/pseudos_module/espresso/nninc/pbe/van/Ti.UPF
     MD5 check sum: 8e4df49b7f0d34bbd5052bf3f5ea0213
     Pseudo is Ultrasoft, Zval = 12.0
     Generated by new atomic code, or converted to UPF format
     Using radial grid of  851 points,  6 beta functions with: 
                l(1) =   0
                l(2) =   0
                l(3) =   1
                l(4) =   1
                l(5) =   2
                l(6) =   2
     Q(r) pseudized with  8 coefficients,  rinner =    1.000   1.000   1.000
                                                       1.000   1.000

     PseudoPot. # 2 for O  read from file:
     /storage/coda1/p-amedford6/0/shared/rich_project_chbe-medford/medford-share/data/pseudos_module/espresso/nninc/pbe/van/O.UPF
     MD5 check sum: 78c19812648e8988a0fe644b0f25305e
     Pseudo is Ultrasoft, Zval =  6.0
     Generated by new atomic code, or converted to UPF format
     Using radial grid of  737 points,  4 beta functions with: 
                l(1) =   0
                l(2) =   0
                l(3) =   1
                l(4) =   1
     Q(r) pseudized with  8 coefficients,  rinner =    0.800   0.800   0.800


     PseudoPot. # 3 for H  read from file:
     /storage/coda1/p-amedford6/0/shared/rich_project_chbe-medford/medford-share/data/pseudos_module/espresso/nninc/pbe/van/H.UPF
     MD5 check sum: b5ee9d7bfd3a09ee7748110bda690ff7
     Pseudo is Ultrasoft, Zval =  1.0
     Generated by new atomic code, or converted to UPF format
     Using radial grid of  615 points,  1 beta functions with: 
                l(1) =   0
     Q(r) pseudized with  8 coefficients,  rinner =    0.800

     PseudoPot. # 4 for N  read from file:
     /storage/coda1/p-amedford6/0/shared/rich_project_chbe-medford/medford-share/data/pseudos_module/espresso/nninc/pbe/van/N.UPF
     MD5 check sum: 90d10febe142ad51ac9d5be1deb811c4
     Pseudo is Ultrasoft, Zval =  5.0
     Generated by new atomic code, or converted to UPF format
     Using radial grid of  729 points,  4 beta functions with: 
                l(1) =   0
                l(2) =   0
                l(3) =   1
                l(4) =   1
     Q(r) pseudized with  8 coefficients,  rinner =    0.800   0.800   0.800


     PseudoPot. # 5 for C  read from file:
     /storage/coda1/p-amedford6/0/shared/rich_project_chbe-medford/medford-share/data/pseudos_module/espresso/nninc/pbe/van/C.UPF
     MD5 check sum: 1a69bf6b8db32088f5b2163dbdb77a27
     Pseudo is Ultrasoft, Zval =  4.0
     Generated by new atomic code, or converted to UPF format
     Using radial grid of  721 points,  4 beta functions with: 
                l(1) =   0
                l(2) =   0
                l(3) =   1
                l(4) =   1
     Q(r) pseudized with  8 coefficients,  rinner =    0.800   0.800   0.800


     atomic species   valence    mass     pseudopotential
        Ti1           12.00    47.86700     Ti( 1.00)
        O1             6.00    15.99900     O ( 1.00)
        H1             1.00     1.00800     H ( 1.00)
        N1             5.00    14.00700     N ( 1.00)
        C1             4.00    12.01100     C ( 1.00)

     No symmetry found



   Cartesian axes

     site n.     atom                  positions (alat units)
         1           Ti1 tau(   1) = (   0.0004258   2.9801865   6.0000000  )
         2           Ti1 tau(   2) = (   3.2906075   1.4906267   6.0002472  )
         3           O1  tau(   3) = (   0.0006271   0.0005054   7.9858123  )
         4           O1  tau(   4) = (   3.2906025   0.0005020   7.3038282  )
         5           O1  tau(   5) = (   4.5942328   1.4918067   9.2879030  )
         6           O1  tau(   6) = (   1.9868534   1.4903216   9.2879459  )
         7           Ti1 tau(   7) = (   3.2907910   2.8959150   9.1758416  )
         8           Ti1 tau(   8) = (   0.0015273   1.4827037   9.2680791  )
         9           O1  tau(   9) = (   3.2960012   0.0062018  11.3595187  )
        10           O1  tau(  10) = (   0.0116148   5.9584955  10.6183126  )
        11           O1  tau(  11) = (   1.2731109   1.5057875  12.6314550  )
        12           O1  tau(  12) = (   5.2959999   1.4755877  12.6679080  )
        13           Ti1 tau(  13) = (   0.0553992   2.9538365  12.5526742  )
        14           Ti1 tau(  14) = (   3.3268292   1.5427496  12.5634199  )
        15           O1  tau(  15) = (   0.1371361   5.9015051  14.6217027  )
        16           O1  tau(  16) = (   3.1880369   0.0098958  13.9252199  )
        17           O1  tau(  17) = (   4.6462182   1.4014471  15.8552565  )
        18           O1  tau(  18) = (   2.0822703   1.5558083  16.1249119  )
        19           Ti1 tau(  19) = (   3.3548958   3.0525267  15.8597497  )
        20           Ti1 tau(  20) = (   0.0948755   1.3182250  15.7908873  )
        21           O1  tau(  21) = (   3.2904802   0.0005063   4.7018136  )
        22           O1  tau(  22) = (   0.0722171   0.0319689  17.1393915  )
        23           O1  tau(  23) = (   1.3043587   1.4918075   6.0039043  )
        24           O1  tau(  24) = (   5.2767064   1.4903225   6.0039473  )
        25           Ti1 tau(  25) = (   0.0000382   5.9609847   6.0000000  )
        26           Ti1 tau(  26) = (   3.2902200   4.4714249   6.0002472  )
        27           O1  tau(  27) = (   0.0002396   2.9813036   7.9858123  )
        28           O1  tau(  28) = (   3.2902150   2.9813002   7.3038282  )
        29           O1  tau(  29) = (   4.5938453   4.4726049   9.2879030  )
        30           O1  tau(  30) = (   1.9864658   4.4711199   9.2879459  )
        31           Ti1 tau(  31) = (   3.2891106   5.8743827   9.1763621  )
        32           Ti1 tau(  32) = (   0.0006254   4.4649316   9.2693709  )
        33           O1  tau(  33) = (   3.2982667   2.9897935  11.3544942  )
        34           O1  tau(  34) = (   0.0092240   2.9805883  10.6323155  )
        35           O1  tau(  35) = (   1.2737041   4.4504026  12.6113924  )
        36           O1  tau(  36) = (   5.2903739   4.4874249  12.6576873  )
        37           Ti1 tau(  37) = (   6.5697415   5.9260651  12.4959683  )
        38           Ti1 tau(  38) = (   3.3125242   4.5024033  12.5372123  )
        39           O1  tau(  39) = (   0.0674008   2.9793056  14.8363759  )
        40           O1  tau(  40) = (   3.2999477   2.9756493  13.9369993  )
        41           O1  tau(  41) = (   4.6108370   4.5787535  15.7719701  )
        42           O1  tau(  42) = (   2.0428421   4.3627697  16.1441833  )
        43           Ti1 tau(  43) = (   3.3552955   0.0804576  15.7648105  )
        44           Ti1 tau(  44) = (   6.5672415   4.5273692  15.9765751  )
        45           O1  tau(  45) = (   3.2900926   2.9813045   4.7018136  )
        46           O1  tau(  46) = (   1.3039711   4.4726057   6.0039043  )
        47           O1  tau(  47) = (   5.2763189   4.4711207   6.0039473  )
        48           H1  tau(  48) = (   4.1035413   2.4672077  18.5646977  )
        49           N1  tau(  49) = (   5.6961598   3.2907635  17.7856741  )
        50           C1  tau(  50) = (   6.4968133   2.7471819  18.6454045  )
        51           H1  tau(  51) = (   6.1325458   2.1374441  19.4677963  )
        52           H1  tau(  52) = (   0.9799315   2.9096255  18.5325614  )
        53           N1  tau(  53) = (   4.3409097   3.1788467  17.8642182  )
        54           O1  tau(  54) = (   3.3174094   5.8609012  18.0981057  )
        55           H1  tau(  55) = (   3.6736973   4.9288346  18.2201127  )
        56           H1  tau(  56) = (   2.3597147   5.7972335  18.2603650  )

     number of k points=    10  Fermi-Dirac smearing, width (Ry)=  0.0073
                       cart. coord. in units 2pi/alat
        k(    1) = (   0.0000000   0.0000000   0.0000000), wk =   0.1250000
        k(    2) = (   0.0000000   0.0419351   0.0000000), wk =   0.2500000
        k(    3) = (   0.0000000  -0.0838702   0.0000000), wk =   0.1250000
        k(    4) = (   0.0379955   0.0000049   0.0000000), wk =   0.2500000
        k(    5) = (   0.0379955   0.0419400   0.0000000), wk =   0.2500000
        k(    6) = (   0.0379955  -0.0838652   0.0000000), wk =   0.2500000
        k(    7) = (   0.0379955  -0.0419301   0.0000000), wk =   0.2500000
        k(    8) = (  -0.0759910  -0.0000099   0.0000000), wk =   0.1250000
        k(    9) = (  -0.0759910   0.0419252   0.0000000), wk =   0.2500000
        k(   10) = (  -0.0759910  -0.0838800   0.0000000), wk =   0.1250000

     Dense  grid:   566857 G-vectors     FFT dimensions: (  72,  64, 270)

     Smooth grid:   143421 G-vectors     FFT dimensions: (  45,  40, 180)

     Estimated max dynamical RAM per process >     367.48 MB

     Estimated total dynamical RAM >       3.59 GB
     Cannot read rho : file not found

     Initial potential from superposition of free atoms

     starting charge  386.99914, renormalised to  403.00000

     negative rho (up, down):  1.703E-02 0.000E+00


     %%%%%%%%%%%%%%%%%%%%%%%%%%%%%%%%%%%%%%%%%%%%%%%%%%%%%%%%%%%%%%%%%%%%%%%%
     %                                                                      %
     % You are using vdW-DF, which was implemented by the Thonhauser group. %
     % Please cite the following two papers that made this development      %
     % possible and the two reviews that describe the various versions:     %
     %                                                                      %
     %   T. Thonhauser et al., PRL 115, 136402 (2015).                      %
     %   T. Thonhauser et al., PRB 76, 125112 (2007).                       %
     %   K. Berland et al., Rep. Prog. Phys. 78, 066501 (2015).             %
     %   D.C. Langreth et al., J. Phys.: Condens. Matter 21, 084203 (2009). %
     %                                                                      %
     %                                                                      %
     % If you are calculating the stress with vdW-DF, please also cite:     %
     %                                                                      %
     %   R. Sabatini et al., J. Phys.: Condens. Matter 24, 424209 (2012).   %
     %                                                                      %
     %%%%%%%%%%%%%%%%%%%%%%%%%%%%%%%%%%%%%%%%%%%%%%%%%%%%%%%%%%%%%%%%%%%%%%%%


 
     Adding external electric field

     Computed dipole along edir(3) : 
        Dipole              -12.3736 Ry au,        -31.4507 Debye
        Dipole field         -0.0234 Ry au, 
 
        Potential amp.        2.1646 Ry
        Total length         46.3494 bohr
 
     Starting wfcs are  305 atomic wfcs
  @ DRIVER MODE: Message from server: STATUS
  @ DRIVER MODE: Message from server: POSDATA
  @ DRIVER MODE: Reading and sharing cell 
  @ DRIVER MODE: Reading and sharing positions 
  @ DRIVER MODE: Received positions 

     total cpu time spent up to now is       11.3 secs

     Self-consistent Calculation

     iteration #  1     ecut=    29.40 Ry     beta= 0.05
     Davidson diagonalization with overlap
     c_bands:  4 eigenvalues not converged
     c_bands:  3 eigenvalues not converged
     c_bands:  5 eigenvalues not converged
     c_bands:  1 eigenvalues not converged
     c_bands:  1 eigenvalues not converged
     c_bands:  4 eigenvalues not converged
     c_bands:  3 eigenvalues not converged
     ethr =  1.00E-05,  avg # of iterations = 27.4

     negative rho (up, down):  9.759E-03 0.000E+00
 
     Adding external electric field

     Computed dipole along edir(3) : 
        Dipole               53.6617 Ry au,        136.3944 Debye
        Dipole field          0.1013 Ry au, 
 
        Potential amp.       -9.3873 Ry
        Total length         46.3494 bohr
 

     total cpu time spent up to now is       59.0 secs

     total energy              =   -2355.30957238 Ry
     estimated scf accuracy    <    7011.08484370 Ry

     iteration #  2     ecut=    29.40 Ry     beta= 0.05
     Davidson diagonalization with overlap
     ethr =  1.00E-02,  avg # of iterations = 26.4

     negative rho (up, down):  4.362E-04 0.000E+00
 
     Adding external electric field

     Computed dipole along edir(3) : 
        Dipole                0.0490 Ry au,          0.1246 Debye
        Dipole field          0.0001 Ry au, 
 
        Potential amp.       -0.0086 Ry
        Total length         46.3494 bohr
 

     total cpu time spent up to now is      138.7 secs

     total energy              =   -2477.25511119 Ry
     estimated scf accuracy    <   70398.48827098 Ry

     iteration #  3     ecut=    29.40 Ry     beta= 0.05
     Davidson diagonalization with overlap
     ethr =  1.00E-02,  avg # of iterations = 16.7

     negative rho (up, down):  4.959E-04 0.000E+00
 
     Adding external electric field

     Computed dipole along edir(3) : 
        Dipole               -3.3397 Ry au,         -8.4888 Debye
        Dipole field         -0.0063 Ry au, 
 
        Potential amp.        0.5842 Ry
        Total length         46.3494 bohr
 

     total cpu time spent up to now is      187.8 secs

     total energy              =   -2959.12841818 Ry
     estimated scf accuracy    <    6102.76867297 Ry

     iteration #  4     ecut=    29.40 Ry     beta= 0.05
     Davidson diagonalization with overlap
     ethr =  1.00E-02,  avg # of iterations = 13.3

     negative rho (up, down):  5.187E-04 0.000E+00
 
     Adding external electric field

     Computed dipole along edir(3) : 
        Dipole               -5.0936 Ry au,        -12.9467 Debye
        Dipole field         -0.0096 Ry au, 
 
        Potential amp.        0.8911 Ry
        Total length         46.3494 bohr
 

     total cpu time spent up to now is      210.4 secs

     total energy              =   -2964.23576927 Ry
     estimated scf accuracy    <    1894.73438185 Ry

     iteration #  5     ecut=    29.40 Ry     beta= 0.05
     Davidson diagonalization with overlap
     ethr =  1.00E-02,  avg # of iterations =  2.9

     negative rho (up, down):  5.918E-04 0.000E+00
 
     Adding external electric field

     Computed dipole along edir(3) : 
        Dipole               -7.7987 Ry au,        -19.8222 Debye
        Dipole field         -0.0147 Ry au, 
 
        Potential amp.        1.3643 Ry
        Total length         46.3494 bohr
 

     total cpu time spent up to now is      221.1 secs

     total energy              =   -2937.35954945 Ry
     estimated scf accuracy    <    1870.80620505 Ry

     iteration #  6     ecut=    29.40 Ry     beta= 0.05
     Davidson diagonalization with overlap
     c_bands:  1 eigenvalues not converged
     ethr =  1.00E-02,  avg # of iterations = 14.2

     negative rho (up, down):  5.659E-04 0.000E+00
 
     Adding external electric field

     Computed dipole along edir(3) : 
        Dipole               -6.2993 Ry au,        -16.0112 Debye
        Dipole field         -0.0119 Ry au, 
 
        Potential amp.        1.1020 Ry
        Total length         46.3494 bohr
 

     total cpu time spent up to now is      247.5 secs

     total energy              =   -2977.74424104 Ry
     estimated scf accuracy    <     177.90139096 Ry

     iteration #  7     ecut=    29.40 Ry     beta= 0.05
     Davidson diagonalization with overlap
     ethr =  1.00E-02,  avg # of iterations =  1.3

     negative rho (up, down):  5.802E-04 0.000E+00
 
     Adding external electric field

     Computed dipole along edir(3) : 
        Dipole               -5.5745 Ry au,        -14.1690 Debye
        Dipole field         -0.0105 Ry au, 
 
        Potential amp.        0.9752 Ry
        Total length         46.3494 bohr
 

     total cpu time spent up to now is      257.6 secs

     total energy              =   -2977.59051585 Ry
     estimated scf accuracy    <      32.24769789 Ry

     iteration #  8     ecut=    29.40 Ry     beta= 0.05
     Davidson diagonalization with overlap
     ethr =  8.00E-03,  avg # of iterations =  1.0

     negative rho (up, down):  6.319E-04 0.000E+00
 
     Adding external electric field

     Computed dipole along edir(3) : 
        Dipole               -4.4813 Ry au,        -11.3904 Debye
        Dipole field         -0.0085 Ry au, 
 
        Potential amp.        0.7839 Ry
        Total length         46.3494 bohr
 

     total cpu time spent up to now is      267.5 secs

     total energy              =   -2975.93505364 Ry
     estimated scf accuracy    <      19.30908241 Ry

     iteration #  9     ecut=    29.40 Ry     beta= 0.05
     Davidson diagonalization with overlap
     c_bands:  1 eigenvalues not converged
     c_bands:  1 eigenvalues not converged
     c_bands:  3 eigenvalues not converged
     ethr =  4.79E-03,  avg # of iterations = 15.1

     negative rho (up, down):  6.297E-04 0.000E+00
 
     Adding external electric field

     Computed dipole along edir(3) : 
        Dipole               -4.4853 Ry au,        -11.4005 Debye
        Dipole field         -0.0085 Ry au, 
 
        Potential amp.        0.7846 Ry
        Total length         46.3494 bohr
 

     total cpu time spent up to now is      281.8 secs

     total energy              =   -2976.59108381 Ry
     estimated scf accuracy    <      21.24675419 Ry

     iteration # 10     ecut=    29.40 Ry     beta= 0.05
     Davidson diagonalization with overlap
     ethr =  4.79E-03,  avg # of iterations =  1.1

     negative rho (up, down):  7.886E-04 0.000E+00
 
     Adding external electric field

     Computed dipole along edir(3) : 
        Dipole               -3.0424 Ry au,         -7.7329 Debye
        Dipole field         -0.0057 Ry au, 
 
        Potential amp.        0.5322 Ry
        Total length         46.3494 bohr
 

     total cpu time spent up to now is      291.8 secs

     total energy              =   -2974.45291717 Ry
     estimated scf accuracy    <      21.65724541 Ry

     iteration # 11     ecut=    29.40 Ry     beta= 0.05
     Davidson diagonalization with overlap
     c_bands:  2 eigenvalues not converged
     c_bands:  1 eigenvalues not converged
     ethr =  4.79E-03,  avg # of iterations = 11.9

     negative rho (up, down):  8.480E-04 0.000E+00
 
     Adding external electric field

     Computed dipole along edir(3) : 
        Dipole               -3.2885 Ry au,         -8.3585 Debye
        Dipole field         -0.0062 Ry au, 
 
        Potential amp.        0.5753 Ry
        Total length         46.3494 bohr
 

     total cpu time spent up to now is      306.1 secs

     total energy              =   -2974.87545529 Ry
     estimated scf accuracy    <     146.95201812 Ry

     iteration # 12     ecut=    29.40 Ry     beta= 0.05
     Davidson diagonalization with overlap
     ethr =  4.79E-03,  avg # of iterations =  1.2

     negative rho (up, down):  9.761E-04 0.000E+00
 
     Adding external electric field

     Computed dipole along edir(3) : 
        Dipole               -3.9494 Ry au,        -10.0383 Debye
        Dipole field         -0.0075 Ry au, 
 
        Potential amp.        0.6909 Ry
        Total length         46.3494 bohr
 

     total cpu time spent up to now is      316.1 secs

     total energy              =   -2970.54179057 Ry
     estimated scf accuracy    <      73.12829532 Ry

     iteration # 13     ecut=    29.40 Ry     beta= 0.05
     Davidson diagonalization with overlap
     ethr =  4.79E-03,  avg # of iterations =  8.8

     negative rho (up, down):  1.056E-03 0.000E+00
 
     Adding external electric field

     Computed dipole along edir(3) : 
        Dipole               -2.4306 Ry au,         -6.1780 Debye
        Dipole field         -0.0046 Ry au, 
 
        Potential amp.        0.4252 Ry
        Total length         46.3494 bohr
 

     total cpu time spent up to now is      329.3 secs

     total energy              =   -2972.83114900 Ry
     estimated scf accuracy    <      57.15040202 Ry

     iteration # 14     ecut=    29.40 Ry     beta= 0.05
     Davidson diagonalization with overlap
     ethr =  4.79E-03,  avg # of iterations =  1.5

     negative rho (up, down):  1.089E-03 0.000E+00
 
     Adding external electric field

     Computed dipole along edir(3) : 
        Dipole               -2.3399 Ry au,         -5.9475 Debye
        Dipole field         -0.0044 Ry au, 
 
        Potential amp.        0.4093 Ry
        Total length         46.3494 bohr
 

     total cpu time spent up to now is      339.6 secs

     total energy              =   -2973.78946203 Ry
     estimated scf accuracy    <       3.47457240 Ry

     iteration # 15     ecut=    29.40 Ry     beta= 0.05
     Davidson diagonalization with overlap
     c_bands:  1 eigenvalues not converged
     c_bands:  1 eigenvalues not converged
     ethr =  8.62E-04,  avg # of iterations = 10.3

     negative rho (up, down):  1.074E-03 0.000E+00
 
     Adding external electric field

     Computed dipole along edir(3) : 
        Dipole               -2.4311 Ry au,         -6.1792 Debye
        Dipole field         -0.0046 Ry au, 
 
        Potential amp.        0.4253 Ry
        Total length         46.3494 bohr
 

     total cpu time spent up to now is      353.2 secs

     total energy              =   -2973.94308464 Ry
     estimated scf accuracy    <       1.47367457 Ry

     iteration # 16     ecut=    29.40 Ry     beta= 0.05
     Davidson diagonalization with overlap
     c_bands:  1 eigenvalues not converged
     c_bands:  2 eigenvalues not converged
     ethr =  3.66E-04,  avg # of iterations = 12.8

     negative rho (up, down):  1.194E-03 0.000E+00
 
     Adding external electric field

     Computed dipole along edir(3) : 
        Dipole               -1.8603 Ry au,         -4.7285 Debye
        Dipole field         -0.0035 Ry au, 
 
        Potential amp.        0.3254 Ry
        Total length         46.3494 bohr
 

     total cpu time spent up to now is      368.4 secs

     total energy              =   -2974.03129856 Ry
     estimated scf accuracy    <       1.30130089 Ry

     iteration # 17     ecut=    29.40 Ry     beta= 0.05
     Davidson diagonalization with overlap
     ethr =  3.23E-04,  avg # of iterations = 10.1

     negative rho (up, down):  1.330E-03 0.000E+00
 
     Adding external electric field

     Computed dipole along edir(3) : 
        Dipole               -1.5590 Ry au,         -3.9626 Debye
        Dipole field         -0.0029 Ry au, 
 
        Potential amp.        0.2727 Ry
        Total length         46.3494 bohr
 

     total cpu time spent up to now is      381.6 secs

     total energy              =   -2974.01735914 Ry
     estimated scf accuracy    <       0.68279245 Ry

     iteration # 18     ecut=    29.40 Ry     beta= 0.05
     Davidson diagonalization with overlap
     ethr =  1.69E-04,  avg # of iterations =  7.7

     negative rho (up, down):  2.125E-03 0.000E+00
 
     Adding external electric field

     Computed dipole along edir(3) : 
        Dipole               -0.6626 Ry au,         -1.6840 Debye
        Dipole field         -0.0013 Ry au, 
 
        Potential amp.        0.1159 Ry
        Total length         46.3494 bohr
 

     total cpu time spent up to now is      393.8 secs

     total energy              =   -2973.93500076 Ry
     estimated scf accuracy    <       0.45729624 Ry

     iteration # 19     ecut=    29.40 Ry     beta= 0.05
     Davidson diagonalization with overlap
     ethr =  1.13E-04,  avg # of iterations = 14.5

     negative rho (up, down):  2.384E-03 0.000E+00
 
     Adding external electric field

     Computed dipole along edir(3) : 
        Dipole               -0.3248 Ry au,         -0.8256 Debye
        Dipole field         -0.0006 Ry au, 
 
        Potential amp.        0.0568 Ry
        Total length         46.3494 bohr
 

     total cpu time spent up to now is      413.1 secs

     total energy              =   -2973.96278904 Ry
     estimated scf accuracy    <       1.28779715 Ry

     iteration # 20     ecut=    29.40 Ry     beta= 0.05
     Davidson diagonalization with overlap
     ethr =  1.13E-04,  avg # of iterations =  3.3

     negative rho (up, down):  2.806E-03 0.000E+00
 
     Adding external electric field

     Computed dipole along edir(3) : 
        Dipole               -0.1142 Ry au,         -0.2902 Debye
        Dipole field         -0.0002 Ry au, 
 
        Potential amp.        0.0200 Ry
        Total length         46.3494 bohr
 

     total cpu time spent up to now is      424.2 secs

     total energy              =   -2973.95678542 Ry
     estimated scf accuracy    <       0.28587985 Ry

     iteration # 21     ecut=    29.40 Ry     beta= 0.05
     Davidson diagonalization with overlap
     ethr =  7.09E-05,  avg # of iterations =  7.2

     negative rho (up, down):  2.872E-03 0.000E+00
 
     Adding external electric field

     Computed dipole along edir(3) : 
        Dipole               -0.0794 Ry au,         -0.2017 Debye
        Dipole field         -0.0001 Ry au, 
 
        Potential amp.        0.0139 Ry
        Total length         46.3494 bohr
 

     total cpu time spent up to now is      438.6 secs

     total energy              =   -2973.98041868 Ry
     estimated scf accuracy    <       0.18085844 Ry

     iteration # 22     ecut=    29.40 Ry     beta= 0.05
     Davidson diagonalization with overlap
     c_bands:  2 eigenvalues not converged
     ethr =  4.49E-05,  avg # of iterations =  3.4

     negative rho (up, down):  3.546E-03 0.000E+00
 
     Adding external electric field

     Computed dipole along edir(3) : 
        Dipole                0.1833 Ry au,          0.4658 Debye
        Dipole field          0.0003 Ry au, 
 
        Potential amp.       -0.0321 Ry
        Total length         46.3494 bohr
 

     total cpu time spent up to now is      449.4 secs

     total energy              =   -2973.97387959 Ry
     estimated scf accuracy    <       0.18222357 Ry

     iteration # 23     ecut=    29.40 Ry     beta= 0.05
     Davidson diagonalization with overlap
     c_bands:  2 eigenvalues not converged
     c_bands:  2 eigenvalues not converged
     c_bands:  3 eigenvalues not converged
     ethr =  4.49E-05,  avg # of iterations = 15.3

     negative rho (up, down):  4.060E-03 0.000E+00
 
     Adding external electric field

     Computed dipole along edir(3) : 
        Dipole                0.3075 Ry au,          0.7815 Debye
        Dipole field          0.0006 Ry au, 
 
        Potential amp.       -0.0538 Ry
        Total length         46.3494 bohr
 

     total cpu time spent up to now is      469.3 secs

     total energy              =   -2973.98262635 Ry
     estimated scf accuracy    <       0.21623019 Ry

     iteration # 24     ecut=    29.40 Ry     beta= 0.05
     Davidson diagonalization with overlap
     c_bands:  2 eigenvalues not converged
     ethr =  4.49E-05,  avg # of iterations =  4.8

     negative rho (up, down):  6.632E-03 0.000E+00
 
     Adding external electric field

     Computed dipole along edir(3) : 
        Dipole                0.7644 Ry au,          1.9429 Debye
        Dipole field          0.0014 Ry au, 
 
        Potential amp.       -0.1337 Ry
        Total length         46.3494 bohr
 

     total cpu time spent up to now is      480.8 secs

     total energy              =   -2973.93360211 Ry
     estimated scf accuracy    <       0.14700372 Ry

     iteration # 25     ecut=    29.40 Ry     beta= 0.05
     Davidson diagonalization with overlap
     c_bands:  2 eigenvalues not converged
     c_bands:  1 eigenvalues not converged
     c_bands:  4 eigenvalues not converged
     c_bands:  3 eigenvalues not converged
     c_bands:  5 eigenvalues not converged
     c_bands:  2 eigenvalues not converged
     c_bands:  3 eigenvalues not converged
     c_bands:  1 eigenvalues not converged
     c_bands:  2 eigenvalues not converged
     ethr =  3.65E-05,  avg # of iterations = 21.7

     negative rho (up, down):  6.633E-03 0.000E+00
 
     Adding external electric field

     Computed dipole along edir(3) : 
        Dipole                0.7647 Ry au,          1.9436 Debye
        Dipole field          0.0014 Ry au, 
 
        Potential amp.       -0.1338 Ry
        Total length         46.3494 bohr
 

     total cpu time spent up to now is      508.0 secs

     total energy              =   -2973.99174451 Ry
     estimated scf accuracy    <       0.38247059 Ry

     iteration # 26     ecut=    29.40 Ry     beta= 0.05
     Davidson diagonalization with overlap
     ethr =  3.65E-05,  avg # of iterations =  1.7

     negative rho (up, down):  6.636E-03 0.000E+00
 
     Adding external electric field

     Computed dipole along edir(3) : 
        Dipole                0.7692 Ry au,          1.9552 Debye
        Dipole field          0.0015 Ry au, 
 
        Potential amp.       -0.1346 Ry
        Total length         46.3494 bohr
 

     total cpu time spent up to now is      518.5 secs

     total energy              =   -2973.99903765 Ry
     estimated scf accuracy    <       0.22540763 Ry

     iteration # 27     ecut=    29.40 Ry     beta= 0.05
     Davidson diagonalization with overlap
     ethr =  3.65E-05,  avg # of iterations =  1.0

     negative rho (up, down):  5.828E-03 0.000E+00
 
     Adding external electric field

     Computed dipole along edir(3) : 
        Dipole                0.6733 Ry au,          1.7115 Debye
        Dipole field          0.0013 Ry au, 
 
        Potential amp.       -0.1178 Ry
        Total length         46.3494 bohr
 

     total cpu time spent up to now is      528.4 secs

     total energy              =   -2973.97570226 Ry
     estimated scf accuracy    <       0.30628388 Ry

     iteration # 28     ecut=    29.40 Ry     beta= 0.05
     Davidson diagonalization with overlap
     ethr =  3.65E-05,  avg # of iterations =  1.6

     negative rho (up, down):  5.831E-03 0.000E+00
 
     Adding external electric field

     Computed dipole along edir(3) : 
        Dipole                0.6795 Ry au,          1.7271 Debye
        Dipole field          0.0013 Ry au, 
 
        Potential amp.       -0.1189 Ry
        Total length         46.3494 bohr
 

     total cpu time spent up to now is      538.8 secs

     total energy              =   -2973.98286382 Ry
     estimated scf accuracy    <       0.15076794 Ry

     iteration # 29     ecut=    29.40 Ry     beta= 0.05
     Davidson diagonalization with overlap
     ethr =  3.65E-05,  avg # of iterations =  1.0

     negative rho (up, down):  5.509E-03 0.000E+00
 
     Adding external electric field

     Computed dipole along edir(3) : 
        Dipole                0.6539 Ry au,          1.6620 Debye
        Dipole field          0.0012 Ry au, 
 
        Potential amp.       -0.1144 Ry
        Total length         46.3494 bohr
 

     total cpu time spent up to now is      548.7 secs

     total energy              =   -2973.97470395 Ry
     estimated scf accuracy    <       0.18112896 Ry

     iteration # 30     ecut=    29.40 Ry     beta= 0.05
     Davidson diagonalization with overlap
     ethr =  3.65E-05,  avg # of iterations =  4.0

     negative rho (up, down):  6.236E-03 0.000E+00
 
     Adding external electric field

     Computed dipole along edir(3) : 
        Dipole                0.7909 Ry au,          2.0104 Debye
        Dipole field          0.0015 Ry au, 
 
        Potential amp.       -0.1384 Ry
        Total length         46.3494 bohr
 

     total cpu time spent up to now is      559.7 secs

     total energy              =   -2973.97776948 Ry
     estimated scf accuracy    <       0.07964732 Ry

     iteration # 31     ecut=    29.40 Ry     beta= 0.05
     Davidson diagonalization with overlap
     ethr =  1.98E-05,  avg # of iterations =  6.2

     negative rho (up, down):  8.639E-03 0.000E+00
 
     Adding external electric field

     Computed dipole along edir(3) : 
        Dipole                0.9387 Ry au,          2.3861 Debye
        Dipole field          0.0018 Ry au, 
 
        Potential amp.       -0.1642 Ry
        Total length         46.3494 bohr
 

     total cpu time spent up to now is      571.3 secs

     total energy              =   -2973.97089247 Ry
     estimated scf accuracy    <       0.10555570 Ry

     iteration # 32     ecut=    29.40 Ry     beta= 0.05
     Davidson diagonalization with overlap
     ethr =  1.98E-05,  avg # of iterations =  4.6

     negative rho (up, down):  9.363E-03 0.000E+00
 
     Adding external electric field

     Computed dipole along edir(3) : 
        Dipole                0.9032 Ry au,          2.2957 Debye
        Dipole field          0.0017 Ry au, 
 
        Potential amp.       -0.1580 Ry
        Total length         46.3494 bohr
 

     total cpu time spent up to now is      582.7 secs

     total energy              =   -2973.96767667 Ry
     estimated scf accuracy    <       0.10349730 Ry

     iteration # 33     ecut=    29.40 Ry     beta= 0.05
     Davidson diagonalization with overlap
     c_bands:  1 eigenvalues not converged
     c_bands:  1 eigenvalues not converged
     ethr =  1.98E-05,  avg # of iterations = 11.9

     negative rho (up, down):  9.016E-03 0.000E+00
 
     Adding external electric field

     Computed dipole along edir(3) : 
        Dipole                0.8887 Ry au,          2.2588 Debye
        Dipole field          0.0017 Ry au, 
 
        Potential amp.       -0.1555 Ry
        Total length         46.3494 bohr
 

     total cpu time spent up to now is      598.2 secs

     total energy              =   -2973.97466378 Ry
     estimated scf accuracy    <       0.01188120 Ry

     iteration # 34     ecut=    29.40 Ry     beta= 0.05
     Davidson diagonalization with overlap
     c_bands:  1 eigenvalues not converged
     c_bands:  1 eigenvalues not converged
     c_bands:  2 eigenvalues not converged
     c_bands:  2 eigenvalues not converged
     c_bands:  1 eigenvalues not converged
     c_bands:  1 eigenvalues not converged
     ethr =  2.95E-06,  avg # of iterations = 18.8

     negative rho (up, down):  8.425E-03 0.000E+00
 
     Adding external electric field

     Computed dipole along edir(3) : 
        Dipole                0.8582 Ry au,          2.1814 Debye
        Dipole field          0.0016 Ry au, 
 
        Potential amp.       -0.1501 Ry
        Total length         46.3494 bohr
 

     total cpu time spent up to now is      619.4 secs

     total energy              =   -2973.97456043 Ry
     estimated scf accuracy    <       0.01639297 Ry

     iteration # 35     ecut=    29.40 Ry     beta= 0.05
     Davidson diagonalization with overlap
     c_bands:  1 eigenvalues not converged
     c_bands:  1 eigenvalues not converged
     ethr =  2.95E-06,  avg # of iterations =  6.5

     negative rho (up, down):  1.088E-02 0.000E+00
 
     Adding external electric field

     Computed dipole along edir(3) : 
        Dipole                0.7858 Ry au,          1.9973 Debye
        Dipole field          0.0015 Ry au, 
 
        Potential amp.       -0.1375 Ry
        Total length         46.3494 bohr
 

     total cpu time spent up to now is      631.4 secs

     total energy              =   -2973.97416021 Ry
     estimated scf accuracy    <       0.00858589 Ry

     iteration # 36     ecut=    29.40 Ry     beta= 0.05
     Davidson diagonalization with overlap
     c_bands:  1 eigenvalues not converged
     c_bands:  1 eigenvalues not converged
     c_bands:  2 eigenvalues not converged
     c_bands:  3 eigenvalues not converged
     c_bands:  2 eigenvalues not converged
     c_bands:  3 eigenvalues not converged
     c_bands:  1 eigenvalues not converged
     c_bands:  1 eigenvalues not converged
     c_bands:  2 eigenvalues not converged
     c_bands:  2 eigenvalues not converged
     ethr =  2.13E-06,  avg # of iterations = 20.0

     negative rho (up, down):  1.305E-02 0.000E+00
 
     Adding external electric field

     Computed dipole along edir(3) : 
        Dipole                0.9143 Ry au,          2.3240 Debye
        Dipole field          0.0017 Ry au, 
 
        Potential amp.       -0.1599 Ry
        Total length         46.3494 bohr
 

     total cpu time spent up to now is      655.5 secs

     total energy              =   -2973.97613162 Ry
     estimated scf accuracy    <       0.01204286 Ry

     iteration # 37     ecut=    29.40 Ry     beta= 0.05
     Davidson diagonalization with overlap
     c_bands:  1 eigenvalues not converged
     c_bands:  1 eigenvalues not converged
     c_bands:  1 eigenvalues not converged
     c_bands:  1 eigenvalues not converged
     ethr =  2.13E-06,  avg # of iterations = 17.0

     negative rho (up, down):  1.555E-02 0.000E+00
 
     Adding external electric field

     Computed dipole along edir(3) : 
        Dipole                0.9612 Ry au,          2.4433 Debye
        Dipole field          0.0018 Ry au, 
 
        Potential amp.       -0.1682 Ry
        Total length         46.3494 bohr
 

     total cpu time spent up to now is      675.1 secs

     total energy              =   -2973.97605980 Ry
     estimated scf accuracy    <       0.00913588 Ry

     iteration # 38     ecut=    29.40 Ry     beta= 0.05
     Davidson diagonalization with overlap
     c_bands:  1 eigenvalues not converged
     ethr =  2.13E-06,  avg # of iterations =  4.7

     negative rho (up, down):  1.709E-02 0.000E+00
 
     Adding external electric field

     Computed dipole along edir(3) : 
        Dipole                0.9113 Ry au,          2.3162 Debye
        Dipole field          0.0017 Ry au, 
 
        Potential amp.       -0.1594 Ry
        Total length         46.3494 bohr
 

     total cpu time spent up to now is      686.6 secs

     total energy              =   -2973.97538444 Ry
     estimated scf accuracy    <       0.00432841 Ry

     iteration # 39     ecut=    29.40 Ry     beta= 0.05
     Davidson diagonalization with overlap
     c_bands:  1 eigenvalues not converged
     ethr =  1.07E-06,  avg # of iterations = 13.6

     negative rho (up, down):  1.692E-02 0.000E+00
 
     Adding external electric field

     Computed dipole along edir(3) : 
        Dipole                0.9204 Ry au,          2.3394 Debye
        Dipole field          0.0017 Ry au, 
 
        Potential amp.       -0.1610 Ry
        Total length         46.3494 bohr
 

     total cpu time spent up to now is      704.7 secs

     total energy              =   -2973.97597796 Ry
     estimated scf accuracy    <       0.00128998 Ry

     iteration # 40     ecut=    29.40 Ry     beta= 0.05
     Davidson diagonalization with overlap
     ethr =  3.20E-07,  avg # of iterations =  8.8

     negative rho (up, down):  1.716E-02 0.000E+00
 
     Adding external electric field

     Computed dipole along edir(3) : 
        Dipole                0.9237 Ry au,          2.3477 Debye
        Dipole field          0.0017 Ry au, 
 
        Potential amp.       -0.1616 Ry
        Total length         46.3494 bohr
 

     total cpu time spent up to now is      718.6 secs

     total energy              =   -2973.97600058 Ry
     estimated scf accuracy    <       0.00061160 Ry

     iteration # 41     ecut=    29.40 Ry     beta= 0.05
     Davidson diagonalization with overlap
     c_bands:  1 eigenvalues not converged
     ethr =  1.52E-07,  avg # of iterations = 13.1

     negative rho (up, down):  1.733E-02 0.000E+00
 
     Adding external electric field

     Computed dipole along edir(3) : 
        Dipole                0.9038 Ry au,          2.2973 Debye
        Dipole field          0.0017 Ry au, 
 
        Potential amp.       -0.1581 Ry
        Total length         46.3494 bohr
 

     total cpu time spent up to now is      737.8 secs

     total energy              =   -2973.97612020 Ry
     estimated scf accuracy    <       0.00057968 Ry

     iteration # 42     ecut=    29.40 Ry     beta= 0.05
     Davidson diagonalization with overlap
     ethr =  1.44E-07,  avg # of iterations = 10.9

     negative rho (up, down):  1.729E-02 0.000E+00
 
     Adding external electric field

     Computed dipole along edir(3) : 
        Dipole                0.9071 Ry au,          2.3056 Debye
        Dipole field          0.0017 Ry au, 
 
        Potential amp.       -0.1587 Ry
        Total length         46.3494 bohr
 

     total cpu time spent up to now is      752.6 secs

     total energy              =   -2973.97606459 Ry
     estimated scf accuracy    <       0.00042919 Ry

     iteration # 43     ecut=    29.40 Ry     beta= 0.05
     Davidson diagonalization with overlap
     ethr =  1.06E-07,  avg # of iterations = 13.9

     negative rho (up, down):  1.709E-02 0.000E+00
 
     Adding external electric field

     Computed dipole along edir(3) : 
        Dipole                0.9027 Ry au,          2.2943 Debye
        Dipole field          0.0017 Ry au, 
 
        Potential amp.       -0.1579 Ry
        Total length         46.3494 bohr
 

     total cpu time spent up to now is      774.8 secs

     total energy              =   -2973.97616688 Ry
     estimated scf accuracy    <       0.00060303 Ry

     iteration # 44     ecut=    29.40 Ry     beta= 0.05
     Davidson diagonalization with overlap
     ethr =  1.06E-07,  avg # of iterations =  5.8

     negative rho (up, down):  1.717E-02 0.000E+00
 
     Adding external electric field

     Computed dipole along edir(3) : 
        Dipole                0.9090 Ry au,          2.3106 Debye
        Dipole field          0.0017 Ry au, 
 
        Potential amp.       -0.1590 Ry
        Total length         46.3494 bohr
 

     total cpu time spent up to now is      786.5 secs

     total energy              =   -2973.97614613 Ry
     estimated scf accuracy    <       0.00025421 Ry

     iteration # 45     ecut=    29.40 Ry     beta= 0.05
     Davidson diagonalization with overlap
     c_bands:  1 eigenvalues not converged
     ethr =  6.31E-08,  avg # of iterations = 11.4

     negative rho (up, down):  1.699E-02 0.000E+00
 
     Adding external electric field

     Computed dipole along edir(3) : 
        Dipole                0.9112 Ry au,          2.3161 Debye
        Dipole field          0.0017 Ry au, 
 
        Potential amp.       -0.1594 Ry
        Total length         46.3494 bohr
 

     total cpu time spent up to now is      804.3 secs

     total energy              =   -2973.97621728 Ry
     estimated scf accuracy    <       0.00008687 Ry

     iteration # 46     ecut=    29.40 Ry     beta= 0.05
     Davidson diagonalization with overlap
     ethr =  2.16E-08,  avg # of iterations =  7.2

     negative rho (up, down):  1.698E-02 0.000E+00
 
     Adding external electric field

     Computed dipole along edir(3) : 
        Dipole                0.9071 Ry au,          2.3057 Debye
        Dipole field          0.0017 Ry au, 
 
        Potential amp.       -0.1587 Ry
        Total length         46.3494 bohr
 

     total cpu time spent up to now is      819.7 secs

     total energy              =   -2973.97624973 Ry
     estimated scf accuracy    <       0.00004113 Ry

     iteration # 47     ecut=    29.40 Ry     beta= 0.05
     Davidson diagonalization with overlap
     ethr =  1.02E-08,  avg # of iterations =  9.5

     negative rho (up, down):  1.705E-02 0.000E+00
 
     Adding external electric field

     Computed dipole along edir(3) : 
        Dipole                0.9086 Ry au,          2.3096 Debye
        Dipole field          0.0017 Ry au, 
 
        Potential amp.       -0.1590 Ry
        Total length         46.3494 bohr
 

     total cpu time spent up to now is      833.7 secs

     total energy              =   -2973.97627073 Ry
     estimated scf accuracy    <       0.00002267 Ry

     iteration # 48     ecut=    29.40 Ry     beta= 0.05
     Davidson diagonalization with overlap
     ethr =  5.63E-09,  avg # of iterations =  5.5

     negative rho (up, down):  1.698E-02 0.000E+00
 
     Adding external electric field

     Computed dipole along edir(3) : 
        Dipole                0.9094 Ry au,          2.3115 Debye
        Dipole field          0.0017 Ry au, 
 
        Potential amp.       -0.1591 Ry
        Total length         46.3494 bohr
 

     total cpu time spent up to now is      845.8 secs

     total energy              =   -2973.97628484 Ry
     estimated scf accuracy    <       0.00001100 Ry

     iteration # 49     ecut=    29.40 Ry     beta= 0.05
     Davidson diagonalization with overlap
     ethr =  2.73E-09,  avg # of iterations = 10.8

     negative rho (up, down):  1.695E-02 0.000E+00
 
     Adding external electric field

     Computed dipole along edir(3) : 
        Dipole                0.9091 Ry au,          2.3106 Debye
        Dipole field          0.0017 Ry au, 
 
        Potential amp.       -0.1590 Ry
        Total length         46.3494 bohr
 

     total cpu time spent up to now is      863.7 secs

     total energy              =   -2973.97630032 Ry
     estimated scf accuracy    <       0.00000443 Ry

     iteration # 50     ecut=    29.40 Ry     beta= 0.05
     Davidson diagonalization with overlap
     ethr =  1.10E-09,  avg # of iterations =  2.0

     negative rho (up, down):  1.693E-02 0.000E+00
 
     Adding external electric field

     Computed dipole along edir(3) : 
        Dipole                0.9077 Ry au,          2.3071 Debye
        Dipole field          0.0017 Ry au, 
 
        Potential amp.       -0.1588 Ry
        Total length         46.3494 bohr
 

     total cpu time spent up to now is      874.6 secs

     total energy              =   -2973.97631291 Ry
     estimated scf accuracy    <       0.00000330 Ry

     iteration # 51     ecut=    29.40 Ry     beta= 0.05
     Davidson diagonalization with overlap
     c_bands:  1 eigenvalues not converged
     c_bands:  1 eigenvalues not converged
     ethr =  8.18E-10,  avg # of iterations = 14.3

     negative rho (up, down):  1.697E-02 0.000E+00
 
     Adding external electric field

     Computed dipole along edir(3) : 
        Dipole                0.9085 Ry au,          2.3093 Debye
        Dipole field          0.0017 Ry au, 
 
        Potential amp.       -0.1589 Ry
        Total length         46.3494 bohr
 

     total cpu time spent up to now is      898.5 secs

     total energy              =   -2973.97632371 Ry
     estimated scf accuracy    <       0.00001054 Ry

     iteration # 52     ecut=    29.40 Ry     beta= 0.05
     Davidson diagonalization with overlap
     ethr =  8.18E-10,  avg # of iterations =  9.5

     negative rho (up, down):  1.700E-02 0.000E+00
 
     Adding external electric field

     Computed dipole along edir(3) : 
        Dipole                0.9089 Ry au,          2.3101 Debye
        Dipole field          0.0017 Ry au, 
 
        Potential amp.       -0.1590 Ry
        Total length         46.3494 bohr
 

     total cpu time spent up to now is      916.7 secs

     total energy              =   -2973.97633488 Ry
     estimated scf accuracy    <       0.00000112 Ry

     iteration # 53     ecut=    29.40 Ry     beta= 0.05
     Davidson diagonalization with overlap
     ethr =  2.77E-10,  avg # of iterations =  6.7

     negative rho (up, down):  1.699E-02 0.000E+00
 
     Adding external electric field

     Computed dipole along edir(3) : 
        Dipole                0.9093 Ry au,          2.3112 Debye
        Dipole field          0.0017 Ry au, 
 
        Potential amp.       -0.1591 Ry
        Total length         46.3494 bohr
 

     total cpu time spent up to now is      929.1 secs

     total energy              =   -2973.97634396 Ry
     estimated scf accuracy    <       0.00000080 Ry

     iteration # 54     ecut=    29.40 Ry     beta= 0.05
     Davidson diagonalization with overlap
     ethr =  1.99E-10,  avg # of iterations = 11.1

     negative rho (up, down):  1.698E-02 0.000E+00
 
     Adding external electric field

     Computed dipole along edir(3) : 
        Dipole                0.9092 Ry au,          2.3110 Debye
        Dipole field          0.0017 Ry au, 
 
        Potential amp.       -0.1591 Ry
        Total length         46.3494 bohr
 

     total cpu time spent up to now is      943.4 secs

     total energy              =   -2973.97635213 Ry
     estimated scf accuracy    <       0.00000049 Ry

     iteration # 55     ecut=    29.40 Ry     beta= 0.05
     Davidson diagonalization with overlap
     ethr =  1.22E-10,  avg # of iterations = 12.5

     negative rho (up, down):  1.698E-02 0.000E+00
 
     Adding external electric field

     Computed dipole along edir(3) : 
        Dipole                0.9090 Ry au,          2.3104 Debye
        Dipole field          0.0017 Ry au, 
 
        Potential amp.       -0.1590 Ry
        Total length         46.3494 bohr
 

     total cpu time spent up to now is      963.2 secs

     total energy              =   -2973.97635953 Ry
     estimated scf accuracy    <       0.00000062 Ry

     iteration # 56     ecut=    29.40 Ry     beta= 0.05
     Davidson diagonalization with overlap
     ethr =  1.22E-10,  avg # of iterations =  8.8

     negative rho (up, down):  1.696E-02 0.000E+00
 
     Adding external electric field

     Computed dipole along edir(3) : 
        Dipole                0.9086 Ry au,          2.3094 Debye
        Dipole field          0.0017 Ry au, 
 
        Potential amp.       -0.1589 Ry
        Total length         46.3494 bohr
 

     total cpu time spent up to now is      977.3 secs

     total energy              =   -2973.97636634 Ry
     estimated scf accuracy    <       0.00000026 Ry

     iteration # 57     ecut=    29.40 Ry     beta= 0.05
     Davidson diagonalization with overlap
     c_bands:  1 eigenvalues not converged
     ethr =  6.44E-11,  avg # of iterations = 13.4

     negative rho (up, down):  1.695E-02 0.000E+00
 
     Adding external electric field

     Computed dipole along edir(3) : 
        Dipole                0.9088 Ry au,          2.3099 Debye
        Dipole field          0.0017 Ry au, 
 
        Potential amp.       -0.1590 Ry
        Total length         46.3494 bohr
 

     total cpu time spent up to now is     1001.4 secs

     total energy              =   -2973.97637225 Ry
     estimated scf accuracy    <       0.00000110 Ry

     iteration # 58     ecut=    29.40 Ry     beta= 0.05
     Davidson diagonalization with overlap
     c_bands:  1 eigenvalues not converged
     ethr =  6.44E-11,  avg # of iterations = 12.0

     negative rho (up, down):  1.694E-02 0.000E+00
 
     Adding external electric field

     Computed dipole along edir(3) : 
        Dipole                0.9086 Ry au,          2.3094 Debye
        Dipole field          0.0017 Ry au, 
 
        Potential amp.       -0.1589 Ry
        Total length         46.3494 bohr
 

     total cpu time spent up to now is     1024.9 secs

     total energy              =   -2973.97637792 Ry
     estimated scf accuracy    <       0.00000017 Ry

     iteration # 59     ecut=    29.40 Ry     beta= 0.05
     Davidson diagonalization with overlap
     ethr =  4.27E-11,  avg # of iterations =  5.8

     negative rho (up, down):  1.694E-02 0.000E+00
 
     Adding external electric field

     Computed dipole along edir(3) : 
        Dipole                0.9084 Ry au,          2.3090 Debye
        Dipole field          0.0017 Ry au, 
 
        Potential amp.       -0.1589 Ry
        Total length         46.3494 bohr
 

     total cpu time spent up to now is     1036.7 secs

     total energy              =   -2973.97638281 Ry
     estimated scf accuracy    <       0.00000012 Ry

     iteration # 60     ecut=    29.40 Ry     beta= 0.05
     Davidson diagonalization with overlap
     ethr =  3.03E-11,  avg # of iterations =  4.8

     negative rho (up, down):  1.700E-02 0.000E+00
 
     Adding external electric field

     Computed dipole along edir(3) : 
        Dipole                0.9076 Ry au,          2.3068 Debye
        Dipole field          0.0017 Ry au, 
 
        Potential amp.       -0.1588 Ry
        Total length         46.3494 bohr
 

     total cpu time spent up to now is     1048.4 secs

     End of self-consistent calculation

          k = 0.0000 0.0000 0.0000 ( 18029 PWs)   bands (ev):

   -55.6370 -55.6030 -55.5186 -55.4828 -55.4763 -55.4632 -55.4416 -55.4294
   -55.4241 -55.4074 -55.3900 -55.3895 -55.3558 -55.2388 -54.6227 -54.5887
   -32.1227 -32.0244 -31.9709 -31.9653 -31.9578 -31.9282 -31.9139 -31.8957
   -31.8827 -31.7896 -31.7834 -31.7775 -31.7496 -31.7446 -31.7392 -31.7047
   -31.6944 -31.6812 -31.6761 -31.6682 -31.6615 -31.6600 -31.6438 -31.6412
   -31.6349 -31.6244 -31.6231 -31.6186 -31.6128 -31.6071 -31.6025 -31.5930
   -31.5834 -31.5808 -31.5800 -31.5780 -31.5724 -31.5369 -31.5297 -31.5134
   -31.4394 -31.3673 -31.0297 -30.9412 -30.9189 -30.8467 -30.7602 -30.6489
   -18.3801 -17.7445 -16.3001 -16.1094 -15.8841 -15.7823 -15.7424 -15.5692
   -15.4386 -15.3957 -15.2693 -15.2038 -15.1799 -15.1610 -15.1474 -15.1148
   -15.0914 -15.0677 -15.0658 -15.0464 -15.0220 -14.9992 -14.9714 -14.9535
   -14.9109 -14.7856 -14.7775 -14.7661 -14.7282 -14.6909 -14.2918 -13.1230
   -13.0064 -12.3813  -7.9323  -6.1454  -5.4317  -4.8436  -3.6714  -3.5795
    -3.5469  -3.5235  -3.4464  -3.3277  -3.2303  -3.0350  -2.9256  -2.8957
    -2.8707  -2.7884  -2.7051  -2.6645  -2.5628  -2.5308  -2.5202  -2.4755
    -2.4209  -2.4062  -2.3757  -2.3625  -2.3264  -2.1936  -2.1743  -2.1356
    -2.0251  -2.0086  -2.0002  -1.9580  -1.9546  -1.9243  -1.9138  -1.8958
    -1.8786  -1.8669  -1.7995  -1.7175  -1.6860  -1.6365  -1.5818  -1.5750
    -1.2747  -1.2573  -1.1903  -1.1584  -1.0880  -1.0537  -1.0402  -1.0256
    -0.9911  -0.8924  -0.8042  -0.7854  -0.7215  -0.6606  -0.5613  -0.5473
    -0.4463  -0.3975  -0.3919  -0.3790  -0.3474  -0.2870  -0.2313  -0.1748
    -0.1251  -0.0413   0.0121   0.0213   0.0632   0.1068   0.1364   0.1946
     0.2572   0.2844   0.3175   0.3328   0.3739   0.4340   0.4553   0.4681
     0.5463   0.5868   0.6123   0.7103   0.7192   0.7583   0.8303   1.0149
     1.0606   1.1997   1.3385   1.4019   1.4674   1.5940   1.8593   1.9719
     2.0180   3.4531   3.5871   3.6081   3.6436   3.7155   3.7619   3.9348
     4.0305   4.0525   4.1132

          k = 0.0000 0.0419 0.0000 ( 17933 PWs)   bands (ev):

   -55.6320 -55.6079 -55.5135 -55.4877 -55.4713 -55.4582 -55.4465 -55.4343
   -55.4192 -55.4063 -55.3948 -55.3846 -55.3606 -55.2396 -54.6177 -54.5936
   -32.0688 -31.9688 -31.9272 -31.9234 -31.9227 -31.9154 -31.8731 -31.8602
   -31.8420 -31.8012 -31.7758 -31.7698 -31.7635 -31.7366 -31.7310 -31.7084
   -31.7033 -31.6944 -31.6921 -31.6782 -31.6743 -31.6728 -31.6530 -31.6418
   -31.6378 -31.6368 -31.6331 -31.6256 -31.6223 -31.6201 -31.6156 -31.6102
   -31.6030 -31.5981 -31.5939 -31.5927 -31.5837 -31.5784 -31.5671 -31.5305
   -31.4378 -31.4054 -30.9755 -30.9378 -30.9219 -30.8341 -30.7727 -30.7060
   -18.3765 -17.7458 -16.1706 -15.9968 -15.7776 -15.6860 -15.6645 -15.5129
   -15.4347 -15.3642 -15.3398 -15.2286 -15.1611 -15.1554 -15.1319 -15.1208
   -15.1083 -15.0807 -15.0746 -15.0530 -15.0353 -15.0284 -14.9996 -14.9557
   -14.9487 -14.8414 -14.8308 -14.8204 -14.7853 -14.7502 -14.4145 -13.1270
   -13.0459 -12.3842  -7.9363  -6.1429  -5.4308  -4.8355  -3.4816  -3.4087
    -3.3725  -3.3597  -3.3114  -3.2042  -3.0854  -2.8979  -2.8404  -2.8100
    -2.7865  -2.7169  -2.6757  -2.6168  -2.6105  -2.5643  -2.5569  -2.4862
    -2.4639  -2.4536  -2.4183  -2.3784  -2.3626  -2.3157  -2.3068  -2.2744
    -2.2369  -2.1673  -2.1290  -2.1120  -2.0914  -2.0594  -1.9966  -1.9386
    -1.8931  -1.8348  -1.8169  -1.6835  -1.6399  -1.5491  -1.4121  -1.3680
    -1.3381  -1.2979  -1.2057  -1.0585  -1.0029  -0.9087  -0.8548  -0.8467
    -0.8188  -0.7389  -0.6873  -0.6592  -0.6061  -0.5962  -0.5726  -0.5452
    -0.4994  -0.4734  -0.4514  -0.4116  -0.3862  -0.3251  -0.2720  -0.2403
    -0.1711  -0.1588  -0.1204  -0.0685  -0.0108   0.0498   0.1088   0.1339
     0.1799   0.2040   0.2201   0.2319   0.2628   0.3692   0.4152   0.4780
     0.5011   0.5549   0.5860   0.6194   0.6671   0.6903   0.7337   0.7725
     0.9348   1.0183   1.0401   1.3611   1.5902   1.6790   1.8201   1.9269
     1.9298   3.6773   3.6873   3.8379   3.8495   3.8758   3.8895   3.9322
     4.0073   4.0244   4.0532

          k = 0.0000-0.0839 0.0000 ( 17884 PWs)   bands (ev):

   -55.6200 -55.6199 -55.5039 -55.4972 -55.4609 -55.4569 -55.4463 -55.4460
   -55.4098 -55.4052 -55.4041 -55.3741 -55.3712 -55.2405 -54.6057 -54.6055
   -31.9365 -31.9364 -31.9136 -31.9136 -31.8831 -31.8468 -31.8181 -31.7876
   -31.7766 -31.7719 -31.7637 -31.7423 -31.7420 -31.7378 -31.7349 -31.7321
   -31.7265 -31.7245 -31.7230 -31.7133 -31.7088 -31.7061 -31.7061 -31.7046
   -31.6810 -31.6696 -31.6386 -31.6320 -31.6310 -31.6303 -31.6235 -31.6224
   -31.6178 -31.6150 -31.6129 -31.6061 -31.5946 -31.5918 -31.5751 -31.5322
   -31.4500 -31.4362 -30.9297 -30.9295 -30.8427 -30.8424 -30.8035 -30.8034
   -18.3730 -17.7472 -15.9337 -15.7819 -15.7449 -15.6226 -15.5252 -15.4837
   -15.4651 -15.4052 -15.3858 -15.3245 -15.3060 -15.2265 -15.1627 -15.1247
   -15.0456 -15.0387 -15.0215 -14.9856 -14.9825 -14.9784 -14.9767 -14.9564
   -14.9470 -14.9250 -14.9226 -14.8976 -14.8872 -14.7709 -14.6482 -13.1087
   -13.1085 -12.3870  -7.9403  -6.1405  -5.4299  -4.8273  -3.1962  -3.0881
    -3.0340  -3.0066  -2.9895  -2.9885  -2.9366  -2.9351  -2.9271  -2.9139
    -2.8302  -2.7517  -2.7363  -2.7041  -2.6712  -2.6636  -2.6457  -2.6177
    -2.5999  -2.5683  -2.5599  -2.4892  -2.4406  -2.4004  -2.3700  -2.3228
    -2.2600  -2.2317  -2.2079  -2.1817  -1.9994  -1.9790  -1.8907  -1.8461
    -1.7550  -1.6714  -1.6474  -1.5779  -1.5176  -1.4576  -1.3408  -1.3156
    -1.2932  -1.2299  -1.1763  -1.0826  -1.0641  -1.0461  -1.0117  -0.9912
    -0.9731  -0.9410  -0.9363  -0.8881  -0.7308  -0.6996  -0.5935  -0.4446
    -0.3626  -0.3353  -0.2859  -0.2573  -0.2489  -0.2277  -0.1410  -0.1333
    -0.1071  -0.0928  -0.0799  -0.0562  -0.0305   0.0209   0.0580   0.0713
     0.0844   0.1305   0.1435   0.1602   0.1720   0.2075   0.2232   0.2574
     0.3492   0.3763   0.4543   0.5275   0.5983   0.6030   0.6753   0.6972
     0.9027   0.9462   1.0768   1.1356   1.7336   1.7352   1.7957   1.8629
     1.8633   3.8180   3.8840   3.9313   3.9377   3.9390   4.0349   4.0546
     4.1092   4.1494   4.1564

          k = 0.0380 0.0000 0.0000 ( 17913 PWs)   bands (ev):

   -55.6369 -55.6029 -55.5184 -55.4826 -55.4764 -55.4630 -55.4415 -55.4293
   -55.4241 -55.4071 -55.3899 -55.3896 -55.3557 -55.2387 -54.6226 -54.5886
   -32.1236 -32.0246 -31.9750 -31.9655 -31.9580 -31.9280 -31.9189 -31.8989
   -31.8827 -31.7867 -31.7828 -31.7579 -31.7443 -31.7391 -31.7294 -31.6943
   -31.6892 -31.6796 -31.6719 -31.6681 -31.6610 -31.6592 -31.6543 -31.6440
   -31.6353 -31.6279 -31.6249 -31.6223 -31.6182 -31.6126 -31.6075 -31.5928
   -31.5850 -31.5810 -31.5801 -31.5758 -31.5719 -31.5371 -31.5310 -31.5134
   -31.4429 -31.3672 -31.0292 -30.9446 -30.9168 -30.8465 -30.7601 -30.6486
   -18.3790 -17.7440 -16.2112 -16.0197 -15.8171 -15.7690 -15.6805 -15.6003
   -15.4483 -15.4062 -15.3336 -15.2993 -15.2783 -15.2722 -15.2696 -15.2045
   -15.1790 -15.0718 -15.0489 -14.9591 -14.9214 -14.9040 -14.8869 -14.8525
   -14.8415 -14.8300 -14.8116 -14.7971 -14.7718 -14.7535 -14.2922 -13.1198
   -13.0061 -12.3868  -7.9112  -6.1481  -5.4508  -4.8004  -3.5091  -3.4223
    -3.3366  -3.2968  -3.2729  -3.2697  -3.1772  -3.0511  -3.0127  -2.9550
    -2.9343  -2.8722  -2.8356  -2.7232  -2.6900  -2.6126  -2.5897  -2.4650
    -2.3711  -2.3155  -2.2755  -2.2313  -2.2039  -2.1735  -2.1222  -2.0609
    -2.0284  -2.0183  -2.0025  -1.9789  -1.9613  -1.9306  -1.9213  -1.9098
    -1.8374  -1.7769  -1.7084  -1.6076  -1.5644  -1.5106  -1.4697  -1.4125
    -1.4021  -1.2513  -1.2224  -1.1363  -1.1237  -1.0980  -1.0746  -1.0225
    -1.0004  -0.9550  -0.9077  -0.8936  -0.8357  -0.7810  -0.7346  -0.6178
    -0.5227  -0.4717  -0.3934  -0.3581  -0.3054  -0.2801  -0.2131  -0.1986
    -0.1353  -0.0731  -0.0052   0.0377   0.0629   0.0822   0.0932   0.1267
     0.1688   0.2001   0.2346   0.2770   0.3112   0.3245   0.3697   0.4001
     0.4593   0.5317   0.5605   0.5842   0.6978   0.7376   0.7843   0.8866
     1.0452   1.0569   1.3283   1.3543   1.4137   1.5635   1.8536   1.8605
     1.9358   3.4698   3.5510   3.8433   3.8471   3.9035   3.9143   3.9229
     3.9348   3.9507   4.0272

          k = 0.0380 0.0419 0.0000 ( 17878 PWs)   bands (ev):

   -55.6319 -55.6079 -55.5133 -55.4877 -55.4713 -55.4580 -55.4465 -55.4342
   -55.4193 -55.4061 -55.3948 -55.3846 -55.3606 -55.2395 -54.6176 -54.5936
   -32.0696 -31.9691 -31.9275 -31.9232 -31.9229 -31.9198 -31.8733 -31.8659
   -31.8454 -31.8013 -31.7733 -31.7693 -31.7470 -31.7310 -31.7197 -31.7080
   -31.7026 -31.6838 -31.6814 -31.6764 -31.6727 -31.6632 -31.6611 -31.6509
   -31.6394 -31.6377 -31.6319 -31.6265 -31.6236 -31.6223 -31.6211 -31.6155
   -31.6118 -31.5979 -31.5930 -31.5894 -31.5879 -31.5841 -31.5642 -31.5329
   -31.4420 -31.4053 -30.9752 -30.9404 -30.9209 -30.8339 -30.7728 -30.7059
   -18.3758 -17.7450 -16.0904 -15.9172 -15.7391 -15.6669 -15.5796 -15.5389
   -15.4308 -15.3873 -15.3478 -15.2993 -15.2754 -15.2379 -15.2074 -15.1522
   -15.1253 -15.0872 -15.0757 -15.0126 -14.9883 -14.9752 -14.9578 -14.9248
   -14.8932 -14.8846 -14.8646 -14.8446 -14.8152 -14.8050 -14.4165 -13.1247
   -13.0462 -12.3895  -7.9128  -6.1376  -5.4600  -4.8040  -3.3488  -3.2833
    -3.1890  -3.1436  -3.1127  -3.0971  -3.0271  -2.9332  -2.8551  -2.8365
    -2.7647  -2.7489  -2.6993  -2.6004  -2.5641  -2.5359  -2.5178  -2.4743
    -2.4447  -2.3897  -2.3642  -2.3485  -2.3318  -2.3112  -2.2974  -2.2716
    -2.2182  -2.1801  -2.1371  -2.0913  -2.0737  -2.0087  -1.9468  -1.9240
    -1.8877  -1.7532  -1.7340  -1.6526  -1.6245  -1.5549  -1.4564  -1.3606
    -1.3323  -1.2399  -1.1273  -1.0682  -1.0429  -1.0077  -0.9791  -0.9228
    -0.8715  -0.8398  -0.8235  -0.7644  -0.7517  -0.6936  -0.6421  -0.5957
    -0.5552  -0.5077  -0.4541  -0.4374  -0.4160  -0.3506  -0.3453  -0.2805
    -0.2651  -0.2447  -0.1913  -0.1498  -0.1199  -0.0642  -0.0522   0.0132
     0.0676   0.1005   0.1324   0.1633   0.2251   0.3196   0.3683   0.4255
     0.5042   0.5522   0.5991   0.6430   0.6660   0.7386   0.7626   0.7999
     0.9040   0.9741   1.0507   1.2870   1.6006   1.6822   1.8250   1.8494
     1.9105   3.6667   3.6771   3.8644   3.8782   3.9416   3.9767   4.0205
     4.0568   4.0643   4.0882

          k = 0.0380-0.0839 0.0000 ( 17916 PWs)   bands (ev):

   -55.6200 -55.6199 -55.5039 -55.4972 -55.4609 -55.4570 -55.4463 -55.4459
   -55.4099 -55.4052 -55.4042 -55.3741 -55.3713 -55.2405 -54.6057 -54.6055
   -31.9372 -31.9372 -31.9137 -31.9137 -31.8834 -31.8472 -31.8185 -31.7944
   -31.7838 -31.7739 -31.7649 -31.7460 -31.7420 -31.7409 -31.7404 -31.7310
   -31.7300 -31.7166 -31.7130 -31.7118 -31.7088 -31.7061 -31.6814 -31.6812
   -31.6800 -31.6535 -31.6437 -31.6376 -31.6344 -31.6307 -31.6278 -31.6216
   -31.6181 -31.6154 -31.6130 -31.6059 -31.6048 -31.6031 -31.5794 -31.5352
   -31.4496 -31.4412 -30.9307 -30.9305 -30.8426 -30.8423 -30.8035 -30.8034
   -18.3724 -17.7465 -15.8959 -15.7188 -15.6924 -15.5628 -15.5181 -15.4533
   -15.4077 -15.3829 -15.3689 -15.3154 -15.3111 -15.2350 -15.2106 -15.1246
   -15.0759 -15.0598 -15.0572 -15.0370 -15.0281 -15.0079 -14.9887 -14.9819
   -14.9579 -14.9520 -14.9452 -14.9392 -14.9186 -14.7580 -14.6436 -13.1085
   -13.1083 -12.3921  -7.9163  -6.1357  -5.4605  -4.7960  -3.1750  -3.0613
    -3.0010  -2.8640  -2.8200  -2.8016  -2.7832  -2.7704  -2.7426  -2.7362
    -2.7302  -2.6718  -2.6509  -2.6343  -2.6123  -2.5827  -2.5632  -2.5518
    -2.5221  -2.5201  -2.4835  -2.4387  -2.4137  -2.3884  -2.3565  -2.3035
    -2.2744  -2.2679  -2.2218  -2.1959  -2.0450  -1.9385  -1.8126  -1.7703
    -1.7204  -1.6616  -1.6059  -1.5741  -1.5232  -1.4849  -1.4737  -1.4251
    -1.3968  -1.3531  -1.3257  -1.2860  -1.2709  -1.2335  -1.1917  -1.1521
    -1.0794  -0.9834  -0.9095  -0.8203  -0.7412  -0.7244  -0.6239  -0.6104
    -0.4831  -0.4417  -0.4272  -0.3791  -0.3660  -0.3350  -0.3188  -0.2747
    -0.2631  -0.2435  -0.2290  -0.2008  -0.1884  -0.1725  -0.0927  -0.0516
     0.0298   0.0478   0.1260   0.1763   0.2685   0.3089   0.3460   0.4013
     0.4671   0.4842   0.5342   0.5652   0.6048   0.6570   0.6979   0.7225
     0.8939   0.9238   1.0515   1.1097   1.7466   1.7483   1.8017   1.8525
     1.8533   3.8274   3.8794   3.9052   3.9222   3.9752   4.0467   4.0718
     4.1181   4.1315   4.1801

          k = 0.0380-0.0419 0.0000 ( 17876 PWs)   bands (ev):

   -55.6319 -55.6079 -55.5133 -55.4877 -55.4713 -55.4580 -55.4465 -55.4342
   -55.4193 -55.4061 -55.3948 -55.3846 -55.3606 -55.2395 -54.6176 -54.5936
   -32.0696 -31.9690 -31.9275 -31.9232 -31.9230 -31.9198 -31.8733 -31.8659
   -31.8455 -31.8013 -31.7733 -31.7693 -31.7468 -31.7309 -31.7196 -31.7080
   -31.7026 -31.6839 -31.6800 -31.6763 -31.6733 -31.6631 -31.6611 -31.6505
   -31.6395 -31.6379 -31.6313 -31.6269 -31.6249 -31.6236 -31.6220 -31.6157
   -31.6118 -31.5979 -31.5924 -31.5892 -31.5879 -31.5783 -31.5696 -31.5318
   -31.4421 -31.4051 -30.9752 -30.9404 -30.9209 -30.8339 -30.7728 -30.7059
   -18.3756 -17.7455 -16.0909 -15.9184 -15.7376 -15.6640 -15.5763 -15.5333
   -15.4313 -15.3864 -15.3434 -15.3007 -15.2929 -15.2558 -15.2037 -15.1526
   -15.1231 -15.0861 -15.0689 -15.0134 -14.9878 -14.9684 -14.9563 -14.9234
   -14.8930 -14.8844 -14.8635 -14.8451 -14.8237 -14.7998 -14.4159 -13.1248
   -13.0462 -12.3894  -7.9146  -6.1461  -5.4512  -4.7922  -3.3511  -3.2908
    -3.1979  -3.1424  -3.1022  -3.0952  -3.0223  -2.9309  -2.8581  -2.8308
    -2.7747  -2.7480  -2.6798  -2.6146  -2.5603  -2.5493  -2.5223  -2.4761
    -2.4378  -2.3929  -2.3710  -2.3472  -2.3273  -2.3079  -2.2832  -2.2715
    -2.2356  -2.2005  -2.1452  -2.1109  -2.0664  -2.0266  -1.9526  -1.9230
    -1.9021  -1.7607  -1.7451  -1.6340  -1.5885  -1.5178  -1.4362  -1.3522
    -1.3410  -1.2648  -1.1302  -1.0808  -1.0383  -1.0140  -0.9597  -0.9335
    -0.8406  -0.8335  -0.8119  -0.7884  -0.7213  -0.6670  -0.6015  -0.5847
    -0.5563  -0.5217  -0.4773  -0.4597  -0.3889  -0.3638  -0.3428  -0.3091
    -0.2934  -0.2527  -0.2245  -0.1684  -0.1316  -0.0756  -0.0461   0.0260
     0.0716   0.1041   0.1288   0.1720   0.2394   0.3240   0.3939   0.4470
     0.5140   0.5666   0.6135   0.6410   0.6753   0.7244   0.7672   0.7948
     0.8707   0.9683   1.0444   1.2901   1.6006   1.6820   1.8129   1.8492
     1.9111   3.6683   3.6763   3.8648   3.9087   3.9433   3.9800   4.0061
     4.0530   4.0691   4.0899

          k =-0.0760-0.0000 0.0000 ( 17886 PWs)   bands (ev):

   -55.6369 -55.6029 -55.5182 -55.4826 -55.4765 -55.4627 -55.4415 -55.4293
   -55.4242 -55.4069 -55.3899 -55.3897 -55.3557 -55.2387 -54.6226 -54.5886
   -32.1245 -32.0248 -31.9791 -31.9657 -31.9583 -31.9279 -31.9237 -31.9020
   -31.8827 -31.7838 -31.7824 -31.7442 -31.7395 -31.7129 -31.7064 -31.6946
   -31.6883 -31.6792 -31.6700 -31.6679 -31.6668 -31.6662 -31.6586 -31.6481
   -31.6440 -31.6380 -31.6270 -31.6218 -31.6186 -31.6168 -31.6124 -31.5927
   -31.5865 -31.5815 -31.5808 -31.5747 -31.5714 -31.5376 -31.5323 -31.5136
   -31.4464 -31.3673 -31.0288 -30.9479 -30.9155 -30.8464 -30.7600 -30.6487
   -18.3779 -17.7436 -16.0524 -15.9380 -15.8724 -15.6938 -15.5893 -15.5387
   -15.4911 -15.4209 -15.4166 -15.3615 -15.3549 -15.3271 -15.3145 -15.2882
   -15.2728 -15.0658 -15.0574 -14.9660 -14.9236 -14.9026 -14.8935 -14.8802
   -14.8559 -14.7973 -14.7705 -14.7602 -14.7551 -14.7427 -14.2928 -13.1167
   -13.0058 -12.3924  -7.8899  -6.1515  -5.4683  -4.7566  -3.4704  -3.3865
    -3.3021  -3.1117  -3.0911  -3.0772  -3.0092  -2.9997  -2.9695  -2.9252
    -2.9037  -2.8880  -2.8859  -2.8476  -2.6746  -2.5455  -2.4915  -2.4353
    -2.2420  -2.2262  -2.2021  -2.1411  -2.1334  -2.1046  -2.0946  -2.0670
    -2.0289  -2.0066  -1.9991  -1.9904  -1.9776  -1.9647  -1.9161  -1.8919
    -1.8709  -1.8597  -1.8252  -1.7287  -1.5671  -1.5085  -1.3500  -1.2616
    -1.2450  -1.2316  -1.2254  -1.2160  -1.1807  -1.1643  -1.1217  -1.1039
    -0.9987  -0.9779  -0.9635  -0.9166  -0.8893  -0.8126  -0.8097  -0.7411
    -0.7269  -0.6613  -0.4741  -0.3872  -0.3312  -0.3120  -0.2321  -0.1972
    -0.1424  -0.0997  -0.0844  -0.0711  -0.0458   0.0043   0.0417   0.0749
     0.0959   0.1330   0.1750   0.2065   0.2306   0.2776   0.2967   0.3404
     0.5076   0.5355   0.5813   0.5943   0.6346   0.7999   0.8651   0.9363
     1.0311   1.0420   1.0485   1.3508   1.4348   1.5391   1.7323   1.8426
     1.8804   3.4716   3.5120   3.6746   3.7404   3.8071   3.8466   3.9334
     3.9730   3.9964   4.0227

          k =-0.0760 0.0419 0.0000 ( 17914 PWs)   bands (ev):

   -55.6319 -55.6079 -55.5132 -55.4876 -55.4714 -55.4579 -55.4465 -55.4342
   -55.4194 -55.4060 -55.3948 -55.3848 -55.3606 -55.2396 -54.6176 -54.5936
   -32.0706 -31.9695 -31.9282 -31.9244 -31.9232 -31.9230 -31.8733 -31.8717
   -31.8490 -31.8016 -31.7711 -31.7691 -31.7317 -31.7096 -31.7079 -31.7059
   -31.6977 -31.6891 -31.6766 -31.6733 -31.6705 -31.6602 -31.6585 -31.6513
   -31.6491 -31.6400 -31.6375 -31.6353 -31.6300 -31.6259 -31.6225 -31.6163
   -31.6151 -31.5979 -31.5938 -31.5930 -31.5888 -31.5831 -31.5663 -31.5338
   -31.4465 -31.4052 -30.9749 -30.9432 -30.9202 -30.8339 -30.7728 -30.7059
   -18.3749 -17.7447 -15.9576 -15.8214 -15.8008 -15.5969 -15.5060 -15.4524
   -15.4220 -15.4038 -15.3875 -15.3476 -15.3362 -15.2821 -15.2657 -15.2423
   -15.2231 -15.1143 -15.0877 -15.0177 -14.9732 -14.9525 -14.9411 -14.9263
   -14.9043 -14.9027 -14.8659 -14.8391 -14.8216 -14.7981 -14.4183 -13.1226
   -13.0465 -12.3948  -7.8910  -6.1411  -5.4793  -4.7609  -3.3279  -3.2554
    -3.1577  -2.9662  -2.9061  -2.8316  -2.8173  -2.8003  -2.7817  -2.7406
    -2.7039  -2.6861  -2.6635  -2.6242  -2.5986  -2.5581  -2.4682  -2.4350
    -2.4168  -2.3960  -2.3668  -2.3535  -2.3026  -2.2528  -2.2102  -2.1814
    -2.1627  -2.1448  -2.1342  -2.1151  -2.1071  -2.0728  -2.0117  -1.9768
    -1.7147  -1.6883  -1.6698  -1.6441  -1.5136  -1.4889  -1.4345  -1.4275
    -1.2911  -1.2383  -1.2129  -1.1420  -1.1231  -1.0905  -1.0416  -0.9670
    -0.9454  -0.9148  -0.8767  -0.8680  -0.8543  -0.8374  -0.8186  -0.7316
    -0.7091  -0.6789  -0.6338  -0.5656  -0.5084  -0.4893  -0.4512  -0.3944
    -0.3621  -0.3391  -0.2873  -0.2449  -0.2071  -0.1712  -0.1326  -0.0307
     0.0287   0.0521   0.1321   0.1822   0.2035   0.2475   0.3599   0.3868
     0.5754   0.6192   0.6597   0.6960   0.7640   0.8127   0.8577   0.8926
     0.9372   0.9524   0.9987   1.0769   1.6146   1.6841   1.7722   1.8181
     1.8998   3.6676   3.6705   3.7546   3.8010   3.8583   3.8834   3.9888
     4.0178   4.1569   4.1681

          k =-0.0760-0.0839 0.0000 ( 17948 PWs)   bands (ev):

   -55.6200 -55.6199 -55.5038 -55.4971 -55.4610 -55.4570 -55.4462 -55.4459
   -55.4100 -55.4051 -55.4042 -55.3741 -55.3713 -55.2406 -54.6058 -54.6055
   -31.9380 -31.9379 -31.9137 -31.9137 -31.8837 -31.8476 -31.8187 -31.8001
   -31.7895 -31.7744 -31.7652 -31.7526 -31.7483 -31.7398 -31.7395 -31.7319
   -31.7315 -31.7196 -31.7161 -31.7098 -31.6837 -31.6815 -31.6763 -31.6703
   -31.6555 -31.6532 -31.6522 -31.6388 -31.6331 -31.6305 -31.6268 -31.6265
   -31.6229 -31.6202 -31.6198 -31.6153 -31.6140 -31.6016 -31.5872 -31.5373
   -31.4496 -31.4463 -30.9317 -30.9315 -30.8426 -30.8423 -30.8035 -30.8034
   -18.3720 -17.7458 -15.8511 -15.6071 -15.5934 -15.5566 -15.5379 -15.4186
   -15.3737 -15.3697 -15.3488 -15.2937 -15.2579 -15.2210 -15.1896 -15.1719
   -15.1485 -15.1373 -15.0956 -15.0925 -15.0855 -15.0635 -15.0219 -15.0115
   -14.9872 -14.9667 -14.9621 -14.9498 -14.9174 -14.7494 -14.6398 -13.1083
   -13.1081 -12.3972  -7.8922  -6.1302  -5.4908  -4.7649  -3.1503  -3.0649
    -3.0100  -2.8001  -2.7558  -2.7357  -2.7015  -2.6416  -2.5883  -2.5710
    -2.5526  -2.5240  -2.5142  -2.4619  -2.4363  -2.4102  -2.3855  -2.3697
    -2.3602  -2.3472  -2.3210  -2.3018  -2.2780  -2.2698  -2.2460  -2.2351
    -2.2134  -2.2055  -2.1912  -2.1688  -2.0807  -1.9977  -1.8959  -1.8373
    -1.7939  -1.7934  -1.7632  -1.7343  -1.7062  -1.7016  -1.6624  -1.6331
    -1.5612  -1.5027  -1.3187  -1.3052  -1.2606  -1.1753  -1.1743  -1.1277
    -1.1167  -1.0654  -1.0395  -0.9931  -0.9437  -0.9090  -0.8231  -0.6695
    -0.6212  -0.6010  -0.5952  -0.5799  -0.5389  -0.5249  -0.4722  -0.4552
    -0.4381  -0.3708  -0.3419  -0.3371  -0.2864  -0.2683  -0.1575  -0.0584
    -0.0316   0.0223   0.0616   0.1811   0.2922   0.3617   0.4643   0.4783
     0.4970   0.5508   0.6589   0.6687   0.7137   0.7764   0.8414   0.8473
     0.8775   0.9415   0.9536   0.9904   1.7645   1.7664   1.8083   1.8380
     1.8382   3.8617   3.9027   3.9531   3.9593   3.9832   4.0332   4.0405
     4.0710   4.1216   4.1373

     the Fermi energy is     3.4856 ev

!    total energy              =   -2973.97642790 Ry
     estimated scf accuracy    <       0.00000007 Ry
     smearing contrib. (-TS)   =      -0.01978186 Ry
     internal energy E=F+TS    =   -2973.95664604 Ry

     The total energy is F=E-TS. E is the sum of the following terms:
     one-electron contribution =  -24367.59066332 Ry
     hartree contribution      =   12278.35290960 Ry
     xc contribution           =    -494.12480643 Ry
     ewald contribution        =    9609.40435968 Ry
     electric field correction =       0.00155442 Ry

     convergence has been achieved in  60 iterations

     Forces acting on atoms (cartesian axes, Ry/au):

     atom    1 type  1   force =     0.00016206   -0.00031298    0.09441943
     atom    2 type  1   force =    -0.00007546   -0.00076819   -0.17588229
     atom    3 type  2   force =     0.00005845   -0.00019345   -0.02181881
     atom    4 type  2   force =     0.00003824   -0.00134276    0.05333742
     atom    5 type  2   force =    -0.00870601   -0.00018111    0.00366677
     atom    6 type  2   force =     0.01037327    0.00047070    0.00301998
     atom    7 type  1   force =    -0.00044889    0.00081908   -0.00105206
     atom    8 type  1   force =     0.00044965    0.00750603    0.00862167
     atom    9 type  2   force =     0.00047023    0.00015276    0.00005810
     atom   10 type  2   force =    -0.00262893    0.00131928   -0.01722998
     atom   11 type  2   force =    -0.00009646    0.00009346   -0.00040305
     atom   12 type  2   force =     0.00031206    0.00007640   -0.00007822
     atom   13 type  1   force =    -0.00041659   -0.00037851   -0.00022979
     atom   14 type  1   force =     0.00035945    0.00005233    0.00021282
     atom   15 type  2   force =     0.00013535   -0.00007213   -0.00025513
     atom   16 type  2   force =     0.00019679    0.00016963   -0.00002612
     atom   17 type  2   force =    -0.00004672    0.00003881    0.00010970
     atom   18 type  2   force =     0.00001382    0.00003061   -0.00012568
     atom   19 type  1   force =    -0.00061240    0.00020336   -0.00105557
     atom   20 type  1   force =     0.00017328   -0.00021609    0.00001528
     atom   21 type  2   force =     0.00006728   -0.00000394    0.10327526
     atom   22 type  2   force =    -0.00029002   -0.00041938   -0.00011204
     atom   23 type  2   force =    -0.07154796   -0.00011200   -0.02735848
     atom   24 type  2   force =     0.07148532    0.00037555   -0.02737264
     atom   25 type  1   force =     0.00004502   -0.00021232    0.09439935
     atom   26 type  1   force =    -0.00013315   -0.00029653   -0.17601343
     atom   27 type  2   force =     0.00003819   -0.00018925   -0.02072035
     atom   28 type  2   force =     0.00009468   -0.00112687    0.05372723
     atom   29 type  2   force =    -0.00878839   -0.00002097    0.00343391
     atom   30 type  2   force =     0.01030187    0.00036645    0.00286444
     atom   31 type  1   force =    -0.00032718    0.00466306    0.00188658
     atom   32 type  1   force =     0.00042925   -0.00852808    0.00857607
     atom   33 type  2   force =    -0.00003779    0.00002416   -0.00000485
     atom   34 type  2   force =    -0.00403297   -0.00112342   -0.01182574
     atom   35 type  2   force =     0.00013318    0.00007554    0.00033564
     atom   36 type  2   force =     0.00053785    0.00005680   -0.00022027
     atom   37 type  1   force =     0.00061975   -0.00019340   -0.00001813
     atom   38 type  1   force =     0.00022162   -0.00012383   -0.00011342
     atom   39 type  2   force =    -0.00014564   -0.00002439   -0.00018793
     atom   40 type  2   force =     0.00045306    0.00000943    0.00044921
     atom   41 type  2   force =    -0.00011745    0.00033921    0.00007328
     atom   42 type  2   force =     0.00017495    0.00003982   -0.00015705
     atom   43 type  1   force =    -0.00028529   -0.00018020    0.00044914
     atom   44 type  1   force =     0.00030480    0.00063862    0.00084739
     atom   45 type  2   force =     0.00005264    0.00000075    0.10334612
     atom   46 type  2   force =    -0.07154316   -0.00004276   -0.02734956
     atom   47 type  2   force =     0.07148394    0.00035185   -0.02737538
     atom   48 type  3   force =     0.00037069   -0.00051986   -0.00068938
     atom   49 type  4   force =     0.00087354    0.00018439   -0.00027733
     atom   50 type  5   force =    -0.00027988   -0.00151934   -0.00115100
     atom   51 type  3   force =    -0.00042825    0.00043993    0.00100393
     atom   52 type  3   force =    -0.00007410   -0.00028724   -0.00001067
     atom   53 type  4   force =    -0.00054213    0.00056280    0.00140432
     atom   54 type  2   force =     0.00493088   -0.01253893    0.00228462
     atom   55 type  3   force =    -0.00438157    0.01173944   -0.00237464
     atom   56 type  3   force =     0.00062523    0.00012768   -0.00032864

     Total force =     0.364314     Total SCF correction =     0.000480
  @ DRIVER MODE: Message from server: STATUS
  @ DRIVER MODE: Message from server: GETFORCE
  @ DRIVER MODE: Returning v,forces,stress,ensemble 

     Writing output data file ./calc.save/
  @ DRIVER MODE: Message from server: EXIT
  @ DRIVE MODE: Exiting  
 
     init_run     :     10.83s CPU     11.07s WALL (       1 calls)
     electrons    :   1022.93s CPU   1037.05s WALL (       1 calls)
     forces       :      2.34s CPU      2.44s WALL (       1 calls)

     Called by init_run:
     wfcinit      :      4.82s CPU      4.89s WALL (       1 calls)
     potinit      :      5.32s CPU      5.38s WALL (       1 calls)
     hinit0       :      0.33s CPU      0.34s WALL (       1 calls)

     Called by electrons:
     c_bands      :    881.92s CPU    888.02s WALL (      60 calls)
     sum_band     :     96.18s CPU     99.37s WALL (      60 calls)
     v_of_rho     :     34.45s CPU     36.16s WALL (      61 calls)
     newd         :     13.79s CPU     16.88s WALL (      61 calls)
     mix_rho      :      1.23s CPU      1.29s WALL (      60 calls)
     vdW_kernel   :      4.55s CPU      4.56s WALL (       1 calls)

     Called by c_bands:
     init_us_2    :      5.52s CPU      5.55s WALL (    1220 calls)
     cegterg      :    865.75s CPU    871.60s WALL (     616 calls)

     Called by *egterg:
     cdiaghg      :    141.99s CPU    142.66s WALL (    6254 calls)
     h_psi        :    458.73s CPU    462.83s WALL (    6269 calls)
     s_psi        :     60.65s CPU     60.82s WALL (    6269 calls)
     g_psi        :      1.73s CPU      1.74s WALL (    5643 calls)

     Called by h_psi:
     h_psi:calbec :     57.37s CPU     57.64s WALL (    6269 calls)
     vloc_psi     :    337.34s CPU    340.61s WALL (    6269 calls)
     add_vuspsi   :     60.92s CPU     61.28s WALL (    6269 calls)

     General routines
     calbec       :     74.62s CPU     74.95s WALL (    6909 calls)
     fft          :     17.02s CPU     17.16s WALL (    3843 calls)
     ffts         :      0.11s CPU      0.11s WALL (     121 calls)
     fftw         :    373.84s CPU    377.47s WALL (  891666 calls)
     interpolate  :      0.37s CPU      0.37s WALL (      61 calls)
     davcio       :      0.00s CPU      0.57s WALL (      10 calls)
 
     Parallel routines
 
     PWSCF        :  17m16.37s CPU  17m31.69s WALL

 
   This run was terminated on:   6: 4:22  16Sep2021            

=------------------------------------------------------------------------------=
   JOB DONE.
=------------------------------------------------------------------------------=
