
     Program PWSCF v.6.7GPU starts on 18Oct2021 at 19:59:58 

     This program is part of the open-source Quantum ESPRESSO suite
     for quantum simulation of materials; please cite
         "P. Giannozzi et al., J. Phys.:Condens. Matter 21 395502 (2009);
         "P. Giannozzi et al., J. Phys.:Condens. Matter 29 465901 (2017);
         "P. Giannozzi et al., J. Chem. Phys. 152 154105 (2020);
          URL http://www.quantum-espresso.org", 
     in publications or presentations arising from this work. More details at
     http://www.quantum-espresso.org/quote

     Parallel version (MPI), running on     8 processors

     MPI processes distributed on     1 nodes
     R & G space division:  proc/nbgrp/npool/nimage =       8
     Reading input from /storage/home/hcoda1/3/ntian30/research/carbon/CxH_vib/Thiel_calc/ads_slab/NH3NH2H_perslab/out_0017/pw.inp
Warning: card &CELL ignored
Warning: card   CELL_DYNAMICS='IPI', ignored
Warning: card / ignored

     Current dimensions of program PWSCF are:
     Max number of different atomic species (ntypx) = 10
     Max number of k-points (npk) =  40000
     Max angular momentum in pseudopotentials (lmaxx) =  3
     Presently no symmetry can be used with electric field

     Message from routine cell_base_init:
     DEPRECATED: use true lattice parameter, not A to a.u. conversion factor

     **************************************************************************
     Initializing libbeef V0.1.2 with the BEEF-vdW functional.
     Citation: Wellendorff et al., PRB 85, 235149 (2012).
     **************************************************************************


     IMPORTANT: XC functional enforced from input :
     Exchange-correlation= BEEF-VDW
                           (   1   4  43  14   2   0   0)
     Any further DFT definition will be discarded
     Please, verify this is what you really want


     Subspace diagonalization in iterative solution of the eigenvalue problem:
     one sub-group per band group will be used
     scalapack distributed-memory algorithm (size of sub-group:  2*  2 procs)

  @ DRIVER MODE: Connecting to 
 qe_1139763_3255139.sched-torque.pace.gatech.eduugza31xj_scratch
  using UNIX socket
  @ DRIVER MODE: Message from server: STATUS
  @ DRIVER MODE: Message from server: INIT
  @ DRIVER MODE: Receiving replica           0          -1
  @ DRIVER MODE: Receiving encoded integer          25
  @ DRIVER MODE:  SCF:  T  FORCE:  T  STRESS:  F  VC:  F  ENSEMBLE:  F
  @ DRIVER MODE:  SCF:  T  FORCE:  T  STRESS:  F  VC:  F  ENSEMBLE:  F
 
     Parallelization info
     --------------------
     sticks:   dense  smooth     PW     G-vecs:    dense   smooth      PW
     Min         614     246     69               106272    26887    3981
     Max         615     248     70               106275    26893    3990
     Sum        4915    1977    553               850181   215109   31863
 
     Using Slab Decomposition
 


     bravais-lattice index     =            0
     lattice parameter (alat)  =       1.8897  a.u.
     unit-cell volume          =    9988.4706 (a.u.)^3
     number of atoms/cell      =           61
     number of atomic types    =            4
     number of electrons       =       442.00
     number of Kohn-Sham states=          231
     kinetic-energy cutoff     =      29.3995  Ry
     charge density cutoff     =     293.9946  Ry
     scf convergence threshold =      7.3E-08
     mixing beta               =       0.0500
     number of iterations used =            8  plain     mixing
     Exchange-correlation= BEEF-VDW
                           (   1   4  43  14   2   0   0)

     celldm(1)=   1.889726  celldm(2)=   0.000000  celldm(3)=   0.000000
     celldm(4)=   0.000000  celldm(5)=   0.000000  celldm(6)=   0.000000

     crystal axes: (cart. coord. in units of alat)
               a(1) = (   6.579727   0.000000   0.000000 )  
               a(2) = (  -0.001163   8.942395   0.000000 )  
               a(3) = (   0.000000   0.000000  25.155947 )  

     reciprocal axes: (cart. coord. in units 2 pi/alat)
               b(1) = (  0.151982  0.000020  0.000000 )  
               b(2) = (  0.000000  0.111827  0.000000 )  
               b(3) = (  0.000000  0.000000  0.039752 )  


     PseudoPot. # 1 for O  read from file:
     /storage/coda1/p-amedford6/0/shared/rich_project_chbe-medford/medford-share/data/pseudos_module/espresso/nninc/pbe/van/O.UPF
     MD5 check sum: 78c19812648e8988a0fe644b0f25305e
     Pseudo is Ultrasoft, Zval =  6.0
     Generated by new atomic code, or converted to UPF format
     Using radial grid of  737 points,  4 beta functions with: 
                l(1) =   0
                l(2) =   0
                l(3) =   1
                l(4) =   1
     Q(r) pseudized with  8 coefficients,  rinner =    0.800   0.800   0.800


     PseudoPot. # 2 for Ti read from file:
     /storage/coda1/p-amedford6/0/shared/rich_project_chbe-medford/medford-share/data/pseudos_module/espresso/nninc/pbe/van/Ti.UPF
     MD5 check sum: 8e4df49b7f0d34bbd5052bf3f5ea0213
     Pseudo is Ultrasoft, Zval = 12.0
     Generated by new atomic code, or converted to UPF format
     Using radial grid of  851 points,  6 beta functions with: 
                l(1) =   0
                l(2) =   0
                l(3) =   1
                l(4) =   1
                l(5) =   2
                l(6) =   2
     Q(r) pseudized with  8 coefficients,  rinner =    1.000   1.000   1.000
                                                       1.000   1.000

     PseudoPot. # 3 for H  read from file:
     /storage/coda1/p-amedford6/0/shared/rich_project_chbe-medford/medford-share/data/pseudos_module/espresso/nninc/pbe/van/H.UPF
     MD5 check sum: b5ee9d7bfd3a09ee7748110bda690ff7
     Pseudo is Ultrasoft, Zval =  1.0
     Generated by new atomic code, or converted to UPF format
     Using radial grid of  615 points,  1 beta functions with: 
                l(1) =   0
     Q(r) pseudized with  8 coefficients,  rinner =    0.800

     PseudoPot. # 4 for N  read from file:
     /storage/coda1/p-amedford6/0/shared/rich_project_chbe-medford/medford-share/data/pseudos_module/espresso/nninc/pbe/van/N.UPF
     MD5 check sum: 90d10febe142ad51ac9d5be1deb811c4
     Pseudo is Ultrasoft, Zval =  5.0
     Generated by new atomic code, or converted to UPF format
     Using radial grid of  729 points,  4 beta functions with: 
                l(1) =   0
                l(2) =   0
                l(3) =   1
                l(4) =   1
     Q(r) pseudized with  8 coefficients,  rinner =    0.800   0.800   0.800


     atomic species   valence    mass     pseudopotential
        O1             6.00    15.99900     O ( 1.00)
        Ti1           12.00    47.86700     Ti( 1.00)
        H1             1.00     1.00800     H ( 1.00)
        N1             5.00    14.00700     N ( 1.00)

     No symmetry found



   Cartesian axes

     site n.     atom                  positions (alat units)
         1           O1  tau(   1) = (   0.0007354   0.0005023  10.5931620  )
         2           O1  tau(   2) = (   3.2892937   8.9423630  13.8814308  )
         3           O1  tau(   3) = (   6.5785080   0.0907754  17.2996570  )
         4           O1  tau(   4) = (   0.0006271   0.0005054   7.9858123  )
         5           O1  tau(   5) = (   3.2892617   8.9274694  11.1867540  )
         6           O1  tau(   6) = (   0.0001068   0.0384811  14.5856928  )
         7           O1  tau(   7) = (   1.9868534   1.4903216   9.2879459  )
         8           O1  tau(   8) = (   5.2392332   1.6199063  12.5840971  )
         9           O1  tau(   9) = (   2.0046145   1.5651943  16.0652335  )
        10           Ti1 tau(  10) = (   0.0007404   1.4906270   9.2895810  )
        11           Ti1 tau(  11) = (   3.2903033   1.3475644  12.4784176  )
        12           Ti1 tau(  12) = (   0.0002083   1.2954417  15.7753146  )
        13           O1  tau(  13) = (   4.5942328   1.4918067   9.2879030  )
        14           O1  tau(  14) = (   1.3408909   1.6195689  12.5841697  )
        15           O1  tau(  15) = (   4.5747373   1.5650701  16.0650860  )
        16           Ti1 tau(  16) = (   3.2902859   2.9801868   9.2893338  )
        17           Ti1 tau(  17) = (   0.0003213   2.8429885  12.4272127  )
        18           Ti1 tau(  18) = (   3.2894782   2.8703589  15.6911549  )
        19           O1  tau(  19) = (   0.0003479   2.9813005  10.5931620  )
        20           O1  tau(  20) = (   3.2897922   2.9583395  13.9032781  )
        21           O1  tau(  21) = (   0.0002396   2.9813036   7.9858123  )
        22           O1  tau(  22) = (   3.2900450   2.9730570  11.1907869  )
        23           O1  tau(  23) = (   0.0001206   2.9807552  14.9070210  )
        24           O1  tau(  24) = (   1.9864658   4.4711199   9.2879459  )
        25           O1  tau(  25) = (   5.2482068   4.5640541  12.6028892  )
        26           O1  tau(  26) = (   2.0118887   4.5193519  16.0312246  )
        27           Ti1 tau(  27) = (   0.0003529   4.4714252   9.2895810  )
        28           Ti1 tau(  28) = (   3.2901403   4.3402809  12.5217819  )
        29           Ti1 tau(  29) = (   0.0009811   4.3515161  16.1888847  )
        30           O1  tau(  30) = (   4.5938453   4.4726049   9.2879030  )
        31           O1  tau(  31) = (   1.3314901   4.5639303  12.6028828  )
        32           O1  tau(  32) = (   4.5682806   4.5188618  16.0312494  )
        33           Ti1 tau(  33) = (   3.2898983   5.9609850   9.2893338  )
        34           Ti1 tau(  34) = (   0.0001002   5.8006911  12.4939615  )
        35           Ti1 tau(  35) = (   3.2910898   5.8128663  15.8108673  )
        36           O1  tau(  36) = (  -0.0000397   5.9620987  10.5931620  )
        37           O1  tau(  37) = (   3.2898758   5.9691391  13.9384534  )
        38           O1  tau(  38) = (   0.0001572   5.9906873  17.2924393  )
        39           O1  tau(  39) = (  -0.0001480   5.9621018   7.9858123  )
        40           O1  tau(  40) = (   3.2897271   5.9334558  11.2049738  )
        41           O1  tau(  41) = (   0.0000685   5.9641935  14.6703060  )
        42           O1  tau(  42) = (   1.9860782   7.4519181   9.2879459  )
        43           O1  tau(  43) = (   5.2398882   7.5535610  12.5750285  )
        44           O1  tau(  44) = (   1.9879998   7.5809304  16.0172394  )
        45           Ti1 tau(  45) = (  -0.0000347   7.4522234   9.2895810  )
        46           Ti1 tau(  46) = (   3.2896426   7.2731609  12.5447809  )
        47           Ti1 tau(  47) = (   0.0002275   7.1890881  15.9781391  )
        48           O1  tau(  48) = (   4.5934577   7.4534031   9.2879030  )
        49           O1  tau(  49) = (   1.3388943   7.5534522  12.5751898  )
        50           O1  tau(  50) = (   4.5903976   7.5792304  16.0166626  )
        51           Ti1 tau(  51) = (   3.2895107   8.9417832   9.2893338  )
        52           Ti1 tau(  52) = (  -0.0003648   8.7758640  12.4444508  )
        53           Ti1 tau(  53) = (   3.2897763   8.8353469  15.6829021  )
        54           H1  tau(  54) = (   0.0028024   0.0378429  18.2586218  )
        55           N1  tau(  55) = (   0.0000016   3.3024973  17.8430138  )
        56           H1  tau(  56) = (   6.5772996   2.3364033  18.1330564  )
        57           H1  tau(  57) = (   6.5785254   3.8921159  18.6668881  )
        58           N1  tau(  58) = (   3.2892544   5.9906839  18.1401779  )
        59           H1  tau(  59) = (   3.2890604   5.0659402  18.5578254  )
        60           H1  tau(  60) = (   2.4549486   6.4784715  18.4500629  )
        61           H1  tau(  61) = (   4.1227990   6.4789769  18.4516084  )

     number of k points=    10  Fermi-Dirac smearing, width (Ry)=  0.0073
                       cart. coord. in units 2pi/alat
        k(    1) = (   0.0000000   0.0000000   0.0000000), wk =   0.1250000
        k(    2) = (   0.0000000   0.0279567   0.0000000), wk =   0.2500000
        k(    3) = (   0.0000000  -0.0559134   0.0000000), wk =   0.1250000
        k(    4) = (   0.0379955   0.0000049   0.0000000), wk =   0.2500000
        k(    5) = (   0.0379955   0.0279617   0.0000000), wk =   0.2500000
        k(    6) = (   0.0379955  -0.0559085   0.0000000), wk =   0.2500000
        k(    7) = (   0.0379955  -0.0279518   0.0000000), wk =   0.2500000
        k(    8) = (  -0.0759910  -0.0000099   0.0000000), wk =   0.1250000
        k(    9) = (  -0.0759910   0.0279468   0.0000000), wk =   0.2500000
        k(   10) = (  -0.0759910  -0.0559233   0.0000000), wk =   0.1250000

     Dense  grid:   850181 G-vectors     FFT dimensions: (  72,  96, 270)

     Smooth grid:   215109 G-vectors     FFT dimensions: (  45,  60, 180)

     Estimated max dynamical RAM per process >     706.97 MB

     Estimated total dynamical RAM >       5.52 GB
     Cannot read rho : file not found

     Initial potential from superposition of free atoms

     starting charge  423.99908, renormalised to  442.00000

     negative rho (up, down):  3.654E-02 0.000E+00


     %%%%%%%%%%%%%%%%%%%%%%%%%%%%%%%%%%%%%%%%%%%%%%%%%%%%%%%%%%%%%%%%%%%%%%%%
     %                                                                      %
     % You are using vdW-DF, which was implemented by the Thonhauser group. %
     % Please cite the following two papers that made this development      %
     % possible and the two reviews that describe the various versions:     %
     %                                                                      %
     %   T. Thonhauser et al., PRL 115, 136402 (2015).                      %
     %   T. Thonhauser et al., PRB 76, 125112 (2007).                       %
     %   K. Berland et al., Rep. Prog. Phys. 78, 066501 (2015).             %
     %   D.C. Langreth et al., J. Phys.: Condens. Matter 21, 084203 (2009). %
     %                                                                      %
     %                                                                      %
     % If you are calculating the stress with vdW-DF, please also cite:     %
     %                                                                      %
     %   R. Sabatini et al., J. Phys.: Condens. Matter 24, 424209 (2012).   %
     %                                                                      %
     %%%%%%%%%%%%%%%%%%%%%%%%%%%%%%%%%%%%%%%%%%%%%%%%%%%%%%%%%%%%%%%%%%%%%%%%


 
     Adding external electric field

     Computed dipole along edir(3) : 
        Dipole               -6.3666 Ry au,        -16.1823 Debye
        Dipole field         -0.0080 Ry au, 
 
        Potential amp.        0.7425 Ry
        Total length         46.3494 bohr
 
     Starting wfcs are  334 atomic wfcs
  @ DRIVER MODE: Message from server: STATUS
  @ DRIVER MODE: Message from server: POSDATA
  @ DRIVER MODE: Reading and sharing cell 
  @ DRIVER MODE: Reading and sharing positions 
  @ DRIVER MODE: Received positions 

     total cpu time spent up to now is       18.9 secs

     Self-consistent Calculation

     iteration #  1     ecut=    29.40 Ry     beta= 0.05
     Davidson diagonalization with overlap
     c_bands:  2 eigenvalues not converged
     c_bands:  3 eigenvalues not converged
     c_bands:  3 eigenvalues not converged
     c_bands:  2 eigenvalues not converged
     c_bands:  1 eigenvalues not converged
     c_bands:  4 eigenvalues not converged
     c_bands:  1 eigenvalues not converged
     c_bands:  1 eigenvalues not converged
     c_bands:  5 eigenvalues not converged
     ethr =  1.00E-05,  avg # of iterations = 20.0

     negative rho (up, down):  3.604E-02 0.000E+00
 
     Adding external electric field

     Computed dipole along edir(3) : 
        Dipole                6.2971 Ry au,         16.0057 Debye
        Dipole field          0.0079 Ry au, 
 
        Potential amp.       -0.7344 Ry
        Total length         46.3494 bohr
 

     total cpu time spent up to now is       97.6 secs

     total energy              =   -3277.25458201 Ry
     estimated scf accuracy    <     250.58627898 Ry

     iteration #  2     ecut=    29.40 Ry     beta= 0.05
     Davidson diagonalization with overlap
     c_bands:  2 eigenvalues not converged
     ethr =  1.00E-02,  avg # of iterations = 15.5

     negative rho (up, down):  3.482E-02 0.000E+00
 
     Adding external electric field

     Computed dipole along edir(3) : 
        Dipole               -1.7385 Ry au,         -4.4188 Debye
        Dipole field         -0.0022 Ry au, 
 
        Potential amp.        0.2027 Ry
        Total length         46.3494 bohr
 

     total cpu time spent up to now is      139.8 secs

     total energy              =   -3277.59298648 Ry
     estimated scf accuracy    <     866.25256640 Ry

     iteration #  3     ecut=    29.40 Ry     beta= 0.05
     Davidson diagonalization with overlap
     ethr =  1.00E-02,  avg # of iterations = 12.6

     negative rho (up, down):  3.447E-02 0.000E+00
 
     Adding external electric field

     Computed dipole along edir(3) : 
        Dipole               -1.6316 Ry au,         -4.1470 Debye
        Dipole field         -0.0021 Ry au, 
 
        Potential amp.        0.1903 Ry
        Total length         46.3494 bohr
 

     total cpu time spent up to now is      171.4 secs

     total energy              =   -3297.33038493 Ry
     estimated scf accuracy    <      11.27700304 Ry

     iteration #  4     ecut=    29.40 Ry     beta= 0.05
     Davidson diagonalization with overlap
     ethr =  2.55E-03,  avg # of iterations =  2.4

     negative rho (up, down):  3.540E-02 0.000E+00
 
     Adding external electric field

     Computed dipole along edir(3) : 
        Dipole               -0.4000 Ry au,         -1.0166 Debye
        Dipole field         -0.0005 Ry au, 
 
        Potential amp.        0.0466 Ry
        Total length         46.3494 bohr
 

     total cpu time spent up to now is      193.9 secs

     total energy              =   -3293.83547135 Ry
     estimated scf accuracy    <       9.78502219 Ry

     iteration #  5     ecut=    29.40 Ry     beta= 0.05
     Davidson diagonalization with overlap
     ethr =  2.21E-03,  avg # of iterations = 14.3

     negative rho (up, down):  3.491E-02 0.000E+00
 
     Adding external electric field

     Computed dipole along edir(3) : 
        Dipole               -0.1980 Ry au,         -0.5033 Debye
        Dipole field         -0.0002 Ry au, 
 
        Potential amp.        0.0231 Ry
        Total length         46.3494 bohr
 

     total cpu time spent up to now is      230.7 secs

     total energy              =   -3295.58598672 Ry
     estimated scf accuracy    <       3.20433129 Ry

     iteration #  6     ecut=    29.40 Ry     beta= 0.05
     Davidson diagonalization with overlap
     ethr =  7.25E-04,  avg # of iterations =  4.4

     negative rho (up, down):  3.430E-02 0.000E+00
 
     Adding external electric field

     Computed dipole along edir(3) : 
        Dipole                0.1477 Ry au,          0.3753 Debye
        Dipole field          0.0002 Ry au, 
 
        Potential amp.       -0.0172 Ry
        Total length         46.3494 bohr
 

     total cpu time spent up to now is      254.8 secs

     total energy              =   -3295.58784360 Ry
     estimated scf accuracy    <       2.51988769 Ry

     iteration #  7     ecut=    29.40 Ry     beta= 0.05
     Davidson diagonalization with overlap
     ethr =  5.70E-04,  avg # of iterations = 12.5

     negative rho (up, down):  3.469E-02 0.000E+00
 
     Adding external electric field

     Computed dipole along edir(3) : 
        Dipole                0.6747 Ry au,          1.7148 Debye
        Dipole field          0.0008 Ry au, 
 
        Potential amp.       -0.0787 Ry
        Total length         46.3494 bohr
 

     total cpu time spent up to now is      283.0 secs

     total energy              =   -3295.60217853 Ry
     estimated scf accuracy    <       0.99321236 Ry

     iteration #  8     ecut=    29.40 Ry     beta= 0.05
     Davidson diagonalization with overlap
     ethr =  2.25E-04,  avg # of iterations = 10.9

     negative rho (up, down):  3.491E-02 0.000E+00
 
     Adding external electric field

     Computed dipole along edir(3) : 
        Dipole                0.7732 Ry au,          1.9653 Debye
        Dipole field          0.0010 Ry au, 
 
        Potential amp.       -0.0902 Ry
        Total length         46.3494 bohr
 

     total cpu time spent up to now is      319.5 secs

     total energy              =   -3295.97329943 Ry
     estimated scf accuracy    <       0.82512250 Ry

     iteration #  9     ecut=    29.40 Ry     beta= 0.05
     Davidson diagonalization with overlap
     c_bands:  2 eigenvalues not converged
     c_bands:  4 eigenvalues not converged
     ethr =  1.87E-04,  avg # of iterations = 15.9

     negative rho (up, down):  3.472E-02 0.000E+00
 
     Adding external electric field

     Computed dipole along edir(3) : 
        Dipole                0.8873 Ry au,          2.2553 Debye
        Dipole field          0.0011 Ry au, 
 
        Potential amp.       -0.1035 Ry
        Total length         46.3494 bohr
 

     total cpu time spent up to now is      354.0 secs

     total energy              =   -3295.77525001 Ry
     estimated scf accuracy    <       3.33614518 Ry

     iteration # 10     ecut=    29.40 Ry     beta= 0.05
     Davidson diagonalization with overlap
     ethr =  1.87E-04,  avg # of iterations =  4.1

     negative rho (up, down):  3.627E-02 0.000E+00
 
     Adding external electric field

     Computed dipole along edir(3) : 
        Dipole                1.9943 Ry au,          5.0690 Debye
        Dipole field          0.0025 Ry au, 
 
        Potential amp.       -0.2326 Ry
        Total length         46.3494 bohr
 

     total cpu time spent up to now is      377.4 secs

     total energy              =   -3295.43826503 Ry
     estimated scf accuracy    <       1.93390920 Ry

     iteration # 11     ecut=    29.40 Ry     beta= 0.05
     Davidson diagonalization with overlap
     c_bands:  4 eigenvalues not converged
     c_bands:  3 eigenvalues not converged
     c_bands:  3 eigenvalues not converged
     c_bands:  3 eigenvalues not converged
     c_bands:  3 eigenvalues not converged
     c_bands:  2 eigenvalues not converged
     c_bands:  3 eigenvalues not converged
     c_bands:  5 eigenvalues not converged
     ethr =  1.87E-04,  avg # of iterations = 22.6

     negative rho (up, down):  3.580E-02 0.000E+00
 
     Adding external electric field

     Computed dipole along edir(3) : 
        Dipole                2.0132 Ry au,          5.1170 Debye
        Dipole field          0.0025 Ry au, 
 
        Potential amp.       -0.2348 Ry
        Total length         46.3494 bohr
 

     total cpu time spent up to now is      435.8 secs

     total energy              =   -3295.92743588 Ry
     estimated scf accuracy    <       2.01949715 Ry

     iteration # 12     ecut=    29.40 Ry     beta= 0.05
     Davidson diagonalization with overlap
     ethr =  1.87E-04,  avg # of iterations =  1.9

     negative rho (up, down):  3.537E-02 0.000E+00
 
     Adding external electric field

     Computed dipole along edir(3) : 
        Dipole                1.9150 Ry au,          4.8674 Debye
        Dipole field          0.0024 Ry au, 
 
        Potential amp.       -0.2233 Ry
        Total length         46.3494 bohr
 

     total cpu time spent up to now is      457.6 secs

     total energy              =   -3295.80788758 Ry
     estimated scf accuracy    <       1.46014589 Ry

     iteration # 13     ecut=    29.40 Ry     beta= 0.05
     Davidson diagonalization with overlap
     ethr =  1.87E-04,  avg # of iterations =  7.4

     negative rho (up, down):  3.507E-02 0.000E+00
 
     Adding external electric field

     Computed dipole along edir(3) : 
        Dipole                1.9603 Ry au,          4.9827 Debye
        Dipole field          0.0025 Ry au, 
 
        Potential amp.       -0.2286 Ry
        Total length         46.3494 bohr
 

     total cpu time spent up to now is      482.7 secs

     total energy              =   -3295.82706895 Ry
     estimated scf accuracy    <       0.75922903 Ry

     iteration # 14     ecut=    29.40 Ry     beta= 0.05
     Davidson diagonalization with overlap
     ethr =  1.72E-04,  avg # of iterations =  2.4

     negative rho (up, down):  3.454E-02 0.000E+00
 
     Adding external electric field

     Computed dipole along edir(3) : 
        Dipole                1.9679 Ry au,          5.0019 Debye
        Dipole field          0.0025 Ry au, 
 
        Potential amp.       -0.2295 Ry
        Total length         46.3494 bohr
 

     total cpu time spent up to now is      504.0 secs

     total energy              =   -3295.81944246 Ry
     estimated scf accuracy    <       0.66770451 Ry

     iteration # 15     ecut=    29.40 Ry     beta= 0.05
     Davidson diagonalization with overlap
     ethr =  1.51E-04,  avg # of iterations =  3.5

     negative rho (up, down):  3.420E-02 0.000E+00
 
     Adding external electric field

     Computed dipole along edir(3) : 
        Dipole                2.0024 Ry au,          5.0895 Debye
        Dipole field          0.0025 Ry au, 
 
        Potential amp.       -0.2335 Ry
        Total length         46.3494 bohr
 

     total cpu time spent up to now is      526.4 secs

     total energy              =   -3295.76608926 Ry
     estimated scf accuracy    <       0.58224352 Ry

     iteration # 16     ecut=    29.40 Ry     beta= 0.05
     Davidson diagonalization with overlap
     ethr =  1.32E-04,  avg # of iterations =  8.9

     negative rho (up, down):  3.462E-02 0.000E+00
 
     Adding external electric field

     Computed dipole along edir(3) : 
        Dipole                2.4721 Ry au,          6.2833 Debye
        Dipole field          0.0031 Ry au, 
 
        Potential amp.       -0.2883 Ry
        Total length         46.3494 bohr
 

     total cpu time spent up to now is      552.3 secs

     total energy              =   -3295.87127874 Ry
     estimated scf accuracy    <       0.36553830 Ry

     iteration # 17     ecut=    29.40 Ry     beta= 0.05
     Davidson diagonalization with overlap
     c_bands:  1 eigenvalues not converged
     c_bands:  1 eigenvalues not converged
     c_bands:  1 eigenvalues not converged
     ethr =  8.27E-05,  avg # of iterations = 15.2

     negative rho (up, down):  3.411E-02 0.000E+00
 
     Adding external electric field

     Computed dipole along edir(3) : 
        Dipole                2.3034 Ry au,          5.8546 Debye
        Dipole field          0.0029 Ry au, 
 
        Potential amp.       -0.2686 Ry
        Total length         46.3494 bohr
 

     total cpu time spent up to now is      583.1 secs

     total energy              =   -3295.82759921 Ry
     estimated scf accuracy    <       0.71514074 Ry

     iteration # 18     ecut=    29.40 Ry     beta= 0.05
     Davidson diagonalization with overlap
     ethr =  8.27E-05,  avg # of iterations =  6.8

     negative rho (up, down):  3.400E-02 0.000E+00
 
     Adding external electric field

     Computed dipole along edir(3) : 
        Dipole                2.1674 Ry au,          5.5091 Debye
        Dipole field          0.0027 Ry au, 
 
        Potential amp.       -0.2528 Ry
        Total length         46.3494 bohr
 

     total cpu time spent up to now is      607.4 secs

     total energy              =   -3295.80789681 Ry
     estimated scf accuracy    <       0.84365051 Ry

     iteration # 19     ecut=    29.40 Ry     beta= 0.05
     Davidson diagonalization with overlap
     ethr =  8.27E-05,  avg # of iterations =  6.5

     negative rho (up, down):  3.395E-02 0.000E+00
 
     Adding external electric field

     Computed dipole along edir(3) : 
        Dipole                1.7708 Ry au,          4.5009 Debye
        Dipole field          0.0022 Ry au, 
 
        Potential amp.       -0.2065 Ry
        Total length         46.3494 bohr
 

     total cpu time spent up to now is      631.4 secs

     total energy              =   -3295.74560840 Ry
     estimated scf accuracy    <       0.49267449 Ry

     iteration # 20     ecut=    29.40 Ry     beta= 0.05
     Davidson diagonalization with overlap
     c_bands:  5 eigenvalues not converged
     c_bands:  2 eigenvalues not converged
     ethr =  8.27E-05,  avg # of iterations = 20.8

     negative rho (up, down):  3.422E-02 0.000E+00
 
     Adding external electric field

     Computed dipole along edir(3) : 
        Dipole                2.9427 Ry au,          7.4796 Debye
        Dipole field          0.0037 Ry au, 
 
        Potential amp.       -0.3432 Ry
        Total length         46.3494 bohr
 

     total cpu time spent up to now is      674.1 secs

     total energy              =   -3295.57598456 Ry
     estimated scf accuracy    <       0.72420216 Ry

     iteration # 21     ecut=    29.40 Ry     beta= 0.05
     Davidson diagonalization with overlap
     c_bands:  1 eigenvalues not converged
     c_bands:  1 eigenvalues not converged
     c_bands:  3 eigenvalues not converged
     c_bands:  1 eigenvalues not converged
     c_bands:  2 eigenvalues not converged
     c_bands:  2 eigenvalues not converged
     c_bands:  2 eigenvalues not converged
     c_bands:  3 eigenvalues not converged
     c_bands:  1 eigenvalues not converged
     ethr =  8.27E-05,  avg # of iterations = 19.7

     negative rho (up, down):  3.420E-02 0.000E+00
 
     Adding external electric field

     Computed dipole along edir(3) : 
        Dipole                3.0120 Ry au,          7.6558 Debye
        Dipole field          0.0038 Ry au, 
 
        Potential amp.       -0.3513 Ry
        Total length         46.3494 bohr
 

     total cpu time spent up to now is      719.2 secs

     total energy              =   -3296.07123071 Ry
     estimated scf accuracy    <       2.24890653 Ry

     iteration # 22     ecut=    29.40 Ry     beta= 0.05
     Davidson diagonalization with overlap
     ethr =  8.27E-05,  avg # of iterations =  4.3

     negative rho (up, down):  3.388E-02 0.000E+00
 
     Adding external electric field

     Computed dipole along edir(3) : 
        Dipole                2.4314 Ry au,          6.1800 Debye
        Dipole field          0.0031 Ry au, 
 
        Potential amp.       -0.2836 Ry
        Total length         46.3494 bohr
 

     total cpu time spent up to now is      741.6 secs

     total energy              =   -3295.86091026 Ry
     estimated scf accuracy    <       2.34046674 Ry

     iteration # 23     ecut=    29.40 Ry     beta= 0.05
     Davidson diagonalization with overlap
     ethr =  8.27E-05,  avg # of iterations =  5.4

     negative rho (up, down):  3.397E-02 0.000E+00
 
     Adding external electric field

     Computed dipole along edir(3) : 
        Dipole                2.3042 Ry au,          5.8567 Debye
        Dipole field          0.0029 Ry au, 
 
        Potential amp.       -0.2687 Ry
        Total length         46.3494 bohr
 

     total cpu time spent up to now is      765.4 secs

     total energy              =   -3295.85811837 Ry
     estimated scf accuracy    <       1.07883062 Ry

     iteration # 24     ecut=    29.40 Ry     beta= 0.05
     Davidson diagonalization with overlap
     ethr =  8.27E-05,  avg # of iterations =  6.0

     negative rho (up, down):  3.495E-02 0.000E+00
 
     Adding external electric field

     Computed dipole along edir(3) : 
        Dipole                2.3896 Ry au,          6.0739 Debye
        Dipole field          0.0030 Ry au, 
 
        Potential amp.       -0.2787 Ry
        Total length         46.3494 bohr
 

     total cpu time spent up to now is      789.4 secs

     total energy              =   -3295.89961941 Ry
     estimated scf accuracy    <       0.89957782 Ry

     iteration # 25     ecut=    29.40 Ry     beta= 0.05
     Davidson diagonalization with overlap
     ethr =  8.27E-05,  avg # of iterations =  4.9

     negative rho (up, down):  3.529E-02 0.000E+00
 
     Adding external electric field

     Computed dipole along edir(3) : 
        Dipole                2.3153 Ry au,          5.8848 Debye
        Dipole field          0.0029 Ry au, 
 
        Potential amp.       -0.2700 Ry
        Total length         46.3494 bohr
 

     total cpu time spent up to now is      813.0 secs

     total energy              =   -3295.87097187 Ry
     estimated scf accuracy    <       0.80829266 Ry

     iteration # 26     ecut=    29.40 Ry     beta= 0.05
     Davidson diagonalization with overlap
     ethr =  8.27E-05,  avg # of iterations =  6.0

     negative rho (up, down):  3.522E-02 0.000E+00
 
     Adding external electric field

     Computed dipole along edir(3) : 
        Dipole                2.3840 Ry au,          6.0596 Debye
        Dipole field          0.0030 Ry au, 
 
        Potential amp.       -0.2780 Ry
        Total length         46.3494 bohr
 

     total cpu time spent up to now is      836.4 secs

     total energy              =   -3295.87886984 Ry
     estimated scf accuracy    <       0.64295251 Ry

     iteration # 27     ecut=    29.40 Ry     beta= 0.05
     Davidson diagonalization with overlap
     ethr =  8.27E-05,  avg # of iterations =  1.0

     negative rho (up, down):  3.519E-02 0.000E+00
 
     Adding external electric field

     Computed dipole along edir(3) : 
        Dipole                2.4275 Ry au,          6.1700 Debye
        Dipole field          0.0031 Ry au, 
 
        Potential amp.       -0.2831 Ry
        Total length         46.3494 bohr
 

     total cpu time spent up to now is      856.8 secs

     total energy              =   -3295.84560966 Ry
     estimated scf accuracy    <       0.64052639 Ry

     iteration # 28     ecut=    29.40 Ry     beta= 0.05
     Davidson diagonalization with overlap
     ethr =  8.27E-05,  avg # of iterations =  2.8

     negative rho (up, down):  3.504E-02 0.000E+00
 
     Adding external electric field

     Computed dipole along edir(3) : 
        Dipole                2.3215 Ry au,          5.9007 Debye
        Dipole field          0.0029 Ry au, 
 
        Potential amp.       -0.2707 Ry
        Total length         46.3494 bohr
 

     total cpu time spent up to now is      878.4 secs

     total energy              =   -3295.78683050 Ry
     estimated scf accuracy    <       0.50382333 Ry

     iteration # 29     ecut=    29.40 Ry     beta= 0.05
     Davidson diagonalization with overlap
     ethr =  8.27E-05,  avg # of iterations = 12.9

     negative rho (up, down):  3.493E-02 0.000E+00
 
     Adding external electric field

     Computed dipole along edir(3) : 
        Dipole                2.0739 Ry au,          5.2714 Debye
        Dipole field          0.0026 Ry au, 
 
        Potential amp.       -0.2419 Ry
        Total length         46.3494 bohr
 

     total cpu time spent up to now is      909.4 secs

     total energy              =   -3295.80673172 Ry
     estimated scf accuracy    <       0.10644192 Ry

     iteration # 30     ecut=    29.40 Ry     beta= 0.05
     Davidson diagonalization with overlap
     c_bands:  1 eigenvalues not converged
     c_bands:  1 eigenvalues not converged
     c_bands:  2 eigenvalues not converged
     c_bands:  1 eigenvalues not converged
     c_bands:  1 eigenvalues not converged
     c_bands:  1 eigenvalues not converged
     c_bands:  4 eigenvalues not converged
     c_bands:  2 eigenvalues not converged
     ethr =  2.41E-05,  avg # of iterations = 19.7

     negative rho (up, down):  3.501E-02 0.000E+00
 
     Adding external electric field

     Computed dipole along edir(3) : 
        Dipole                2.2137 Ry au,          5.6267 Debye
        Dipole field          0.0028 Ry au, 
 
        Potential amp.       -0.2582 Ry
        Total length         46.3494 bohr
 

     total cpu time spent up to now is      945.3 secs

     total energy              =   -3295.80916416 Ry
     estimated scf accuracy    <       0.04498827 Ry

     iteration # 31     ecut=    29.40 Ry     beta= 0.05
     Davidson diagonalization with overlap
     c_bands:  2 eigenvalues not converged
     c_bands:  1 eigenvalues not converged
     c_bands:  2 eigenvalues not converged
     c_bands:  4 eigenvalues not converged
     c_bands:  4 eigenvalues not converged
     c_bands:  1 eigenvalues not converged
     c_bands:  4 eigenvalues not converged
     c_bands:  2 eigenvalues not converged
     ethr =  1.02E-05,  avg # of iterations = 19.7

     negative rho (up, down):  3.494E-02 0.000E+00
 
     Adding external electric field

     Computed dipole along edir(3) : 
        Dipole                2.0757 Ry au,          5.2760 Debye
        Dipole field          0.0026 Ry au, 
 
        Potential amp.       -0.2421 Ry
        Total length         46.3494 bohr
 

     total cpu time spent up to now is      982.1 secs

     total energy              =   -3295.81241679 Ry
     estimated scf accuracy    <       0.09954300 Ry

     iteration # 32     ecut=    29.40 Ry     beta= 0.05
     Davidson diagonalization with overlap
     c_bands:  1 eigenvalues not converged
     c_bands:  1 eigenvalues not converged
     c_bands:  1 eigenvalues not converged
     c_bands:  2 eigenvalues not converged
     ethr =  1.02E-05,  avg # of iterations = 18.3

     negative rho (up, down):  3.500E-02 0.000E+00
 
     Adding external electric field

     Computed dipole along edir(3) : 
        Dipole                2.0557 Ry au,          5.2251 Debye
        Dipole field          0.0026 Ry au, 
 
        Potential amp.       -0.2397 Ry
        Total length         46.3494 bohr
 

     total cpu time spent up to now is     1015.2 secs

     total energy              =   -3295.81686863 Ry
     estimated scf accuracy    <       0.00705991 Ry

     iteration # 33     ecut=    29.40 Ry     beta= 0.05
     Davidson diagonalization with overlap
     c_bands:  1 eigenvalues not converged
     c_bands:  1 eigenvalues not converged
     ethr =  1.60E-06,  avg # of iterations = 14.8

     negative rho (up, down):  3.502E-02 0.000E+00
 
     Adding external electric field

     Computed dipole along edir(3) : 
        Dipole                1.9617 Ry au,          4.9862 Debye
        Dipole field          0.0025 Ry au, 
 
        Potential amp.       -0.2288 Ry
        Total length         46.3494 bohr
 

     total cpu time spent up to now is     1047.2 secs

     total energy              =   -3295.81670982 Ry
     estimated scf accuracy    <       0.00885759 Ry

     iteration # 34     ecut=    29.40 Ry     beta= 0.05
     Davidson diagonalization with overlap
     c_bands:  1 eigenvalues not converged
     c_bands:  2 eigenvalues not converged
     ethr =  1.60E-06,  avg # of iterations = 18.0

     negative rho (up, down):  3.507E-02 0.000E+00
 
     Adding external electric field

     Computed dipole along edir(3) : 
        Dipole                1.9965 Ry au,          5.0746 Debye
        Dipole field          0.0025 Ry au, 
 
        Potential amp.       -0.2328 Ry
        Total length         46.3494 bohr
 

     total cpu time spent up to now is     1082.2 secs

     total energy              =   -3295.81756971 Ry
     estimated scf accuracy    <       0.00789491 Ry

     iteration # 35     ecut=    29.40 Ry     beta= 0.05
     Davidson diagonalization with overlap
     c_bands:  2 eigenvalues not converged
     ethr =  1.60E-06,  avg # of iterations = 14.4

     negative rho (up, down):  3.506E-02 0.000E+00
 
     Adding external electric field

     Computed dipole along edir(3) : 
        Dipole                1.9975 Ry au,          5.0771 Debye
        Dipole field          0.0025 Ry au, 
 
        Potential amp.       -0.2330 Ry
        Total length         46.3494 bohr
 

     total cpu time spent up to now is     1111.3 secs

     total energy              =   -3295.81810965 Ry
     estimated scf accuracy    <       0.00073806 Ry

     iteration # 36     ecut=    29.40 Ry     beta= 0.05
     Davidson diagonalization with overlap
     c_bands:  1 eigenvalues not converged
     ethr =  1.67E-07,  avg # of iterations = 14.1

     negative rho (up, down):  3.506E-02 0.000E+00
 
     Adding external electric field

     Computed dipole along edir(3) : 
        Dipole                1.9989 Ry au,          5.0807 Debye
        Dipole field          0.0025 Ry au, 
 
        Potential amp.       -0.2331 Ry
        Total length         46.3494 bohr
 

     total cpu time spent up to now is     1146.1 secs

     total energy              =   -3295.81817943 Ry
     estimated scf accuracy    <       0.00084279 Ry

     iteration # 37     ecut=    29.40 Ry     beta= 0.05
     Davidson diagonalization with overlap
     ethr =  1.67E-07,  avg # of iterations = 13.7

     negative rho (up, down):  3.511E-02 0.000E+00
 
     Adding external electric field

     Computed dipole along edir(3) : 
        Dipole                1.9935 Ry au,          5.0669 Debye
        Dipole field          0.0025 Ry au, 
 
        Potential amp.       -0.2325 Ry
        Total length         46.3494 bohr
 

     total cpu time spent up to now is     1176.2 secs

     total energy              =   -3295.81835137 Ry
     estimated scf accuracy    <       0.00065301 Ry

     iteration # 38     ecut=    29.40 Ry     beta= 0.05
     Davidson diagonalization with overlap
     ethr =  1.48E-07,  avg # of iterations = 11.6

     negative rho (up, down):  3.511E-02 0.000E+00
 
     Adding external electric field

     Computed dipole along edir(3) : 
        Dipole                2.0109 Ry au,          5.1113 Debye
        Dipole field          0.0025 Ry au, 
 
        Potential amp.       -0.2345 Ry
        Total length         46.3494 bohr
 

     total cpu time spent up to now is     1206.5 secs

     total energy              =   -3295.81845097 Ry
     estimated scf accuracy    <       0.00030835 Ry

     iteration # 39     ecut=    29.40 Ry     beta= 0.05
     Davidson diagonalization with overlap
     ethr =  6.98E-08,  avg # of iterations = 13.6

     negative rho (up, down):  3.507E-02 0.000E+00
 
     Adding external electric field

     Computed dipole along edir(3) : 
        Dipole                2.0074 Ry au,          5.1023 Debye
        Dipole field          0.0025 Ry au, 
 
        Potential amp.       -0.2341 Ry
        Total length         46.3494 bohr
 

     total cpu time spent up to now is     1238.0 secs

     total energy              =   -3295.81850834 Ry
     estimated scf accuracy    <       0.00020175 Ry

     iteration # 40     ecut=    29.40 Ry     beta= 0.05
     Davidson diagonalization with overlap
     ethr =  4.56E-08,  avg # of iterations =  2.0

     negative rho (up, down):  3.507E-02 0.000E+00
 
     Adding external electric field

     Computed dipole along edir(3) : 
        Dipole                2.0032 Ry au,          5.0915 Debye
        Dipole field          0.0025 Ry au, 
 
        Potential amp.       -0.2336 Ry
        Total length         46.3494 bohr
 

     total cpu time spent up to now is     1260.2 secs

     total energy              =   -3295.81853604 Ry
     estimated scf accuracy    <       0.00010620 Ry

     iteration # 41     ecut=    29.40 Ry     beta= 0.05
     Davidson diagonalization with overlap
     ethr =  2.40E-08,  avg # of iterations = 14.4

     negative rho (up, down):  3.506E-02 0.000E+00
 
     Adding external electric field

     Computed dipole along edir(3) : 
        Dipole                2.0073 Ry au,          5.1021 Debye
        Dipole field          0.0025 Ry au, 
 
        Potential amp.       -0.2341 Ry
        Total length         46.3494 bohr
 

     total cpu time spent up to now is     1299.2 secs

     total energy              =   -3295.81858320 Ry
     estimated scf accuracy    <       0.00011533 Ry

     iteration # 42     ecut=    29.40 Ry     beta= 0.05
     Davidson diagonalization with overlap
     ethr =  2.40E-08,  avg # of iterations =  2.0

     negative rho (up, down):  3.504E-02 0.000E+00
 
     Adding external electric field

     Computed dipole along edir(3) : 
        Dipole                2.0099 Ry au,          5.1087 Debye
        Dipole field          0.0025 Ry au, 
 
        Potential amp.       -0.2344 Ry
        Total length         46.3494 bohr
 

     total cpu time spent up to now is     1321.3 secs

     total energy              =   -3295.81860424 Ry
     estimated scf accuracy    <       0.00005570 Ry

     iteration # 43     ecut=    29.40 Ry     beta= 0.05
     Davidson diagonalization with overlap
     ethr =  1.26E-08,  avg # of iterations = 12.5

     negative rho (up, down):  3.504E-02 0.000E+00
 
     Adding external electric field

     Computed dipole along edir(3) : 
        Dipole                2.0070 Ry au,          5.1012 Debye
        Dipole field          0.0025 Ry au, 
 
        Potential amp.       -0.2341 Ry
        Total length         46.3494 bohr
 

     total cpu time spent up to now is     1351.0 secs

     total energy              =   -3295.81863142 Ry
     estimated scf accuracy    <       0.00002112 Ry

     iteration # 44     ecut=    29.40 Ry     beta= 0.05
     Davidson diagonalization with overlap
     ethr =  4.78E-09,  avg # of iterations = 10.7

     negative rho (up, down):  3.502E-02 0.000E+00
 
     Adding external electric field

     Computed dipole along edir(3) : 
        Dipole                2.0090 Ry au,          5.1064 Debye
        Dipole field          0.0025 Ry au, 
 
        Potential amp.       -0.2343 Ry
        Total length         46.3494 bohr
 

     total cpu time spent up to now is     1384.4 secs

     total energy              =   -3295.81865237 Ry
     estimated scf accuracy    <       0.00001620 Ry

     iteration # 45     ecut=    29.40 Ry     beta= 0.05
     Davidson diagonalization with overlap
     ethr =  3.66E-09,  avg # of iterations =  9.7

     negative rho (up, down):  3.502E-02 0.000E+00
 
     Adding external electric field

     Computed dipole along edir(3) : 
        Dipole                2.0096 Ry au,          5.1078 Debye
        Dipole field          0.0025 Ry au, 
 
        Potential amp.       -0.2344 Ry
        Total length         46.3494 bohr
 

     total cpu time spent up to now is     1416.0 secs

     total energy              =   -3295.81867311 Ry
     estimated scf accuracy    <       0.00000475 Ry

     iteration # 46     ecut=    29.40 Ry     beta= 0.05
     Davidson diagonalization with overlap
     ethr =  1.07E-09,  avg # of iterations =  7.3

     negative rho (up, down):  3.501E-02 0.000E+00
 
     Adding external electric field

     Computed dipole along edir(3) : 
        Dipole                2.0079 Ry au,          5.1036 Debye
        Dipole field          0.0025 Ry au, 
 
        Potential amp.       -0.2342 Ry
        Total length         46.3494 bohr
 

     total cpu time spent up to now is     1441.7 secs

     total energy              =   -3295.81868884 Ry
     estimated scf accuracy    <       0.00000466 Ry

     iteration # 47     ecut=    29.40 Ry     beta= 0.05
     Davidson diagonalization with overlap
     ethr =  1.05E-09,  avg # of iterations = 11.1

     negative rho (up, down):  3.501E-02 0.000E+00
 
     Adding external electric field

     Computed dipole along edir(3) : 
        Dipole                2.0060 Ry au,          5.0986 Debye
        Dipole field          0.0025 Ry au, 
 
        Potential amp.       -0.2339 Ry
        Total length         46.3494 bohr
 

     total cpu time spent up to now is     1470.6 secs

     total energy              =   -3295.81870444 Ry
     estimated scf accuracy    <       0.00000297 Ry

     iteration # 48     ecut=    29.40 Ry     beta= 0.05
     Davidson diagonalization with overlap
     ethr =  6.72E-10,  avg # of iterations = 12.9

     negative rho (up, down):  3.500E-02 0.000E+00
 
     Adding external electric field

     Computed dipole along edir(3) : 
        Dipole                2.0065 Ry au,          5.1000 Debye
        Dipole field          0.0025 Ry au, 
 
        Potential amp.       -0.2340 Ry
        Total length         46.3494 bohr
 

     total cpu time spent up to now is     1506.3 secs

     total energy              =   -3295.81871752 Ry
     estimated scf accuracy    <       0.00001064 Ry

     iteration # 49     ecut=    29.40 Ry     beta= 0.05
     Davidson diagonalization with overlap
     ethr =  6.72E-10,  avg # of iterations =  2.0

     negative rho (up, down):  3.500E-02 0.000E+00
 
     Adding external electric field

     Computed dipole along edir(3) : 
        Dipole                2.0075 Ry au,          5.1026 Debye
        Dipole field          0.0025 Ry au, 
 
        Potential amp.       -0.2341 Ry
        Total length         46.3494 bohr
 

     total cpu time spent up to now is     1528.6 secs

     total energy              =   -3295.81872857 Ry
     estimated scf accuracy    <       0.00000713 Ry

     iteration # 50     ecut=    29.40 Ry     beta= 0.05
     Davidson diagonalization with overlap
     ethr =  6.72E-10,  avg # of iterations = 11.7

     negative rho (up, down):  3.500E-02 0.000E+00
 
     Adding external electric field

     Computed dipole along edir(3) : 
        Dipole                2.0076 Ry au,          5.1028 Debye
        Dipole field          0.0025 Ry au, 
 
        Potential amp.       -0.2341 Ry
        Total length         46.3494 bohr
 

     total cpu time spent up to now is     1558.9 secs

     total energy              =   -3295.81873965 Ry
     estimated scf accuracy    <       0.00000104 Ry

     iteration # 51     ecut=    29.40 Ry     beta= 0.05
     Davidson diagonalization with overlap
     ethr =  2.36E-10,  avg # of iterations =  4.4

     negative rho (up, down):  3.500E-02 0.000E+00
 
     Adding external electric field

     Computed dipole along edir(3) : 
        Dipole                2.0072 Ry au,          5.1018 Debye
        Dipole field          0.0025 Ry au, 
 
        Potential amp.       -0.2341 Ry
        Total length         46.3494 bohr
 

     total cpu time spent up to now is     1582.0 secs

     total energy              =   -3295.81874943 Ry
     estimated scf accuracy    <       0.00000079 Ry

     iteration # 52     ecut=    29.40 Ry     beta= 0.05
     Davidson diagonalization with overlap
     ethr =  1.79E-10,  avg # of iterations = 10.4

     negative rho (up, down):  3.500E-02 0.000E+00
 
     Adding external electric field

     Computed dipole along edir(3) : 
        Dipole                2.0074 Ry au,          5.1023 Debye
        Dipole field          0.0025 Ry au, 
 
        Potential amp.       -0.2341 Ry
        Total length         46.3494 bohr
 

     total cpu time spent up to now is     1612.6 secs

     total energy              =   -3295.81875826 Ry
     estimated scf accuracy    <       0.00000191 Ry

     iteration # 53     ecut=    29.40 Ry     beta= 0.05
     Davidson diagonalization with overlap
     ethr =  1.79E-10,  avg # of iterations =  1.4

     negative rho (up, down):  3.500E-02 0.000E+00
 
     Adding external electric field

     Computed dipole along edir(3) : 
        Dipole                2.0081 Ry au,          5.1040 Debye
        Dipole field          0.0025 Ry au, 
 
        Potential amp.       -0.2342 Ry
        Total length         46.3494 bohr
 

     total cpu time spent up to now is     1633.6 secs

     total energy              =   -3295.81876579 Ry
     estimated scf accuracy    <       0.00000176 Ry

     iteration # 54     ecut=    29.40 Ry     beta= 0.05
     Davidson diagonalization with overlap
     ethr =  1.79E-10,  avg # of iterations = 12.6

     negative rho (up, down):  3.500E-02 0.000E+00
 
     Adding external electric field

     Computed dipole along edir(3) : 
        Dipole                2.0078 Ry au,          5.1033 Debye
        Dipole field          0.0025 Ry au, 
 
        Potential amp.       -0.2342 Ry
        Total length         46.3494 bohr
 

     total cpu time spent up to now is     1664.9 secs

     total energy              =   -3295.81877300 Ry
     estimated scf accuracy    <       0.00000022 Ry

     iteration # 55     ecut=    29.40 Ry     beta= 0.05
     Davidson diagonalization with overlap
     ethr =  5.00E-11,  avg # of iterations =  6.0

     negative rho (up, down):  3.500E-02 0.000E+00
 
     Adding external electric field

     Computed dipole along edir(3) : 
        Dipole                2.0074 Ry au,          5.1023 Debye
        Dipole field          0.0025 Ry au, 
 
        Potential amp.       -0.2341 Ry
        Total length         46.3494 bohr
 

     total cpu time spent up to now is     1689.9 secs

     total energy              =   -3295.81877945 Ry
     estimated scf accuracy    <       0.00000016 Ry

     iteration # 56     ecut=    29.40 Ry     beta= 0.05
     Davidson diagonalization with overlap
     ethr =  3.71E-11,  avg # of iterations = 11.6

     negative rho (up, down):  3.501E-02 0.000E+00
 
     Adding external electric field

     Computed dipole along edir(3) : 
        Dipole                2.0076 Ry au,          5.1029 Debye
        Dipole field          0.0025 Ry au, 
 
        Potential amp.       -0.2341 Ry
        Total length         46.3494 bohr
 

     total cpu time spent up to now is     1724.5 secs

     total energy              =   -3295.81878522 Ry
     estimated scf accuracy    <       0.00000035 Ry

     iteration # 57     ecut=    29.40 Ry     beta= 0.05
     Davidson diagonalization with overlap
     ethr =  3.71E-11,  avg # of iterations =  5.0

     negative rho (up, down):  3.501E-02 0.000E+00
 
     Adding external electric field

     Computed dipole along edir(3) : 
        Dipole                2.0080 Ry au,          5.1039 Debye
        Dipole field          0.0025 Ry au, 
 
        Potential amp.       -0.2342 Ry
        Total length         46.3494 bohr
 

     total cpu time spent up to now is     1748.2 secs

     total energy              =   -3295.81879035 Ry
     estimated scf accuracy    <       0.00000017 Ry

     iteration # 58     ecut=    29.40 Ry     beta= 0.05
     Davidson diagonalization with overlap
     ethr =  3.71E-11,  avg # of iterations = 12.9

     negative rho (up, down):  3.501E-02 0.000E+00
 
     Adding external electric field

     Computed dipole along edir(3) : 
        Dipole                2.0078 Ry au,          5.1032 Debye
        Dipole field          0.0025 Ry au, 
 
        Potential amp.       -0.2342 Ry
        Total length         46.3494 bohr
 

     total cpu time spent up to now is     1785.5 secs

     total energy              =   -3295.81879507 Ry
     estimated scf accuracy    <       0.00000010 Ry

     iteration # 59     ecut=    29.40 Ry     beta= 0.05
     Davidson diagonalization with overlap
     ethr =  2.33E-11,  avg # of iterations = 12.1

     negative rho (up, down):  3.514E-02 0.000E+00
 
     Adding external electric field

     Computed dipole along edir(3) : 
        Dipole                2.0097 Ry au,          5.1082 Debye
        Dipole field          0.0025 Ry au, 
 
        Potential amp.       -0.2344 Ry
        Total length         46.3494 bohr
 

     total cpu time spent up to now is     1817.4 secs

     End of self-consistent calculation

          k = 0.0000 0.0000 0.0000 ( 26871 PWs)   bands (ev):

   -57.4460 -57.4229 -57.4143 -57.4074 -57.3638 -57.3513 -57.3125 -57.3081
   -57.2927 -57.2633 -57.2429 -57.2345 -57.2256 -57.1908 -57.0112 -56.5112
   -56.4845 -56.4680 -33.8438 -33.8322 -33.8253 -33.8213 -33.8123 -33.7792
   -33.7682 -33.7617 -33.7529 -33.7386 -33.7348 -33.7146 -33.6935 -33.6805
   -33.6530 -33.6498 -33.6377 -33.6351 -33.6144 -33.6126 -33.5920 -33.5806
   -33.5571 -33.5532 -33.5524 -33.5439 -33.5402 -33.5376 -33.5349 -33.5266
   -33.5181 -33.5054 -33.4902 -33.4754 -33.4671 -33.4559 -33.4412 -33.4392
   -33.4348 -33.4322 -33.4037 -33.3803 -33.3407 -33.3053 -33.2327 -32.8307
   -32.8234 -32.8098 -32.8026 -32.7885 -32.7356 -32.6768 -32.6568 -32.5318
   -19.1421 -18.3011 -17.9741 -17.7575 -17.7104 -17.6877 -17.6071 -17.5421
   -17.5351 -17.4638 -17.3852 -17.3054 -17.2772 -17.2725 -17.2376 -17.2097
   -17.1907 -17.1664 -17.1652 -17.1253 -17.1142 -17.0949 -17.0680 -17.0206
   -16.9475 -16.9347 -16.9003 -16.8930 -16.8874 -16.8873 -16.7434 -16.6656
   -16.5849 -15.2743 -14.9715 -14.9152 -14.9079  -7.7064  -7.6432  -7.2354
    -6.7807  -5.6248  -5.4646  -5.3791  -5.2770  -4.9384  -4.8723  -4.8506
    -4.8374  -4.7918  -4.7532  -4.7522  -4.6945  -4.6856  -4.6667  -4.5857
    -4.5722  -4.5496  -4.4985  -4.4756  -4.4256  -4.4252  -4.3752  -4.3193
    -4.2694  -4.2618  -4.2607  -4.2350  -4.2330  -4.2111  -4.2073  -4.0939
    -4.0882  -4.0138  -3.9065  -3.8942  -3.8474  -3.7768  -3.7661  -3.7411
    -3.7137  -3.6512  -3.6050  -3.5514  -3.5438  -3.5304  -3.4663  -3.4422
    -3.3632  -3.2569  -3.2451  -3.2120  -3.1674  -3.1531  -3.1071  -3.0762
    -3.0023  -2.9284  -2.8492  -2.8228  -2.7182  -2.6722  -2.6530  -2.6202
    -2.6127  -2.5393  -2.5353  -2.5103  -2.3576  -2.2550  -2.2445  -2.2249
    -2.2137  -2.1866  -2.1831  -2.1555  -2.0904  -2.0443  -2.0367  -2.0207
    -2.0008  -1.9890  -1.8993  -1.8404  -1.8131  -1.7843  -1.7684  -1.6746
    -1.6358  -1.6003  -1.5884  -1.4843  -1.4296  -1.3231  -1.3184  -1.3044
    -1.2333  -1.1870  -1.1149  -0.7978  -0.6286  -0.5565  -0.2694  -0.2114
    -0.2034   0.0566   0.0689   0.1971   1.5428   1.7740   1.9746   1.9769
     1.9925   2.0633   2.1312   2.1444   2.2094   2.2614   2.2789

          k = 0.0000 0.0280 0.0000 ( 26907 PWs)   bands (ev):

   -57.4439 -57.4280 -57.4114 -57.4071 -57.3643 -57.3513 -57.3123 -57.3082
   -57.2923 -57.2628 -57.2441 -57.2355 -57.2248 -57.1905 -57.0112 -56.5100
   -56.4872 -56.4666 -33.8961 -33.8799 -33.8369 -33.8208 -33.7791 -33.7768
   -33.7703 -33.7639 -33.7297 -33.7272 -33.7190 -33.7016 -33.6907 -33.6809
   -33.6326 -33.6222 -33.6213 -33.6144 -33.6063 -33.6039 -33.5926 -33.5678
   -33.5656 -33.5649 -33.5547 -33.5509 -33.5463 -33.5417 -33.5364 -33.5262
   -33.5232 -33.5041 -33.4901 -33.4759 -33.4675 -33.4617 -33.4555 -33.4413
   -33.4385 -33.4341 -33.4093 -33.3937 -33.3509 -33.3051 -33.2327 -32.8887
   -32.8228 -32.8037 -32.7881 -32.7340 -32.7230 -32.6899 -32.6488 -32.5574
   -19.1406 -18.2486 -17.9424 -17.8779 -17.7167 -17.6524 -17.6238 -17.5926
   -17.4722 -17.4390 -17.3973 -17.3669 -17.2911 -17.2743 -17.2367 -17.2282
   -17.1951 -17.1696 -17.1458 -17.1217 -17.0940 -17.0681 -17.0513 -16.9968
   -16.9655 -16.9490 -16.9297 -16.9161 -16.8920 -16.7887 -16.7424 -16.6586
   -16.6121 -15.2735 -14.9738 -14.9508 -14.8688  -7.7064  -7.6430  -7.2360
    -6.7837  -5.5500  -5.4058  -5.2992  -5.2140  -5.0803  -5.0367  -4.8973
    -4.8343  -4.8101  -4.7860  -4.7715  -4.7427  -4.7218  -4.6851  -4.6557
    -4.6125  -4.5373  -4.4951  -4.4549  -4.3945  -4.3931  -4.3684  -4.3563
    -4.3293  -4.3110  -4.2587  -4.2401  -4.2164  -4.1921  -4.1308  -4.0809
    -4.0448  -4.0089  -3.9614  -3.9024  -3.8701  -3.8485  -3.8388  -3.7897
    -3.7201  -3.6783  -3.6518  -3.5277  -3.4595  -3.4224  -3.4123  -3.3300
    -3.2949  -3.2890  -3.2389  -3.1751  -3.0999  -3.0493  -3.0023  -2.9225
    -2.9193  -2.8829  -2.8236  -2.7403  -2.7136  -2.7067  -2.6528  -2.6036
    -2.5872  -2.5524  -2.5359  -2.5189  -2.4360  -2.4040  -2.3586  -2.3170
    -2.2488  -2.1690  -2.1526  -2.1103  -2.0958  -2.0771  -2.0379  -1.9921
    -1.9578  -1.9155  -1.8613  -1.8130  -1.8097  -1.7572  -1.7243  -1.7204
    -1.7010  -1.6637  -1.6080  -1.6047  -1.5111  -1.3486  -1.3136  -1.3113
    -1.1769  -1.0958  -1.0791  -0.8431  -0.6930  -0.6336  -0.3594  -0.2443
    -0.1240   0.0268   0.1225   0.1510   1.6251   1.8351   1.8881   1.9529
     2.0357   2.0697   2.0959   2.1552   2.1885   2.2133   2.2463

          k = 0.0000-0.0559 0.0000 ( 26942 PWs)   bands (ev):

   -57.4405 -57.4334 -57.4094 -57.4068 -57.3649 -57.3512 -57.3120 -57.3083
   -57.2920 -57.2623 -57.2452 -57.2364 -57.2240 -57.1902 -57.0112 -56.5087
   -56.4898 -56.4654 -33.9206 -33.9006 -33.8531 -33.8234 -33.7984 -33.7815
   -33.7742 -33.7658 -33.7241 -33.7077 -33.6934 -33.6877 -33.6406 -33.6326
   -33.6321 -33.6285 -33.6239 -33.6063 -33.6009 -33.5980 -33.5915 -33.5910
   -33.5861 -33.5591 -33.5430 -33.5427 -33.5415 -33.5407 -33.5215 -33.5202
   -33.5169 -33.5083 -33.5028 -33.4900 -33.4763 -33.4680 -33.4568 -33.4506
   -33.4413 -33.4361 -33.4340 -33.3953 -33.3624 -33.3049 -33.2328 -32.9130
   -32.8223 -32.8049 -32.7876 -32.7238 -32.7026 -32.6471 -32.6372 -32.6182
   -19.1392 -18.1250 -18.0728 -17.8687 -17.7301 -17.6508 -17.5957 -17.5733
   -17.5316 -17.4645 -17.4409 -17.3331 -17.3024 -17.2968 -17.2310 -17.2125
   -17.1991 -17.1538 -17.1356 -17.1072 -17.0835 -17.0630 -17.0131 -17.0017
   -16.9915 -16.9754 -16.9427 -16.9208 -16.8714 -16.7431 -16.6899 -16.6837
   -16.6519 -15.2728 -14.9761 -14.9657 -14.8503  -7.7064  -7.6428  -7.2365
    -6.7868  -5.3586  -5.3423  -5.3092  -5.1359  -5.0884  -5.0783  -5.0669
    -4.9997  -4.9845  -4.8445  -4.7937  -4.7026  -4.6714  -4.6574  -4.6176
    -4.5617  -4.5413  -4.5162  -4.4786  -4.4624  -4.4332  -4.4246  -4.3394
    -4.3286  -4.3144  -4.3018  -4.2742  -4.2341  -4.1701  -4.1666  -4.1223
    -4.0736  -3.9545  -3.9421  -3.9397  -3.8810  -3.8543  -3.8092  -3.7544
    -3.6387  -3.6070  -3.5856  -3.5115  -3.4816  -3.4470  -3.4007  -3.3886
    -3.3288  -3.2500  -3.1987  -3.0740  -2.9802  -2.9318  -2.9017  -2.8716
    -2.8460  -2.8416  -2.7585  -2.7432  -2.7329  -2.7202  -2.6581  -2.6186
    -2.5287  -2.5011  -2.4728  -2.4508  -2.4254  -2.4028  -2.3592  -2.3300
    -2.3240  -2.2781  -2.2324  -2.1651  -2.0973  -2.0886  -2.0567  -2.0081
    -1.9934  -1.9730  -1.9232  -1.8723  -1.8375  -1.8076  -1.7460  -1.7107
    -1.6474  -1.6253  -1.5664  -1.5548  -1.5352  -1.4475  -1.3423  -1.2371
    -1.0502  -1.0449  -1.0209  -0.9338  -0.9300  -0.6362  -0.4542  -0.1807
    -0.1328   0.0637   0.0681   0.1474   1.7729   1.7766   1.8300   1.9847
     2.0715   2.0932   2.1321   2.1420   2.1547   2.1703   2.1832

          k = 0.0380 0.0000 0.0000 ( 26897 PWs)   bands (ev):

   -57.4459 -57.4229 -57.4144 -57.4073 -57.3637 -57.3515 -57.3122 -57.3084
   -57.2926 -57.2631 -57.2431 -57.2346 -57.2257 -57.1909 -57.0112 -56.5111
   -56.4845 -56.4681 -33.8465 -33.8334 -33.8265 -33.8213 -33.8136 -33.7792
   -33.7694 -33.7620 -33.7531 -33.7408 -33.7400 -33.7152 -33.6880 -33.6818
   -33.6548 -33.6514 -33.6356 -33.6169 -33.6091 -33.6083 -33.5925 -33.5640
   -33.5544 -33.5519 -33.5434 -33.5413 -33.5399 -33.5388 -33.5364 -33.5265
   -33.5173 -33.5090 -33.5055 -33.4817 -33.4773 -33.4556 -33.4515 -33.4374
   -33.4348 -33.4316 -33.4039 -33.3804 -33.3406 -33.3053 -33.2344 -32.8307
   -32.8260 -32.8099 -32.8029 -32.7885 -32.7355 -32.6769 -32.6569 -32.5316
   -19.1397 -18.2277 -17.8910 -17.7181 -17.6997 -17.6628 -17.5947 -17.5290
   -17.5248 -17.4694 -17.4346 -17.3455 -17.3053 -17.2839 -17.2542 -17.2363
   -17.2329 -17.1964 -17.1806 -17.1238 -17.1007 -17.0785 -17.0745 -17.0224
   -16.9821 -16.9648 -16.9500 -16.8879 -16.8384 -16.8349 -16.7454 -16.6776
   -16.6546 -15.2739 -14.9681 -14.9156 -14.9083  -7.6974  -7.6422  -7.2318
    -6.7775  -5.5194  -5.2784  -5.1852  -5.1061  -4.9471  -4.9197  -4.8603
    -4.8294  -4.7934  -4.7744  -4.7164  -4.6942  -4.6437  -4.6229  -4.6099
    -4.5868  -4.5228  -4.4733  -4.4437  -4.4320  -4.3804  -4.3515  -4.3263
    -4.3124  -4.2833  -4.2458  -4.2132  -4.1791  -4.1085  -4.0873  -4.0712
    -4.0558  -3.9915  -3.9710  -3.9489  -3.8574  -3.8333  -3.8035  -3.7480
    -3.7365  -3.7122  -3.6731  -3.6094  -3.5642  -3.5380  -3.4770  -3.3914
    -3.3188  -3.2749  -3.2289  -3.1928  -3.1607  -3.1324  -3.1053  -3.0345
    -2.9632  -2.9353  -2.8872  -2.7975  -2.7416  -2.7150  -2.6351  -2.6294
    -2.5703  -2.5230  -2.5128  -2.4599  -2.3968  -2.3827  -2.3697  -2.3512
    -2.3016  -2.2753  -2.2384  -2.2043  -2.1305  -2.0816  -2.0714  -2.0369
    -2.0211  -1.9875  -1.9337  -1.8408  -1.8067  -1.7675  -1.7336  -1.6703
    -1.6059  -1.5865  -1.5680  -1.5057  -1.4692  -1.4280  -1.3698  -1.3409
    -1.2802  -1.1413  -1.1221  -0.9226  -0.6881  -0.5491  -0.2973  -0.1994
    -0.1942   0.0088   0.0207   0.1054   1.5468   1.8636   1.8757   1.9188
     1.9355   2.0076   2.0209   2.0282   2.1263   2.1745   2.2232

          k = 0.0380 0.0280 0.0000 ( 26880 PWs)   bands (ev):

   -57.4439 -57.4280 -57.4113 -57.4070 -57.3642 -57.3514 -57.3120 -57.3084
   -57.2923 -57.2626 -57.2443 -57.2355 -57.2248 -57.1905 -57.0112 -56.5100
   -56.4872 -56.4665 -33.8970 -33.8820 -33.8377 -33.8211 -33.7819 -33.7775
   -33.7720 -33.7641 -33.7304 -33.7275 -33.7196 -33.7040 -33.6825 -33.6784
   -33.6300 -33.6210 -33.6136 -33.6118 -33.6047 -33.6031 -33.5740 -33.5662
   -33.5647 -33.5624 -33.5554 -33.5524 -33.5432 -33.5367 -33.5342 -33.5264
   -33.5228 -33.5090 -33.5042 -33.4819 -33.4793 -33.4594 -33.4551 -33.4484
   -33.4387 -33.4340 -33.4094 -33.3937 -33.3508 -33.3051 -33.2344 -32.8883
   -32.8251 -32.8048 -32.7874 -32.7340 -32.7229 -32.6899 -32.6487 -32.5576
   -19.1385 -18.1784 -17.8693 -17.8291 -17.6818 -17.6281 -17.6020 -17.5645
   -17.4749 -17.4543 -17.4302 -17.3892 -17.3465 -17.2979 -17.2774 -17.2584
   -17.2010 -17.1927 -17.1599 -17.1275 -17.1032 -17.0695 -17.0471 -17.0155
   -16.9928 -16.9809 -16.9621 -16.9044 -16.8442 -16.7531 -16.7407 -16.6893
   -16.6568 -15.2731 -14.9710 -14.9504 -14.8688  -7.6974  -7.6421  -7.2315
    -6.7811  -5.4496  -5.2196  -5.1272  -5.0640  -5.0282  -5.0209  -4.9877
    -4.8698  -4.8134  -4.7964  -4.7662  -4.7250  -4.7023  -4.6133  -4.5808
    -4.5506  -4.5225  -4.4902  -4.4525  -4.4245  -4.3930  -4.3536  -4.3324
    -4.3184  -4.3044  -4.2538  -4.2213  -4.2029  -4.1560  -4.1227  -4.0986
    -4.0506  -3.9960  -3.9585  -3.9158  -3.8704  -3.8452  -3.7935  -3.7460
    -3.6866  -3.6577  -3.5836  -3.5547  -3.5132  -3.4624  -3.3805  -3.3208
    -3.2719  -3.2401  -3.2188  -3.1681  -3.1175  -3.1019  -3.0853  -3.0286
    -2.9724  -2.9020  -2.8578  -2.8220  -2.7492  -2.7198  -2.6733  -2.6285
    -2.5938  -2.5558  -2.5170  -2.4541  -2.4330  -2.4047  -2.3782  -2.3652
    -2.2945  -2.2679  -2.2320  -2.1957  -2.1356  -2.1049  -2.0296  -2.0137
    -1.9887  -1.9692  -1.9131  -1.8759  -1.8268  -1.7947  -1.7505  -1.7309
    -1.6844  -1.6683  -1.5863  -1.5336  -1.5117  -1.4206  -1.3836  -1.3218
    -1.2631  -1.1153  -0.9965  -0.9401  -0.7117  -0.6796  -0.3494  -0.2457
    -0.1111   0.0191   0.0303   0.0995   1.6226   1.8069   1.8928   1.9145
     1.9859   2.0117   2.0437   2.0719   2.1155   2.1525   2.1912

          k = 0.0380-0.0559 0.0000 ( 26850 PWs)   bands (ev):

   -57.4404 -57.4333 -57.4093 -57.4067 -57.3647 -57.3513 -57.3117 -57.3085
   -57.2919 -57.2621 -57.2454 -57.2364 -57.2239 -57.1902 -57.0112 -56.5086
   -56.4898 -56.4653 -33.9216 -33.9027 -33.8539 -33.8235 -33.8027 -33.7825
   -33.7742 -33.7657 -33.7241 -33.7084 -33.6939 -33.6770 -33.6410 -33.6352
   -33.6328 -33.6199 -33.6085 -33.6002 -33.5980 -33.5951 -33.5937 -33.5889
   -33.5837 -33.5594 -33.5461 -33.5396 -33.5393 -33.5340 -33.5239 -33.5205
   -33.5166 -33.5137 -33.5030 -33.4939 -33.4827 -33.4804 -33.4564 -33.4522
   -33.4453 -33.4357 -33.4340 -33.3952 -33.3620 -33.3049 -33.2343 -32.9125
   -32.8241 -32.8066 -32.7865 -32.7238 -32.7026 -32.6469 -32.6371 -32.6181
   -19.1374 -18.0667 -18.0090 -17.7950 -17.6682 -17.6385 -17.5905 -17.5280
   -17.5073 -17.4631 -17.4444 -17.4076 -17.3851 -17.3093 -17.2753 -17.2520
   -17.2116 -17.1850 -17.1561 -17.1296 -17.0733 -17.0604 -17.0350 -17.0227
   -17.0153 -16.9863 -16.9576 -16.9277 -16.7761 -16.7679 -16.7190 -16.7075
   -16.6515 -15.2722 -14.9745 -14.9640 -14.8500  -7.6975  -7.6420  -7.2313
    -6.7849  -5.2893  -5.2340  -5.1566  -5.1007  -5.0860  -5.0072  -4.9455
    -4.8961  -4.8864  -4.8198  -4.8067  -4.7950  -4.7033  -4.6159  -4.5798
    -4.5538  -4.5459  -4.5024  -4.4830  -4.4514  -4.4140  -4.3909  -4.3661
    -4.3348  -4.3138  -4.2739  -4.2390  -4.2152  -4.1843  -4.1591  -4.0929
    -4.0713  -3.9893  -3.9558  -3.9122  -3.8917  -3.7777  -3.7214  -3.6535
    -3.6115  -3.5406  -3.5336  -3.5108  -3.4325  -3.4277  -3.3574  -3.3518
    -3.2436  -3.2318  -3.1674  -3.1466  -3.0932  -3.0812  -3.0297  -3.0168
    -2.9127  -2.9036  -2.8763  -2.8227  -2.7854  -2.7333  -2.7048  -2.6146
    -2.5798  -2.5143  -2.4924  -2.4865  -2.4470  -2.3805  -2.3622  -2.3520
    -2.3238  -2.3092  -2.2419  -2.1508  -2.1365  -2.1250  -2.1091  -2.0941
    -1.9986  -1.9888  -1.9556  -1.8808  -1.8504  -1.8036  -1.7433  -1.7192
    -1.6831  -1.6755  -1.6582  -1.5524  -1.5074  -1.4603  -1.4383  -1.2873
    -1.0943  -1.0885  -1.0034  -0.9460  -0.8764  -0.6816  -0.4419  -0.1704
    -0.1239   0.0314   0.0605   0.0664   1.7566   1.7766   1.8296   1.9431
     1.9703   1.9942   2.0257   2.0740   2.1317   2.1531   2.1970

          k = 0.0380-0.0280 0.0000 ( 26873 PWs)   bands (ev):

   -57.4439 -57.4280 -57.4113 -57.4070 -57.3642 -57.3514 -57.3120 -57.3084
   -57.2923 -57.2626 -57.2443 -57.2355 -57.2248 -57.1905 -57.0112 -56.5100
   -56.4872 -56.4665 -33.8970 -33.8820 -33.8377 -33.8211 -33.7819 -33.7775
   -33.7719 -33.7641 -33.7304 -33.7275 -33.7196 -33.7040 -33.6825 -33.6783
   -33.6300 -33.6209 -33.6137 -33.6118 -33.6047 -33.6031 -33.5739 -33.5662
   -33.5647 -33.5624 -33.5553 -33.5524 -33.5433 -33.5366 -33.5342 -33.5264
   -33.5228 -33.5089 -33.5042 -33.4819 -33.4793 -33.4593 -33.4551 -33.4484
   -33.4387 -33.4340 -33.4094 -33.3937 -33.3507 -33.3051 -33.2344 -32.8883
   -32.8251 -32.8048 -32.7874 -32.7340 -32.7229 -32.6899 -32.6487 -32.5576
   -19.1385 -18.1784 -17.8692 -17.8290 -17.6817 -17.6280 -17.6020 -17.5644
   -17.4748 -17.4543 -17.4302 -17.3893 -17.3465 -17.2979 -17.2775 -17.2585
   -17.2011 -17.1928 -17.1598 -17.1274 -17.1034 -17.0693 -17.0473 -17.0156
   -16.9928 -16.9808 -16.9622 -16.9044 -16.8434 -16.7535 -16.7408 -16.6895
   -16.6568 -15.2731 -14.9710 -14.9504 -14.8688  -7.6974  -7.6421  -7.2315
    -6.7811  -5.4497  -5.2197  -5.1273  -5.0640  -5.0279  -5.0207  -4.9877
    -4.8697  -4.8135  -4.7962  -4.7663  -4.7251  -4.7023  -4.6132  -4.5809
    -4.5506  -4.5232  -4.4905  -4.4526  -4.4245  -4.3929  -4.3537  -4.3324
    -4.3182  -4.3043  -4.2539  -4.2214  -4.2030  -4.1561  -4.1226  -4.0988
    -4.0503  -3.9962  -3.9587  -3.9155  -3.8702  -3.8451  -3.7932  -3.7463
    -3.6869  -3.6578  -3.5835  -3.5545  -3.5130  -3.4624  -3.3803  -3.3209
    -3.2715  -3.2397  -3.2186  -3.1679  -3.1175  -3.1021  -3.0851  -3.0284
    -2.9721  -2.9023  -2.8585  -2.8224  -2.7490  -2.7198  -2.6738  -2.6286
    -2.5933  -2.5559  -2.5163  -2.4546  -2.4335  -2.4047  -2.3777  -2.3656
    -2.2942  -2.2679  -2.2322  -2.1953  -2.1351  -2.1047  -2.0294  -2.0133
    -1.9888  -1.9689  -1.9128  -1.8765  -1.8271  -1.7949  -1.7505  -1.7313
    -1.6845  -1.6685  -1.5863  -1.5334  -1.5117  -1.4205  -1.3839  -1.3217
    -1.2631  -1.1155  -0.9964  -0.9399  -0.7118  -0.6796  -0.3495  -0.2457
    -0.1110   0.0188   0.0301   0.1000   1.6226   1.8068   1.8933   1.9148
     1.9861   2.0117   2.0433   2.0719   2.1158   2.1525   2.1913

          k =-0.0760-0.0000 0.0000 ( 26902 PWs)   bands (ev):

   -57.4458 -57.4230 -57.4144 -57.4072 -57.3636 -57.3516 -57.3119 -57.3087
   -57.2925 -57.2630 -57.2432 -57.2346 -57.2257 -57.1909 -57.0112 -56.5111
   -56.4845 -56.4681 -33.8491 -33.8344 -33.8275 -33.8212 -33.8150 -33.7792
   -33.7704 -33.7622 -33.7532 -33.7461 -33.7412 -33.7155 -33.6944 -33.6689
   -33.6561 -33.6524 -33.6357 -33.6069 -33.6027 -33.5931 -33.5715 -33.5594
   -33.5584 -33.5521 -33.5433 -33.5408 -33.5399 -33.5384 -33.5369 -33.5255
   -33.5185 -33.5170 -33.5057 -33.4907 -33.4885 -33.4642 -33.4553 -33.4368
   -33.4350 -33.4310 -33.4041 -33.3808 -33.3405 -33.3053 -33.2361 -32.8305
   -32.8287 -32.8097 -32.8032 -32.7884 -32.7354 -32.6769 -32.6570 -32.5316
   -19.1374 -18.1309 -17.7661 -17.7642 -17.6905 -17.6118 -17.5306 -17.5272
   -17.5115 -17.4647 -17.4427 -17.4236 -17.3538 -17.3219 -17.2776 -17.2605
   -17.2343 -17.2015 -17.1998 -17.1591 -17.1231 -17.0895 -17.0729 -17.0478
   -16.9934 -16.9727 -16.9707 -16.8823 -16.8082 -16.8012 -16.7691 -16.7184
   -16.6664 -15.2736 -14.9650 -14.9160 -14.9087  -7.6882  -7.6414  -7.2285
    -6.7744  -5.4625  -4.9957  -4.9449  -4.9015  -4.8714  -4.8491  -4.8461
    -4.8375  -4.8076  -4.7372  -4.7219  -4.6905  -4.6426  -4.6156  -4.5851
    -4.5370  -4.5198  -4.4774  -4.4631  -4.4506  -4.4443  -4.4171  -4.4070
    -4.3127  -4.2576  -4.2512  -4.2267  -4.2024  -4.1999  -4.1103  -4.0888
    -4.0609  -3.9949  -3.9426  -3.9041  -3.8772  -3.8127  -3.7342  -3.6968
    -3.6631  -3.6300  -3.6115  -3.5853  -3.5514  -3.4496  -3.4485  -3.4081
    -3.3545  -3.3004  -3.2828  -3.2366  -3.1692  -3.1192  -3.0596  -3.0553
    -3.0367  -2.9073  -2.9002  -2.8364  -2.8211  -2.7402  -2.6889  -2.6724
    -2.5906  -2.5818  -2.5399  -2.5370  -2.4691  -2.4558  -2.4416  -2.4212
    -2.2992  -2.2953  -2.2370  -2.1882  -2.1871  -2.1792  -2.1372  -2.1294
    -1.9776  -1.9643  -1.9079  -1.8594  -1.7861  -1.7558  -1.6868  -1.6784
    -1.6781  -1.6742  -1.6528  -1.5209  -1.4959  -1.4536  -1.3640  -1.3111
    -1.1930  -1.1483  -1.1031  -1.0941  -0.7338  -0.5444  -0.3195  -0.1824
    -0.1782  -0.0369  -0.0253   0.0417   1.5473   1.7319   1.8338   1.8718
     1.8893   1.9630   1.9790   2.0775   2.1074   2.1248   2.1311

          k =-0.0760 0.0279 0.0000 ( 26908 PWs)   bands (ev):

   -57.4439 -57.4280 -57.4113 -57.4070 -57.3641 -57.3515 -57.3116 -57.3088
   -57.2922 -57.2624 -57.2445 -57.2355 -57.2248 -57.1906 -57.0112 -56.5100
   -56.4872 -56.4665 -33.8981 -33.8843 -33.8385 -33.8213 -33.7861 -33.7777
   -33.7728 -33.7643 -33.7311 -33.7277 -33.7204 -33.7059 -33.6826 -33.6669
   -33.6357 -33.6209 -33.6065 -33.6055 -33.6013 -33.5743 -33.5711 -33.5662
   -33.5624 -33.5620 -33.5547 -33.5542 -33.5389 -33.5380 -33.5374 -33.5258
   -33.5227 -33.5177 -33.5045 -33.4987 -33.4882 -33.4588 -33.4570 -33.4538
   -33.4390 -33.4340 -33.4096 -33.3938 -33.3506 -33.3051 -33.2361 -32.8880
   -32.8276 -32.8059 -32.7869 -32.7339 -32.7229 -32.6899 -32.6487 -32.5576
   -19.1365 -18.0867 -17.7968 -17.7280 -17.7229 -17.6099 -17.5365 -17.5351
   -17.4878 -17.4561 -17.4532 -17.4294 -17.3831 -17.3124 -17.2862 -17.2584
   -17.2500 -17.2205 -17.2019 -17.1516 -17.1312 -17.0865 -17.0817 -16.9987
   -16.9959 -16.9813 -16.9744 -16.9230 -16.8768 -16.7832 -16.7195 -16.6693
   -16.6599 -15.2726 -14.9684 -14.9501 -14.8689  -7.6884  -7.6414  -7.2274
    -6.7788  -5.3949  -5.1139  -5.0561  -5.0071  -4.9422  -4.9029  -4.8869
    -4.8259  -4.7061  -4.6938  -4.6622  -4.6493  -4.6259  -4.6088  -4.6058
    -4.5715  -4.5364  -4.5146  -4.4732  -4.4356  -4.4088  -4.3801  -4.3563
    -4.3441  -4.2869  -4.2463  -4.2374  -4.1665  -4.1590  -4.1204  -4.0796
    -4.0386  -4.0072  -4.0060  -3.9200  -3.8643  -3.8001  -3.7802  -3.6869
    -3.6736  -3.6434  -3.5541  -3.5333  -3.5133  -3.4640  -3.3876  -3.3086
    -3.2917  -3.2112  -3.2107  -3.1929  -3.1190  -3.0983  -3.0901  -2.9663
    -2.9449  -2.8868  -2.8832  -2.8564  -2.8561  -2.8061  -2.7214  -2.6551
    -2.6188  -2.6178  -2.5519  -2.5354  -2.5159  -2.4641  -2.4189  -2.4083
    -2.3733  -2.3690  -2.3264  -2.2458  -2.1971  -2.1684  -2.1413  -2.0690
    -2.0316  -2.0187  -1.9389  -1.9085  -1.8194  -1.8084  -1.7309  -1.7247
    -1.6595  -1.6472  -1.5713  -1.5360  -1.4872  -1.4197  -1.3423  -1.2346
    -1.2219  -1.2117  -1.1061  -0.9203  -0.7338  -0.7249  -0.3347  -0.2466
    -0.0960  -0.0766   0.0214   0.0652   1.6196   1.7485   1.7844   1.8626
     1.9107   1.9629   1.9968   2.0148   2.0828   2.0914   2.1836

          k =-0.0760-0.0559 0.0000 ( 26868 PWs)   bands (ev):

   -57.4404 -57.4333 -57.4093 -57.4067 -57.3646 -57.3514 -57.3114 -57.3089
   -57.2918 -57.2618 -57.2456 -57.2364 -57.2239 -57.1902 -57.0112 -56.5086
   -56.4898 -56.4652 -33.9225 -33.9048 -33.8546 -33.8235 -33.8071 -33.7832
   -33.7743 -33.7657 -33.7240 -33.7088 -33.6943 -33.6645 -33.6415 -33.6375
   -33.6333 -33.6130 -33.5996 -33.5987 -33.5975 -33.5895 -33.5875 -33.5815
   -33.5699 -33.5594 -33.5569 -33.5520 -33.5362 -33.5298 -33.5235 -33.5178
   -33.5169 -33.5138 -33.5049 -33.5020 -33.4951 -33.4880 -33.4568 -33.4558
   -33.4475 -33.4356 -33.4340 -33.3951 -33.3617 -33.3048 -33.2361 -32.9121
   -32.8262 -32.8087 -32.7857 -32.7238 -32.7025 -32.6469 -32.6371 -32.6182
   -19.1356 -17.9947 -17.9232 -17.6836 -17.6277 -17.6150 -17.5998 -17.5640
   -17.5084 -17.4776 -17.4386 -17.4117 -17.3734 -17.3279 -17.3142 -17.2396
   -17.2349 -17.2311 -17.1649 -17.1629 -17.1454 -17.1004 -17.0871 -17.0647
   -17.0157 -16.9747 -16.9609 -16.8816 -16.8565 -16.8160 -16.7211 -16.6526
   -16.6182 -15.2717 -14.9729 -14.9625 -14.8497  -7.6885  -7.6414  -7.2262
    -6.7831  -5.2467  -5.2152  -5.1806  -5.1521  -5.0473  -4.8616  -4.7855
    -4.7522  -4.7477  -4.6831  -4.6633  -4.6566  -4.6120  -4.5999  -4.5749
    -4.5519  -4.5214  -4.4879  -4.4799  -4.4437  -4.4118  -4.3967  -4.3752
    -4.3576  -4.3519  -4.3383  -4.2504  -4.1878  -4.1707  -4.1161  -4.0892
    -4.0642  -4.0206  -4.0090  -3.9664  -3.9353  -3.7130  -3.6255  -3.6099
    -3.6090  -3.5826  -3.5469  -3.4908  -3.4325  -3.4025  -3.3707  -3.2448
    -3.2048  -3.1917  -3.1873  -3.1521  -3.0684  -3.0420  -3.0129  -2.9807
    -2.9649  -2.9153  -2.9028  -2.8625  -2.8220  -2.7501  -2.7067  -2.6695
    -2.6370  -2.6039  -2.5927  -2.5662  -2.5370  -2.5329  -2.5059  -2.4866
    -2.4142  -2.4121  -2.3733  -2.3167  -2.2434  -2.2099  -2.1919  -2.1135
    -2.0348  -1.9838  -1.9604  -1.9403  -1.8625  -1.7449  -1.7194  -1.7101
    -1.6773  -1.6288  -1.5773  -1.5439  -1.4937  -1.4030  -1.2711  -1.2507
    -1.1826  -1.0864  -1.0655  -1.0452  -0.8242  -0.7337  -0.4203  -0.1614
    -0.1166  -0.0974   0.0616   0.0692   1.7034   1.7704   1.8330   1.8663
     1.8826   1.9139   1.9166   1.9857   2.0410   2.1104   2.1303

     the Fermi energy is     1.6424 ev

!    total energy              =   -3295.81883815 Ry
     estimated scf accuracy    <       0.00000005 Ry
     smearing contrib. (-TS)   =      -0.03294613 Ry
     internal energy E=F+TS    =   -3295.78589201 Ry

     The total energy is F=E-TS. E is the sum of the following terms:
     one-electron contribution =  -34383.31937265 Ry
     hartree contribution      =   17260.94079656 Ry
     xc contribution           =    -543.89945871 Ry
     ewald contribution        =   14370.48706147 Ry
     electric field correction =       0.00508131 Ry

     convergence has been achieved in  59 iterations

     Forces acting on atoms (cartesian axes, Ry/au):

     atom    1 type  1   force =     0.00000553    0.00790870    0.05045856
     atom    2 type  1   force =    -0.00000940    0.00035785   -0.00968478
     atom    3 type  1   force =    -0.00002735   -0.00457581   -0.00048399
     atom    4 type  1   force =     0.00005826    0.00282156    0.10760876
     atom    5 type  1   force =     0.00000382    0.00071121    0.00925856
     atom    6 type  1   force =    -0.00000617   -0.00156048    0.00018711
     atom    7 type  1   force =     0.06463802    0.00007936   -0.02898228
     atom    8 type  1   force =     0.00390939   -0.02786492    0.00324845
     atom    9 type  1   force =     0.00820916   -0.01832292    0.00244124
     atom   10 type  2   force =    -0.00005059   -0.00797576   -0.19369766
     atom   11 type  2   force =    -0.00002572    0.02062035   -0.00636092
     atom   12 type  2   force =    -0.00005197    0.02186043   -0.00351358
     atom   13 type  1   force =    -0.06473236   -0.00037544   -0.02893094
     atom   14 type  1   force =    -0.00390749   -0.02784549    0.00324337
     atom   15 type  1   force =    -0.00819879   -0.01830706    0.00242894
     atom   16 type  2   force =     0.00009992    0.00059113    0.06675288
     atom   17 type  2   force =     0.00002283    0.03326259    0.00614306
     atom   18 type  2   force =     0.00000721    0.02096502    0.00181033
     atom   19 type  1   force =     0.00000466    0.00225020    0.05630331
     atom   20 type  1   force =    -0.00000521   -0.00134120   -0.00683243
     atom   21 type  1   force =     0.00005980   -0.00139601    0.10884786
     atom   22 type  1   force =     0.00000782   -0.00025236    0.00988331
     atom   23 type  1   force =     0.00000891   -0.00489628    0.00120820
     atom   24 type  1   force =     0.06619863   -0.00051216   -0.02948720
     atom   25 type  1   force =     0.00420879   -0.03008619    0.00220090
     atom   26 type  1   force =     0.00999148   -0.02417534    0.00223113
     atom   27 type  2   force =    -0.00006750    0.01376486   -0.18652193
     atom   28 type  2   force =    -0.00001872    0.02335928   -0.00581501
     atom   29 type  2   force =    -0.00004449    0.01741882   -0.00909820
     atom   30 type  1   force =    -0.06630531   -0.00096397   -0.02944273
     atom   31 type  1   force =    -0.00420359   -0.03005724    0.00220109
     atom   32 type  1   force =    -0.00992848   -0.02415151    0.00222301
     atom   33 type  2   force =     0.00009459   -0.00142004    0.06833745
     atom   34 type  2   force =     0.00002363    0.03782804    0.00404330
     atom   35 type  2   force =    -0.00002426    0.03581804    0.00772244
     atom   36 type  1   force =     0.00001535    0.00056417    0.06525949
     atom   37 type  1   force =    -0.00001023    0.00229054   -0.01099618
     atom   38 type  1   force =    -0.00000257   -0.00087066    0.00177574
     atom   39 type  1   force =     0.00005807   -0.00143616    0.10679606
     atom   40 type  1   force =     0.00000126   -0.00038641    0.00778358
     atom   41 type  1   force =    -0.00000118   -0.00018371    0.00572292
     atom   42 type  1   force =     0.06732593   -0.00097530   -0.02905439
     atom   43 type  1   force =     0.00313579   -0.02828892    0.00238140
     atom   44 type  1   force =     0.00713871   -0.02148277    0.00453903
     atom   45 type  2   force =    -0.00006893   -0.00850961   -0.18085471
     atom   46 type  2   force =    -0.00000409    0.01744216   -0.00234260
     atom   47 type  2   force =    -0.00004555    0.02032231   -0.00645964
     atom   48 type  1   force =    -0.06742192   -0.00142183   -0.02900915
     atom   49 type  1   force =    -0.00310366   -0.02828831    0.00237899
     atom   50 type  1   force =    -0.00711168   -0.02144404    0.00450809
     atom   51 type  2   force =     0.00012362   -0.00304880    0.06675803
     atom   52 type  2   force =     0.00000654    0.03509684    0.00725873
     atom   53 type  2   force =    -0.00002053    0.02411489    0.00296499
     atom   54 type  3   force =     0.00011026   -0.00017497    0.00060340
     atom   55 type  4   force =    -0.00000159    0.00498464   -0.00209182
     atom   56 type  3   force =    -0.00004865   -0.00323589    0.00330964
     atom   57 type  3   force =    -0.00000006   -0.00070958    0.00105122
     atom   58 type  4   force =     0.00012485    0.00076407   -0.00143613
     atom   59 type  3   force =    -0.00000152   -0.00005978    0.00003954
     atom   60 type  3   force =    -0.00054005    0.00073693   -0.00038920
     atom   61 type  3   force =     0.00039683    0.00066291   -0.00042863

     Total force =     0.461620     Total SCF correction =     0.001024
  @ DRIVER MODE: Message from server: STATUS
  @ DRIVER MODE: Message from server: GETFORCE
  @ DRIVER MODE: Returning v,forces,stress,ensemble 

     Writing output data file ./calc.save/
  @ DRIVER MODE: Message from server: EXIT
  @ DRIVE MODE: Exiting  
 
     init_run     :     18.04s CPU     18.40s WALL (       1 calls)
     electrons    :   1765.11s CPU   1798.49s WALL (       1 calls)
     forces       :      4.39s CPU      4.59s WALL (       1 calls)

     Called by init_run:
     wfcinit      :      9.70s CPU      9.83s WALL (       1 calls)
     potinit      :      7.30s CPU      7.40s WALL (       1 calls)
     hinit0       :      0.42s CPU      0.44s WALL (       1 calls)

     Called by electrons:
     c_bands      :   1484.61s CPU   1502.28s WALL (      59 calls)
     sum_band     :    196.66s CPU    204.19s WALL (      59 calls)
     v_of_rho     :     64.13s CPU     66.41s WALL (      60 calls)
     newd         :     23.43s CPU     29.25s WALL (      60 calls)
     mix_rho      :      2.45s CPU      2.55s WALL (      59 calls)
     vdW_kernel   :      5.84s CPU      5.85s WALL (       1 calls)

     Called by c_bands:
     init_us_2    :      9.34s CPU      9.40s WALL (    1200 calls)
     cegterg      :   1453.54s CPU   1470.77s WALL (     593 calls)

     Called by *egterg:
     cdiaghg      :    216.07s CPU    216.98s WALL (    6615 calls)
     h_psi        :    808.67s CPU    819.08s WALL (    6625 calls)
     s_psi        :    112.24s CPU    112.53s WALL (    6625 calls)
     g_psi        :      2.57s CPU      2.58s WALL (    6022 calls)

     Called by h_psi:
     h_psi:calbec :    102.50s CPU    103.43s WALL (    6625 calls)
     vloc_psi     :    590.03s CPU    595.02s WALL (    6625 calls)
     add_vuspsi   :    112.52s CPU    114.11s WALL (    6625 calls)

     General routines
     calbec       :    138.14s CPU    139.17s WALL (    7255 calls)
     fft          :     35.73s CPU     35.88s WALL (    3780 calls)
     ffts         :      0.20s CPU      0.21s WALL (     119 calls)
     fftw         :    662.23s CPU    667.71s WALL (  825328 calls)
     interpolate  :      0.68s CPU      0.69s WALL (      60 calls)
     davcio       :      0.00s CPU      0.41s WALL (      10 calls)
 
     Parallel routines
 
     PWSCF        :  29m47.80s CPU  30m22.68s WALL

 
   This run was terminated on:  20:30:21  18Oct2021            

=------------------------------------------------------------------------------=
   JOB DONE.
=------------------------------------------------------------------------------=
