
     Program PWSCF v.6.7GPU starts on 24Aug2021 at 12:16:21 

     This program is part of the open-source Quantum ESPRESSO suite
     for quantum simulation of materials; please cite
         "P. Giannozzi et al., J. Phys.:Condens. Matter 21 395502 (2009);
         "P. Giannozzi et al., J. Phys.:Condens. Matter 29 465901 (2017);
         "P. Giannozzi et al., J. Chem. Phys. 152 154105 (2020);
          URL http://www.quantum-espresso.org", 
     in publications or presentations arising from this work. More details at
     http://www.quantum-espresso.org/quote

     Parallel version (MPI), running on    72 processors

     MPI processes distributed on     4 nodes
     R & G space division:  proc/nbgrp/npool/nimage =      72
     Reading input from /storage/home/hcoda1/3/ntian30/research/carbon/CH2_vib/ads_slab/CH2N_a/out_0009/pw.inp
Warning: card &CELL ignored
Warning: card   CELL_DYNAMICS='IPI', ignored
Warning: card / ignored

     Current dimensions of program PWSCF are:
     Max number of different atomic species (ntypx) = 10
     Max number of k-points (npk) =  40000
     Max angular momentum in pseudopotentials (lmaxx) =  3
     Presently no symmetry can be used with electric field

     Message from routine cell_base_init:
     DEPRECATED: use true lattice parameter, not A to a.u. conversion factor

     **************************************************************************
     Initializing libbeef V0.1.2 with the BEEF-vdW functional.
     Citation: Wellendorff et al., PRB 85, 235149 (2012).
     **************************************************************************


     IMPORTANT: XC functional enforced from input :
     Exchange-correlation= BEEF-VDW
                           (   1   4  43  14   2   0   0)
     Any further DFT definition will be discarded
     Please, verify this is what you really want


     Subspace diagonalization in iterative solution of the eigenvalue problem:
     one sub-group per band group will be used
     scalapack distributed-memory algorithm (size of sub-group:  8*  8 procs)

  @ DRIVER MODE: Connecting to 
 qe_1139763_2641441.sched-torque.pace.gatech.edu_f9_0e26_scratch
  using UNIX socket
  @ DRIVER MODE: Message from server: STATUS
  @ DRIVER MODE: Message from server: INIT
  @ DRIVER MODE: Receiving replica           0          -1
  @ DRIVER MODE: Receiving encoded integer          25
  @ DRIVER MODE:  SCF:  T  FORCE:  T  STRESS:  F  VC:  F  ENSEMBLE:  F
  @ DRIVER MODE:  SCF:  T  FORCE:  T  STRESS:  F  VC:  F  ENSEMBLE:  F
 
     Parallelization info
     --------------------
     sticks:   dense  smooth     PW     G-vecs:    dense   smooth      PW
     Min          45      18      5                 7865     1988     295
     Max          46      19      6                 7884     2001     312
     Sum        3275    1317    379               566857   143421   21985
 
     Using Slab Decomposition
 


     bravais-lattice index     =            0
     lattice parameter (alat)  =       1.8897  a.u.
     unit-cell volume          =    6658.9804 (a.u.)^3
     number of atoms/cell      =           51
     number of atomic types    =            5
     number of electrons       =       389.00
     number of Kohn-Sham states=          204
     kinetic-energy cutoff     =      29.3995  Ry
     charge density cutoff     =     293.9946  Ry
     scf convergence threshold =      7.3E-08
     mixing beta               =       0.0500
     number of iterations used =            8  plain     mixing
     Exchange-correlation= BEEF-VDW
                           (   1   4  43  14   2   0   0)

     celldm(1)=   1.889726  celldm(2)=   0.000000  celldm(3)=   0.000000
     celldm(4)=   0.000000  celldm(5)=   0.000000  celldm(6)=   0.000000

     crystal axes: (cart. coord. in units of alat)
               a(1) = (   6.579727   0.000000   0.000000 )  
               a(2) = (  -0.000775   5.961596   0.000000 )  
               a(3) = (   0.000000   0.000000  25.155947 )  

     reciprocal axes: (cart. coord. in units 2 pi/alat)
               b(1) = (  0.151982  0.000020  0.000000 )  
               b(2) = (  0.000000  0.167740  0.000000 )  
               b(3) = (  0.000000  0.000000  0.039752 )  


     PseudoPot. # 1 for Ti read from file:
     /storage/coda1/p-amedford6/0/shared/rich_project_chbe-medford/medford-share/data/pseudos_module/espresso/nninc/pbe/van/Ti.UPF
     MD5 check sum: 8e4df49b7f0d34bbd5052bf3f5ea0213
     Pseudo is Ultrasoft, Zval = 12.0
     Generated by new atomic code, or converted to UPF format
     Using radial grid of  851 points,  6 beta functions with: 
                l(1) =   0
                l(2) =   0
                l(3) =   1
                l(4) =   1
                l(5) =   2
                l(6) =   2
     Q(r) pseudized with  8 coefficients,  rinner =    1.000   1.000   1.000
                                                       1.000   1.000

     PseudoPot. # 2 for O  read from file:
     /storage/coda1/p-amedford6/0/shared/rich_project_chbe-medford/medford-share/data/pseudos_module/espresso/nninc/pbe/van/O.UPF
     MD5 check sum: 78c19812648e8988a0fe644b0f25305e
     Pseudo is Ultrasoft, Zval =  6.0
     Generated by new atomic code, or converted to UPF format
     Using radial grid of  737 points,  4 beta functions with: 
                l(1) =   0
                l(2) =   0
                l(3) =   1
                l(4) =   1
     Q(r) pseudized with  8 coefficients,  rinner =    0.800   0.800   0.800


     PseudoPot. # 3 for N  read from file:
     /storage/coda1/p-amedford6/0/shared/rich_project_chbe-medford/medford-share/data/pseudos_module/espresso/nninc/pbe/van/N.UPF
     MD5 check sum: 90d10febe142ad51ac9d5be1deb811c4
     Pseudo is Ultrasoft, Zval =  5.0
     Generated by new atomic code, or converted to UPF format
     Using radial grid of  729 points,  4 beta functions with: 
                l(1) =   0
                l(2) =   0
                l(3) =   1
                l(4) =   1
     Q(r) pseudized with  8 coefficients,  rinner =    0.800   0.800   0.800


     PseudoPot. # 4 for C  read from file:
     /storage/coda1/p-amedford6/0/shared/rich_project_chbe-medford/medford-share/data/pseudos_module/espresso/nninc/pbe/van/C.UPF
     MD5 check sum: 1a69bf6b8db32088f5b2163dbdb77a27
     Pseudo is Ultrasoft, Zval =  4.0
     Generated by new atomic code, or converted to UPF format
     Using radial grid of  721 points,  4 beta functions with: 
                l(1) =   0
                l(2) =   0
                l(3) =   1
                l(4) =   1
     Q(r) pseudized with  8 coefficients,  rinner =    0.800   0.800   0.800


     PseudoPot. # 5 for H  read from file:
     /storage/coda1/p-amedford6/0/shared/rich_project_chbe-medford/medford-share/data/pseudos_module/espresso/nninc/pbe/van/H.UPF
     MD5 check sum: b5ee9d7bfd3a09ee7748110bda690ff7
     Pseudo is Ultrasoft, Zval =  1.0
     Generated by new atomic code, or converted to UPF format
     Using radial grid of  615 points,  1 beta functions with: 
                l(1) =   0
     Q(r) pseudized with  8 coefficients,  rinner =    0.800

     atomic species   valence    mass     pseudopotential
        Ti1           12.00    47.86700     Ti( 1.00)
        O1             6.00    15.99900     O ( 1.00)
        N1             5.00    14.00700     N ( 1.00)
        C1             4.00    12.01100     C ( 1.00)
        H1             1.00     1.00800     H ( 1.00)

     No symmetry found



   Cartesian axes

     site n.     atom                  positions (alat units)
         1           Ti1 tau(   1) = (   0.0004258   2.9801865   6.0000000  )
         2           Ti1 tau(   2) = (   3.2906075   1.4906267   6.0002472  )
         3           O1  tau(   3) = (   0.0006271   0.0005054   7.9858123  )
         4           O1  tau(   4) = (   3.2906025   0.0005020   7.3038282  )
         5           O1  tau(   5) = (   4.5942328   1.4918067   9.2879030  )
         6           O1  tau(   6) = (   1.9868534   1.4903216   9.2879459  )
         7           Ti1 tau(   7) = (   3.2907910   2.8959150   9.1758416  )
         8           Ti1 tau(   8) = (   0.0015273   1.4827037   9.2680791  )
         9           O1  tau(   9) = (   3.3121109   0.0111249  11.3310253  )
        10           O1  tau(  10) = (   0.0116148   5.9584955  10.6183126  )
        11           O1  tau(  11) = (   1.3329579   1.5011098  12.6063046  )
        12           O1  tau(  12) = (   5.3158149   1.4916659  12.6245769  )
        13           Ti1 tau(  13) = (   6.5431557   2.9598450  12.6156978  )
        14           Ti1 tau(  14) = (   3.2273839   1.5049138  12.4779161  )
        15           O1  tau(  15) = (   0.0471551   0.0364395  14.6528705  )
        16           O1  tau(  16) = (   3.3160098   0.0207640  13.9215624  )
        17           O1  tau(  17) = (   4.5810600   1.5471256  16.0564497  )
        18           O1  tau(  18) = (   2.0947546   1.5446786  16.0656860  )
        19           Ti1 tau(  19) = (   3.3354243   3.0239694  15.7034691  )
        20           Ti1 tau(  20) = (   0.0419518   1.5622418  15.8401859  )
        21           O1  tau(  21) = (   3.2904802   0.0005063   4.7018136  )
        22           O1  tau(  22) = (   0.0415632   0.0558952  17.2248266  )
        23           O1  tau(  23) = (   1.3043587   1.4918075   6.0039043  )
        24           O1  tau(  24) = (   5.2767064   1.4903225   6.0039473  )
        25           Ti1 tau(  25) = (   0.0000382   5.9609847   6.0000000  )
        26           Ti1 tau(  26) = (   3.2902200   4.4714249   6.0002472  )
        27           O1  tau(  27) = (   0.0002396   2.9813036   7.9858123  )
        28           O1  tau(  28) = (   3.2902150   2.9813002   7.3038282  )
        29           O1  tau(  29) = (   4.5938453   4.4726049   9.2879030  )
        30           O1  tau(  30) = (   1.9864658   4.4711199   9.2879459  )
        31           Ti1 tau(  31) = (   3.2891106   5.8743827   9.1763621  )
        32           Ti1 tau(  32) = (   0.0006254   4.4649316   9.2693709  )
        33           O1  tau(  33) = (   3.3101407   2.9955762  11.3294870  )
        34           O1  tau(  34) = (   0.0092240   2.9805883  10.6323155  )
        35           O1  tau(  35) = (   1.3272401   4.4878838  12.6173354  )
        36           O1  tau(  36) = (   5.3164082   4.4812184  12.6342743  )
        37           Ti1 tau(  37) = (   6.5430856   5.9365306  12.5602028  )
        38           Ti1 tau(  38) = (   3.2246414   4.4845729  12.4831641  )
        39           O1  tau(  39) = (   0.0420920   2.9623338  14.6463429  )
        40           O1  tau(  40) = (   3.3182946   3.0055568  13.9055467  )
        41           O1  tau(  41) = (   4.5797692   4.5125808  16.0776662  )
        42           O1  tau(  42) = (   2.0972274   4.5146901  16.0918111  )
        43           Ti1 tau(  43) = (   3.3319946   0.0399457  15.7186693  )
        44           Ti1 tau(  44) = (   0.0407629   4.6953510  16.1098173  )
        45           O1  tau(  45) = (   3.2900926   2.9813045   4.7018136  )
        46           O1  tau(  46) = (   1.3039711   4.4726057   6.0039043  )
        47           O1  tau(  47) = (   5.2763189   4.4711207   6.0039473  )
        48           N1  tau(  48) = (   0.0554023   2.9932257  17.3910969  )
        49           C1  tau(  49) = (   0.1090839   2.9122626  18.6472186  )
        50           H1  tau(  50) = (   0.1225839   3.8204711  19.2773028  )
        51           H1  tau(  51) = (   0.1417253   1.9549180  19.1625725  )

     number of k points=    10  Fermi-Dirac smearing, width (Ry)=  0.0073
                       cart. coord. in units 2pi/alat
        k(    1) = (   0.0000000   0.0000000   0.0000000), wk =   0.1250000
        k(    2) = (   0.0000000   0.0419351   0.0000000), wk =   0.2500000
        k(    3) = (   0.0000000  -0.0838702   0.0000000), wk =   0.1250000
        k(    4) = (   0.0379955   0.0000049   0.0000000), wk =   0.2500000
        k(    5) = (   0.0379955   0.0419400   0.0000000), wk =   0.2500000
        k(    6) = (   0.0379955  -0.0838652   0.0000000), wk =   0.2500000
        k(    7) = (   0.0379955  -0.0419301   0.0000000), wk =   0.2500000
        k(    8) = (  -0.0759910  -0.0000099   0.0000000), wk =   0.1250000
        k(    9) = (  -0.0759910   0.0419252   0.0000000), wk =   0.2500000
        k(   10) = (  -0.0759910  -0.0838800   0.0000000), wk =   0.1250000

     Dense  grid:   566857 G-vectors     FFT dimensions: (  72,  64, 270)

     Smooth grid:   143421 G-vectors     FFT dimensions: (  45,  40, 180)

     Estimated max dynamical RAM per process >      56.36 MB

     Estimated total dynamical RAM >       3.96 GB
     Cannot read rho : file not found

     Initial potential from superposition of free atoms

     starting charge  372.99918, renormalised to  389.00000

     negative rho (up, down):  1.813E-02 0.000E+00


     %%%%%%%%%%%%%%%%%%%%%%%%%%%%%%%%%%%%%%%%%%%%%%%%%%%%%%%%%%%%%%%%%%%%%%%%
     %                                                                      %
     % You are using vdW-DF, which was implemented by the Thonhauser group. %
     % Please cite the following two papers that made this development      %
     % possible and the two reviews that describe the various versions:     %
     %                                                                      %
     %   T. Thonhauser et al., PRL 115, 136402 (2015).                      %
     %   T. Thonhauser et al., PRB 76, 125112 (2007).                       %
     %   K. Berland et al., Rep. Prog. Phys. 78, 066501 (2015).             %
     %   D.C. Langreth et al., J. Phys.: Condens. Matter 21, 084203 (2009). %
     %                                                                      %
     %                                                                      %
     % If you are calculating the stress with vdW-DF, please also cite:     %
     %                                                                      %
     %   R. Sabatini et al., J. Phys.: Condens. Matter 24, 424209 (2012).   %
     %                                                                      %
     %%%%%%%%%%%%%%%%%%%%%%%%%%%%%%%%%%%%%%%%%%%%%%%%%%%%%%%%%%%%%%%%%%%%%%%%


 
     Adding external electric field

     Computed dipole along edir(3) : 
        Dipole               -4.6856 Ry au,        -11.9097 Debye
        Dipole field         -0.0088 Ry au, 
 
        Potential amp.        0.8197 Ry
        Total length         46.3494 bohr
 
     Starting wfcs are  294 atomic wfcs
  @ DRIVER MODE: Message from server: STATUS
  @ DRIVER MODE: Message from server: POSDATA
  @ DRIVER MODE: Reading and sharing cell 
  @ DRIVER MODE: Reading and sharing positions 
  @ DRIVER MODE: Received positions 

     total cpu time spent up to now is       28.0 secs

     Self-consistent Calculation

     iteration #  1     ecut=    29.40 Ry     beta= 0.05
     Davidson diagonalization with overlap
     c_bands:  3 eigenvalues not converged
     c_bands:  1 eigenvalues not converged
     c_bands:  1 eigenvalues not converged
     c_bands:  3 eigenvalues not converged
     c_bands:  3 eigenvalues not converged
     c_bands:  2 eigenvalues not converged
     c_bands:  2 eigenvalues not converged
     ethr =  1.00E-05,  avg # of iterations = 19.9

     negative rho (up, down):  1.770E-02 0.000E+00
 
     Adding external electric field

     Computed dipole along edir(3) : 
        Dipole               14.4315 Ry au,         36.6811 Debye
        Dipole field          0.0272 Ry au, 
 
        Potential amp.       -2.5246 Ry
        Total length         46.3494 bohr
 

     total cpu time spent up to now is       57.4 secs

     total energy              =   -2865.60935689 Ry
     estimated scf accuracy    <     596.11693956 Ry

     iteration #  2     ecut=    29.40 Ry     beta= 0.05
     Davidson diagonalization with overlap
     ethr =  1.00E-02,  avg # of iterations = 14.6

     negative rho (up, down):  7.808E-03 0.000E+00
 
     Adding external electric field

     Computed dipole along edir(3) : 
        Dipole               -2.1954 Ry au,         -5.5803 Debye
        Dipole field         -0.0041 Ry au, 
 
        Potential amp.        0.3841 Ry
        Total length         46.3494 bohr
 

     total cpu time spent up to now is       74.1 secs

     total energy              =   -2804.02895145 Ry
     estimated scf accuracy    <   13630.33244944 Ry

     iteration #  3     ecut=    29.40 Ry     beta= 0.05
     Davidson diagonalization with overlap
     c_bands:  2 eigenvalues not converged
     c_bands:  1 eigenvalues not converged
     c_bands:  3 eigenvalues not converged
     ethr =  1.00E-02,  avg # of iterations = 19.1

     negative rho (up, down):  7.763E-03 0.000E+00
 
     Adding external electric field

     Computed dipole along edir(3) : 
        Dipole               -2.5029 Ry au,         -6.3618 Debye
        Dipole field         -0.0047 Ry au, 
 
        Potential amp.        0.4378 Ry
        Total length         46.3494 bohr
 

     total cpu time spent up to now is      109.8 secs

     total energy              =   -2918.92506151 Ry
     estimated scf accuracy    <      21.08745744 Ry

     iteration #  4     ecut=    29.40 Ry     beta= 0.05
     Davidson diagonalization with overlap
     ethr =  5.42E-03,  avg # of iterations =  6.4

     negative rho (up, down):  7.722E-03 0.000E+00
 
     Adding external electric field

     Computed dipole along edir(3) : 
        Dipole               -2.5343 Ry au,         -6.4416 Debye
        Dipole field         -0.0048 Ry au, 
 
        Potential amp.        0.4433 Ry
        Total length         46.3494 bohr
 

     total cpu time spent up to now is      139.3 secs

     total energy              =   -2919.24413521 Ry
     estimated scf accuracy    <      11.89912580 Ry

     iteration #  5     ecut=    29.40 Ry     beta= 0.05
     Davidson diagonalization with overlap
     ethr =  3.06E-03,  avg # of iterations =  2.8

     negative rho (up, down):  7.874E-03 0.000E+00
 
     Adding external electric field

     Computed dipole along edir(3) : 
        Dipole               -2.2603 Ry au,         -5.7452 Debye
        Dipole field         -0.0043 Ry au, 
 
        Potential amp.        0.3954 Ry
        Total length         46.3494 bohr
 

     total cpu time spent up to now is      165.1 secs

     total energy              =   -2917.13172115 Ry
     estimated scf accuracy    <       9.66351255 Ry

     iteration #  6     ecut=    29.40 Ry     beta= 0.05
     Davidson diagonalization with overlap
     ethr =  2.48E-03,  avg # of iterations =  4.8

     negative rho (up, down):  8.260E-03 0.000E+00
 
     Adding external electric field

     Computed dipole along edir(3) : 
        Dipole               -1.7927 Ry au,         -4.5567 Debye
        Dipole field         -0.0034 Ry au, 
 
        Potential amp.        0.3136 Ry
        Total length         46.3494 bohr
 

     total cpu time spent up to now is      185.6 secs

     total energy              =   -2916.49253250 Ry
     estimated scf accuracy    <       3.49827827 Ry

     iteration #  7     ecut=    29.40 Ry     beta= 0.05
     Davidson diagonalization with overlap
     ethr =  8.99E-04,  avg # of iterations = 14.0

     negative rho (up, down):  8.074E-03 0.000E+00
 
     Adding external electric field

     Computed dipole along edir(3) : 
        Dipole               -1.7874 Ry au,         -4.5432 Debye
        Dipole field         -0.0034 Ry au, 
 
        Potential amp.        0.3127 Ry
        Total length         46.3494 bohr
 

     total cpu time spent up to now is      221.6 secs

     total energy              =   -2918.53377096 Ry
     estimated scf accuracy    <     117.67423314 Ry

     iteration #  8     ecut=    29.40 Ry     beta= 0.05
     Davidson diagonalization with overlap
     ethr =  8.99E-04,  avg # of iterations =  1.5

     negative rho (up, down):  7.957E-03 0.000E+00
 
     Adding external electric field

     Computed dipole along edir(3) : 
        Dipole               -1.8146 Ry au,         -4.6123 Debye
        Dipole field         -0.0034 Ry au, 
 
        Potential amp.        0.3174 Ry
        Total length         46.3494 bohr
 

     total cpu time spent up to now is      228.0 secs

     total energy              =   -2918.40841876 Ry
     estimated scf accuracy    <      38.85818679 Ry

     iteration #  9     ecut=    29.40 Ry     beta= 0.05
     Davidson diagonalization with overlap
     ethr =  8.99E-04,  avg # of iterations =  1.0

     negative rho (up, down):  7.893E-03 0.000E+00
 
     Adding external electric field

     Computed dipole along edir(3) : 
        Dipole               -1.7976 Ry au,         -4.5691 Debye
        Dipole field         -0.0034 Ry au, 
 
        Potential amp.        0.3145 Ry
        Total length         46.3494 bohr
 

     total cpu time spent up to now is      231.4 secs

     total energy              =   -2918.41720167 Ry
     estimated scf accuracy    <      23.13966037 Ry

     iteration # 10     ecut=    29.40 Ry     beta= 0.05
     Davidson diagonalization with overlap
     ethr =  8.99E-04,  avg # of iterations =  1.0

     negative rho (up, down):  7.847E-03 0.000E+00
 
     Adding external electric field

     Computed dipole along edir(3) : 
        Dipole               -1.7935 Ry au,         -4.5586 Debye
        Dipole field         -0.0034 Ry au, 
 
        Potential amp.        0.3137 Ry
        Total length         46.3494 bohr
 

     total cpu time spent up to now is      234.9 secs

     total energy              =   -2918.42197462 Ry
     estimated scf accuracy    <      21.93789911 Ry

     iteration # 11     ecut=    29.40 Ry     beta= 0.05
     Davidson diagonalization with overlap
     ethr =  8.99E-04,  avg # of iterations =  1.0

     negative rho (up, down):  7.917E-03 0.000E+00
 
     Adding external electric field

     Computed dipole along edir(3) : 
        Dipole               -1.7632 Ry au,         -4.4815 Debye
        Dipole field         -0.0033 Ry au, 
 
        Potential amp.        0.3084 Ry
        Total length         46.3494 bohr
 

     total cpu time spent up to now is      240.4 secs

     total energy              =   -2918.89849340 Ry
     estimated scf accuracy    <      21.71766930 Ry

     iteration # 12     ecut=    29.40 Ry     beta= 0.05
     Davidson diagonalization with overlap
     ethr =  8.99E-04,  avg # of iterations =  1.0

     negative rho (up, down):  7.883E-03 0.000E+00
 
     Adding external electric field

     Computed dipole along edir(3) : 
        Dipole               -1.7644 Ry au,         -4.4847 Debye
        Dipole field         -0.0033 Ry au, 
 
        Potential amp.        0.3087 Ry
        Total length         46.3494 bohr
 

     total cpu time spent up to now is      243.8 secs

     total energy              =   -2918.54053090 Ry
     estimated scf accuracy    <      77.99429061 Ry

     iteration # 13     ecut=    29.40 Ry     beta= 0.05
     Davidson diagonalization with overlap
     ethr =  8.99E-04,  avg # of iterations =  1.0

     negative rho (up, down):  8.010E-03 0.000E+00
 
     Adding external electric field

     Computed dipole along edir(3) : 
        Dipole               -1.7200 Ry au,         -4.3718 Debye
        Dipole field         -0.0032 Ry au, 
 
        Potential amp.        0.3009 Ry
        Total length         46.3494 bohr
 

     total cpu time spent up to now is      247.1 secs

     total energy              =   -2918.41926520 Ry
     estimated scf accuracy    <      28.34581631 Ry

     iteration # 14     ecut=    29.40 Ry     beta= 0.05
     Davidson diagonalization with overlap
     ethr =  8.99E-04,  avg # of iterations =  1.0

     negative rho (up, down):  7.996E-03 0.000E+00
 
     Adding external electric field

     Computed dipole along edir(3) : 
        Dipole               -1.7249 Ry au,         -4.3844 Debye
        Dipole field         -0.0033 Ry au, 
 
        Potential amp.        0.3018 Ry
        Total length         46.3494 bohr
 

     total cpu time spent up to now is      254.0 secs

     total energy              =   -2918.11174835 Ry
     estimated scf accuracy    <      17.25720388 Ry

     iteration # 15     ecut=    29.40 Ry     beta= 0.05
     Davidson diagonalization with overlap
     ethr =  8.99E-04,  avg # of iterations =  2.5

     negative rho (up, down):  7.629E-03 0.000E+00
 
     Adding external electric field

     Computed dipole along edir(3) : 
        Dipole               -1.2558 Ry au,         -3.1920 Debye
        Dipole field         -0.0024 Ry au, 
 
        Potential amp.        0.2197 Ry
        Total length         46.3494 bohr
 

     total cpu time spent up to now is      259.5 secs

     total energy              =   -2917.32557956 Ry
     estimated scf accuracy    <      13.63364814 Ry

     iteration # 16     ecut=    29.40 Ry     beta= 0.05
     Davidson diagonalization with overlap
     ethr =  8.99E-04,  avg # of iterations =  5.5

     negative rho (up, down):  7.708E-03 0.000E+00
 
     Adding external electric field

     Computed dipole along edir(3) : 
        Dipole               -1.1448 Ry au,         -2.9098 Debye
        Dipole field         -0.0022 Ry au, 
 
        Potential amp.        0.2003 Ry
        Total length         46.3494 bohr
 

     total cpu time spent up to now is      277.1 secs

     total energy              =   -2917.94102510 Ry
     estimated scf accuracy    <       1.27368578 Ry

     iteration # 17     ecut=    29.40 Ry     beta= 0.05
     Davidson diagonalization with overlap
     ethr =  3.27E-04,  avg # of iterations =  3.1

     negative rho (up, down):  8.027E-03 0.000E+00
 
     Adding external electric field

     Computed dipole along edir(3) : 
        Dipole               -0.8864 Ry au,         -2.2530 Debye
        Dipole field         -0.0017 Ry au, 
 
        Potential amp.        0.1551 Ry
        Total length         46.3494 bohr
 

     total cpu time spent up to now is      287.4 secs

     total energy              =   -2917.86478795 Ry
     estimated scf accuracy    <       1.07571544 Ry

     iteration # 18     ecut=    29.40 Ry     beta= 0.05
     Davidson diagonalization with overlap
     ethr =  2.77E-04,  avg # of iterations =  6.0

     negative rho (up, down):  8.110E-03 0.000E+00
 
     Adding external electric field

     Computed dipole along edir(3) : 
        Dipole               -0.5326 Ry au,         -1.3538 Debye
        Dipole field         -0.0010 Ry au, 
 
        Potential amp.        0.0932 Ry
        Total length         46.3494 bohr
 

     total cpu time spent up to now is      292.3 secs

     total energy              =   -2917.92962865 Ry
     estimated scf accuracy    <       1.04580452 Ry

     iteration # 19     ecut=    29.40 Ry     beta= 0.05
     Davidson diagonalization with overlap
     ethr =  2.69E-04,  avg # of iterations = 11.6

     negative rho (up, down):  9.086E-03 0.000E+00
 
     Adding external electric field

     Computed dipole along edir(3) : 
        Dipole               -0.2665 Ry au,         -0.6774 Debye
        Dipole field         -0.0005 Ry au, 
 
        Potential amp.        0.0466 Ry
        Total length         46.3494 bohr
 

     total cpu time spent up to now is      301.7 secs

     total energy              =   -2917.97637690 Ry
     estimated scf accuracy    <       0.69729153 Ry

     iteration # 20     ecut=    29.40 Ry     beta= 0.05
     Davidson diagonalization with overlap
     c_bands:  2 eigenvalues not converged
     c_bands:  5 eigenvalues not converged
     c_bands:  3 eigenvalues not converged
     c_bands:  5 eigenvalues not converged
     c_bands:  2 eigenvalues not converged
     c_bands:  1 eigenvalues not converged
     ethr =  1.79E-04,  avg # of iterations = 15.6

     negative rho (up, down):  8.766E-03 0.000E+00
 
     Adding external electric field

     Computed dipole along edir(3) : 
        Dipole               -0.2271 Ry au,         -0.5773 Debye
        Dipole field         -0.0004 Ry au, 
 
        Potential amp.        0.0397 Ry
        Total length         46.3494 bohr
 

     total cpu time spent up to now is      334.8 secs

     total energy              =   -2917.96122924 Ry
     estimated scf accuracy    <       2.90949520 Ry

     iteration # 21     ecut=    29.40 Ry     beta= 0.05
     Davidson diagonalization with overlap
     ethr =  1.79E-04,  avg # of iterations =  4.2

     negative rho (up, down):  9.296E-03 0.000E+00
 
     Adding external electric field

     Computed dipole along edir(3) : 
        Dipole                0.0462 Ry au,          0.1175 Debye
        Dipole field          0.0001 Ry au, 
 
        Potential amp.       -0.0081 Ry
        Total length         46.3494 bohr
 

     total cpu time spent up to now is      357.0 secs

     total energy              =   -2917.93505147 Ry
     estimated scf accuracy    <       1.04850346 Ry

     iteration # 22     ecut=    29.40 Ry     beta= 0.05
     Davidson diagonalization with overlap
     ethr =  1.79E-04,  avg # of iterations =  5.5

     negative rho (up, down):  1.078E-02 0.000E+00
 
     Adding external electric field

     Computed dipole along edir(3) : 
        Dipole                0.4067 Ry au,          1.0337 Debye
        Dipole field          0.0008 Ry au, 
 
        Potential amp.       -0.0711 Ry
        Total length         46.3494 bohr
 

     total cpu time spent up to now is      365.2 secs

     total energy              =   -2917.91200560 Ry
     estimated scf accuracy    <       0.62030195 Ry

     iteration # 23     ecut=    29.40 Ry     beta= 0.05
     Davidson diagonalization with overlap
     ethr =  1.59E-04,  avg # of iterations =  1.3

     negative rho (up, down):  1.237E-02 0.000E+00
 
     Adding external electric field

     Computed dipole along edir(3) : 
        Dipole                0.7817 Ry au,          1.9870 Debye
        Dipole field          0.0015 Ry au, 
 
        Potential amp.       -0.1368 Ry
        Total length         46.3494 bohr
 

     total cpu time spent up to now is      374.7 secs

     total energy              =   -2917.87636886 Ry
     estimated scf accuracy    <       0.32643581 Ry

     iteration # 24     ecut=    29.40 Ry     beta= 0.05
     Davidson diagonalization with overlap
     c_bands:  1 eigenvalues not converged
     c_bands:  1 eigenvalues not converged
     c_bands:  1 eigenvalues not converged
     ethr =  8.39E-05,  avg # of iterations = 16.2

     negative rho (up, down):  1.247E-02 0.000E+00
 
     Adding external electric field

     Computed dipole along edir(3) : 
        Dipole                0.8249 Ry au,          2.0966 Debye
        Dipole field          0.0016 Ry au, 
 
        Potential amp.       -0.1443 Ry
        Total length         46.3494 bohr
 

     total cpu time spent up to now is      438.6 secs

     total energy              =   -2917.92505028 Ry
     estimated scf accuracy    <       0.14743759 Ry

     iteration # 25     ecut=    29.40 Ry     beta= 0.05
     Davidson diagonalization with overlap
     c_bands:  3 eigenvalues not converged
     c_bands:  2 eigenvalues not converged
     ethr =  3.79E-05,  avg # of iterations =  7.7

     negative rho (up, down):  1.157E-02 0.000E+00
 
     Adding external electric field

     Computed dipole along edir(3) : 
        Dipole                0.9208 Ry au,          2.3406 Debye
        Dipole field          0.0017 Ry au, 
 
        Potential amp.       -0.1611 Ry
        Total length         46.3494 bohr
 

     total cpu time spent up to now is      462.6 secs

     total energy              =   -2917.93237570 Ry
     estimated scf accuracy    <       0.14200758 Ry

     iteration # 26     ecut=    29.40 Ry     beta= 0.05
     Davidson diagonalization with overlap
     c_bands:  2 eigenvalues not converged
     ethr =  3.65E-05,  avg # of iterations =  9.6

     negative rho (up, down):  1.293E-02 0.000E+00
 
     Adding external electric field

     Computed dipole along edir(3) : 
        Dipole                1.1609 Ry au,          2.9507 Debye
        Dipole field          0.0022 Ry au, 
 
        Potential amp.       -0.2031 Ry
        Total length         46.3494 bohr
 

     total cpu time spent up to now is      481.7 secs

     total energy              =   -2917.91417434 Ry
     estimated scf accuracy    <       0.14817655 Ry

     iteration # 27     ecut=    29.40 Ry     beta= 0.05
     Davidson diagonalization with overlap
     c_bands:  4 eigenvalues not converged
     c_bands:  2 eigenvalues not converged
     c_bands:  5 eigenvalues not converged
     c_bands:  3 eigenvalues not converged
     c_bands:  3 eigenvalues not converged
     c_bands:  2 eigenvalues not converged
     c_bands:  4 eigenvalues not converged
     c_bands:  1 eigenvalues not converged
     c_bands:  4 eigenvalues not converged
     c_bands:  2 eigenvalues not converged
     ethr =  3.65E-05,  avg # of iterations = 20.0

     negative rho (up, down):  1.114E-02 0.000E+00
 
     Adding external electric field

     Computed dipole along edir(3) : 
        Dipole                1.0040 Ry au,          2.5520 Debye
        Dipole field          0.0019 Ry au, 
 
        Potential amp.       -0.1756 Ry
        Total length         46.3494 bohr
 

     total cpu time spent up to now is      491.9 secs

     total energy              =   -2917.92548711 Ry
     estimated scf accuracy    <       0.43839640 Ry

     iteration # 28     ecut=    29.40 Ry     beta= 0.05
     Davidson diagonalization with overlap
     ethr =  3.65E-05,  avg # of iterations =  4.5

     negative rho (up, down):  1.400E-02 0.000E+00
 
     Adding external electric field

     Computed dipole along edir(3) : 
        Dipole                1.0835 Ry au,          2.7540 Debye
        Dipole field          0.0020 Ry au, 
 
        Potential amp.       -0.1895 Ry
        Total length         46.3494 bohr
 

     total cpu time spent up to now is      496.3 secs

     total energy              =   -2917.92840216 Ry
     estimated scf accuracy    <       0.14176113 Ry

     iteration # 29     ecut=    29.40 Ry     beta= 0.05
     Davidson diagonalization with overlap
     ethr =  3.64E-05,  avg # of iterations =  8.4

     negative rho (up, down):  1.500E-02 0.000E+00
 
     Adding external electric field

     Computed dipole along edir(3) : 
        Dipole                0.9150 Ry au,          2.3258 Debye
        Dipole field          0.0017 Ry au, 
 
        Potential amp.       -0.1601 Ry
        Total length         46.3494 bohr
 

     total cpu time spent up to now is      521.4 secs

     total energy              =   -2917.91507377 Ry
     estimated scf accuracy    <       0.33430009 Ry

     iteration # 30     ecut=    29.40 Ry     beta= 0.05
     Davidson diagonalization with overlap
     c_bands:  1 eigenvalues not converged
     c_bands:  4 eigenvalues not converged
     c_bands:  4 eigenvalues not converged
     ethr =  3.64E-05,  avg # of iterations = 12.2

     negative rho (up, down):  1.753E-02 0.000E+00
 
     Adding external electric field

     Computed dipole along edir(3) : 
        Dipole                0.8323 Ry au,          2.1155 Debye
        Dipole field          0.0016 Ry au, 
 
        Potential amp.       -0.1456 Ry
        Total length         46.3494 bohr
 

     total cpu time spent up to now is      537.5 secs

     total energy              =   -2917.91473870 Ry
     estimated scf accuracy    <       0.03161080 Ry

     iteration # 31     ecut=    29.40 Ry     beta= 0.05
     Davidson diagonalization with overlap
     c_bands:  2 eigenvalues not converged
     c_bands:  1 eigenvalues not converged
     c_bands:  1 eigenvalues not converged
     c_bands:  2 eigenvalues not converged
     c_bands:  2 eigenvalues not converged
     c_bands:  2 eigenvalues not converged
     c_bands:  1 eigenvalues not converged
     c_bands:  2 eigenvalues not converged
     c_bands:  1 eigenvalues not converged
     ethr =  8.13E-06,  avg # of iterations = 19.5

     negative rho (up, down):  1.731E-02 0.000E+00
 
     Adding external electric field

     Computed dipole along edir(3) : 
        Dipole                0.8511 Ry au,          2.1633 Debye
        Dipole field          0.0016 Ry au, 
 
        Potential amp.       -0.1489 Ry
        Total length         46.3494 bohr
 

     total cpu time spent up to now is      554.6 secs

     total energy              =   -2917.92640329 Ry
     estimated scf accuracy    <       0.06350798 Ry

     iteration # 32     ecut=    29.40 Ry     beta= 0.05
     Davidson diagonalization with overlap
     c_bands:  1 eigenvalues not converged
     c_bands:  1 eigenvalues not converged
     ethr =  8.13E-06,  avg # of iterations =  8.8

     negative rho (up, down):  1.840E-02 0.000E+00
 
     Adding external electric field

     Computed dipole along edir(3) : 
        Dipole                0.9475 Ry au,          2.4083 Debye
        Dipole field          0.0018 Ry au, 
 
        Potential amp.       -0.1657 Ry
        Total length         46.3494 bohr
 

     total cpu time spent up to now is      560.7 secs

     total energy              =   -2917.91447782 Ry
     estimated scf accuracy    <       0.05265408 Ry

     iteration # 33     ecut=    29.40 Ry     beta= 0.05
     Davidson diagonalization with overlap
     c_bands:  1 eigenvalues not converged
     c_bands:  2 eigenvalues not converged
     c_bands:  3 eigenvalues not converged
     c_bands:  1 eigenvalues not converged
     ethr =  8.13E-06,  avg # of iterations = 19.3

     negative rho (up, down):  1.945E-02 0.000E+00
 
     Adding external electric field

     Computed dipole along edir(3) : 
        Dipole                0.9079 Ry au,          2.3076 Debye
        Dipole field          0.0017 Ry au, 
 
        Potential amp.       -0.1588 Ry
        Total length         46.3494 bohr
 

     total cpu time spent up to now is      581.2 secs

     total energy              =   -2917.91968916 Ry
     estimated scf accuracy    <       0.01820006 Ry

     iteration # 34     ecut=    29.40 Ry     beta= 0.05
     Davidson diagonalization with overlap
     c_bands:  1 eigenvalues not converged
     c_bands:  1 eigenvalues not converged
     c_bands:  1 eigenvalues not converged
     ethr =  4.68E-06,  avg # of iterations = 14.5

     negative rho (up, down):  2.120E-02 0.000E+00
 
     Adding external electric field

     Computed dipole along edir(3) : 
        Dipole                0.8984 Ry au,          2.2836 Debye
        Dipole field          0.0017 Ry au, 
 
        Potential amp.       -0.1572 Ry
        Total length         46.3494 bohr
 

     total cpu time spent up to now is      593.7 secs

     total energy              =   -2917.92407265 Ry
     estimated scf accuracy    <       0.02258176 Ry

     iteration # 35     ecut=    29.40 Ry     beta= 0.05
     Davidson diagonalization with overlap
     ethr =  4.68E-06,  avg # of iterations =  2.0

     negative rho (up, down):  2.242E-02 0.000E+00
 
     Adding external electric field

     Computed dipole along edir(3) : 
        Dipole                0.8559 Ry au,          2.1755 Debye
        Dipole field          0.0016 Ry au, 
 
        Potential amp.       -0.1497 Ry
        Total length         46.3494 bohr
 

     total cpu time spent up to now is      600.9 secs

     total energy              =   -2917.92295331 Ry
     estimated scf accuracy    <       0.01538718 Ry

     iteration # 36     ecut=    29.40 Ry     beta= 0.05
     Davidson diagonalization with overlap
     c_bands:  1 eigenvalues not converged
     c_bands:  2 eigenvalues not converged
     ethr =  3.96E-06,  avg # of iterations = 14.5

     negative rho (up, down):  1.882E-02 0.000E+00
 
     Adding external electric field

     Computed dipole along edir(3) : 
        Dipole                0.7673 Ry au,          1.9504 Debye
        Dipole field          0.0014 Ry au, 
 
        Potential amp.       -0.1342 Ry
        Total length         46.3494 bohr
 

     total cpu time spent up to now is      610.2 secs

     total energy              =   -2917.92152108 Ry
     estimated scf accuracy    <       0.01175942 Ry

     iteration # 37     ecut=    29.40 Ry     beta= 0.05
     Davidson diagonalization with overlap
     c_bands:  1 eigenvalues not converged
     c_bands:  1 eigenvalues not converged
     c_bands:  1 eigenvalues not converged
     ethr =  3.02E-06,  avg # of iterations = 16.1

     negative rho (up, down):  1.987E-02 0.000E+00
 
     Adding external electric field

     Computed dipole along edir(3) : 
        Dipole                0.7677 Ry au,          1.9513 Debye
        Dipole field          0.0014 Ry au, 
 
        Potential amp.       -0.1343 Ry
        Total length         46.3494 bohr
 

     total cpu time spent up to now is      619.7 secs

     total energy              =   -2917.92193257 Ry
     estimated scf accuracy    <       0.01153972 Ry

     iteration # 38     ecut=    29.40 Ry     beta= 0.05
     Davidson diagonalization with overlap
     c_bands:  1 eigenvalues not converged
     ethr =  2.97E-06,  avg # of iterations = 10.4

     negative rho (up, down):  2.153E-02 0.000E+00
 
     Adding external electric field

     Computed dipole along edir(3) : 
        Dipole                0.7945 Ry au,          2.0194 Debye
        Dipole field          0.0015 Ry au, 
 
        Potential amp.       -0.1390 Ry
        Total length         46.3494 bohr
 

     total cpu time spent up to now is      625.4 secs

     total energy              =   -2917.92203806 Ry
     estimated scf accuracy    <       0.00357385 Ry

     iteration # 39     ecut=    29.40 Ry     beta= 0.05
     Davidson diagonalization with overlap
     c_bands:  5 eigenvalues not converged
     c_bands:  1 eigenvalues not converged
     c_bands:  2 eigenvalues not converged
     c_bands:  2 eigenvalues not converged
     ethr =  9.19E-07,  avg # of iterations = 18.1

     negative rho (up, down):  1.966E-02 0.000E+00
 
     Adding external electric field

     Computed dipole along edir(3) : 
        Dipole                0.7885 Ry au,          2.0041 Debye
        Dipole field          0.0015 Ry au, 
 
        Potential amp.       -0.1379 Ry
        Total length         46.3494 bohr
 

     total cpu time spent up to now is      638.0 secs

     total energy              =   -2917.92240033 Ry
     estimated scf accuracy    <       0.00425959 Ry

     iteration # 40     ecut=    29.40 Ry     beta= 0.05
     Davidson diagonalization with overlap
     ethr =  9.19E-07,  avg # of iterations =  7.7

     negative rho (up, down):  1.933E-02 0.000E+00
 
     Adding external electric field

     Computed dipole along edir(3) : 
        Dipole                0.7773 Ry au,          1.9756 Debye
        Dipole field          0.0015 Ry au, 
 
        Potential amp.       -0.1360 Ry
        Total length         46.3494 bohr
 

     total cpu time spent up to now is      645.8 secs

     total energy              =   -2917.92254378 Ry
     estimated scf accuracy    <       0.00174371 Ry

     iteration # 41     ecut=    29.40 Ry     beta= 0.05
     Davidson diagonalization with overlap
     c_bands:  1 eigenvalues not converged
     ethr =  4.48E-07,  avg # of iterations = 12.4

     negative rho (up, down):  1.976E-02 0.000E+00
 
     Adding external electric field

     Computed dipole along edir(3) : 
        Dipole                0.7842 Ry au,          1.9933 Debye
        Dipole field          0.0015 Ry au, 
 
        Potential amp.       -0.1372 Ry
        Total length         46.3494 bohr
 

     total cpu time spent up to now is      655.4 secs

     total energy              =   -2917.92243278 Ry
     estimated scf accuracy    <       0.00116245 Ry

     iteration # 42     ecut=    29.40 Ry     beta= 0.05
     Davidson diagonalization with overlap
     ethr =  2.99E-07,  avg # of iterations =  6.0

     negative rho (up, down):  1.953E-02 0.000E+00
 
     Adding external electric field

     Computed dipole along edir(3) : 
        Dipole                0.7811 Ry au,          1.9852 Debye
        Dipole field          0.0015 Ry au, 
 
        Potential amp.       -0.1366 Ry
        Total length         46.3494 bohr
 

     total cpu time spent up to now is      661.2 secs

     total energy              =   -2917.92251793 Ry
     estimated scf accuracy    <       0.00060679 Ry

     iteration # 43     ecut=    29.40 Ry     beta= 0.05
     Davidson diagonalization with overlap
     ethr =  1.56E-07,  avg # of iterations = 11.4

     negative rho (up, down):  1.913E-02 0.000E+00
 
     Adding external electric field

     Computed dipole along edir(3) : 
        Dipole                0.7757 Ry au,          1.9715 Debye
        Dipole field          0.0015 Ry au, 
 
        Potential amp.       -0.1357 Ry
        Total length         46.3494 bohr
 

     total cpu time spent up to now is      667.6 secs

     total energy              =   -2917.92254952 Ry
     estimated scf accuracy    <       0.00028579 Ry

     iteration # 44     ecut=    29.40 Ry     beta= 0.05
     Davidson diagonalization with overlap
     c_bands:  1 eigenvalues not converged
     ethr =  7.35E-08,  avg # of iterations = 13.9

     negative rho (up, down):  1.916E-02 0.000E+00
 
     Adding external electric field

     Computed dipole along edir(3) : 
        Dipole                0.7754 Ry au,          1.9709 Debye
        Dipole field          0.0015 Ry au, 
 
        Potential amp.       -0.1356 Ry
        Total length         46.3494 bohr
 

     total cpu time spent up to now is      678.6 secs

     total energy              =   -2917.92261446 Ry
     estimated scf accuracy    <       0.00021946 Ry

     iteration # 45     ecut=    29.40 Ry     beta= 0.05
     Davidson diagonalization with overlap
     ethr =  5.64E-08,  avg # of iterations =  3.7

     negative rho (up, down):  1.922E-02 0.000E+00
 
     Adding external electric field

     Computed dipole along edir(3) : 
        Dipole                0.7752 Ry au,          1.9703 Debye
        Dipole field          0.0015 Ry au, 
 
        Potential amp.       -0.1356 Ry
        Total length         46.3494 bohr
 

     total cpu time spent up to now is      685.2 secs

     total energy              =   -2917.92262063 Ry
     estimated scf accuracy    <       0.00018019 Ry

     iteration # 46     ecut=    29.40 Ry     beta= 0.05
     Davidson diagonalization with overlap
     ethr =  4.63E-08,  avg # of iterations =  6.2

     negative rho (up, down):  1.925E-02 0.000E+00
 
     Adding external electric field

     Computed dipole along edir(3) : 
        Dipole                0.7735 Ry au,          1.9660 Debye
        Dipole field          0.0015 Ry au, 
 
        Potential amp.       -0.1353 Ry
        Total length         46.3494 bohr
 

     total cpu time spent up to now is      690.0 secs

     total energy              =   -2917.92265026 Ry
     estimated scf accuracy    <       0.00008492 Ry

     iteration # 47     ecut=    29.40 Ry     beta= 0.05
     Davidson diagonalization with overlap
     ethr =  2.18E-08,  avg # of iterations = 11.7

     negative rho (up, down):  1.910E-02 0.000E+00
 
     Adding external electric field

     Computed dipole along edir(3) : 
        Dipole                0.7734 Ry au,          1.9657 Debye
        Dipole field          0.0015 Ry au, 
 
        Potential amp.       -0.1353 Ry
        Total length         46.3494 bohr
 

     total cpu time spent up to now is      705.4 secs

     total energy              =   -2917.92266651 Ry
     estimated scf accuracy    <       0.00004046 Ry

     iteration # 48     ecut=    29.40 Ry     beta= 0.05
     Davidson diagonalization with overlap
     ethr =  1.04E-08,  avg # of iterations = 10.1

     negative rho (up, down):  1.883E-02 0.000E+00
 
     Adding external electric field

     Computed dipole along edir(3) : 
        Dipole                0.7730 Ry au,          1.9648 Debye
        Dipole field          0.0015 Ry au, 
 
        Potential amp.       -0.1352 Ry
        Total length         46.3494 bohr
 

     total cpu time spent up to now is      726.9 secs

     total energy              =   -2917.92267719 Ry
     estimated scf accuracy    <       0.00003087 Ry

     iteration # 49     ecut=    29.40 Ry     beta= 0.05
     Davidson diagonalization with overlap
     ethr =  7.93E-09,  avg # of iterations =  9.7

     negative rho (up, down):  1.879E-02 0.000E+00
 
     Adding external electric field

     Computed dipole along edir(3) : 
        Dipole                0.7730 Ry au,          1.9647 Debye
        Dipole field          0.0015 Ry au, 
 
        Potential amp.       -0.1352 Ry
        Total length         46.3494 bohr
 

     total cpu time spent up to now is      752.0 secs

     total energy              =   -2917.92269432 Ry
     estimated scf accuracy    <       0.00002287 Ry

     iteration # 50     ecut=    29.40 Ry     beta= 0.05
     Davidson diagonalization with overlap
     ethr =  5.88E-09,  avg # of iterations =  5.0

     negative rho (up, down):  1.876E-02 0.000E+00
 
     Adding external electric field

     Computed dipole along edir(3) : 
        Dipole                0.7729 Ry au,          1.9646 Debye
        Dipole field          0.0015 Ry au, 
 
        Potential amp.       -0.1352 Ry
        Total length         46.3494 bohr
 

     total cpu time spent up to now is      758.8 secs

     total energy              =   -2917.92270296 Ry
     estimated scf accuracy    <       0.00001255 Ry

     iteration # 51     ecut=    29.40 Ry     beta= 0.05
     Davidson diagonalization with overlap
     c_bands:  1 eigenvalues not converged
     c_bands:  2 eigenvalues not converged
     c_bands:  1 eigenvalues not converged
     c_bands:  1 eigenvalues not converged
     ethr =  3.23E-09,  avg # of iterations = 17.6

     negative rho (up, down):  1.866E-02 0.000E+00
 
     Adding external electric field

     Computed dipole along edir(3) : 
        Dipole                0.7720 Ry au,          1.9622 Debye
        Dipole field          0.0015 Ry au, 
 
        Potential amp.       -0.1350 Ry
        Total length         46.3494 bohr
 

     total cpu time spent up to now is      782.6 secs

     total energy              =   -2917.92271107 Ry
     estimated scf accuracy    <       0.00006744 Ry

     iteration # 52     ecut=    29.40 Ry     beta= 0.05
     Davidson diagonalization with overlap
     ethr =  3.23E-09,  avg # of iterations = 11.0

     negative rho (up, down):  1.864E-02 0.000E+00
 
     Adding external electric field

     Computed dipole along edir(3) : 
        Dipole                0.7724 Ry au,          1.9633 Debye
        Dipole field          0.0015 Ry au, 
 
        Potential amp.       -0.1351 Ry
        Total length         46.3494 bohr
 

     total cpu time spent up to now is      805.2 secs

     total energy              =   -2917.92272506 Ry
     estimated scf accuracy    <       0.00000954 Ry

     iteration # 53     ecut=    29.40 Ry     beta= 0.05
     Davidson diagonalization with overlap
     ethr =  2.45E-09,  avg # of iterations =  2.4

     negative rho (up, down):  1.853E-02 0.000E+00
 
     Adding external electric field

     Computed dipole along edir(3) : 
        Dipole                0.7729 Ry au,          1.9646 Debye
        Dipole field          0.0015 Ry au, 
 
        Potential amp.       -0.1352 Ry
        Total length         46.3494 bohr
 

     total cpu time spent up to now is      809.0 secs

     total energy              =   -2917.92273257 Ry
     estimated scf accuracy    <       0.00000783 Ry

     iteration # 54     ecut=    29.40 Ry     beta= 0.05
     Davidson diagonalization with overlap
     ethr =  2.01E-09,  avg # of iterations = 12.0

     negative rho (up, down):  1.852E-02 0.000E+00
 
     Adding external electric field

     Computed dipole along edir(3) : 
        Dipole                0.7722 Ry au,          1.9628 Debye
        Dipole field          0.0015 Ry au, 
 
        Potential amp.       -0.1351 Ry
        Total length         46.3494 bohr
 

     total cpu time spent up to now is      831.8 secs

     total energy              =   -2917.92274074 Ry
     estimated scf accuracy    <       0.00000772 Ry

     iteration # 55     ecut=    29.40 Ry     beta= 0.05
     Davidson diagonalization with overlap
     ethr =  1.99E-09,  avg # of iterations =  2.0

     negative rho (up, down):  1.850E-02 0.000E+00
 
     Adding external electric field

     Computed dipole along edir(3) : 
        Dipole                0.7709 Ry au,          1.9595 Debye
        Dipole field          0.0015 Ry au, 
 
        Potential amp.       -0.1349 Ry
        Total length         46.3494 bohr
 

     total cpu time spent up to now is      835.5 secs

     total energy              =   -2917.92274666 Ry
     estimated scf accuracy    <       0.00000344 Ry

     iteration # 56     ecut=    29.40 Ry     beta= 0.05
     Davidson diagonalization with overlap
     c_bands:  1 eigenvalues not converged
     ethr =  8.85E-10,  avg # of iterations = 12.5

     negative rho (up, down):  1.846E-02 0.000E+00
 
     Adding external electric field

     Computed dipole along edir(3) : 
        Dipole                0.7707 Ry au,          1.9590 Debye
        Dipole field          0.0015 Ry au, 
 
        Potential amp.       -0.1348 Ry
        Total length         46.3494 bohr
 

     total cpu time spent up to now is      857.8 secs

     total energy              =   -2917.92275398 Ry
     estimated scf accuracy    <       0.00000444 Ry

     iteration # 57     ecut=    29.40 Ry     beta= 0.05
     Davidson diagonalization with overlap
     ethr =  8.85E-10,  avg # of iterations =  4.4

     negative rho (up, down):  1.846E-02 0.000E+00
 
     Adding external electric field

     Computed dipole along edir(3) : 
        Dipole                0.7708 Ry au,          1.9592 Debye
        Dipole field          0.0015 Ry au, 
 
        Potential amp.       -0.1348 Ry
        Total length         46.3494 bohr
 

     total cpu time spent up to now is      876.9 secs

     total energy              =   -2917.92275939 Ry
     estimated scf accuracy    <       0.00000233 Ry

     iteration # 58     ecut=    29.40 Ry     beta= 0.05
     Davidson diagonalization with overlap
     ethr =  6.00E-10,  avg # of iterations =  6.9

     negative rho (up, down):  1.845E-02 0.000E+00
 
     Adding external electric field

     Computed dipole along edir(3) : 
        Dipole                0.7707 Ry au,          1.9590 Debye
        Dipole field          0.0015 Ry au, 
 
        Potential amp.       -0.1348 Ry
        Total length         46.3494 bohr
 

     total cpu time spent up to now is      887.7 secs

     total energy              =   -2917.92276432 Ry
     estimated scf accuracy    <       0.00000115 Ry

     iteration # 59     ecut=    29.40 Ry     beta= 0.05
     Davidson diagonalization with overlap
     ethr =  2.97E-10,  avg # of iterations =  7.8

     negative rho (up, down):  1.845E-02 0.000E+00
 
     Adding external electric field

     Computed dipole along edir(3) : 
        Dipole                0.7708 Ry au,          1.9591 Debye
        Dipole field          0.0015 Ry au, 
 
        Potential amp.       -0.1348 Ry
        Total length         46.3494 bohr
 

     total cpu time spent up to now is      896.8 secs

     total energy              =   -2917.92276871 Ry
     estimated scf accuracy    <       0.00000082 Ry

     iteration # 60     ecut=    29.40 Ry     beta= 0.05
     Davidson diagonalization with overlap
     ethr =  2.11E-10,  avg # of iterations =  6.8

     negative rho (up, down):  1.844E-02 0.000E+00
 
     Adding external electric field

     Computed dipole along edir(3) : 
        Dipole                0.7708 Ry au,          1.9591 Debye
        Dipole field          0.0015 Ry au, 
 
        Potential amp.       -0.1348 Ry
        Total length         46.3494 bohr
 

     total cpu time spent up to now is      916.0 secs

     total energy              =   -2917.92277281 Ry
     estimated scf accuracy    <       0.00000027 Ry

     iteration # 61     ecut=    29.40 Ry     beta= 0.05
     Davidson diagonalization with overlap
     c_bands:  1 eigenvalues not converged
     ethr =  7.05E-11,  avg # of iterations = 12.9

     negative rho (up, down):  1.841E-02 0.000E+00
 
     Adding external electric field

     Computed dipole along edir(3) : 
        Dipole                0.7702 Ry au,          1.9577 Debye
        Dipole field          0.0015 Ry au, 
 
        Potential amp.       -0.1347 Ry
        Total length         46.3494 bohr
 

     total cpu time spent up to now is      927.1 secs

     total energy              =   -2917.92277656 Ry
     estimated scf accuracy    <       0.00000028 Ry

     iteration # 62     ecut=    29.40 Ry     beta= 0.05
     Davidson diagonalization with overlap
     ethr =  7.05E-11,  avg # of iterations = 11.4

     negative rho (up, down):  1.840E-02 0.000E+00
 
     Adding external electric field

     Computed dipole along edir(3) : 
        Dipole                0.7701 Ry au,          1.9575 Debye
        Dipole field          0.0015 Ry au, 
 
        Potential amp.       -0.1347 Ry
        Total length         46.3494 bohr
 

     total cpu time spent up to now is      945.9 secs

     total energy              =   -2917.92277989 Ry
     estimated scf accuracy    <       0.00000013 Ry

     iteration # 63     ecut=    29.40 Ry     beta= 0.05
     Davidson diagonalization with overlap
     ethr =  3.43E-11,  avg # of iterations =  9.0

     negative rho (up, down):  1.840E-02 0.000E+00
 
     Adding external electric field

     Computed dipole along edir(3) : 
        Dipole                0.7702 Ry au,          1.9576 Debye
        Dipole field          0.0015 Ry au, 
 
        Potential amp.       -0.1347 Ry
        Total length         46.3494 bohr
 

     total cpu time spent up to now is      960.2 secs

     total energy              =   -2917.92278289 Ry
     estimated scf accuracy    <       0.00000019 Ry

     iteration # 64     ecut=    29.40 Ry     beta= 0.05
     Davidson diagonalization with overlap
     ethr =  3.43E-11,  avg # of iterations =  2.9

     negative rho (up, down):  1.840E-02 0.000E+00
 
     Adding external electric field

     Computed dipole along edir(3) : 
        Dipole                0.7702 Ry au,          1.9576 Debye
        Dipole field          0.0015 Ry au, 
 
        Potential amp.       -0.1347 Ry
        Total length         46.3494 bohr
 

     total cpu time spent up to now is      968.7 secs

     total energy              =   -2917.92278554 Ry
     estimated scf accuracy    <       0.00000010 Ry

     iteration # 65     ecut=    29.40 Ry     beta= 0.05
     Davidson diagonalization with overlap
     ethr =  2.46E-11,  avg # of iterations = 13.3

     negative rho (up, down):  1.839E-02 0.000E+00
 
     Adding external electric field

     Computed dipole along edir(3) : 
        Dipole                0.7700 Ry au,          1.9571 Debye
        Dipole field          0.0015 Ry au, 
 
        Potential amp.       -0.1347 Ry
        Total length         46.3494 bohr
 

     total cpu time spent up to now is      982.3 secs

     total energy              =   -2917.92278801 Ry
     estimated scf accuracy    <       0.00000012 Ry

     iteration # 66     ecut=    29.40 Ry     beta= 0.05
     Davidson diagonalization with overlap
     ethr =  2.46E-11,  avg # of iterations =  9.5

     negative rho (up, down):  1.842E-02 0.000E+00
 
     Adding external electric field

     Computed dipole along edir(3) : 
        Dipole                0.7698 Ry au,          1.9566 Debye
        Dipole field          0.0015 Ry au, 
 
        Potential amp.       -0.1347 Ry
        Total length         46.3494 bohr
 

     total cpu time spent up to now is      994.4 secs

     End of self-consistent calculation

          k = 0.0000 0.0000 0.0000 ( 18029 PWs)   bands (ev):

   -55.9941 -55.9852 -55.9601 -55.9489 -55.8720 -55.8421 -55.8220 -55.8077
   -55.8032 -55.7692 -55.7669 -55.7332 -55.5193 -55.2496 -54.9714 -54.9373
   -32.5397 -32.4764 -32.3433 -32.3241 -32.3020 -32.2970 -32.2871 -32.2575
   -32.2368 -32.2119 -32.2051 -32.1830 -32.1654 -32.1463 -32.1383 -32.1251
   -32.1044 -32.0983 -32.0841 -32.0513 -32.0508 -32.0479 -32.0017 -32.0004
   -31.9991 -31.9975 -31.9911 -31.9834 -31.9692 -31.9570 -31.9490 -31.9425
   -31.9336 -31.9335 -31.9201 -31.9107 -31.8791 -31.7692 -31.7015 -31.5377
   -31.5040 -31.4613 -31.3786 -31.2902 -31.2678 -31.1953 -31.1088 -30.9977
   -16.7368 -16.4683 -16.2433 -16.1463 -16.1154 -15.9991 -15.8331 -15.7146
   -15.6637 -15.5657 -15.5520 -15.5301 -15.4965 -15.4660 -15.4635 -15.4376
   -15.4341 -15.4147 -15.4015 -15.3537 -15.3314 -15.2970 -15.1991 -15.1683
   -15.1283 -15.1004 -15.0594 -15.0500 -14.9188 -14.5619 -13.4740 -13.3576
    -7.5613  -4.3336  -4.1145  -4.0022  -3.9489  -3.8996  -3.8410  -3.6347
    -3.5433  -3.5201  -3.2246  -3.1782  -3.1606  -3.1483  -3.1099  -2.8943
    -2.8407  -2.8090  -2.7879  -2.7738  -2.7626  -2.7548  -2.7345  -2.7079
    -2.5946  -2.5385  -2.5353  -2.4124  -2.3847  -2.3274  -2.3062  -2.2592
    -2.2438  -2.2351  -2.2083  -2.1969  -2.1837  -2.1524  -2.0756  -1.9617
    -1.8113  -1.7924  -1.7565  -1.6295  -1.6014  -1.5414  -1.4500  -1.4344
    -1.4198  -1.3855  -1.3682  -1.2971  -1.1713  -1.1469  -1.1374  -1.0365
    -0.9898  -0.9716  -0.8750  -0.8396  -0.7697  -0.7583  -0.7470  -0.7099
    -0.5490  -0.4920  -0.4626  -0.3960  -0.3664  -0.3069  -0.2945  -0.2656
    -0.1835  -0.1308  -0.1109  -0.1050  -0.0557  -0.0194  -0.0028   0.0068
     0.0179   0.0321   0.2045   0.2775   0.2844   0.3631   0.3730   0.5343
     0.5949   0.6629   0.7708   0.9760   1.0504   1.1397   1.2429   1.4386
     1.6218   1.6674   3.1421   3.2258   3.2740   3.2834   3.3848   3.4215
     3.5954   3.6017   3.6158   3.6898

          k = 0.0000 0.0419 0.0000 ( 17933 PWs)   bands (ev):

   -55.9891 -55.9800 -55.9650 -55.9540 -55.8687 -55.8370 -55.8251 -55.8127
   -55.7982 -55.7741 -55.7619 -55.7380 -55.5188 -55.2500 -54.9663 -54.9422
   -32.4823 -32.4224 -32.2886 -32.2839 -32.2824 -32.2747 -32.2698 -32.2200
   -32.2160 -32.2089 -32.2010 -32.1970 -32.1683 -32.1616 -32.1549 -32.1475
   -32.1325 -32.0920 -32.0708 -32.0652 -32.0454 -32.0399 -32.0144 -32.0134
   -32.0077 -32.0050 -31.9968 -31.9934 -31.9906 -31.9811 -31.9727 -31.9633
   -31.9409 -31.9387 -31.9351 -31.9227 -31.9219 -31.7685 -31.6988 -31.5656
   -31.5039 -31.4731 -31.3244 -31.2867 -31.2708 -31.1827 -31.1213 -31.0548
   -16.6007 -16.3481 -16.1333 -16.0367 -16.0136 -15.9639 -15.8593 -15.7716
   -15.7502 -15.5904 -15.5431 -15.5248 -15.5137 -15.4946 -15.4711 -15.4559
   -15.4508 -15.4123 -15.4022 -15.3799 -15.3379 -15.2755 -15.2238 -15.2083
   -15.1867 -15.1532 -15.1067 -15.0718 -14.9290 -14.6376 -13.4781 -13.3971
    -7.5595  -4.3263  -3.9218  -3.8721  -3.7850  -3.7235  -3.6835  -3.4933
    -3.4059  -3.3083  -3.2120  -3.1636  -3.0682  -3.0471  -3.0301  -2.9690
    -2.9471  -2.9392  -2.8806  -2.8624  -2.8102  -2.7680  -2.7468  -2.7242
    -2.6842  -2.6744  -2.6563  -2.6195  -2.5153  -2.4963  -2.4827  -2.4573
    -2.4124  -2.2816  -2.2370  -2.2333  -2.1315  -2.0182  -1.9380  -1.8830
    -1.7563  -1.6898  -1.6747  -1.6481  -1.5836  -1.3874  -1.3511  -1.3107
    -1.2969  -1.2667  -1.2300  -1.2012  -1.0767  -1.0060  -0.9880  -0.9449
    -0.9043  -0.8929  -0.8752  -0.8458  -0.8113  -0.8014  -0.7475  -0.6819
    -0.6143  -0.5653  -0.5182  -0.4865  -0.4780  -0.4562  -0.3793  -0.2972
    -0.2530  -0.2268  -0.1897  -0.1812  -0.1536  -0.1160  -0.1036  -0.0248
     0.0348   0.0689   0.1406   0.1932   0.2189   0.2844   0.3377   0.3470
     0.3959   0.5340   0.6691   0.7034   1.0150   1.2395   1.3219   1.3301
     1.5758   1.5793   3.3335   3.3765   3.3919   3.4524   3.4955   3.5410
     3.5836   3.6266   3.6617   3.7028

          k = 0.0000-0.0839 0.0000 ( 17884 PWs)   bands (ev):

   -55.9774 -55.9766 -55.9696 -55.9642 -55.8650 -55.8288 -55.8252 -55.8244
   -55.7869 -55.7853 -55.7507 -55.7491 -55.5182 -55.2504 -54.9543 -54.9542
   -32.3449 -32.3398 -32.2905 -32.2898 -32.2728 -32.2720 -32.2548 -32.2427
   -32.1834 -32.1770 -32.1734 -32.1686 -32.1571 -32.1514 -32.1373 -32.1128
   -32.1044 -32.0993 -32.0985 -32.0984 -32.0726 -32.0721 -32.0690 -32.0384
   -32.0382 -32.0343 -32.0266 -32.0232 -32.0198 -32.0069 -31.9832 -31.9816
   -31.9608 -31.9579 -31.9304 -31.9299 -31.8829 -31.7678 -31.6977 -31.6038
   -31.5038 -31.4822 -31.2786 -31.2785 -31.1915 -31.1913 -31.1520 -31.1520
   -16.2567 -16.2526 -16.0633 -16.0629 -15.9035 -15.8932 -15.7866 -15.7801
   -15.7712 -15.7509 -15.7098 -15.7073 -15.5556 -15.5515 -15.3998 -15.3732
   -15.3699 -15.3640 -15.3492 -15.3293 -15.3277 -15.2956 -15.2807 -15.2683
   -15.2493 -15.2376 -15.2174 -15.0559 -14.9408 -14.7381 -13.4599 -13.4598
    -7.5578  -4.3228  -3.7082  -3.4627  -3.4495  -3.3931  -3.3853  -3.3649
    -3.3586  -3.2849  -3.2846  -3.2115  -3.1207  -3.1078  -3.1051  -3.1018
    -3.0722  -3.0425  -2.9865  -2.9443  -2.9387  -2.8424  -2.8026  -2.7721
    -2.7473  -2.7409  -2.6943  -2.6724  -2.5900  -2.5791  -2.5554  -2.4388
    -2.3621  -2.3586  -2.3230  -2.0614  -1.9894  -1.8900  -1.8621  -1.7840
    -1.6894  -1.6766  -1.6134  -1.4935  -1.4462  -1.4238  -1.4122  -1.3763
    -1.3589  -1.3231  -1.2560  -1.2100  -1.1802  -1.1115  -1.0635  -1.0479
    -0.9796  -0.8744  -0.7667  -0.7016  -0.6316  -0.6297  -0.6086  -0.6003
    -0.5686  -0.5259  -0.5163  -0.4707  -0.4406  -0.4231  -0.4002  -0.3501
    -0.3168  -0.2967  -0.2713  -0.2612  -0.2361  -0.2035  -0.1863  -0.1804
    -0.1322  -0.1001  -0.0871  -0.0128   0.0993   0.2467   0.2497   0.2625
     0.2880   0.6210   0.6437   0.7176   0.7386   1.2660   1.3829   1.3832
     1.5128   1.5134   3.4538   3.4699   3.4815   3.5071   3.5691   3.5842
     3.6194   3.6943   3.7288   3.7352

          k = 0.0380 0.0000 0.0000 ( 17913 PWs)   bands (ev):

   -55.9940 -55.9851 -55.9600 -55.9488 -55.8718 -55.8420 -55.8219 -55.8076
   -55.8029 -55.7691 -55.7669 -55.7331 -55.5192 -55.2495 -54.9713 -54.9372
   -32.5398 -32.4772 -32.3493 -32.3255 -32.3022 -32.2969 -32.2869 -32.2622
   -32.2368 -32.2081 -32.1928 -32.1824 -32.1653 -32.1434 -32.1312 -32.1247
   -32.0999 -32.0980 -32.0664 -32.0635 -32.0511 -32.0490 -32.0077 -31.9995
   -31.9973 -31.9941 -31.9842 -31.9833 -31.9691 -31.9634 -31.9568 -31.9472
   -31.9334 -31.9333 -31.9202 -31.9097 -31.8794 -31.7713 -31.7014 -31.5376
   -31.5043 -31.4612 -31.3781 -31.2936 -31.2658 -31.1951 -31.1087 -30.9975
   -16.6643 -16.3834 -16.1634 -16.1297 -16.0431 -15.9984 -15.8778 -15.7124
   -15.6994 -15.6856 -15.6605 -15.6127 -15.5863 -15.5620 -15.5429 -15.5169
   -15.3558 -15.3180 -15.2994 -15.2610 -15.2484 -15.2389 -15.2083 -15.1842
   -15.1728 -15.1454 -15.1343 -15.0398 -14.9125 -14.5604 -13.4708 -13.3573
    -7.5594  -4.3330  -4.0307  -3.8915  -3.7140  -3.6779  -3.6214  -3.5374
    -3.5243  -3.4744  -3.4579  -3.2373  -3.2228  -3.1022  -3.0805  -3.0675
    -2.9874  -2.8596  -2.7882  -2.7563  -2.7110  -2.7047  -2.6092  -2.5997
    -2.5633  -2.5078  -2.4455  -2.4263  -2.3816  -2.3417  -2.3212  -2.2663
    -2.2102  -2.1785  -2.1693  -2.0303  -1.9845  -1.9723  -1.9435  -1.8781
    -1.8504  -1.8406  -1.7585  -1.6509  -1.6005  -1.5674  -1.5385  -1.4985
    -1.4281  -1.4150  -1.3420  -1.2817  -1.2734  -1.2641  -1.2483  -1.1307
    -1.0537  -0.9475  -0.8467  -0.8298  -0.8112  -0.7845  -0.7505  -0.7089
    -0.5741  -0.5306  -0.4963  -0.4363  -0.4116  -0.3843  -0.3366  -0.2768
    -0.2620  -0.2357  -0.1949  -0.1670  -0.1479  -0.1336  -0.1153  -0.1036
    -0.0478   0.0861   0.1232   0.1824   0.2008   0.3020   0.3870   0.4071
     0.4184   0.6481   0.6970   0.9789   1.0036   1.0623   1.2124   1.4402
     1.5103   1.5845   3.1765   3.1988   3.4851   3.5046   3.5225   3.5525
     3.5694   3.5945   3.6219   3.6511

          k = 0.0380 0.0419 0.0000 ( 17878 PWs)   bands (ev):

   -55.9890 -55.9798 -55.9649 -55.9539 -55.8686 -55.8370 -55.8251 -55.8127
   -55.7979 -55.7741 -55.7619 -55.7381 -55.5187 -55.2500 -54.9662 -54.9422
   -32.4824 -32.4232 -32.2959 -32.2837 -32.2822 -32.2748 -32.2711 -32.2200
   -32.2163 -32.2113 -32.2032 -32.1846 -32.1682 -32.1615 -32.1550 -32.1371
   -32.1300 -32.0883 -32.0648 -32.0601 -32.0533 -32.0398 -32.0149 -32.0121
   -32.0096 -31.9962 -31.9939 -31.9931 -31.9909 -31.9812 -31.9727 -31.9645
   -31.9597 -31.9406 -31.9306 -31.9274 -31.9209 -31.7704 -31.6988 -31.5655
   -31.5045 -31.4730 -31.3241 -31.2894 -31.2698 -31.1825 -31.1214 -31.0547
   -16.5350 -16.2700 -16.0612 -16.0226 -15.9619 -15.9391 -15.8606 -15.8087
   -15.7515 -15.6500 -15.6088 -15.5900 -15.5834 -15.5723 -15.4902 -15.4717
   -15.4093 -15.3801 -15.3750 -15.3199 -15.3074 -15.2834 -15.2433 -15.2346
   -15.2229 -15.1861 -15.1619 -15.0548 -14.9246 -14.6362 -13.4758 -13.3974
    -7.5584  -4.3247  -3.8531  -3.7949  -3.5533  -3.5144  -3.4484  -3.3788
    -3.3391  -3.3108  -3.2851  -3.1383  -3.0870  -3.0234  -2.9887  -2.9757
    -2.8938  -2.8800  -2.8615  -2.8243  -2.7891  -2.7610  -2.7236  -2.7057
    -2.6835  -2.6460  -2.6169  -2.5883  -2.5280  -2.4789  -2.4484  -2.4204
    -2.3318  -2.2678  -2.2009  -2.1394  -2.0284  -1.9868  -1.9600  -1.9144
    -1.7540  -1.7126  -1.7047  -1.5710  -1.4735  -1.4541  -1.4261  -1.4058
    -1.3703  -1.3121  -1.2662  -1.2404  -1.2030  -1.1393  -1.0994  -1.0582
    -1.0238  -0.9600  -0.9243  -0.8858  -0.8459  -0.7992  -0.7601  -0.7152
    -0.6917  -0.6614  -0.6269  -0.6069  -0.5651  -0.5203  -0.4617  -0.4346
    -0.3937  -0.3274  -0.3048  -0.2821  -0.2422  -0.2023  -0.1053  -0.0504
    -0.0317   0.0880   0.1315   0.2085   0.2318   0.3105   0.3526   0.3954
     0.4360   0.4501   0.6000   0.6674   0.9480   1.2504   1.3276   1.3487
     1.4983   1.5601   3.3220   3.3876   3.4418   3.5027   3.5638   3.5882
     3.6354   3.6791   3.7142   3.7264

          k = 0.0380-0.0839 0.0000 ( 17916 PWs)   bands (ev):

   -55.9774 -55.9766 -55.9696 -55.9642 -55.8650 -55.8288 -55.8252 -55.8245
   -55.7868 -55.7853 -55.7508 -55.7492 -55.5183 -55.2505 -54.9543 -54.9542
   -32.3451 -32.3400 -32.2912 -32.2906 -32.2729 -32.2720 -32.2549 -32.2428
   -32.1885 -32.1842 -32.1804 -32.1752 -32.1386 -32.1365 -32.1310 -32.1141
   -32.1051 -32.0991 -32.0981 -32.0973 -32.0828 -32.0801 -32.0704 -32.0345
   -32.0322 -32.0309 -32.0205 -32.0153 -32.0150 -32.0069 -31.9831 -31.9815
   -31.9608 -31.9580 -31.9422 -31.9418 -31.8826 -31.7698 -31.6977 -31.6037
   -31.5047 -31.4822 -31.2796 -31.2795 -31.1914 -31.1913 -31.1520 -31.1520
   -16.2156 -16.2083 -16.0132 -16.0116 -15.8743 -15.8662 -15.7907 -15.7533
   -15.7293 -15.7111 -15.6916 -15.6836 -15.5687 -15.5642 -15.4540 -15.4358
   -15.4108 -15.4070 -15.3860 -15.3632 -15.3608 -15.3495 -15.3197 -15.2970
   -15.2888 -15.2527 -15.1912 -15.0452 -14.9380 -14.7339 -13.4597 -13.4595
    -7.5575  -4.3201  -3.6919  -3.4579  -3.4367  -3.2389  -3.2225  -3.1803
    -3.1669  -3.1305  -3.0978  -3.0747  -3.0616  -3.0143  -2.9939  -2.9808
    -2.9630  -2.9349  -2.9243  -2.8355  -2.8307  -2.8216  -2.7993  -2.7624
    -2.7106  -2.6971  -2.6724  -2.6421  -2.6255  -2.5747  -2.5469  -2.5070
    -2.4507  -2.1165  -2.1018  -2.0812  -1.9604  -1.9015  -1.8817  -1.8317
    -1.8162  -1.7691  -1.7412  -1.6974  -1.6681  -1.6291  -1.6178  -1.5306
    -1.4669  -1.4467  -1.3613  -1.2565  -1.1883  -1.1232  -1.1040  -1.0461
    -1.0265  -0.9813  -0.8956  -0.8060  -0.7840  -0.7794  -0.7518  -0.7413
    -0.7045  -0.6790  -0.6139  -0.6002  -0.5902  -0.5542  -0.5426  -0.5341
    -0.4576  -0.4112  -0.3730  -0.3589  -0.2451  -0.1867  -0.1386  -0.0788
     0.0270   0.0883   0.1034   0.1298   0.1620   0.1841   0.2399   0.3569
     0.3830   0.5561   0.5722   0.6827   0.7371   1.3006   1.3961   1.3965
     1.5019   1.5026   3.4207   3.4311   3.5042   3.5250   3.5559   3.5709
     3.6609   3.7428   3.7636   3.7714

          k = 0.0380-0.0419 0.0000 ( 17876 PWs)   bands (ev):

   -55.9890 -55.9798 -55.9649 -55.9539 -55.8686 -55.8370 -55.8251 -55.8127
   -55.7979 -55.7741 -55.7619 -55.7381 -55.5187 -55.2500 -54.9662 -54.9422
   -32.4824 -32.4232 -32.2959 -32.2837 -32.2822 -32.2748 -32.2711 -32.2200
   -32.2163 -32.2113 -32.2032 -32.1848 -32.1681 -32.1615 -32.1550 -32.1373
   -32.1300 -32.0883 -32.0648 -32.0597 -32.0533 -32.0399 -32.0149 -32.0122
   -32.0096 -31.9963 -31.9938 -31.9931 -31.9910 -31.9812 -31.9727 -31.9642
   -31.9599 -31.9406 -31.9307 -31.9273 -31.9209 -31.7704 -31.6988 -31.5655
   -31.5045 -31.4730 -31.3241 -31.2894 -31.2698 -31.1825 -31.1214 -31.0547
   -16.5348 -16.2699 -16.0612 -16.0220 -15.9620 -15.9387 -15.8622 -15.8086
   -15.7521 -15.6504 -15.6097 -15.5903 -15.5833 -15.5722 -15.4901 -15.4709
   -15.4072 -15.3798 -15.3751 -15.3197 -15.3084 -15.2831 -15.2435 -15.2350
   -15.2227 -15.1862 -15.1621 -15.0549 -14.9246 -14.6362 -13.4758 -13.3974
    -7.5584  -4.3247  -3.8534  -3.7952  -3.5496  -3.5140  -3.4476  -3.3788
    -3.3382  -3.3093  -3.2893  -3.1387  -3.0920  -3.0266  -2.9891  -2.9748
    -2.8954  -2.8782  -2.8601  -2.8263  -2.7883  -2.7597  -2.7207  -2.7032
    -2.6862  -2.6451  -2.6153  -2.5918  -2.5286  -2.4809  -2.4457  -2.4199
    -2.3285  -2.2644  -2.1996  -2.1376  -2.0203  -1.9876  -1.9540  -1.9055
    -1.7573  -1.7299  -1.7043  -1.5736  -1.4786  -1.4538  -1.4273  -1.4026
    -1.3734  -1.3097  -1.2610  -1.2463  -1.2005  -1.1428  -1.1044  -1.0582
    -1.0263  -0.9777  -0.9207  -0.8909  -0.8453  -0.8025  -0.7758  -0.7215
    -0.6990  -0.6438  -0.6303  -0.6027  -0.5695  -0.5064  -0.4598  -0.4258
    -0.3852  -0.3297  -0.3103  -0.2922  -0.2322  -0.2026  -0.1053  -0.0460
    -0.0229   0.0983   0.1293   0.2023   0.2407   0.3160   0.3460   0.3962
     0.4325   0.4502   0.6019   0.6675   0.9490   1.2504   1.3276   1.3477
     1.4980   1.5607   3.3223   3.3871   3.4430   3.5177   3.5396   3.5805
     3.6348   3.6793   3.7090   3.7288

          k =-0.0760-0.0000 0.0000 ( 17886 PWs)   bands (ev):

   -55.9940 -55.9850 -55.9600 -55.9488 -55.8718 -55.8420 -55.8219 -55.8076
   -55.8027 -55.7691 -55.7670 -55.7331 -55.5192 -55.2495 -54.9712 -54.9372
   -32.5399 -32.4781 -32.3549 -32.3268 -32.3023 -32.2967 -32.2868 -32.2667
   -32.2369 -32.2077 -32.1837 -32.1693 -32.1653 -32.1405 -32.1252 -32.1244
   -32.0979 -32.0954 -32.0892 -32.0515 -32.0489 -32.0182 -32.0111 -32.0102
   -31.9994 -31.9962 -31.9924 -31.9833 -31.9780 -31.9689 -31.9569 -31.9456
   -31.9334 -31.9333 -31.9211 -31.9089 -31.8800 -31.7738 -31.7014 -31.5375
   -31.5050 -31.4611 -31.3777 -31.2968 -31.2645 -31.1950 -31.1086 -30.9976
   -16.5694 -16.2999 -16.0961 -16.0859 -15.9979 -15.9562 -15.8517 -15.7799
   -15.7687 -15.7092 -15.6954 -15.6738 -15.6573 -15.6562 -15.6286 -15.5359
   -15.3582 -15.3335 -15.3298 -15.2747 -15.2420 -15.2415 -15.1780 -15.1735
   -15.1534 -15.1495 -15.0847 -15.0362 -14.9084 -14.5591 -13.4678 -13.3570
    -7.5576  -4.3327  -4.0094  -3.8152  -3.6100  -3.5866  -3.5079  -3.3968
    -3.3781  -3.3315  -3.2549  -3.2415  -3.2270  -3.2187  -3.2138  -3.0161
    -2.8527  -2.7943  -2.7698  -2.7185  -2.6503  -2.6317  -2.5644  -2.5465
    -2.4942  -2.4708  -2.4011  -2.3692  -2.3170  -2.2981  -2.2736  -2.2297
    -2.2242  -2.2159  -2.1975  -2.1705  -2.0912  -2.0767  -1.9829  -1.8026
    -1.7685  -1.7076  -1.6388  -1.6071  -1.5961  -1.5897  -1.5786  -1.5624
    -1.4855  -1.4582  -1.4423  -1.3553  -1.2843  -1.2554  -1.2034  -1.1651
    -1.1588  -1.1495  -1.0258  -0.9287  -0.8400  -0.8154  -0.7698  -0.7038
    -0.6663  -0.6187  -0.6084  -0.5225  -0.5112  -0.4710  -0.4322  -0.3919
    -0.3188  -0.2816  -0.2590  -0.2511  -0.1881  -0.1767  -0.1388  -0.0895
     0.0026   0.0375   0.0623   0.1328   0.2443   0.2620   0.3400   0.4827
     0.4835   0.6073   0.6983   0.7316   0.9904   1.0835   1.1881   1.3809
     1.4383   1.5289   3.1790   3.1822   3.3121   3.4245   3.4773   3.5473
     3.5940   3.6135   3.6685   3.6762

          k =-0.0760 0.0419 0.0000 ( 17914 PWs)   bands (ev):

   -55.9890 -55.9798 -55.9650 -55.9540 -55.8686 -55.8370 -55.8251 -55.8127
   -55.7978 -55.7741 -55.7621 -55.7381 -55.5187 -55.2500 -54.9663 -54.9422
   -32.4828 -32.4242 -32.3027 -32.2838 -32.2822 -32.2751 -32.2726 -32.2205
   -32.2164 -32.2150 -32.2042 -32.1694 -32.1675 -32.1615 -32.1553 -32.1279
   -32.1275 -32.0848 -32.0777 -32.0648 -32.0399 -32.0198 -32.0156 -32.0126
   -32.0112 -31.9999 -31.9955 -31.9928 -31.9912 -31.9814 -31.9800 -31.9726
   -31.9612 -31.9404 -31.9342 -31.9306 -31.9200 -31.7727 -31.6988 -31.5655
   -31.5054 -31.4730 -31.3238 -31.2922 -31.2691 -31.1825 -31.1214 -31.0548
   -16.4502 -16.1863 -16.0102 -15.9799 -15.9585 -15.8655 -15.8583 -15.7540
   -15.7464 -15.7305 -15.6452 -15.6413 -15.6378 -15.6143 -15.5740 -15.5437
   -15.4161 -15.3861 -15.3780 -15.3502 -15.3274 -15.2791 -15.2611 -15.2458
   -15.2095 -15.1757 -15.1555 -15.0497 -14.9216 -14.6351 -13.4737 -13.3977
    -7.5574  -4.3234  -3.8385  -3.7473  -3.4699  -3.3299  -3.2957  -3.1976
    -3.1396  -3.1143  -3.1031  -3.0764  -3.0402  -3.0153  -2.9995  -2.9432
    -2.9406  -2.8807  -2.8585  -2.7877  -2.7748  -2.7174  -2.7083  -2.6842
    -2.6518  -2.5957  -2.5715  -2.4895  -2.4740  -2.4712  -2.4129  -2.3480
    -2.2550  -2.2027  -2.1162  -2.1028  -2.0558  -1.9828  -1.9695  -1.9156
    -1.7800  -1.6790  -1.6154  -1.6035  -1.5566  -1.5455  -1.4933  -1.4340
    -1.4188  -1.3823  -1.3292  -1.2966  -1.2542  -1.2401  -1.2168  -1.1954
    -1.1805  -1.1513  -1.0905  -1.0459  -0.9966  -0.9853  -0.9269  -0.9054
    -0.8027  -0.7534  -0.7292  -0.7179  -0.6339  -0.6084  -0.5897  -0.5290
    -0.4526  -0.4008  -0.3782  -0.3102  -0.2808  -0.1631  -0.1109  -0.0155
     0.0335   0.0962   0.2140   0.2677   0.3014   0.3560   0.3941   0.4535
     0.4593   0.5241   0.5717   0.6011   0.7883   1.2653   1.3310   1.3651
     1.4217   1.5494   3.3082   3.3724   3.3846   3.4631   3.4877   3.5047
     3.6187   3.6412   3.7251   3.7670

          k =-0.0760-0.0839 0.0000 ( 17948 PWs)   bands (ev):

   -55.9774 -55.9766 -55.9696 -55.9642 -55.8650 -55.8288 -55.8253 -55.8245
   -55.7868 -55.7852 -55.7509 -55.7493 -55.5183 -55.2505 -54.9543 -54.9542
   -32.3454 -32.3403 -32.2920 -32.2913 -32.2729 -32.2721 -32.2551 -32.2430
   -32.1949 -32.1888 -32.1826 -32.1758 -32.1390 -32.1206 -32.1156 -32.1143
   -32.1050 -32.0990 -32.0970 -32.0961 -32.0899 -32.0874 -32.0683 -32.0443
   -32.0407 -32.0301 -32.0205 -32.0069 -31.9857 -31.9853 -31.9826 -31.9811
   -31.9656 -31.9648 -31.9610 -31.9579 -31.8823 -31.7717 -31.6977 -31.6036
   -31.5056 -31.4822 -31.2805 -31.2805 -31.1914 -31.1912 -31.1521 -31.1520
   -16.1691 -16.1499 -15.9379 -15.9107 -15.9059 -15.8945 -15.7660 -15.7055
   -15.6889 -15.6870 -15.6082 -15.5867 -15.5651 -15.5375 -15.5260 -15.5136
   -15.5076 -15.4989 -15.4559 -15.4498 -15.4302 -15.4231 -15.3203 -15.3107
   -15.3066 -15.2507 -15.1772 -15.0384 -14.9355 -14.7303 -13.4595 -13.4593
    -7.5572  -4.3176  -3.6840  -3.4595  -3.4368  -3.1683  -3.1512  -3.1423
    -3.0820  -2.9095  -2.8935  -2.8705  -2.8496  -2.8209  -2.8191  -2.7978
    -2.7963  -2.7849  -2.7405  -2.7335  -2.7079  -2.6710  -2.6610  -2.6495
    -2.6409  -2.6170  -2.6066  -2.5648  -2.5352  -2.5281  -2.5133  -2.4897
    -2.3044  -2.2214  -2.1951  -2.1318  -2.1244  -2.0895  -2.0580  -2.0460
    -2.0301  -1.9795  -1.9014  -1.7273  -1.6944  -1.6764  -1.6178  -1.5898
    -1.5488  -1.4634  -1.3946  -1.3702  -1.3640  -1.3157  -1.2070  -1.1853
    -1.1718  -1.0977  -1.0619  -1.0446  -1.0023  -0.9879  -0.9545  -0.9491
    -0.8550  -0.8062  -0.7596  -0.7573  -0.7118  -0.6454  -0.6325  -0.6048
    -0.4960  -0.4771  -0.4047  -0.3777  -0.2761  -0.2098  -0.0104   0.0519
     0.0774   0.1356   0.2159   0.2964   0.3114   0.3253   0.3257   0.3730
     0.4416   0.5382   0.5476   0.6011   0.7058   1.3313   1.4142   1.4148
     1.4872   1.4873   3.4278   3.4377   3.4769   3.4988   3.6349   3.6506
     3.6736   3.6747   3.7297   3.8110

     the Fermi energy is     3.1398 ev

!    total energy              =   -2917.92281022 Ry
     estimated scf accuracy    <       0.00000004 Ry
     smearing contrib. (-TS)   =      -0.02181646 Ry
     internal energy E=F+TS    =   -2917.90099376 Ry

     The total energy is F=E-TS. E is the sum of the following terms:
     one-electron contribution =  -24778.18885980 Ry
     hartree contribution      =   12472.75204670 Ry
     xc contribution           =    -479.18500982 Ry
     ewald contribution        =    9866.71971093 Ry
     electric field correction =       0.00111822 Ry

     convergence has been achieved in  66 iterations

     Forces acting on atoms (cartesian axes, Ry/au):

     atom    1 type  1   force =     0.00017308   -0.00023598    0.09668192
     atom    2 type  1   force =     0.00007000   -0.00052904   -0.17541302
     atom    3 type  2   force =     0.00017973    0.00000623   -0.02478468
     atom    4 type  2   force =     0.00005743   -0.00133467    0.05292088
     atom    5 type  2   force =    -0.01178146    0.00012620    0.00258702
     atom    6 type  2   force =     0.01395036    0.00051236    0.00338868
     atom    7 type  1   force =     0.00129235    0.00070675   -0.01178196
     atom    8 type  1   force =    -0.00005422    0.00766436    0.02821221
     atom    9 type  2   force =    -0.00024223   -0.00023564   -0.00010964
     atom   10 type  2   force =    -0.00220662    0.00206920   -0.01527181
     atom   11 type  2   force =     0.00000051   -0.00009141    0.00023103
     atom   12 type  2   force =    -0.00003679    0.00014642   -0.00006114
     atom   13 type  1   force =    -0.00104856   -0.00024796   -0.00004186
     atom   14 type  1   force =    -0.00021974   -0.00026438    0.00056577
     atom   15 type  2   force =    -0.00030420   -0.00029692   -0.00016761
     atom   16 type  2   force =     0.00025292    0.00007611   -0.00055372
     atom   17 type  2   force =     0.00002335    0.00005682   -0.00021645
     atom   18 type  2   force =    -0.00009012    0.00029374   -0.00052308
     atom   19 type  1   force =    -0.00062205    0.00006749   -0.00031115
     atom   20 type  1   force =     0.00013056   -0.00086950   -0.00008376
     atom   21 type  2   force =     0.00008792   -0.00004784    0.10324095
     atom   22 type  2   force =     0.00044197   -0.00030409   -0.00000705
     atom   23 type  2   force =    -0.07147544   -0.00015675   -0.02768223
     atom   24 type  2   force =     0.07146860    0.00033325   -0.02776722
     atom   25 type  1   force =     0.00018666   -0.00023041    0.09618648
     atom   26 type  1   force =     0.00010841   -0.00029451   -0.17555440
     atom   27 type  2   force =     0.00022336   -0.00011609   -0.02386816
     atom   28 type  2   force =     0.00008995   -0.00110364    0.05286726
     atom   29 type  2   force =    -0.01198558    0.00068179    0.00233744
     atom   30 type  2   force =     0.01401923    0.00103035    0.00318991
     atom   31 type  1   force =     0.00114369    0.00334452   -0.01209873
     atom   32 type  1   force =    -0.00024420   -0.00974186    0.02864248
     atom   33 type  2   force =    -0.00017391    0.00031282   -0.00008209
     atom   34 type  2   force =    -0.00173008    0.00175474   -0.02355530
     atom   35 type  2   force =     0.00000444    0.00008935    0.00022411
     atom   36 type  2   force =     0.00055410    0.00011916    0.00020938
     atom   37 type  1   force =    -0.00099597   -0.00039764    0.00027169
     atom   38 type  1   force =     0.00023300   -0.00011336    0.00050413
     atom   39 type  2   force =    -0.00006001   -0.00055250   -0.00063587
     atom   40 type  2   force =    -0.00004448    0.00025969    0.00044403
     atom   41 type  2   force =    -0.00060847   -0.00047186   -0.00015532
     atom   42 type  2   force =    -0.00018187   -0.00075052   -0.00072195
     atom   43 type  1   force =    -0.00046974    0.00005405   -0.00009516
     atom   44 type  1   force =     0.00013219    0.00023802    0.00055984
     atom   45 type  2   force =     0.00006556   -0.00006807    0.10325284
     atom   46 type  2   force =    -0.07148090   -0.00008477   -0.02769549
     atom   47 type  2   force =     0.07149614    0.00033611   -0.02777218
     atom   48 type  3   force =     0.00106277   -0.00382396    0.00147924
     atom   49 type  4   force =    -0.00171722    0.02071387   -0.00139699
     atom   50 type  5   force =     0.00027300   -0.00845756   -0.00340774
     atom   51 type  5   force =     0.00005260   -0.01017244    0.00381845

     Total force =     0.368850     Total SCF correction =     0.000355
  @ DRIVER MODE: Message from server: STATUS
  @ DRIVER MODE: Message from server: GETFORCE
  @ DRIVER MODE: Returning v,forces,stress,ensemble 

     Writing output data file ./calc.save/
  @ DRIVER MODE: Message from server: EXIT
  @ DRIVE MODE: Exiting  
 
     init_run     :     17.36s CPU     18.54s WALL (       1 calls)
     electrons    :    943.61s CPU    966.42s WALL (       1 calls)
     forces       :      2.19s CPU      2.21s WALL (       1 calls)

     Called by init_run:
     wfcinit      :     12.77s CPU     13.55s WALL (       1 calls)
     potinit      :      3.35s CPU      3.39s WALL (       1 calls)
     hinit0       :      0.47s CPU      0.79s WALL (       1 calls)

     Called by electrons:
     c_bands      :    748.26s CPU    762.53s WALL (      66 calls)
     sum_band     :    121.18s CPU    126.73s WALL (      66 calls)
     v_of_rho     :     44.87s CPU     45.39s WALL (      67 calls)
     newd         :      4.87s CPU      5.09s WALL (      67 calls)
     mix_rho      :     23.54s CPU     25.43s WALL (      66 calls)
     vdW_kernel   :      1.80s CPU      1.81s WALL (       1 calls)

     Called by c_bands:
     init_us_2    :      1.01s CPU      1.09s WALL (    1340 calls)
     cegterg      :    743.55s CPU    757.26s WALL (     661 calls)

     Called by *egterg:
     cdiaghg      :    316.82s CPU    319.86s WALL (    6525 calls)
     h_psi        :    307.55s CPU    315.64s WALL (    6535 calls)
     s_psi        :      9.96s CPU     10.03s WALL (    6535 calls)
     g_psi        :      0.22s CPU      0.23s WALL (    5864 calls)

     Called by h_psi:
     h_psi:calbec :     18.09s CPU     18.49s WALL (    6535 calls)
     vloc_psi     :    277.92s CPU    285.45s WALL (    6535 calls)
     add_vuspsi   :     11.05s CPU     11.20s WALL (    6535 calls)

     General routines
     calbec       :     26.00s CPU     26.44s WALL (    7235 calls)
     fft          :     39.61s CPU     40.26s WALL (    4221 calls)
     ffts         :      0.78s CPU      0.81s WALL (     133 calls)
     fftw         :    383.17s CPU    395.85s WALL (  831106 calls)
     interpolate  :      1.39s CPU      1.47s WALL (      67 calls)
     davcio       :      0.00s CPU      0.52s WALL (      10 calls)
 
     Parallel routines
 
     PWSCF        :  16m14.39s CPU  16m39.41s WALL

 
   This run was terminated on:  12:33: 1  24Aug2021            

=------------------------------------------------------------------------------=
   JOB DONE.
=------------------------------------------------------------------------------=
