
     Program PWSCF v.6.7GPU starts on 18Oct2021 at 23: 8: 1 

     This program is part of the open-source Quantum ESPRESSO suite
     for quantum simulation of materials; please cite
         "P. Giannozzi et al., J. Phys.:Condens. Matter 21 395502 (2009);
         "P. Giannozzi et al., J. Phys.:Condens. Matter 29 465901 (2017);
         "P. Giannozzi et al., J. Chem. Phys. 152 154105 (2020);
          URL http://www.quantum-espresso.org", 
     in publications or presentations arising from this work. More details at
     http://www.quantum-espresso.org/quote

     Parallel version (MPI), running on     8 processors

     MPI processes distributed on     1 nodes
     R & G space division:  proc/nbgrp/npool/nimage =       8
     Reading input from /storage/home/hcoda1/3/ntian30/research/carbon/CxH_vib/Thiel_calc/ads_slab/NH2NHH_perslab/out_0025/pw.inp
Warning: card &CELL ignored
Warning: card   CELL_DYNAMICS='IPI', ignored
Warning: card / ignored

     Current dimensions of program PWSCF are:
     Max number of different atomic species (ntypx) = 10
     Max number of k-points (npk) =  40000
     Max angular momentum in pseudopotentials (lmaxx) =  3
     Presently no symmetry can be used with electric field

     Message from routine cell_base_init:
     DEPRECATED: use true lattice parameter, not A to a.u. conversion factor

     **************************************************************************
     Initializing libbeef V0.1.2 with the BEEF-vdW functional.
     Citation: Wellendorff et al., PRB 85, 235149 (2012).
     **************************************************************************


     IMPORTANT: XC functional enforced from input :
     Exchange-correlation= BEEF-VDW
                           (   1   4  43  14   2   0   0)
     Any further DFT definition will be discarded
     Please, verify this is what you really want


     Subspace diagonalization in iterative solution of the eigenvalue problem:
     one sub-group per band group will be used
     scalapack distributed-memory algorithm (size of sub-group:  2*  2 procs)

  @ DRIVER MODE: Connecting to 
 qe_1139763_3255134.sched-torque.pace.gatech.edujhflhjo5_scratch
  using UNIX socket
  @ DRIVER MODE: Message from server: STATUS
  @ DRIVER MODE: Message from server: INIT
  @ DRIVER MODE: Receiving replica           0          -1
  @ DRIVER MODE: Receiving encoded integer          25
  @ DRIVER MODE:  SCF:  T  FORCE:  T  STRESS:  F  VC:  F  ENSEMBLE:  F
  @ DRIVER MODE:  SCF:  T  FORCE:  T  STRESS:  F  VC:  F  ENSEMBLE:  F
 
     Parallelization info
     --------------------
     sticks:   dense  smooth     PW     G-vecs:    dense   smooth      PW
     Min         614     246     69               106272    26887    3981
     Max         615     248     70               106275    26893    3990
     Sum        4915    1977    553               850181   215109   31863
 
     Using Slab Decomposition
 


     bravais-lattice index     =            0
     lattice parameter (alat)  =       1.8897  a.u.
     unit-cell volume          =    9988.4706 (a.u.)^3
     number of atoms/cell      =           59
     number of atomic types    =            4
     number of electrons       =       440.00
     number of Kohn-Sham states=          230
     kinetic-energy cutoff     =      29.3995  Ry
     charge density cutoff     =     293.9946  Ry
     scf convergence threshold =      7.3E-08
     mixing beta               =       0.0500
     number of iterations used =            8  plain     mixing
     Exchange-correlation= BEEF-VDW
                           (   1   4  43  14   2   0   0)

     celldm(1)=   1.889726  celldm(2)=   0.000000  celldm(3)=   0.000000
     celldm(4)=   0.000000  celldm(5)=   0.000000  celldm(6)=   0.000000

     crystal axes: (cart. coord. in units of alat)
               a(1) = (   6.579727   0.000000   0.000000 )  
               a(2) = (  -0.001163   8.942395   0.000000 )  
               a(3) = (   0.000000   0.000000  25.155947 )  

     reciprocal axes: (cart. coord. in units 2 pi/alat)
               b(1) = (  0.151982  0.000020  0.000000 )  
               b(2) = (  0.000000  0.111827  0.000000 )  
               b(3) = (  0.000000  0.000000  0.039752 )  


     PseudoPot. # 1 for O  read from file:
     /storage/coda1/p-amedford6/0/shared/rich_project_chbe-medford/medford-share/data/pseudos_module/espresso/nninc/pbe/van/O.UPF
     MD5 check sum: 78c19812648e8988a0fe644b0f25305e
     Pseudo is Ultrasoft, Zval =  6.0
     Generated by new atomic code, or converted to UPF format
     Using radial grid of  737 points,  4 beta functions with: 
                l(1) =   0
                l(2) =   0
                l(3) =   1
                l(4) =   1
     Q(r) pseudized with  8 coefficients,  rinner =    0.800   0.800   0.800


     PseudoPot. # 2 for Ti read from file:
     /storage/coda1/p-amedford6/0/shared/rich_project_chbe-medford/medford-share/data/pseudos_module/espresso/nninc/pbe/van/Ti.UPF
     MD5 check sum: 8e4df49b7f0d34bbd5052bf3f5ea0213
     Pseudo is Ultrasoft, Zval = 12.0
     Generated by new atomic code, or converted to UPF format
     Using radial grid of  851 points,  6 beta functions with: 
                l(1) =   0
                l(2) =   0
                l(3) =   1
                l(4) =   1
                l(5) =   2
                l(6) =   2
     Q(r) pseudized with  8 coefficients,  rinner =    1.000   1.000   1.000
                                                       1.000   1.000

     PseudoPot. # 3 for H  read from file:
     /storage/coda1/p-amedford6/0/shared/rich_project_chbe-medford/medford-share/data/pseudos_module/espresso/nninc/pbe/van/H.UPF
     MD5 check sum: b5ee9d7bfd3a09ee7748110bda690ff7
     Pseudo is Ultrasoft, Zval =  1.0
     Generated by new atomic code, or converted to UPF format
     Using radial grid of  615 points,  1 beta functions with: 
                l(1) =   0
     Q(r) pseudized with  8 coefficients,  rinner =    0.800

     PseudoPot. # 4 for N  read from file:
     /storage/coda1/p-amedford6/0/shared/rich_project_chbe-medford/medford-share/data/pseudos_module/espresso/nninc/pbe/van/N.UPF
     MD5 check sum: 90d10febe142ad51ac9d5be1deb811c4
     Pseudo is Ultrasoft, Zval =  5.0
     Generated by new atomic code, or converted to UPF format
     Using radial grid of  729 points,  4 beta functions with: 
                l(1) =   0
                l(2) =   0
                l(3) =   1
                l(4) =   1
     Q(r) pseudized with  8 coefficients,  rinner =    0.800   0.800   0.800


     atomic species   valence    mass     pseudopotential
        O1             6.00    15.99900     O ( 1.00)
        Ti1           12.00    47.86700     Ti( 1.00)
        H1             1.00     1.00800     H ( 1.00)
        N1             5.00    14.00700     N ( 1.00)

     No symmetry found



   Cartesian axes

     site n.     atom                  positions (alat units)
         1           O1  tau(   1) = (   0.0007354   0.0005023  10.5931620  )
         2           O1  tau(   2) = (   3.2887669   8.9343558  13.7857904  )
         3           O1  tau(   3) = (  -0.0004435   8.9037079  17.1656601  )
         4           O1  tau(   4) = (   0.0006271   0.0005054   7.9858123  )
         5           O1  tau(   5) = (   3.2907596   0.0056730  11.1454013  )
         6           O1  tau(   6) = (   0.0000918   8.9024801  14.5153886  )
         7           O1  tau(   7) = (   1.9868534   1.4903216   9.2879459  )
         8           O1  tau(   8) = (   5.2129768   1.5767634  12.5412193  )
         9           O1  tau(   9) = (   2.0410104   1.4081166  15.9738913  )
        10           Ti1 tau(  10) = (   0.0007404   1.4906270   9.2895810  )
        11           Ti1 tau(  11) = (   3.2923993   1.3029312  12.4395176  )
        12           Ti1 tau(  12) = (   6.5786190   1.6682186  16.0479855  )
        13           O1  tau(  13) = (   4.5942328   1.4918067   9.2879030  )
        14           O1  tau(  14) = (   1.3693608   1.5763615  12.5409223  )
        15           O1  tau(  15) = (   4.5388119   1.4066068  15.9736107  )
        16           Ti1 tau(  16) = (   3.2902859   2.9801868   9.2893338  )
        17           Ti1 tau(  17) = (   0.0025983   2.7818652  12.5490862  )
        18           Ti1 tau(  18) = (   3.2890997   3.0957086  15.6341045  )
        19           O1  tau(  19) = (   0.0003479   2.9813005  10.5931620  )
        20           O1  tau(  20) = (   3.2906043   2.9558292  13.7911244  )
        21           O1  tau(  21) = (   0.0002396   2.9813036   7.9858123  )
        22           O1  tau(  22) = (   3.2907828   2.9846389  11.1656624  )
        23           O1  tau(  23) = (   0.0000664   2.9755257  14.5967958  )
        24           O1  tau(  24) = (   1.9864658   4.4711199   9.2879459  )
        25           O1  tau(  25) = (   5.2254851   4.5442098  12.5530165  )
        26           O1  tau(  26) = (   2.0413797   4.3804877  15.9810922  )
        27           Ti1 tau(  27) = (   0.0003529   4.4714252   9.2895810  )
        28           Ti1 tau(  28) = (   3.2927641   4.3249026  12.5337624  )
        29           Ti1 tau(  29) = (  -0.0001393   4.3779101  16.0758329  )
        30           O1  tau(  30) = (   4.5938453   4.4726049   9.2879030  )
        31           O1  tau(  31) = (   1.3554856   4.5423027  12.5528228  )
        32           O1  tau(  32) = (   4.5375453   4.3808357  15.9816482  )
        33           Ti1 tau(  33) = (   3.2898983   5.9609850   9.2893338  )
        34           Ti1 tau(  34) = (   0.0022780   5.7553130  12.5179661  )
        35           Ti1 tau(  35) = (   3.2911749   6.0723021  16.2828521  )
        36           O1  tau(  36) = (  -0.0000397   5.9620987  10.5931620  )
        37           O1  tau(  37) = (   3.2898444   5.9099340  13.7874885  )
        38           O1  tau(  38) = (  -0.0002305   5.9963729  17.1613877  )
        39           O1  tau(  39) = (  -0.0001480   5.9621018   7.9858123  )
        40           O1  tau(  40) = (   3.2898933   5.9403142  11.1650959  )
        41           O1  tau(  41) = (   0.0001730   6.0398540  14.5337486  )
        42           O1  tau(  42) = (   1.9860782   7.4519181   9.2879459  )
        43           O1  tau(  43) = (   5.2203866   7.5240042  12.5266709  )
        44           O1  tau(  44) = (   2.0308607   7.4363189  15.9936472  )
        45           Ti1 tau(  45) = (  -0.0000347   7.4522234   9.2895810  )
        46           Ti1 tau(  46) = (   3.2897547   7.2013570  12.5904776  )
        47           Ti1 tau(  47) = (  -0.0001197   7.5007381  15.6461876  )
        48           O1  tau(  48) = (   4.5934577   7.4534031   9.2879030  )
        49           O1  tau(  49) = (   1.3580612   7.5226468  12.5263262  )
        50           O1  tau(  50) = (   4.5486487   7.4363691  15.9933312  )
        51           Ti1 tau(  51) = (   3.2895107   8.9417832   9.2893338  )
        52           Ti1 tau(  52) = (  -0.0005051   8.7269297  12.4809553  )
        53           Ti1 tau(  53) = (   3.2886672   0.0795926  15.6360096  )
        54           H1  tau(  54) = (   6.5784023   6.0277306  18.1241331  )
        55           H1  tau(  55) = (   6.5784455   8.8634660  18.1266539  )
        56           N1  tau(  56) = (   6.5791914   3.0063145  17.2269018  )
        57           N1  tau(  57) = (   3.2902358   5.9939226  18.1904466  )
        58           H1  tau(  58) = (   3.2786139   5.1344262  18.7255412  )
        59           H1  tau(  59) = (   3.2892998   6.7958846  18.8069972  )

     number of k points=    10  Fermi-Dirac smearing, width (Ry)=  0.0073
                       cart. coord. in units 2pi/alat
        k(    1) = (   0.0000000   0.0000000   0.0000000), wk =   0.1250000
        k(    2) = (   0.0000000   0.0279567   0.0000000), wk =   0.2500000
        k(    3) = (   0.0000000  -0.0559134   0.0000000), wk =   0.1250000
        k(    4) = (   0.0379955   0.0000049   0.0000000), wk =   0.2500000
        k(    5) = (   0.0379955   0.0279617   0.0000000), wk =   0.2500000
        k(    6) = (   0.0379955  -0.0559085   0.0000000), wk =   0.2500000
        k(    7) = (   0.0379955  -0.0279518   0.0000000), wk =   0.2500000
        k(    8) = (  -0.0759910  -0.0000099   0.0000000), wk =   0.1250000
        k(    9) = (  -0.0759910   0.0279468   0.0000000), wk =   0.2500000
        k(   10) = (  -0.0759910  -0.0559233   0.0000000), wk =   0.1250000

     Dense  grid:   850181 G-vectors     FFT dimensions: (  72,  96, 270)

     Smooth grid:   215109 G-vectors     FFT dimensions: (  45,  60, 180)

     Estimated max dynamical RAM per process >     706.31 MB

     Estimated total dynamical RAM >       5.52 GB
     Cannot read rho : file not found

     Initial potential from superposition of free atoms

     starting charge  421.99910, renormalised to  440.00000

     negative rho (up, down):  3.748E-02 0.000E+00


     %%%%%%%%%%%%%%%%%%%%%%%%%%%%%%%%%%%%%%%%%%%%%%%%%%%%%%%%%%%%%%%%%%%%%%%%
     %                                                                      %
     % You are using vdW-DF, which was implemented by the Thonhauser group. %
     % Please cite the following two papers that made this development      %
     % possible and the two reviews that describe the various versions:     %
     %                                                                      %
     %   T. Thonhauser et al., PRL 115, 136402 (2015).                      %
     %   T. Thonhauser et al., PRB 76, 125112 (2007).                       %
     %   K. Berland et al., Rep. Prog. Phys. 78, 066501 (2015).             %
     %   D.C. Langreth et al., J. Phys.: Condens. Matter 21, 084203 (2009). %
     %                                                                      %
     %                                                                      %
     % If you are calculating the stress with vdW-DF, please also cite:     %
     %                                                                      %
     %   R. Sabatini et al., J. Phys.: Condens. Matter 24, 424209 (2012).   %
     %                                                                      %
     %%%%%%%%%%%%%%%%%%%%%%%%%%%%%%%%%%%%%%%%%%%%%%%%%%%%%%%%%%%%%%%%%%%%%%%%


 
     Adding external electric field

     Computed dipole along edir(3) : 
        Dipole               -3.9322 Ry au,         -9.9948 Debye
        Dipole field         -0.0049 Ry au, 
 
        Potential amp.        0.4586 Ry
        Total length         46.3494 bohr
 
     Starting wfcs are  332 atomic wfcs
  @ DRIVER MODE: Message from server: STATUS
  @ DRIVER MODE: Message from server: POSDATA
  @ DRIVER MODE: Reading and sharing cell 
  @ DRIVER MODE: Reading and sharing positions 
  @ DRIVER MODE: Received positions 

     total cpu time spent up to now is       18.5 secs

     Self-consistent Calculation

     iteration #  1     ecut=    29.40 Ry     beta= 0.05
     Davidson diagonalization with overlap
     c_bands:  2 eigenvalues not converged
     c_bands:  3 eigenvalues not converged
     c_bands:  5 eigenvalues not converged
     c_bands:  4 eigenvalues not converged
     c_bands:  1 eigenvalues not converged
     c_bands:  4 eigenvalues not converged
     c_bands:  5 eigenvalues not converged
     c_bands:  3 eigenvalues not converged
     c_bands:  3 eigenvalues not converged
     ethr =  1.00E-05,  avg # of iterations = 19.8

     negative rho (up, down):  3.707E-02 0.000E+00
 
     Adding external electric field

     Computed dipole along edir(3) : 
        Dipole               -1.5455 Ry au,         -3.9283 Debye
        Dipole field         -0.0019 Ry au, 
 
        Potential amp.        0.1802 Ry
        Total length         46.3494 bohr
 

     total cpu time spent up to now is       93.0 secs

     total energy              =   -3294.69843081 Ry
     estimated scf accuracy    <      19.95547168 Ry

     iteration #  2     ecut=    29.40 Ry     beta= 0.05
     Davidson diagonalization with overlap
     ethr =  4.54E-03,  avg # of iterations =  1.4

     negative rho (up, down):  3.677E-02 0.000E+00
 
     Adding external electric field

     Computed dipole along edir(3) : 
        Dipole               -0.2660 Ry au,         -0.6761 Debye
        Dipole field         -0.0003 Ry au, 
 
        Potential amp.        0.0310 Ry
        Total length         46.3494 bohr
 

     total cpu time spent up to now is      113.5 secs

     total energy              =   -3293.69501158 Ry
     estimated scf accuracy    <      10.86200186 Ry

     iteration #  3     ecut=    29.40 Ry     beta= 0.05
     Davidson diagonalization with overlap
     ethr =  2.47E-03,  avg # of iterations =  4.1

     negative rho (up, down):  3.743E-02 0.000E+00
 
     Adding external electric field

     Computed dipole along edir(3) : 
        Dipole                1.6520 Ry au,          4.1989 Debye
        Dipole field          0.0021 Ry au, 
 
        Potential amp.       -0.1927 Ry
        Total length         46.3494 bohr
 

     total cpu time spent up to now is      135.4 secs

     total energy              =   -3292.08698274 Ry
     estimated scf accuracy    <       5.68981031 Ry

     iteration #  4     ecut=    29.40 Ry     beta= 0.05
     Davidson diagonalization with overlap
     ethr =  1.29E-03,  avg # of iterations = 11.9

     negative rho (up, down):  3.686E-02 0.000E+00
 
     Adding external electric field

     Computed dipole along edir(3) : 
        Dipole                1.4555 Ry au,          3.6994 Debye
        Dipole field          0.0018 Ry au, 
 
        Potential amp.       -0.1697 Ry
        Total length         46.3494 bohr
 

     total cpu time spent up to now is      168.1 secs

     total energy              =   -3292.99699117 Ry
     estimated scf accuracy    <       2.82079872 Ry

     iteration #  5     ecut=    29.40 Ry     beta= 0.05
     Davidson diagonalization with overlap
     c_bands:  2 eigenvalues not converged
     c_bands:  2 eigenvalues not converged
     ethr =  6.41E-04,  avg # of iterations = 10.3

     negative rho (up, down):  3.622E-02 0.000E+00
 
     Adding external electric field

     Computed dipole along edir(3) : 
        Dipole                0.5312 Ry au,          1.3502 Debye
        Dipole field          0.0007 Ry au, 
 
        Potential amp.       -0.0620 Ry
        Total length         46.3494 bohr
 

     total cpu time spent up to now is      194.5 secs

     total energy              =   -3293.05195363 Ry
     estimated scf accuracy    <       2.08844185 Ry

     iteration #  6     ecut=    29.40 Ry     beta= 0.05
     Davidson diagonalization with overlap
     ethr =  4.75E-04,  avg # of iterations =  4.9

     negative rho (up, down):  3.647E-02 0.000E+00
 
     Adding external electric field

     Computed dipole along edir(3) : 
        Dipole                0.4354 Ry au,          1.1067 Debye
        Dipole field          0.0005 Ry au, 
 
        Potential amp.       -0.0508 Ry
        Total length         46.3494 bohr
 

     total cpu time spent up to now is      217.7 secs

     total energy              =   -3293.13912053 Ry
     estimated scf accuracy    <       0.81897617 Ry

     iteration #  7     ecut=    29.40 Ry     beta= 0.05
     Davidson diagonalization with overlap
     c_bands:  2 eigenvalues not converged
     c_bands:  3 eigenvalues not converged
     ethr =  1.86E-04,  avg # of iterations = 15.2

     negative rho (up, down):  3.771E-02 0.000E+00
 
     Adding external electric field

     Computed dipole along edir(3) : 
        Dipole                0.4782 Ry au,          1.2155 Debye
        Dipole field          0.0006 Ry au, 
 
        Potential amp.       -0.0558 Ry
        Total length         46.3494 bohr
 

     total cpu time spent up to now is      248.7 secs

     total energy              =   -3293.15910801 Ry
     estimated scf accuracy    <       0.38103111 Ry

     iteration #  8     ecut=    29.40 Ry     beta= 0.05
     Davidson diagonalization with overlap
     c_bands:  1 eigenvalues not converged
     c_bands:  1 eigenvalues not converged
     c_bands:  4 eigenvalues not converged
     c_bands:  4 eigenvalues not converged
     c_bands:  3 eigenvalues not converged
     ethr =  8.66E-05,  avg # of iterations = 14.9

     negative rho (up, down):  3.710E-02 0.000E+00
 
     Adding external electric field

     Computed dipole along edir(3) : 
        Dipole                0.5069 Ry au,          1.2884 Debye
        Dipole field          0.0006 Ry au, 
 
        Potential amp.       -0.0591 Ry
        Total length         46.3494 bohr
 

     total cpu time spent up to now is      290.9 secs

     total energy              =   -3293.31237653 Ry
     estimated scf accuracy    <       0.73986608 Ry

     iteration #  9     ecut=    29.40 Ry     beta= 0.05
     Davidson diagonalization with overlap
     ethr =  8.66E-05,  avg # of iterations =  3.5

     negative rho (up, down):  3.753E-02 0.000E+00
 
     Adding external electric field

     Computed dipole along edir(3) : 
        Dipole                0.6684 Ry au,          1.6989 Debye
        Dipole field          0.0008 Ry au, 
 
        Potential amp.       -0.0779 Ry
        Total length         46.3494 bohr
 

     total cpu time spent up to now is      312.9 secs

     total energy              =   -3293.21091787 Ry
     estimated scf accuracy    <       0.64568643 Ry

     iteration # 10     ecut=    29.40 Ry     beta= 0.05
     Davidson diagonalization with overlap
     ethr =  8.66E-05,  avg # of iterations =  2.3

     negative rho (up, down):  4.032E-02 0.000E+00
 
     Adding external electric field

     Computed dipole along edir(3) : 
        Dipole                1.1729 Ry au,          2.9812 Debye
        Dipole field          0.0015 Ry au, 
 
        Potential amp.       -0.1368 Ry
        Total length         46.3494 bohr
 

     total cpu time spent up to now is      335.5 secs

     total energy              =   -3293.23215072 Ry
     estimated scf accuracy    <       0.24866752 Ry

     iteration # 11     ecut=    29.40 Ry     beta= 0.05
     Davidson diagonalization with overlap
     ethr =  5.65E-05,  avg # of iterations =  5.0

     negative rho (up, down):  3.958E-02 0.000E+00
 
     Adding external electric field

     Computed dipole along edir(3) : 
        Dipole                1.1577 Ry au,          2.9427 Debye
        Dipole field          0.0015 Ry au, 
 
        Potential amp.       -0.1350 Ry
        Total length         46.3494 bohr
 

     total cpu time spent up to now is      362.3 secs

     total energy              =   -3293.25802839 Ry
     estimated scf accuracy    <       0.10945280 Ry

     iteration # 12     ecut=    29.40 Ry     beta= 0.05
     Davidson diagonalization with overlap
     c_bands:  2 eigenvalues not converged
     ethr =  2.49E-05,  avg # of iterations =  8.4

     negative rho (up, down):  3.956E-02 0.000E+00
 
     Adding external electric field

     Computed dipole along edir(3) : 
        Dipole                1.3780 Ry au,          3.5026 Debye
        Dipole field          0.0017 Ry au, 
 
        Potential amp.       -0.1607 Ry
        Total length         46.3494 bohr
 

     total cpu time spent up to now is      388.1 secs

     total energy              =   -3293.26413730 Ry
     estimated scf accuracy    <       0.08449999 Ry

     iteration # 13     ecut=    29.40 Ry     beta= 0.05
     Davidson diagonalization with overlap
     c_bands:  1 eigenvalues not converged
     c_bands:  1 eigenvalues not converged
     c_bands:  1 eigenvalues not converged
     c_bands:  1 eigenvalues not converged
     ethr =  1.92E-05,  avg # of iterations = 13.8

     negative rho (up, down):  3.904E-02 0.000E+00
 
     Adding external electric field

     Computed dipole along edir(3) : 
        Dipole                1.3312 Ry au,          3.3836 Debye
        Dipole field          0.0017 Ry au, 
 
        Potential amp.       -0.1553 Ry
        Total length         46.3494 bohr
 

     total cpu time spent up to now is      427.9 secs

     total energy              =   -3293.28714837 Ry
     estimated scf accuracy    <       0.14046186 Ry

     iteration # 14     ecut=    29.40 Ry     beta= 0.05
     Davidson diagonalization with overlap
     ethr =  1.92E-05,  avg # of iterations =  1.4

     negative rho (up, down):  3.867E-02 0.000E+00
 
     Adding external electric field

     Computed dipole along edir(3) : 
        Dipole                1.3324 Ry au,          3.3867 Debye
        Dipole field          0.0017 Ry au, 
 
        Potential amp.       -0.1554 Ry
        Total length         46.3494 bohr
 

     total cpu time spent up to now is      448.7 secs

     total energy              =   -3293.27398545 Ry
     estimated scf accuracy    <       0.13554960 Ry

     iteration # 15     ecut=    29.40 Ry     beta= 0.05
     Davidson diagonalization with overlap
     ethr =  1.92E-05,  avg # of iterations =  1.0

     negative rho (up, down):  3.889E-02 0.000E+00
 
     Adding external electric field

     Computed dipole along edir(3) : 
        Dipole                1.3292 Ry au,          3.3785 Debye
        Dipole field          0.0017 Ry au, 
 
        Potential amp.       -0.1550 Ry
        Total length         46.3494 bohr
 

     total cpu time spent up to now is      468.9 secs

     total energy              =   -3293.24114738 Ry
     estimated scf accuracy    <       0.09370000 Ry

     iteration # 16     ecut=    29.40 Ry     beta= 0.05
     Davidson diagonalization with overlap
     c_bands:  1 eigenvalues not converged
     ethr =  1.92E-05,  avg # of iterations =  9.9

     negative rho (up, down):  3.851E-02 0.000E+00
 
     Adding external electric field

     Computed dipole along edir(3) : 
        Dipole                1.3018 Ry au,          3.3089 Debye
        Dipole field          0.0016 Ry au, 
 
        Potential amp.       -0.1518 Ry
        Total length         46.3494 bohr
 

     total cpu time spent up to now is      508.1 secs

     total energy              =   -3293.26860935 Ry
     estimated scf accuracy    <       0.05539379 Ry

     iteration # 17     ecut=    29.40 Ry     beta= 0.05
     Davidson diagonalization with overlap
     ethr =  1.26E-05,  avg # of iterations =  1.6

     negative rho (up, down):  3.818E-02 0.000E+00
 
     Adding external electric field

     Computed dipole along edir(3) : 
        Dipole                1.3101 Ry au,          3.3300 Debye
        Dipole field          0.0016 Ry au, 
 
        Potential amp.       -0.1528 Ry
        Total length         46.3494 bohr
 

     total cpu time spent up to now is      529.3 secs

     total energy              =   -3293.26797609 Ry
     estimated scf accuracy    <       0.03087492 Ry

     iteration # 18     ecut=    29.40 Ry     beta= 0.05
     Davidson diagonalization with overlap
     c_bands:  1 eigenvalues not converged
     ethr =  7.02E-06,  avg # of iterations =  3.8

     negative rho (up, down):  3.823E-02 0.000E+00
 
     Adding external electric field

     Computed dipole along edir(3) : 
        Dipole                1.3415 Ry au,          3.4097 Debye
        Dipole field          0.0017 Ry au, 
 
        Potential amp.       -0.1564 Ry
        Total length         46.3494 bohr
 

     total cpu time spent up to now is      551.9 secs

     total energy              =   -3293.26572009 Ry
     estimated scf accuracy    <       0.01753373 Ry

     iteration # 19     ecut=    29.40 Ry     beta= 0.05
     Davidson diagonalization with overlap
     c_bands:  1 eigenvalues not converged
     c_bands:  1 eigenvalues not converged
     ethr =  3.98E-06,  avg # of iterations = 13.1

     negative rho (up, down):  3.796E-02 0.000E+00
 
     Adding external electric field

     Computed dipole along edir(3) : 
        Dipole                1.3068 Ry au,          3.3215 Debye
        Dipole field          0.0016 Ry au, 
 
        Potential amp.       -0.1524 Ry
        Total length         46.3494 bohr
 

     total cpu time spent up to now is      589.2 secs

     total energy              =   -3293.26930881 Ry
     estimated scf accuracy    <       0.00455128 Ry

     iteration # 20     ecut=    29.40 Ry     beta= 0.05
     Davidson diagonalization with overlap
     ethr =  1.03E-06,  avg # of iterations =  6.3

     negative rho (up, down):  3.776E-02 0.000E+00
 
     Adding external electric field

     Computed dipole along edir(3) : 
        Dipole                1.3212 Ry au,          3.3583 Debye
        Dipole field          0.0017 Ry au, 
 
        Potential amp.       -0.1541 Ry
        Total length         46.3494 bohr
 

     total cpu time spent up to now is      617.1 secs

     total energy              =   -3293.27024978 Ry
     estimated scf accuracy    <       0.00208705 Ry

     iteration # 21     ecut=    29.40 Ry     beta= 0.05
     Davidson diagonalization with overlap
     ethr =  4.74E-07,  avg # of iterations =  3.7

     negative rho (up, down):  3.767E-02 0.000E+00
 
     Adding external electric field

     Computed dipole along edir(3) : 
        Dipole                1.3236 Ry au,          3.3642 Debye
        Dipole field          0.0017 Ry au, 
 
        Potential amp.       -0.1544 Ry
        Total length         46.3494 bohr
 

     total cpu time spent up to now is      639.8 secs

     total energy              =   -3293.27063322 Ry
     estimated scf accuracy    <       0.00154247 Ry

     iteration # 22     ecut=    29.40 Ry     beta= 0.05
     Davidson diagonalization with overlap
     ethr =  3.51E-07,  avg # of iterations =  6.5

     negative rho (up, down):  3.745E-02 0.000E+00
 
     Adding external electric field

     Computed dipole along edir(3) : 
        Dipole                1.3087 Ry au,          3.3263 Debye
        Dipole field          0.0016 Ry au, 
 
        Potential amp.       -0.1526 Ry
        Total length         46.3494 bohr
 

     total cpu time spent up to now is      669.0 secs

     total energy              =   -3293.27094750 Ry
     estimated scf accuracy    <       0.00123474 Ry

     iteration # 23     ecut=    29.40 Ry     beta= 0.05
     Davidson diagonalization with overlap
     ethr =  2.81E-07,  avg # of iterations =  3.2

     negative rho (up, down):  3.733E-02 0.000E+00
 
     Adding external electric field

     Computed dipole along edir(3) : 
        Dipole                1.3119 Ry au,          3.3344 Debye
        Dipole field          0.0017 Ry au, 
 
        Potential amp.       -0.1530 Ry
        Total length         46.3494 bohr
 

     total cpu time spent up to now is      691.5 secs

     total energy              =   -3293.27114515 Ry
     estimated scf accuracy    <       0.00075170 Ry

     iteration # 24     ecut=    29.40 Ry     beta= 0.05
     Davidson diagonalization with overlap
     ethr =  1.71E-07,  avg # of iterations =  5.8

     negative rho (up, down):  3.719E-02 0.000E+00
 
     Adding external electric field

     Computed dipole along edir(3) : 
        Dipole                1.3195 Ry au,          3.3538 Debye
        Dipole field          0.0017 Ry au, 
 
        Potential amp.       -0.1539 Ry
        Total length         46.3494 bohr
 

     total cpu time spent up to now is      718.1 secs

     total energy              =   -3293.27141936 Ry
     estimated scf accuracy    <       0.00028098 Ry

     iteration # 25     ecut=    29.40 Ry     beta= 0.05
     Davidson diagonalization with overlap
     ethr =  6.39E-08,  avg # of iterations =  4.9

     negative rho (up, down):  3.703E-02 0.000E+00
 
     Adding external electric field

     Computed dipole along edir(3) : 
        Dipole                1.3172 Ry au,          3.3480 Debye
        Dipole field          0.0017 Ry au, 
 
        Potential amp.       -0.1536 Ry
        Total length         46.3494 bohr
 

     total cpu time spent up to now is      741.8 secs

     total energy              =   -3293.27156460 Ry
     estimated scf accuracy    <       0.00021214 Ry

     iteration # 26     ecut=    29.40 Ry     beta= 0.05
     Davidson diagonalization with overlap
     ethr =  4.82E-08,  avg # of iterations =  5.0

     negative rho (up, down):  3.688E-02 0.000E+00
 
     Adding external electric field

     Computed dipole along edir(3) : 
        Dipole                1.3097 Ry au,          3.3289 Debye
        Dipole field          0.0016 Ry au, 
 
        Potential amp.       -0.1527 Ry
        Total length         46.3494 bohr
 

     total cpu time spent up to now is      766.3 secs

     total energy              =   -3293.27167962 Ry
     estimated scf accuracy    <       0.00013639 Ry

     iteration # 27     ecut=    29.40 Ry     beta= 0.05
     Davidson diagonalization with overlap
     ethr =  3.10E-08,  avg # of iterations =  5.2

     negative rho (up, down):  3.674E-02 0.000E+00
 
     Adding external electric field

     Computed dipole along edir(3) : 
        Dipole                1.3115 Ry au,          3.3336 Debye
        Dipole field          0.0017 Ry au, 
 
        Potential amp.       -0.1530 Ry
        Total length         46.3494 bohr
 

     total cpu time spent up to now is      798.2 secs

     total energy              =   -3293.27180136 Ry
     estimated scf accuracy    <       0.00016394 Ry

     iteration # 28     ecut=    29.40 Ry     beta= 0.05
     Davidson diagonalization with overlap
     ethr =  3.10E-08,  avg # of iterations =  4.7

     negative rho (up, down):  3.661E-02 0.000E+00
 
     Adding external electric field

     Computed dipole along edir(3) : 
        Dipole                1.3163 Ry au,          3.3457 Debye
        Dipole field          0.0017 Ry au, 
 
        Potential amp.       -0.1535 Ry
        Total length         46.3494 bohr
 

     total cpu time spent up to now is      821.1 secs

     total energy              =   -3293.27187588 Ry
     estimated scf accuracy    <       0.00008750 Ry

     iteration # 29     ecut=    29.40 Ry     beta= 0.05
     Davidson diagonalization with overlap
     ethr =  1.99E-08,  avg # of iterations =  7.4

     negative rho (up, down):  3.652E-02 0.000E+00
 
     Adding external electric field

     Computed dipole along edir(3) : 
        Dipole                1.3186 Ry au,          3.3515 Debye
        Dipole field          0.0017 Ry au, 
 
        Potential amp.       -0.1538 Ry
        Total length         46.3494 bohr
 

     total cpu time spent up to now is      857.8 secs

     total energy              =   -3293.27198333 Ry
     estimated scf accuracy    <       0.00018622 Ry

     iteration # 30     ecut=    29.40 Ry     beta= 0.05
     Davidson diagonalization with overlap
     ethr =  1.99E-08,  avg # of iterations =  5.0

     negative rho (up, down):  3.643E-02 0.000E+00
 
     Adding external electric field

     Computed dipole along edir(3) : 
        Dipole                1.3158 Ry au,          3.3445 Debye
        Dipole field          0.0017 Ry au, 
 
        Potential amp.       -0.1535 Ry
        Total length         46.3494 bohr
 

     total cpu time spent up to now is      884.0 secs

     total energy              =   -3293.27206510 Ry
     estimated scf accuracy    <       0.00004290 Ry

     iteration # 31     ecut=    29.40 Ry     beta= 0.05
     Davidson diagonalization with overlap
     ethr =  9.75E-09,  avg # of iterations =  5.0

     negative rho (up, down):  3.634E-02 0.000E+00
 
     Adding external electric field

     Computed dipole along edir(3) : 
        Dipole                1.3193 Ry au,          3.3534 Debye
        Dipole field          0.0017 Ry au, 
 
        Potential amp.       -0.1539 Ry
        Total length         46.3494 bohr
 

     total cpu time spent up to now is      918.8 secs

     total energy              =   -3293.27214628 Ry
     estimated scf accuracy    <       0.00004157 Ry

     iteration # 32     ecut=    29.40 Ry     beta= 0.05
     Davidson diagonalization with overlap
     ethr =  9.45E-09,  avg # of iterations =  2.7

     negative rho (up, down):  3.626E-02 0.000E+00
 
     Adding external electric field

     Computed dipole along edir(3) : 
        Dipole                1.3219 Ry au,          3.3600 Debye
        Dipole field          0.0017 Ry au, 
 
        Potential amp.       -0.1542 Ry
        Total length         46.3494 bohr
 

     total cpu time spent up to now is      941.1 secs

     total energy              =   -3293.27220908 Ry
     estimated scf accuracy    <       0.00001484 Ry

     iteration # 33     ecut=    29.40 Ry     beta= 0.05
     Davidson diagonalization with overlap
     ethr =  3.37E-09,  avg # of iterations =  7.0

     negative rho (up, down):  3.619E-02 0.000E+00
 
     Adding external electric field

     Computed dipole along edir(3) : 
        Dipole                1.3206 Ry au,          3.3568 Debye
        Dipole field          0.0017 Ry au, 
 
        Potential amp.       -0.1540 Ry
        Total length         46.3494 bohr
 

     total cpu time spent up to now is      977.0 secs

     total energy              =   -3293.27227361 Ry
     estimated scf accuracy    <       0.00002546 Ry

     iteration # 34     ecut=    29.40 Ry     beta= 0.05
     Davidson diagonalization with overlap
     ethr =  3.37E-09,  avg # of iterations =  1.6

     negative rho (up, down):  3.613E-02 0.000E+00
 
     Adding external electric field

     Computed dipole along edir(3) : 
        Dipole                1.3187 Ry au,          3.3517 Debye
        Dipole field          0.0017 Ry au, 
 
        Potential amp.       -0.1538 Ry
        Total length         46.3494 bohr
 

     total cpu time spent up to now is      998.2 secs

     total energy              =   -3293.27232426 Ry
     estimated scf accuracy    <       0.00001571 Ry

     iteration # 35     ecut=    29.40 Ry     beta= 0.05
     Davidson diagonalization with overlap
     ethr =  3.37E-09,  avg # of iterations =  5.0

     negative rho (up, down):  3.608E-02 0.000E+00
 
     Adding external electric field

     Computed dipole along edir(3) : 
        Dipole                1.3189 Ry au,          3.3524 Debye
        Dipole field          0.0017 Ry au, 
 
        Potential amp.       -0.1538 Ry
        Total length         46.3494 bohr
 

     total cpu time spent up to now is     1026.6 secs

     total energy              =   -3293.27237460 Ry
     estimated scf accuracy    <       0.00000220 Ry

     iteration # 36     ecut=    29.40 Ry     beta= 0.05
     Davidson diagonalization with overlap
     ethr =  5.00E-10,  avg # of iterations =  3.8

     negative rho (up, down):  3.604E-02 0.000E+00
 
     Adding external electric field

     Computed dipole along edir(3) : 
        Dipole                1.3191 Ry au,          3.3527 Debye
        Dipole field          0.0017 Ry au, 
 
        Potential amp.       -0.1538 Ry
        Total length         46.3494 bohr
 

     total cpu time spent up to now is     1050.5 secs

     total energy              =   -3293.27241767 Ry
     estimated scf accuracy    <       0.00000200 Ry

     iteration # 37     ecut=    29.40 Ry     beta= 0.05
     Davidson diagonalization with overlap
     ethr =  4.54E-10,  avg # of iterations =  2.0

     negative rho (up, down):  3.600E-02 0.000E+00
 
     Adding external electric field

     Computed dipole along edir(3) : 
        Dipole                1.3184 Ry au,          3.3511 Debye
        Dipole field          0.0017 Ry au, 
 
        Potential amp.       -0.1538 Ry
        Total length         46.3494 bohr
 

     total cpu time spent up to now is     1072.3 secs

     total energy              =   -3293.27245684 Ry
     estimated scf accuracy    <       0.00000173 Ry

     iteration # 38     ecut=    29.40 Ry     beta= 0.05
     Davidson diagonalization with overlap
     ethr =  3.92E-10,  avg # of iterations =  5.1

     negative rho (up, down):  3.597E-02 0.000E+00
 
     Adding external electric field

     Computed dipole along edir(3) : 
        Dipole                1.3180 Ry au,          3.3501 Debye
        Dipole field          0.0017 Ry au, 
 
        Potential amp.       -0.1537 Ry
        Total length         46.3494 bohr
 

     total cpu time spent up to now is     1102.7 secs

     total energy              =   -3293.27249205 Ry
     estimated scf accuracy    <       0.00000220 Ry

     iteration # 39     ecut=    29.40 Ry     beta= 0.05
     Davidson diagonalization with overlap
     ethr =  3.92E-10,  avg # of iterations =  5.0

     negative rho (up, down):  3.594E-02 0.000E+00
 
     Adding external electric field

     Computed dipole along edir(3) : 
        Dipole                1.3179 Ry au,          3.3497 Debye
        Dipole field          0.0017 Ry au, 
 
        Potential amp.       -0.1537 Ry
        Total length         46.3494 bohr
 

     total cpu time spent up to now is     1128.0 secs

     total energy              =   -3293.27252390 Ry
     estimated scf accuracy    <       0.00000084 Ry

     iteration # 40     ecut=    29.40 Ry     beta= 0.05
     Davidson diagonalization with overlap
     ethr =  1.91E-10,  avg # of iterations =  4.1

     negative rho (up, down):  3.591E-02 0.000E+00
 
     Adding external electric field

     Computed dipole along edir(3) : 
        Dipole                1.3178 Ry au,          3.3494 Debye
        Dipole field          0.0017 Ry au, 
 
        Potential amp.       -0.1537 Ry
        Total length         46.3494 bohr
 

     total cpu time spent up to now is     1151.7 secs

     total energy              =   -3293.27255249 Ry
     estimated scf accuracy    <       0.00000035 Ry

     iteration # 41     ecut=    29.40 Ry     beta= 0.05
     Davidson diagonalization with overlap
     ethr =  8.06E-11,  avg # of iterations =  6.8

     negative rho (up, down):  3.589E-02 0.000E+00
 
     Adding external electric field

     Computed dipole along edir(3) : 
        Dipole                1.3178 Ry au,          3.3495 Debye
        Dipole field          0.0017 Ry au, 
 
        Potential amp.       -0.1537 Ry
        Total length         46.3494 bohr
 

     total cpu time spent up to now is     1184.6 secs

     total energy              =   -3293.27257832 Ry
     estimated scf accuracy    <       0.00000025 Ry

     iteration # 42     ecut=    29.40 Ry     beta= 0.05
     Davidson diagonalization with overlap
     ethr =  5.66E-11,  avg # of iterations =  2.0

     negative rho (up, down):  3.587E-02 0.000E+00
 
     Adding external electric field

     Computed dipole along edir(3) : 
        Dipole                1.3179 Ry au,          3.3497 Debye
        Dipole field          0.0017 Ry au, 
 
        Potential amp.       -0.1537 Ry
        Total length         46.3494 bohr
 

     total cpu time spent up to now is     1206.4 secs

     total energy              =   -3293.27260165 Ry
     estimated scf accuracy    <       0.00000018 Ry

     iteration # 43     ecut=    29.40 Ry     beta= 0.05
     Davidson diagonalization with overlap
     ethr =  4.19E-11,  avg # of iterations =  5.0

     negative rho (up, down):  3.586E-02 0.000E+00
 
     Adding external electric field

     Computed dipole along edir(3) : 
        Dipole                1.3178 Ry au,          3.3496 Debye
        Dipole field          0.0017 Ry au, 
 
        Potential amp.       -0.1537 Ry
        Total length         46.3494 bohr
 

     total cpu time spent up to now is     1231.5 secs

     total energy              =   -3293.27262276 Ry
     estimated scf accuracy    <       0.00000009 Ry

     iteration # 44     ecut=    29.40 Ry     beta= 0.05
     Davidson diagonalization with overlap
     ethr =  2.03E-11,  avg # of iterations =  5.2

     negative rho (up, down):  3.585E-02 0.000E+00
 
     Adding external electric field

     Computed dipole along edir(3) : 
        Dipole                1.3178 Ry au,          3.3494 Debye
        Dipole field          0.0017 Ry au, 
 
        Potential amp.       -0.1537 Ry
        Total length         46.3494 bohr
 

     total cpu time spent up to now is     1260.8 secs

     total energy              =   -3293.27264188 Ry
     estimated scf accuracy    <       0.00000013 Ry

     iteration # 45     ecut=    29.40 Ry     beta= 0.05
     Davidson diagonalization with overlap
     ethr =  2.03E-11,  avg # of iterations =  5.0

     negative rho (up, down):  3.595E-02 0.000E+00
 
     Adding external electric field

     Computed dipole along edir(3) : 
        Dipole                1.3169 Ry au,          3.3472 Debye
        Dipole field          0.0017 Ry au, 
 
        Potential amp.       -0.1536 Ry
        Total length         46.3494 bohr
 

     total cpu time spent up to now is     1287.6 secs

     End of self-consistent calculation

          k = 0.0000 0.0000 0.0000 ( 26871 PWs)   bands (ev):

   -58.2799 -58.2565 -58.2511 -58.2265 -58.1670 -57.7778 -57.7743 -57.7543
   -57.6693 -57.5725 -57.5684 -57.5459 -57.3363 -56.8618 -56.8378 -56.8210
   -56.7386 -56.6386 -34.6899 -34.6503 -34.6175 -34.6020 -34.5977 -34.5964
   -34.5472 -34.4926 -34.4551 -34.4115 -34.4054 -34.3891 -34.3841 -34.3639
   -34.3164 -34.1921 -34.1413 -34.1348 -34.1260 -34.1217 -34.0767 -34.0550
   -34.0540 -34.0135 -34.0012 -33.9575 -33.9561 -33.8579 -33.8535 -33.8264
   -33.8191 -33.8035 -33.7692 -33.7574 -33.7512 -33.7326 -33.6841 -33.5763
   -33.5447 -33.2338 -33.2065 -33.1884 -33.1716 -33.1656 -33.1484 -33.0699
   -33.0568 -33.0114 -32.9929 -32.9838 -32.9508 -32.8880 -32.8704 -32.7666
   -18.9502 -18.8275 -18.7370 -18.3607 -18.3013 -18.1685 -18.1115 -18.1045
   -18.0111 -17.9419 -17.7181 -17.6701 -17.6581 -17.6336 -17.5379 -17.5253
   -17.5158 -17.4838 -17.4595 -17.4536 -17.3511 -17.3137 -17.2992 -17.2943
   -17.2628 -17.1840 -17.1347 -17.0396 -17.0066 -17.0043 -16.8347 -16.7946
   -15.3385 -15.2976 -15.2887 -15.2487 -11.6043  -6.9832  -6.8109  -6.6992
    -6.1802  -5.9693  -5.7729  -5.6108  -5.5136  -5.4470  -5.3771  -5.3104
    -5.2755  -5.2542  -5.2032  -5.1629  -5.0628  -5.0545  -4.9620  -4.9058
    -4.8763  -4.8451  -4.7665  -4.7445  -4.7280  -4.6787  -4.6180  -4.6084
    -4.5693  -4.4938  -4.4853  -4.4706  -4.4321  -4.4259  -4.3716  -4.2827
    -4.1942  -4.1637  -4.1539  -4.1130  -4.0407  -4.0316  -4.0085  -3.9815
    -3.9750  -3.9448  -3.8683  -3.8425  -3.7361  -3.6448  -3.6155  -3.6002
    -3.5115  -3.4298  -3.3733  -3.3468  -3.1724  -3.1458  -3.1029  -3.0395
    -3.0289  -2.9673  -2.9440  -2.9200  -2.8905  -2.8681  -2.8034  -2.7944
    -2.7933  -2.7729  -2.7482  -2.7010  -2.6512  -2.6304  -2.5680  -2.5384
    -2.5240  -2.4996  -2.4545  -2.4343  -2.3191  -2.2687  -2.2564  -2.2376
    -2.2322  -2.1530  -2.0753  -2.0178  -1.9991  -1.8718  -1.8665  -1.7512
    -1.7081  -1.7022  -1.6493  -1.5765  -1.5307  -1.4832  -1.3721  -1.2408
    -1.1754  -1.0930  -1.0281  -0.7640  -0.6711  -0.5547  -0.5477  -0.5350
    -0.5150  -0.3665  -0.3520  -0.2557   0.9953   1.1313   1.2894   1.3127
     1.5131   1.6010   1.6244   1.6666   1.7664   1.8607

          k = 0.0000 0.0280 0.0000 ( 26907 PWs)   bands (ev):

   -58.2776 -58.2626 -58.2473 -58.2265 -58.1671 -57.7776 -57.7743 -57.7545
   -57.6692 -57.5725 -57.5689 -57.5456 -57.3363 -56.8603 -56.8408 -56.8196
   -56.7387 -56.6386 -34.7052 -34.6675 -34.6508 -34.6207 -34.5938 -34.5255
   -34.5073 -34.4909 -34.4490 -34.4109 -34.4098 -34.4047 -34.3701 -34.3642
   -34.3418 -34.2151 -34.1603 -34.1501 -34.1295 -34.1213 -34.0622 -34.0330
   -34.0121 -34.0007 -33.9994 -33.9593 -33.9567 -33.8722 -33.8594 -33.8401
   -33.8252 -33.8033 -33.7688 -33.7583 -33.7505 -33.7335 -33.6858 -33.5763
   -33.5447 -33.2275 -33.2251 -33.2056 -33.1899 -33.1711 -33.0675 -33.0604
   -33.0569 -33.0252 -32.9844 -32.9837 -32.9509 -32.8960 -32.8883 -32.7702
   -18.9363 -18.7849 -18.7437 -18.4152 -18.3204 -18.2243 -18.0881 -18.0274
   -17.9751 -17.9086 -17.8256 -17.7865 -17.6601 -17.5895 -17.5891 -17.5374
   -17.5225 -17.4445 -17.3950 -17.3848 -17.3561 -17.3135 -17.3131 -17.2822
   -17.2110 -17.2002 -17.1410 -17.0445 -17.0244 -17.0048 -16.8593 -16.7797
   -15.3442 -15.3305 -15.2488 -15.2480 -11.6040  -6.9625  -6.8268  -6.6995
    -6.1150  -5.8886  -5.7183  -5.6465  -5.5960  -5.5006  -5.4182  -5.3123
    -5.2840  -5.2563  -5.2237  -5.2171  -5.1242  -5.1087  -5.0564  -4.9532
    -4.8931  -4.8882  -4.7885  -4.7051  -4.6934  -4.6246  -4.5832  -4.5684
    -4.5623  -4.5205  -4.5054  -4.4788  -4.4672  -4.4077  -4.4020  -4.3423
    -4.3230  -4.2979  -4.2176  -4.1736  -4.0557  -3.9960  -3.9266  -3.8953
    -3.8232  -3.8038  -3.7559  -3.6893  -3.6375  -3.5902  -3.5284  -3.5223
    -3.4437  -3.3887  -3.2900  -3.2736  -3.2204  -3.2119  -3.1689  -3.1164
    -3.0331  -2.9884  -2.9770  -2.9648  -2.9145  -2.9124  -2.8729  -2.8302
    -2.7363  -2.7064  -2.6901  -2.6513  -2.6111  -2.5920  -2.5710  -2.5313
    -2.5082  -2.4680  -2.4374  -2.3367  -2.3218  -2.3108  -2.2679  -2.2510
    -2.2211  -2.1911  -2.1573  -2.0824  -2.0369  -2.0104  -1.8743  -1.7967
    -1.7549  -1.6568  -1.6073  -1.5296  -1.4551  -1.4324  -1.3689  -1.2640
    -1.1899  -1.1446  -1.0861  -0.9243  -0.7133  -0.6682  -0.5419  -0.5142
    -0.4438  -0.4000  -0.3051  -0.2975   1.0962   1.1885   1.2017   1.4277
     1.4789   1.5644   1.5879   1.6837   1.7170   1.8035

          k = 0.0000-0.0559 0.0000 ( 26942 PWs)   bands (ev):

   -58.2735 -58.2689 -58.2452 -58.2264 -58.1671 -57.7774 -57.7743 -57.7548
   -57.6692 -57.5725 -57.5693 -57.5453 -57.3364 -56.8586 -56.8438 -56.8183
   -56.7387 -56.6386 -34.7180 -34.6915 -34.6510 -34.6232 -34.5919 -34.5060
   -34.4915 -34.4349 -34.4300 -34.4175 -34.4095 -34.4062 -34.4049 -34.3647
   -34.3638 -34.2309 -34.1800 -34.1582 -34.1287 -34.1212 -34.0608 -34.0107
   -34.0002 -33.9927 -33.9612 -33.9573 -33.9418 -33.9004 -33.8781 -33.8608
   -33.8240 -33.8032 -33.7685 -33.7591 -33.7500 -33.7343 -33.6872 -33.5762
   -33.5448 -33.2495 -33.2211 -33.2047 -33.1916 -33.1705 -33.0569 -33.0563
   -33.0392 -32.9837 -32.9817 -32.9737 -32.9586 -32.9510 -32.8887 -32.7737
   -18.9219 -18.7623 -18.6905 -18.5521 -18.2771 -18.2356 -18.0798 -17.9668
   -17.9424 -17.9108 -17.8794 -17.8240 -17.7784 -17.6138 -17.5561 -17.5530
   -17.4716 -17.3983 -17.3895 -17.3781 -17.3460 -17.2899 -17.2775 -17.2763
   -17.2645 -17.1481 -17.1461 -17.0566 -17.0508 -17.0010 -16.8789 -16.7711
   -15.3517 -15.3409 -15.2488 -15.2281 -11.6037  -6.9343  -6.8502  -6.6998
    -5.9997  -5.8188  -5.6894  -5.6708  -5.6603  -5.5386  -5.4463  -5.4034
    -5.3344  -5.2769  -5.2665  -5.2014  -5.1588  -5.1144  -5.0518  -4.9881
    -4.9731  -4.9271  -4.8148  -4.7938  -4.7111  -4.6216  -4.6020  -4.5803
    -4.5508  -4.5458  -4.5151  -4.4823  -4.4590  -4.4498  -4.3722  -4.3042
    -4.2699  -4.2253  -4.1875  -4.1498  -4.0668  -3.9983  -3.9228  -3.8980
    -3.8115  -3.8097  -3.7465  -3.6973  -3.5726  -3.4844  -3.4472  -3.3928
    -3.3461  -3.2847  -3.2579  -3.2381  -3.1784  -3.1148  -3.1093  -3.1030
    -3.0048  -2.9726  -2.9630  -2.9458  -2.9181  -2.9048  -2.9042  -2.8885
    -2.7902  -2.7760  -2.7143  -2.6685  -2.6565  -2.6341  -2.5847  -2.5766
    -2.5320  -2.4447  -2.4048  -2.3852  -2.3674  -2.3279  -2.2968  -2.2658
    -2.2400  -2.1811  -2.1183  -2.0784  -1.9949  -1.9822  -1.9267  -1.8527
    -1.7818  -1.6379  -1.5384  -1.4622  -1.4046  -1.3860  -1.3364  -1.3211
    -1.2266  -1.2019  -1.1936  -1.0955  -0.8277  -0.6660  -0.5493  -0.4749
    -0.4287  -0.3818  -0.3684  -0.2778   1.1426   1.1889   1.3614   1.4480
     1.4512   1.5235   1.5695   1.6477   1.6488   1.6948

          k = 0.0380 0.0000 0.0000 ( 26897 PWs)   bands (ev):

   -58.2798 -58.2566 -58.2512 -58.2265 -58.1670 -57.7777 -57.7743 -57.7543
   -57.6693 -57.5725 -57.5684 -57.5460 -57.3363 -56.8617 -56.8379 -56.8211
   -56.7387 -56.6386 -34.6902 -34.6502 -34.6176 -34.6029 -34.5980 -34.5972
   -34.5474 -34.4926 -34.4531 -34.4116 -34.4032 -34.3889 -34.3839 -34.3644
   -34.3161 -34.1928 -34.1415 -34.1353 -34.1224 -34.1215 -34.0772 -34.0633
   -34.0549 -34.0116 -33.9822 -33.9609 -33.9563 -33.8653 -33.8535 -33.8316
   -33.8183 -33.8035 -33.7691 -33.7560 -33.7513 -33.7325 -33.6837 -33.5763
   -33.5469 -33.2336 -33.2084 -33.1883 -33.1716 -33.1657 -33.1485 -33.0697
   -33.0581 -33.0115 -32.9930 -32.9837 -32.9510 -32.8881 -32.8701 -32.7667
   -18.9374 -18.7857 -18.7361 -18.2999 -18.2859 -18.1584 -18.0954 -18.0674
   -17.9678 -17.9278 -17.7382 -17.7228 -17.7213 -17.6622 -17.5330 -17.5089
   -17.4695 -17.4668 -17.4488 -17.4389 -17.4236 -17.3968 -17.3388 -17.3240
   -17.2473 -17.2121 -17.1303 -17.1052 -17.0241 -16.9566 -16.8303 -16.7940
   -15.3359 -15.2979 -15.2890 -15.2488 -11.6031  -6.9732  -6.8077  -6.6993
    -6.1483  -5.6910  -5.5973  -5.5186  -5.4751  -5.4078  -5.3740  -5.3618
    -5.3211  -5.2169  -5.1625  -5.1051  -5.0397  -4.9717  -4.9409  -4.9232
    -4.8920  -4.7929  -4.7421  -4.6862  -4.6488  -4.6402  -4.6086  -4.5712
    -4.5646  -4.5575  -4.5289  -4.4446  -4.4207  -4.3879  -4.3759  -4.2997
    -4.1883  -4.1862  -4.1569  -4.1373  -4.1137  -4.0896  -4.0507  -3.9826
    -3.9487  -3.9243  -3.8741  -3.7598  -3.6742  -3.6625  -3.6074  -3.5302
    -3.4732  -3.4629  -3.4207  -3.3207  -3.2362  -3.1747  -3.1560  -3.1114
    -3.0850  -3.0398  -3.0292  -2.9849  -2.9493  -2.9411  -2.9030  -2.8995
    -2.8587  -2.8008  -2.7667  -2.7414  -2.6920  -2.6393  -2.5873  -2.5718
    -2.5462  -2.4950  -2.4569  -2.3901  -2.3374  -2.2968  -2.2683  -2.2150
    -2.1672  -2.1095  -2.0739  -2.0375  -1.9293  -1.8821  -1.8294  -1.7615
    -1.7179  -1.6583  -1.6431  -1.6284  -1.5408  -1.4994  -1.4656  -1.4184
    -1.1624  -1.1296  -1.0711  -0.7582  -0.7009  -0.6100  -0.5574  -0.5387
    -0.5283  -0.4144  -0.4030  -0.3429   1.0569   1.2223   1.2524   1.2826
     1.3560   1.5300   1.5562   1.6008   1.6729   1.7116

          k = 0.0380 0.0280 0.0000 ( 26880 PWs)   bands (ev):

   -58.2776 -58.2626 -58.2472 -58.2264 -58.1670 -57.7776 -57.7743 -57.7545
   -57.6692 -57.5725 -57.5689 -57.5456 -57.3363 -56.8603 -56.8408 -56.8195
   -56.7387 -56.6386 -34.7053 -34.6680 -34.6508 -34.6207 -34.5937 -34.5257
   -34.5078 -34.4909 -34.4474 -34.4109 -34.4091 -34.4028 -34.3698 -34.3647
   -34.3419 -34.2157 -34.1570 -34.1504 -34.1297 -34.1214 -34.0623 -34.0337
   -34.0148 -34.0104 -33.9736 -33.9613 -33.9579 -33.8724 -33.8680 -33.8394
   -33.8292 -33.8033 -33.7689 -33.7565 -33.7506 -33.7332 -33.6852 -33.5762
   -33.5469 -33.2274 -33.2248 -33.2073 -33.1903 -33.1704 -33.0675 -33.0604
   -33.0580 -33.0252 -32.9843 -32.9837 -32.9510 -32.8961 -32.8883 -32.7701
   -18.9270 -18.7520 -18.7342 -18.3923 -18.2666 -18.1978 -18.0458 -18.0149
   -17.9327 -17.8912 -17.7846 -17.7700 -17.7457 -17.7102 -17.6098 -17.5221
   -17.4836 -17.4652 -17.4484 -17.4105 -17.3815 -17.3573 -17.3320 -17.2786
   -17.2269 -17.1992 -17.1391 -17.1111 -17.0317 -16.9630 -16.8497 -16.7795
   -15.3423 -15.3300 -15.2489 -15.2480 -11.6028  -6.9541  -6.8217  -6.6996
    -6.0840  -5.6400  -5.6115  -5.5691  -5.5397  -5.5174  -5.3694  -5.3296
    -5.3034  -5.2241  -5.1283  -5.0916  -5.0671  -5.0341  -4.9628  -4.9436
    -4.8983  -4.8628  -4.8116  -4.7872  -4.7289  -4.6765  -4.6290  -4.5999
    -4.5703  -4.5334  -4.4964  -4.4626  -4.4244  -4.3975  -4.3485  -4.3112
    -4.2849  -4.1412  -4.1106  -4.0773  -4.0373  -4.0183  -3.9619  -3.8974
    -3.8557  -3.8153  -3.7817  -3.7263  -3.6470  -3.6175  -3.5692  -3.5257
    -3.4618  -3.4061  -3.3573  -3.3010  -3.2426  -3.2144  -3.1856  -3.1482
    -3.0915  -3.0623  -3.0268  -2.9978  -2.9597  -2.9254  -2.9110  -2.8451
    -2.8141  -2.7999  -2.7898  -2.7468  -2.6603  -2.6223  -2.5822  -2.5372
    -2.5156  -2.4951  -2.4817  -2.4309  -2.4014  -2.3581  -2.3110  -2.2689
    -2.2060  -2.1629  -2.1214  -2.0360  -1.9630  -1.8687  -1.8431  -1.8032
    -1.7104  -1.6965  -1.6518  -1.5851  -1.5189  -1.4908  -1.3695  -1.3549
    -1.1777  -1.1632  -1.1242  -0.9360  -0.7073  -0.6918  -0.6139  -0.5145
    -0.4387  -0.4078  -0.3881  -0.3479   1.1130   1.1380   1.3467   1.3915
     1.4072   1.4989   1.5185   1.5852   1.6827   1.7018

          k = 0.0380-0.0559 0.0000 ( 26850 PWs)   bands (ev):

   -58.2735 -58.2689 -58.2451 -58.2264 -58.1671 -57.7774 -57.7742 -57.7547
   -57.6691 -57.5724 -57.5693 -57.5452 -57.3363 -56.8586 -56.8438 -56.8182
   -56.7387 -56.6385 -34.7180 -34.6921 -34.6509 -34.6232 -34.5918 -34.5060
   -34.4915 -34.4336 -34.4287 -34.4176 -34.4096 -34.4062 -34.4029 -34.3652
   -34.3636 -34.2316 -34.1764 -34.1585 -34.1288 -34.1212 -34.0608 -34.0091
   -33.9944 -33.9931 -33.9619 -33.9597 -33.9355 -33.9007 -33.8781 -33.8685
   -33.8273 -33.8031 -33.7688 -33.7569 -33.7500 -33.7339 -33.6866 -33.5761
   -33.5469 -33.2491 -33.2209 -33.2060 -33.1925 -33.1695 -33.0580 -33.0562
   -33.0392 -32.9836 -32.9816 -32.9736 -32.9585 -32.9509 -32.8886 -32.7736
   -18.9159 -18.7567 -18.6607 -18.5121 -18.2574 -18.1860 -18.0213 -17.9269
   -17.9140 -17.8760 -17.8512 -17.7911 -17.7616 -17.7377 -17.7278 -17.5053
   -17.4887 -17.4752 -17.4148 -17.4133 -17.3636 -17.3252 -17.3119 -17.2431
   -17.2358 -17.1726 -17.1461 -17.1174 -17.0402 -16.9695 -16.8636 -16.7707
   -15.3504 -15.3396 -15.2489 -15.2278 -11.6024  -6.9287  -6.8420  -6.6998
    -5.9741  -5.7716  -5.6765  -5.5901  -5.4384  -5.4101  -5.4006  -5.3641
    -5.3189  -5.2242  -5.1597  -5.1386  -5.1130  -5.0474  -4.9972  -4.9527
    -4.9391  -4.9307  -4.9000  -4.8481  -4.7668  -4.6619  -4.6468  -4.6341
    -4.5951  -4.5374  -4.4944  -4.4658  -4.4412  -4.4209  -4.3069  -4.2629
    -4.2011  -4.1610  -4.0921  -4.0597  -4.0057  -3.9612  -3.9026  -3.8645
    -3.8264  -3.7782  -3.6886  -3.5922  -3.5537  -3.5029  -3.4802  -3.4627
    -3.4448  -3.3883  -3.3644  -3.3393  -3.2648  -3.1984  -3.1643  -3.1243
    -3.1143  -3.0998  -3.0342  -2.9899  -2.9467  -2.9047  -2.8907  -2.8636
    -2.8364  -2.8158  -2.7427  -2.7196  -2.6987  -2.6854  -2.6379  -2.5992
    -2.5602  -2.5325  -2.4776  -2.4574  -2.4121  -2.3703  -2.3240  -2.2940
    -2.2334  -2.1365  -2.1196  -2.0552  -1.9658  -1.9317  -1.8681  -1.8144
    -1.7623  -1.6928  -1.5733  -1.5584  -1.5012  -1.3830  -1.3573  -1.2812
    -1.2527  -1.2120  -1.1937  -1.0924  -0.8158  -0.6847  -0.6182  -0.4673
    -0.4221  -0.3889  -0.3829  -0.3716   1.0951   1.1987   1.3752   1.4103
     1.4595   1.5354   1.6108   1.6428   1.6557   1.6818

          k = 0.0380-0.0280 0.0000 ( 26873 PWs)   bands (ev):

   -58.2776 -58.2626 -58.2472 -58.2264 -58.1670 -57.7776 -57.7743 -57.7545
   -57.6692 -57.5725 -57.5689 -57.5456 -57.3363 -56.8603 -56.8408 -56.8195
   -56.7387 -56.6386 -34.7053 -34.6680 -34.6508 -34.6207 -34.5937 -34.5257
   -34.5078 -34.4909 -34.4474 -34.4109 -34.4091 -34.4027 -34.3698 -34.3647
   -34.3419 -34.2157 -34.1570 -34.1504 -34.1297 -34.1214 -34.0623 -34.0337
   -34.0146 -34.0104 -33.9738 -33.9611 -33.9579 -33.8724 -33.8680 -33.8393
   -33.8292 -33.8033 -33.7689 -33.7565 -33.7506 -33.7332 -33.6852 -33.5762
   -33.5469 -33.2274 -33.2248 -33.2073 -33.1903 -33.1704 -33.0675 -33.0604
   -33.0580 -33.0252 -32.9843 -32.9837 -32.9510 -32.8961 -32.8883 -32.7701
   -18.9270 -18.7520 -18.7342 -18.3922 -18.2666 -18.1978 -18.0457 -18.0153
   -17.9327 -17.8911 -17.7850 -17.7699 -17.7453 -17.7103 -17.6094 -17.5226
   -17.4835 -17.4650 -17.4482 -17.4108 -17.3814 -17.3577 -17.3316 -17.2782
   -17.2272 -17.1995 -17.1388 -17.1112 -17.0317 -16.9630 -16.8497 -16.7795
   -15.3423 -15.3300 -15.2489 -15.2480 -11.6028  -6.9541  -6.8217  -6.6995
    -6.0839  -5.6399  -5.6111  -5.5686  -5.5403  -5.5172  -5.3692  -5.3295
    -5.3036  -5.2242  -5.1292  -5.0919  -5.0669  -5.0340  -4.9627  -4.9437
    -4.8981  -4.8629  -4.8113  -4.7875  -4.7287  -4.6763  -4.6292  -4.6000
    -4.5706  -4.5334  -4.4968  -4.4625  -4.4240  -4.3972  -4.3491  -4.3105
    -4.2844  -4.1417  -4.1112  -4.0776  -4.0377  -4.0187  -3.9620  -3.8979
    -3.8558  -3.8148  -3.7815  -3.7262  -3.6470  -3.6172  -3.5690  -3.5254
    -3.4611  -3.4070  -3.3577  -3.3004  -3.2420  -3.2138  -3.1859  -3.1483
    -3.0919  -3.0621  -3.0267  -2.9977  -2.9596  -2.9254  -2.9114  -2.8453
    -2.8142  -2.7991  -2.7888  -2.7478  -2.6593  -2.6213  -2.5826  -2.5371
    -2.5155  -2.4953  -2.4819  -2.4305  -2.4016  -2.3582  -2.3108  -2.2683
    -2.2070  -2.1633  -2.1220  -2.0367  -1.9628  -1.8687  -1.8430  -1.8036
    -1.7109  -1.6961  -1.6518  -1.5849  -1.5188  -1.4912  -1.3696  -1.3549
    -1.1780  -1.1630  -1.1241  -0.9359  -0.7073  -0.6916  -0.6140  -0.5146
    -0.4386  -0.4085  -0.3880  -0.3475   1.1132   1.1382   1.3478   1.3919
     1.4079   1.4985   1.5186   1.5849   1.6818   1.7022

          k =-0.0760-0.0000 0.0000 ( 26902 PWs)   bands (ev):

   -58.2797 -58.2566 -58.2512 -58.2265 -58.1670 -57.7777 -57.7743 -57.7543
   -57.6693 -57.5725 -57.5684 -57.5460 -57.3363 -56.8617 -56.8379 -56.8211
   -56.7386 -56.6386 -34.6904 -34.6502 -34.6177 -34.6037 -34.5984 -34.5976
   -34.5476 -34.4926 -34.4513 -34.4116 -34.4014 -34.3885 -34.3836 -34.3644
   -34.3161 -34.1934 -34.1417 -34.1357 -34.1224 -34.1175 -34.0777 -34.0686
   -34.0550 -34.0098 -33.9692 -33.9609 -33.9553 -33.8750 -33.8535 -33.8361
   -33.8180 -33.8034 -33.7689 -33.7545 -33.7514 -33.7322 -33.6832 -33.5762
   -33.5493 -33.2335 -33.2102 -33.1881 -33.1714 -33.1656 -33.1484 -33.0696
   -33.0592 -33.0116 -32.9931 -32.9837 -32.9512 -32.8881 -32.8702 -32.7667
   -18.9266 -18.7385 -18.7361 -18.2966 -18.2013 -18.1439 -18.0839 -18.0312
   -17.9011 -17.8704 -17.7765 -17.7671 -17.7309 -17.6872 -17.6054 -17.5379
   -17.5303 -17.4929 -17.4546 -17.4201 -17.4137 -17.4070 -17.3787 -17.3438
   -17.2622 -17.2287 -17.1801 -17.0922 -17.0134 -16.9466 -16.8273 -16.7935
   -15.3334 -15.2983 -15.2893 -15.2490 -11.6020  -6.9644  -6.8044  -6.6993
    -6.1299  -5.4907  -5.4536  -5.4026  -5.3478  -5.3217  -5.3009  -5.2584
    -5.2391  -5.2130  -5.1391  -5.0679  -5.0310  -4.9634  -4.8731  -4.8647
    -4.8020  -4.7870  -4.7843  -4.7647  -4.7325  -4.6911  -4.6837  -4.6726
    -4.6326  -4.6013  -4.5060  -4.4466  -4.3616  -4.3469  -4.2836  -4.2715
    -4.2630  -4.2279  -4.1032  -4.0332  -4.0257  -4.0233  -4.0086  -3.9781
    -3.8983  -3.8793  -3.8490  -3.8206  -3.7033  -3.6481  -3.6195  -3.5370
    -3.5066  -3.4514  -3.4505  -3.4055  -3.3069  -3.2658  -3.2505  -3.1915
    -3.1616  -3.0974  -3.0674  -3.0074  -2.9973  -2.9528  -2.9335  -2.9114
    -2.8960  -2.8707  -2.7915  -2.7344  -2.7296  -2.7053  -2.6446  -2.6379
    -2.6302  -2.5626  -2.5572  -2.4908  -2.3417  -2.3116  -2.2536  -2.2425
    -2.1192  -2.0960  -2.0405  -1.9741  -1.9403  -1.8528  -1.7888  -1.7185
    -1.6715  -1.6451  -1.6253  -1.6119  -1.5612  -1.5470  -1.5293  -1.4598
    -1.2737  -1.1504  -1.0533  -0.7529  -0.7204  -0.6921  -0.5722  -0.5235
    -0.5170  -0.4625  -0.4545  -0.4043   1.0719   1.1114   1.2193   1.2429
     1.4034   1.4953   1.5184   1.5282   1.5968   1.6964

          k =-0.0760 0.0279 0.0000 ( 26908 PWs)   bands (ev):

   -58.2776 -58.2626 -58.2473 -58.2264 -58.1670 -57.7776 -57.7743 -57.7545
   -57.6692 -57.5725 -57.5689 -57.5456 -57.3363 -56.8603 -56.8408 -56.8195
   -56.7387 -56.6386 -34.7055 -34.6688 -34.6508 -34.6208 -34.5938 -34.5259
   -34.5083 -34.4910 -34.4458 -34.4109 -34.4083 -34.4013 -34.3699 -34.3649
   -34.3420 -34.2165 -34.1537 -34.1507 -34.1299 -34.1217 -34.0623 -34.0343
   -34.0179 -34.0088 -33.9680 -33.9574 -33.9537 -33.8793 -33.8727 -33.8385
   -33.8332 -33.8033 -33.7691 -33.7548 -33.7507 -33.7329 -33.6847 -33.5761
   -33.5493 -33.2272 -33.2246 -33.2091 -33.1908 -33.1700 -33.0675 -33.0604
   -33.0593 -33.0253 -32.9844 -32.9836 -32.9512 -32.8961 -32.8884 -32.7701
   -18.9188 -18.7440 -18.6970 -18.3714 -18.2201 -18.1511 -18.0157 -17.9891
   -17.8771 -17.8294 -17.8233 -17.7525 -17.7499 -17.6564 -17.6188 -17.5974
   -17.5802 -17.5524 -17.5383 -17.4930 -17.3899 -17.3479 -17.3301 -17.2766
   -17.2665 -17.1892 -17.1497 -17.0973 -17.0217 -16.9519 -16.8430 -16.7795
   -15.3405 -15.3294 -15.2491 -15.2481 -11.6016  -6.9467  -6.8166  -6.6996
    -6.0652  -5.6192  -5.6179  -5.5533  -5.3585  -5.2420  -5.2089  -5.2076
    -5.1966  -5.1432  -5.1069  -5.0956  -5.0797  -4.9890  -4.9477  -4.9197
    -4.8502  -4.8277  -4.8168  -4.7968  -4.6796  -4.6779  -4.6450  -4.6184
    -4.6180  -4.5330  -4.4912  -4.4631  -4.4343  -4.4123  -4.3820  -4.2928
    -4.2177  -4.1861  -4.1090  -4.0701  -4.0319  -4.0202  -3.9279  -3.8730
    -3.7679  -3.7609  -3.7394  -3.6876  -3.6781  -3.6406  -3.6088  -3.5310
    -3.4800  -3.4555  -3.4028  -3.3147  -3.3115  -3.2702  -3.2299  -3.2061
    -3.1875  -3.1327  -3.0740  -3.0524  -2.9840  -2.9748  -2.9501  -2.9203
    -2.8943  -2.7987  -2.7927  -2.7471  -2.7448  -2.7010  -2.6763  -2.6531
    -2.6176  -2.5725  -2.5283  -2.5033  -2.4776  -2.4609  -2.3339  -2.3098
    -2.2103  -2.0868  -2.0159  -1.9105  -1.9083  -1.8696  -1.7749  -1.7596
    -1.6728  -1.6721  -1.6435  -1.6093  -1.5949  -1.5889  -1.3678  -1.3281
    -1.2634  -1.1487  -1.1319  -0.9475  -0.7166  -0.6950  -0.6821  -0.5159
    -0.4776  -0.4229  -0.4189  -0.3786   1.0736   1.1215   1.2127   1.3572
     1.4450   1.4566   1.4821   1.5150   1.6433   1.6851

          k =-0.0760-0.0559 0.0000 ( 26868 PWs)   bands (ev):

   -58.2734 -58.2689 -58.2451 -58.2264 -58.1671 -57.7774 -57.7742 -57.7547
   -57.6691 -57.5724 -57.5693 -57.5452 -57.3363 -56.8586 -56.8438 -56.8182
   -56.7387 -56.6385 -34.7181 -34.6927 -34.6509 -34.6232 -34.5917 -34.5060
   -34.4915 -34.4325 -34.4275 -34.4178 -34.4100 -34.4063 -34.4016 -34.3655
   -34.3639 -34.2324 -34.1727 -34.1588 -34.1290 -34.1212 -34.0607 -34.0077
   -33.9937 -33.9896 -33.9666 -33.9586 -33.9260 -33.9011 -33.8832 -33.8751
   -33.8307 -33.8031 -33.7692 -33.7551 -33.7500 -33.7336 -33.6860 -33.5760
   -33.5493 -33.2489 -33.2207 -33.2074 -33.1937 -33.1689 -33.0593 -33.0562
   -33.0391 -32.9836 -32.9815 -32.9736 -32.9585 -32.9513 -32.8885 -32.7736
   -18.9101 -18.7526 -18.6282 -18.4711 -18.2345 -18.1319 -17.9704 -17.8868
   -17.8626 -17.8598 -17.8439 -17.7445 -17.7386 -17.7032 -17.6458 -17.6188
   -17.6082 -17.6038 -17.5549 -17.5519 -17.3569 -17.3472 -17.2922 -17.2507
   -17.2261 -17.2039 -17.1039 -17.1024 -17.0319 -16.9571 -16.8536 -16.7705
   -15.3491 -15.3384 -15.2491 -15.2275 -11.6012  -6.9237  -6.8340  -6.6999
    -5.9557  -5.7459  -5.7184  -5.6691  -5.3508  -5.2967  -5.1959  -5.1678
    -5.1293  -5.1130  -5.0725  -5.0705  -5.0006  -4.9561  -4.9422  -4.9154
    -4.9012  -4.8715  -4.8411  -4.8162  -4.7537  -4.7496  -4.7347  -4.6913
    -4.6443  -4.5593  -4.5365  -4.5182  -4.4677  -4.4284  -4.2539  -4.2077
    -4.1816  -4.1667  -4.0810  -4.0562  -3.9795  -3.9497  -3.9060  -3.8303
    -3.7358  -3.6883  -3.6386  -3.5833  -3.5577  -3.5269  -3.5215  -3.4690
    -3.4406  -3.3910  -3.3586  -3.3529  -3.3019  -3.2452  -3.1992  -3.1804
    -3.1541  -3.1490  -3.1261  -3.1003  -3.0698  -3.0470  -3.0425  -2.9845
    -2.9369  -2.9241  -2.8495  -2.8176  -2.7635  -2.7104  -2.6867  -2.6307
    -2.6236  -2.5697  -2.5640  -2.4996  -2.4716  -2.4231  -2.4101  -2.3389
    -2.1600  -2.0960  -1.9912  -1.9465  -1.9356  -1.8664  -1.8332  -1.8208
    -1.6813  -1.6708  -1.6076  -1.6046  -1.5794  -1.3673  -1.3398  -1.3039
    -1.2738  -1.2355  -1.2023  -1.0900  -0.7975  -0.7101  -0.6739  -0.4839
    -0.4619  -0.4178  -0.3870  -0.3726   1.0405   1.2089   1.2772   1.3584
     1.3796   1.4218   1.4516   1.6378   1.6696   1.7009

     the Fermi energy is     0.3953 ev

!    total energy              =   -3293.27281707 Ry
     estimated scf accuracy    <       0.00000006 Ry
     smearing contrib. (-TS)   =      -0.00047511 Ry
     internal energy E=F+TS    =   -3293.27234196 Ry

     The total energy is F=E-TS. E is the sum of the following terms:
     one-electron contribution =  -34645.89886681 Ry
     hartree contribution      =   17387.48290569 Ry
     xc contribution           =    -542.13006576 Ry
     ewald contribution        =   14507.27150317 Ry
     electric field correction =       0.00218176 Ry

     convergence has been achieved in  45 iterations

     Forces acting on atoms (cartesian axes, Ry/au):

     atom    1 type  1   force =     0.00002322    0.00608776    0.04335181
     atom    2 type  1   force =     0.00001064   -0.00403151   -0.00308501
     atom    3 type  1   force =     0.00000426    0.00281639   -0.00207411
     atom    4 type  1   force =     0.00005029   -0.00045138    0.10165248
     atom    5 type  1   force =    -0.00000395    0.00014060    0.00747609
     atom    6 type  1   force =    -0.00001557    0.00311613    0.00046806
     atom    7 type  1   force =     0.07786724    0.00122855   -0.03553072
     atom    8 type  1   force =     0.00795023   -0.02605353    0.00024979
     atom    9 type  1   force =     0.00931506    0.01908042    0.00058244
     atom   10 type  2   force =    -0.00007002    0.00812764   -0.15939827
     atom   11 type  2   force =    -0.00006661    0.02226750   -0.00327742
     atom   12 type  2   force =     0.00002207   -0.02374293   -0.00519185
     atom   13 type  1   force =    -0.07795636    0.00076269   -0.03552257
     atom   14 type  1   force =    -0.00807612   -0.02592998    0.00026661
     atom   15 type  1   force =    -0.00940260    0.01916981    0.00062325
     atom   16 type  2   force =     0.00009796    0.00151213    0.07236692
     atom   17 type  2   force =     0.00008992    0.03130316    0.00147385
     atom   18 type  2   force =     0.00013355   -0.02629722    0.00309453
     atom   19 type  1   force =     0.00005409    0.00277705    0.05722002
     atom   20 type  1   force =     0.00000108   -0.00178090    0.00097084
     atom   21 type  1   force =     0.00004757   -0.00089240    0.10058474
     atom   22 type  1   force =     0.00000570   -0.00255973    0.00650911
     atom   23 type  1   force =    -0.00002435    0.00311230    0.00436242
     atom   24 type  1   force =     0.07898653    0.00059533   -0.03634849
     atom   25 type  1   force =     0.00961766   -0.02997144    0.00063751
     atom   26 type  1   force =     0.01029256    0.01568426    0.00408065
     atom   27 type  2   force =    -0.00008906   -0.00571478   -0.15463350
     atom   28 type  2   force =     0.00002452    0.02797076   -0.00280471
     atom   29 type  2   force =    -0.00005198   -0.01130607   -0.01283470
     atom   30 type  1   force =    -0.07906705    0.00019241   -0.03635273
     atom   31 type  1   force =    -0.00970199   -0.02980587    0.00064298
     atom   32 type  1   force =    -0.01026811    0.01544889    0.00391554
     atom   33 type  2   force =     0.00011948   -0.00296315    0.07718969
     atom   34 type  2   force =     0.00003960    0.03527797    0.00328773
     atom   35 type  2   force =     0.00005314   -0.01751297   -0.00024582
     atom   36 type  1   force =     0.00008466    0.00416355    0.05150330
     atom   37 type  1   force =    -0.00000942   -0.00283994   -0.00287132
     atom   38 type  1   force =     0.00005230    0.00203042    0.00345494
     atom   39 type  1   force =     0.00004468    0.00293663    0.10098843
     atom   40 type  1   force =    -0.00000482   -0.00195838    0.00749009
     atom   41 type  1   force =    -0.00000844    0.00063761    0.00073677
     atom   42 type  1   force =     0.07839135    0.00162619   -0.03445121
     atom   43 type  1   force =     0.00609606   -0.02323608   -0.00031982
     atom   44 type  1   force =     0.01002670    0.01592574   -0.00679800
     atom   45 type  2   force =    -0.00005257   -0.00740466   -0.16394831
     atom   46 type  2   force =    -0.00003513    0.01845348    0.00055674
     atom   47 type  2   force =     0.00013144   -0.01468119    0.01690205
     atom   48 type  1   force =    -0.07849385    0.00118223   -0.03443579
     atom   49 type  1   force =    -0.00608609   -0.02325995   -0.00031891
     atom   50 type  1   force =    -0.01018336    0.01573596   -0.00654166
     atom   51 type  2   force =     0.00010307   -0.00343918    0.06018452
     atom   52 type  2   force =     0.00004743    0.02831881    0.00339182
     atom   53 type  2   force =     0.00000507   -0.02106847    0.00088808
     atom   54 type  3   force =    -0.00009293    0.00068686   -0.00179455
     atom   55 type  3   force =    -0.00002417   -0.00074260   -0.00042694
     atom   56 type  4   force =     0.00000290    0.00036074    0.00165833
     atom   57 type  4   force =    -0.00005762   -0.00085929    0.00061799
     atom   58 type  3   force =     0.00001389   -0.00035851   -0.00040845
     atom   59 type  3   force =     0.00003622    0.00013213    0.00023474

     Total force =     0.434805     Total SCF correction =     0.000732
  @ DRIVER MODE: Message from server: STATUS
  @ DRIVER MODE: Message from server: GETFORCE
  @ DRIVER MODE: Returning v,forces,stress,ensemble 

     Writing output data file ./calc.save/
  @ DRIVER MODE: Message from server: EXIT
  @ DRIVE MODE: Exiting  
 
     init_run     :     17.84s CPU     18.23s WALL (       1 calls)
     electrons    :   1243.53s CPU   1269.14s WALL (       1 calls)
     forces       :      4.34s CPU      4.53s WALL (       1 calls)

     Called by init_run:
     wfcinit      :      9.62s CPU      9.75s WALL (       1 calls)
     potinit      :      7.22s CPU      7.32s WALL (       1 calls)
     hinit0       :      0.42s CPU      0.43s WALL (       1 calls)

     Called by electrons:
     c_bands      :   1030.20s CPU   1043.59s WALL (      45 calls)
     sum_band     :    149.38s CPU    155.11s WALL (      45 calls)
     v_of_rho     :     50.61s CPU     52.41s WALL (      46 calls)
     newd         :     17.73s CPU     22.40s WALL (      46 calls)
     mix_rho      :      1.85s CPU      1.94s WALL (      45 calls)
     vdW_kernel   :      5.83s CPU      5.85s WALL (       1 calls)

     Called by c_bands:
     init_us_2    :      7.30s CPU      7.36s WALL (     920 calls)
     cegterg      :   1006.45s CPU   1019.47s WALL (     450 calls)

     Called by *egterg:
     cdiaghg      :    105.66s CPU    106.22s WALL (    3143 calls)
     h_psi        :    598.48s CPU    606.33s WALL (    3153 calls)
     s_psi        :     75.64s CPU     75.84s WALL (    3153 calls)
     g_psi        :      1.99s CPU      2.01s WALL (    2693 calls)

     Called by h_psi:
     h_psi:calbec :     71.86s CPU     72.59s WALL (    3153 calls)
     vloc_psi     :    448.03s CPU    451.72s WALL (    3153 calls)
     add_vuspsi   :     75.79s CPU     77.00s WALL (    3153 calls)

     General routines
     calbec       :     99.10s CPU     99.90s WALL (    3643 calls)
     fft          :     27.36s CPU     27.48s WALL (    2898 calls)
     ffts         :      0.16s CPU      0.16s WALL (      91 calls)
     fftw         :    502.41s CPU    506.43s WALL (  636268 calls)
     interpolate  :      0.52s CPU      0.53s WALL (      46 calls)
     davcio       :      0.00s CPU      0.19s WALL (      10 calls)
 
     Parallel routines
 
     PWSCF        :  21m 6.00s CPU  21m32.62s WALL

 
   This run was terminated on:  23:29:33  18Oct2021            

=------------------------------------------------------------------------------=
   JOB DONE.
=------------------------------------------------------------------------------=
