
     Program PWSCF v.6.7GPU starts on 25Aug2021 at  0:22: 6 

     This program is part of the open-source Quantum ESPRESSO suite
     for quantum simulation of materials; please cite
         "P. Giannozzi et al., J. Phys.:Condens. Matter 21 395502 (2009);
         "P. Giannozzi et al., J. Phys.:Condens. Matter 29 465901 (2017);
         "P. Giannozzi et al., J. Chem. Phys. 152 154105 (2020);
          URL http://www.quantum-espresso.org", 
     in publications or presentations arising from this work. More details at
     http://www.quantum-espresso.org/quote

     Parallel version (MPI), running on     6 processors

     MPI processes distributed on     1 nodes
     R & G space division:  proc/nbgrp/npool/nimage =       6
     Reading input from /storage/home/hcoda1/3/ntian30/research/carbon/CH3_vib_end_on/ads_slab/CH3NHNH2_a/out_0014/pw.inp
Warning: card &CELL ignored
Warning: card   CELL_DYNAMICS='IPI', ignored
Warning: card / ignored

     Current dimensions of program PWSCF are:
     Max number of different atomic species (ntypx) = 10
     Max number of k-points (npk) =  40000
     Max angular momentum in pseudopotentials (lmaxx) =  3
     Presently no symmetry can be used with electric field

     Message from routine cell_base_init:
     DEPRECATED: use true lattice parameter, not A to a.u. conversion factor

     **************************************************************************
     Initializing libbeef V0.1.2 with the BEEF-vdW functional.
     Citation: Wellendorff et al., PRB 85, 235149 (2012).
     **************************************************************************


     IMPORTANT: XC functional enforced from input :
     Exchange-correlation= BEEF-VDW
                           (   1   4  43  14   2   0   0)
     Any further DFT definition will be discarded
     Please, verify this is what you really want


     Subspace diagonalization in iterative solution of the eigenvalue problem:
     one sub-group per band group will be used
     scalapack distributed-memory algorithm (size of sub-group:  2*  2 procs)

  @ DRIVER MODE: Connecting to 
 qe_1139763_2643871.sched-torque.pace.gatech.edu4xz170m6_scratch
  using UNIX socket
  @ DRIVER MODE: Message from server: STATUS
  @ DRIVER MODE: Message from server: INIT
  @ DRIVER MODE: Receiving replica           0          -1
  @ DRIVER MODE: Receiving encoded integer          25
  @ DRIVER MODE:  SCF:  T  FORCE:  T  STRESS:  F  VC:  F  ENSEMBLE:  F
  @ DRIVER MODE:  SCF:  T  FORCE:  T  STRESS:  F  VC:  F  ENSEMBLE:  F
 
     Parallelization info
     --------------------
     sticks:   dense  smooth     PW     G-vecs:    dense   smooth      PW
     Min         545     219     63                94473    23902    3663
     Max         546     222     64                94484    23905    3665
     Sum        3275    1317    379               566857   143421   21985
 
     Using Slab Decomposition
 


     bravais-lattice index     =            0
     lattice parameter (alat)  =       1.8897  a.u.
     unit-cell volume          =    6658.9804 (a.u.)^3
     number of atoms/cell      =           56
     number of atomic types    =            5
     number of electrons       =       398.00
     number of Kohn-Sham states=          209
     kinetic-energy cutoff     =      29.3995  Ry
     charge density cutoff     =     293.9946  Ry
     scf convergence threshold =      7.3E-08
     mixing beta               =       0.0500
     number of iterations used =            8  plain     mixing
     Exchange-correlation= BEEF-VDW
                           (   1   4  43  14   2   0   0)

     celldm(1)=   1.889726  celldm(2)=   0.000000  celldm(3)=   0.000000
     celldm(4)=   0.000000  celldm(5)=   0.000000  celldm(6)=   0.000000

     crystal axes: (cart. coord. in units of alat)
               a(1) = (   6.579727   0.000000   0.000000 )  
               a(2) = (  -0.000775   5.961596   0.000000 )  
               a(3) = (   0.000000   0.000000  25.155947 )  

     reciprocal axes: (cart. coord. in units 2 pi/alat)
               b(1) = (  0.151982  0.000020  0.000000 )  
               b(2) = (  0.000000  0.167740  0.000000 )  
               b(3) = (  0.000000  0.000000  0.039752 )  


     PseudoPot. # 1 for Ti read from file:
     /storage/coda1/p-amedford6/0/shared/rich_project_chbe-medford/medford-share/data/pseudos_module/espresso/nninc/pbe/van/Ti.UPF
     MD5 check sum: 8e4df49b7f0d34bbd5052bf3f5ea0213
     Pseudo is Ultrasoft, Zval = 12.0
     Generated by new atomic code, or converted to UPF format
     Using radial grid of  851 points,  6 beta functions with: 
                l(1) =   0
                l(2) =   0
                l(3) =   1
                l(4) =   1
                l(5) =   2
                l(6) =   2
     Q(r) pseudized with  8 coefficients,  rinner =    1.000   1.000   1.000
                                                       1.000   1.000

     PseudoPot. # 2 for O  read from file:
     /storage/coda1/p-amedford6/0/shared/rich_project_chbe-medford/medford-share/data/pseudos_module/espresso/nninc/pbe/van/O.UPF
     MD5 check sum: 78c19812648e8988a0fe644b0f25305e
     Pseudo is Ultrasoft, Zval =  6.0
     Generated by new atomic code, or converted to UPF format
     Using radial grid of  737 points,  4 beta functions with: 
                l(1) =   0
                l(2) =   0
                l(3) =   1
                l(4) =   1
     Q(r) pseudized with  8 coefficients,  rinner =    0.800   0.800   0.800


     PseudoPot. # 3 for N  read from file:
     /storage/coda1/p-amedford6/0/shared/rich_project_chbe-medford/medford-share/data/pseudos_module/espresso/nninc/pbe/van/N.UPF
     MD5 check sum: 90d10febe142ad51ac9d5be1deb811c4
     Pseudo is Ultrasoft, Zval =  5.0
     Generated by new atomic code, or converted to UPF format
     Using radial grid of  729 points,  4 beta functions with: 
                l(1) =   0
                l(2) =   0
                l(3) =   1
                l(4) =   1
     Q(r) pseudized with  8 coefficients,  rinner =    0.800   0.800   0.800


     PseudoPot. # 4 for C  read from file:
     /storage/coda1/p-amedford6/0/shared/rich_project_chbe-medford/medford-share/data/pseudos_module/espresso/nninc/pbe/van/C.UPF
     MD5 check sum: 1a69bf6b8db32088f5b2163dbdb77a27
     Pseudo is Ultrasoft, Zval =  4.0
     Generated by new atomic code, or converted to UPF format
     Using radial grid of  721 points,  4 beta functions with: 
                l(1) =   0
                l(2) =   0
                l(3) =   1
                l(4) =   1
     Q(r) pseudized with  8 coefficients,  rinner =    0.800   0.800   0.800


     PseudoPot. # 5 for H  read from file:
     /storage/coda1/p-amedford6/0/shared/rich_project_chbe-medford/medford-share/data/pseudos_module/espresso/nninc/pbe/van/H.UPF
     MD5 check sum: b5ee9d7bfd3a09ee7748110bda690ff7
     Pseudo is Ultrasoft, Zval =  1.0
     Generated by new atomic code, or converted to UPF format
     Using radial grid of  615 points,  1 beta functions with: 
                l(1) =   0
     Q(r) pseudized with  8 coefficients,  rinner =    0.800

     atomic species   valence    mass     pseudopotential
        Ti1           12.00    47.86700     Ti( 1.00)
        O1             6.00    15.99900     O ( 1.00)
        N1             5.00    14.00700     N ( 1.00)
        C1             4.00    12.01100     C ( 1.00)
        H1             1.00     1.00800     H ( 1.00)

     No symmetry found



   Cartesian axes

     site n.     atom                  positions (alat units)
         1           Ti1 tau(   1) = (   0.0004258   2.9801865   6.0000000  )
         2           Ti1 tau(   2) = (   3.2906075   1.4906267   6.0002472  )
         3           O1  tau(   3) = (   0.0006271   0.0005054   7.9858123  )
         4           O1  tau(   4) = (   3.2906025   0.0005020   7.3038282  )
         5           O1  tau(   5) = (   4.5942328   1.4918067   9.2879030  )
         6           O1  tau(   6) = (   1.9868534   1.4903216   9.2879459  )
         7           Ti1 tau(   7) = (   3.2907910   2.8959150   9.1758416  )
         8           Ti1 tau(   8) = (   0.0015273   1.4827037   9.2680791  )
         9           O1  tau(   9) = (   3.2714441   0.0289406  11.3813764  )
        10           O1  tau(  10) = (   0.0116148   5.9584955  10.6183126  )
        11           O1  tau(  11) = (   1.2692032   1.5162281  12.7122965  )
        12           O1  tau(  12) = (   5.2779133   1.5159715  12.6811497  )
        13           Ti1 tau(  13) = (   6.5579218   3.0031650  12.5037829  )
        14           Ti1 tau(  14) = (   3.2791490   1.5128154  12.5375672  )
        15           O1  tau(  15) = (   6.5208524   5.8954130  14.6845636  )
        16           O1  tau(  16) = (   3.2849572   0.0099931  14.0031570  )
        17           O1  tau(  17) = (   4.4884262   1.5607690  16.1641467  )
        18           O1  tau(  18) = (   1.9729656   1.5430890  16.0903287  )
        19           Ti1 tau(  19) = (   3.2372663   3.0309179  15.7728032  )
        20           Ti1 tau(  20) = (   6.5553692   1.3539605  15.8053163  )
        21           O1  tau(  21) = (   3.2904802   0.0005063   4.7018136  )
        22           O1  tau(  22) = (   6.5123495   0.2165906  17.2215032  )
        23           O1  tau(  23) = (   1.3043587   1.4918075   6.0039043  )
        24           O1  tau(  24) = (   5.2767064   1.4903225   6.0039473  )
        25           Ti1 tau(  25) = (   0.0000382   5.9609847   6.0000000  )
        26           Ti1 tau(  26) = (   3.2902200   4.4714249   6.0002472  )
        27           O1  tau(  27) = (   0.0002396   2.9813036   7.9858123  )
        28           O1  tau(  28) = (   3.2902150   2.9813002   7.3038282  )
        29           O1  tau(  29) = (   4.5938453   4.4726049   9.2879030  )
        30           O1  tau(  30) = (   1.9864658   4.4711199   9.2879459  )
        31           Ti1 tau(  31) = (   3.2891106   5.8743827   9.1763621  )
        32           Ti1 tau(  32) = (   0.0006254   4.4649316   9.2693709  )
        33           O1  tau(  33) = (   3.2699379   2.9911670  11.3762017  )
        34           O1  tau(  34) = (   0.0092240   2.9805883  10.6323155  )
        35           O1  tau(  35) = (   1.2730946   4.4825978  12.6662957  )
        36           O1  tau(  36) = (   5.2742290   4.4829497  12.6320226  )
        37           Ti1 tau(  37) = (   6.5783117   0.0079037  12.5026730  )
        38           Ti1 tau(  38) = (   3.2784283   4.4905194  12.5286134  )
        39           O1  tau(  39) = (   6.5033290   3.0824797  14.9867588  )
        40           O1  tau(  40) = (   3.2824109   3.0350539  13.9807796  )
        41           O1  tau(  41) = (   4.4804250   4.5097483  16.2808085  )
        42           O1  tau(  42) = (   1.9642025   4.5165872  16.2225063  )
        43           Ti1 tau(  43) = (   3.2609991   0.0502580  15.7998297  )
        44           Ti1 tau(  44) = (   6.5501253   4.5826093  16.0954727  )
        45           O1  tau(  45) = (   3.2900926   2.9813045   4.7018136  )
        46           O1  tau(  46) = (   1.3039711   4.4726057   6.0039043  )
        47           O1  tau(  47) = (   5.2763189   4.4711207   6.0039473  )
        48           N1  tau(  48) = (   0.8845045   3.2634721  19.1145209  )
        49           N1  tau(  49) = (   6.3504243   3.3997271  18.1887592  )
        50           C1  tau(  50) = (   1.3027081   4.5631590  19.6429350  )
        51           H1  tau(  51) = (   0.4658632   5.1229972  20.1056819  )
        52           H1  tau(  52) = (   2.0600825   4.3818216  20.3958833  )
        53           H1  tau(  53) = (   1.7018904   5.1738364  18.8453250  )
        54           H1  tau(  54) = (   0.5628611   2.6866381  19.8888112  )
        55           H1  tau(  55) = (   5.6051421   3.9827062  18.5884547  )
        56           H1  tau(  56) = (   5.9567982   2.4624696  18.0937858  )

     number of k points=    10  Fermi-Dirac smearing, width (Ry)=  0.0073
                       cart. coord. in units 2pi/alat
        k(    1) = (   0.0000000   0.0000000   0.0000000), wk =   0.1250000
        k(    2) = (   0.0000000   0.0419351   0.0000000), wk =   0.2500000
        k(    3) = (   0.0000000  -0.0838702   0.0000000), wk =   0.1250000
        k(    4) = (   0.0379955   0.0000049   0.0000000), wk =   0.2500000
        k(    5) = (   0.0379955   0.0419400   0.0000000), wk =   0.2500000
        k(    6) = (   0.0379955  -0.0838652   0.0000000), wk =   0.2500000
        k(    7) = (   0.0379955  -0.0419301   0.0000000), wk =   0.2500000
        k(    8) = (  -0.0759910  -0.0000099   0.0000000), wk =   0.1250000
        k(    9) = (  -0.0759910   0.0419252   0.0000000), wk =   0.2500000
        k(   10) = (  -0.0759910  -0.0838800   0.0000000), wk =   0.1250000

     Dense  grid:   566857 G-vectors     FFT dimensions: (  72,  64, 270)

     Smooth grid:   143421 G-vectors     FFT dimensions: (  45,  40, 180)

     Estimated max dynamical RAM per process >     602.13 MB

     Estimated total dynamical RAM >       3.53 GB
     Cannot read rho : file not found

     Initial potential from superposition of free atoms

     starting charge  381.99914, renormalised to  398.00000

     negative rho (up, down):  1.416E-02 0.000E+00


     %%%%%%%%%%%%%%%%%%%%%%%%%%%%%%%%%%%%%%%%%%%%%%%%%%%%%%%%%%%%%%%%%%%%%%%%
     %                                                                      %
     % You are using vdW-DF, which was implemented by the Thonhauser group. %
     % Please cite the following two papers that made this development      %
     % possible and the two reviews that describe the various versions:     %
     %                                                                      %
     %   T. Thonhauser et al., PRL 115, 136402 (2015).                      %
     %   T. Thonhauser et al., PRB 76, 125112 (2007).                       %
     %   K. Berland et al., Rep. Prog. Phys. 78, 066501 (2015).             %
     %   D.C. Langreth et al., J. Phys.: Condens. Matter 21, 084203 (2009). %
     %                                                                      %
     %                                                                      %
     % If you are calculating the stress with vdW-DF, please also cite:     %
     %                                                                      %
     %   R. Sabatini et al., J. Phys.: Condens. Matter 24, 424209 (2012).   %
     %                                                                      %
     %%%%%%%%%%%%%%%%%%%%%%%%%%%%%%%%%%%%%%%%%%%%%%%%%%%%%%%%%%%%%%%%%%%%%%%%


 
     Adding external electric field

     Computed dipole along edir(3) : 
        Dipole              -11.7171 Ry au,        -29.7818 Debye
        Dipole field         -0.0221 Ry au, 
 
        Potential amp.        2.0497 Ry
        Total length         46.3494 bohr
 
     Starting wfcs are  302 atomic wfcs
  @ DRIVER MODE: Message from server: STATUS
  @ DRIVER MODE: Message from server: POSDATA
  @ DRIVER MODE: Reading and sharing cell 
  @ DRIVER MODE: Reading and sharing positions 
  @ DRIVER MODE: Received positions 

     total cpu time spent up to now is       19.5 secs

     Self-consistent Calculation

     iteration #  1     ecut=    29.40 Ry     beta= 0.05
     Davidson diagonalization with overlap
     c_bands:  3 eigenvalues not converged
     c_bands:  1 eigenvalues not converged
     c_bands:  1 eigenvalues not converged
     c_bands:  4 eigenvalues not converged
     c_bands:  1 eigenvalues not converged
     c_bands:  4 eigenvalues not converged
     c_bands:  5 eigenvalues not converged
     c_bands:  2 eigenvalues not converged
     ethr =  1.00E-05,  avg # of iterations = 21.9

     negative rho (up, down):  9.992E-03 0.000E+00
 
     Adding external electric field

     Computed dipole along edir(3) : 
        Dipole               48.9646 Ry au,        124.4557 Debye
        Dipole field          0.0924 Ry au, 
 
        Potential amp.       -8.5656 Ry
        Total length         46.3494 bohr
 

     total cpu time spent up to now is       91.3 secs

     total energy              =   -2424.53933632 Ry
     estimated scf accuracy    <    5830.50633986 Ry

     iteration #  2     ecut=    29.40 Ry     beta= 0.05
     Davidson diagonalization with overlap
     ethr =  1.00E-02,  avg # of iterations = 22.0

     negative rho (up, down):  1.864E-03 0.000E+00
 
     Adding external electric field

     Computed dipole along edir(3) : 
        Dipole               -1.8279 Ry au,         -4.6462 Debye
        Dipole field         -0.0034 Ry au, 
 
        Potential amp.        0.3198 Ry
        Total length         46.3494 bohr
 

     total cpu time spent up to now is      223.5 secs

     total energy              =   -2428.09389736 Ry
     estimated scf accuracy    <   71874.33657077 Ry

     iteration #  3     ecut=    29.40 Ry     beta= 0.05
     Davidson diagonalization with overlap
     ethr =  1.00E-02,  avg # of iterations = 16.1

     negative rho (up, down):  1.926E-03 0.000E+00
 
     Adding external electric field

     Computed dipole along edir(3) : 
        Dipole               -4.2699 Ry au,        -10.8531 Debye
        Dipole field         -0.0081 Ry au, 
 
        Potential amp.        0.7470 Ry
        Total length         46.3494 bohr
 

     total cpu time spent up to now is      305.0 secs

     total energy              =   -2931.82397372 Ry
     estimated scf accuracy    <    5073.89804307 Ry

     iteration #  4     ecut=    29.40 Ry     beta= 0.05
     Davidson diagonalization with overlap
     ethr =  1.00E-02,  avg # of iterations = 10.8

     negative rho (up, down):  1.976E-03 0.000E+00
 
     Adding external electric field

     Computed dipole along edir(3) : 
        Dipole               -6.1917 Ry au,        -15.7378 Debye
        Dipole field         -0.0117 Ry au, 
 
        Potential amp.        1.0831 Ry
        Total length         46.3494 bohr
 

     total cpu time spent up to now is      336.0 secs

     total energy              =   -2925.79991278 Ry
     estimated scf accuracy    <    2197.63485611 Ry

     iteration #  5     ecut=    29.40 Ry     beta= 0.05
     Davidson diagonalization with overlap
     ethr =  1.00E-02,  avg # of iterations = 17.7

     negative rho (up, down):  1.993E-03 0.000E+00
 
     Adding external electric field

     Computed dipole along edir(3) : 
        Dipole               -5.6005 Ry au,        -14.2351 Debye
        Dipole field         -0.0106 Ry au, 
 
        Potential amp.        0.9797 Ry
        Total length         46.3494 bohr
 

     total cpu time spent up to now is      370.1 secs

     total energy              =   -2945.42414835 Ry
     estimated scf accuracy    <      58.56525874 Ry

     iteration #  6     ecut=    29.40 Ry     beta= 0.05
     Davidson diagonalization with overlap
     ethr =  1.00E-02,  avg # of iterations =  1.9

     negative rho (up, down):  1.992E-03 0.000E+00
 
     Adding external electric field

     Computed dipole along edir(3) : 
        Dipole               -5.3528 Ry au,        -13.6053 Debye
        Dipole field         -0.0101 Ry au, 
 
        Potential amp.        0.9364 Ry
        Total length         46.3494 bohr
 

     total cpu time spent up to now is      388.2 secs

     total energy              =   -2945.58112669 Ry
     estimated scf accuracy    <      44.44984691 Ry

     iteration #  7     ecut=    29.40 Ry     beta= 0.05
     Davidson diagonalization with overlap
     ethr =  1.00E-02,  avg # of iterations =  1.4

     negative rho (up, down):  2.326E-03 0.000E+00
 
     Adding external electric field

     Computed dipole along edir(3) : 
        Dipole               -1.3148 Ry au,         -3.3420 Debye
        Dipole field         -0.0025 Ry au, 
 
        Potential amp.        0.2300 Ry
        Total length         46.3494 bohr
 

     total cpu time spent up to now is      406.0 secs

     total energy              =   -2942.34759725 Ry
     estimated scf accuracy    <      43.45545079 Ry

     iteration #  8     ecut=    29.40 Ry     beta= 0.05
     Davidson diagonalization with overlap
     ethr =  1.00E-02,  avg # of iterations =  1.3

     negative rho (up, down):  2.426E-03 0.000E+00
 
     Adding external electric field

     Computed dipole along edir(3) : 
        Dipole               -0.9210 Ry au,         -2.3409 Debye
        Dipole field         -0.0017 Ry au, 
 
        Potential amp.        0.1611 Ry
        Total length         46.3494 bohr
 

     total cpu time spent up to now is      423.2 secs

     total energy              =   -2946.14093708 Ry
     estimated scf accuracy    <     766.27416323 Ry

     iteration #  9     ecut=    29.40 Ry     beta= 0.05
     Davidson diagonalization with overlap
     ethr =  1.00E-02,  avg # of iterations =  1.4

     negative rho (up, down):  2.662E-03 0.000E+00
 
     Adding external electric field

     Computed dipole along edir(3) : 
        Dipole               -0.8431 Ry au,         -2.1430 Debye
        Dipole field         -0.0016 Ry au, 
 
        Potential amp.        0.1475 Ry
        Total length         46.3494 bohr
 

     total cpu time spent up to now is      440.9 secs

     total energy              =   -2941.92145404 Ry
     estimated scf accuracy    <     768.13176330 Ry

     iteration # 10     ecut=    29.40 Ry     beta= 0.05
     Davidson diagonalization with overlap
     ethr =  1.00E-02,  avg # of iterations =  1.4

     negative rho (up, down):  2.886E-03 0.000E+00
 
     Adding external electric field

     Computed dipole along edir(3) : 
        Dipole               -0.8688 Ry au,         -2.2083 Debye
        Dipole field         -0.0016 Ry au, 
 
        Potential amp.        0.1520 Ry
        Total length         46.3494 bohr
 

     total cpu time spent up to now is      458.7 secs

     total energy              =   -2940.50415330 Ry
     estimated scf accuracy    <     287.72322701 Ry

     iteration # 11     ecut=    29.40 Ry     beta= 0.05
     Davidson diagonalization with overlap
     ethr =  1.00E-02,  avg # of iterations =  3.3

     negative rho (up, down):  2.794E-03 0.000E+00
 
     Adding external electric field

     Computed dipole along edir(3) : 
        Dipole               -1.8986 Ry au,         -4.8258 Debye
        Dipole field         -0.0036 Ry au, 
 
        Potential amp.        0.3321 Ry
        Total length         46.3494 bohr
 

     total cpu time spent up to now is      478.0 secs

     total energy              =   -2940.92798231 Ry
     estimated scf accuracy    <      47.92989414 Ry

     iteration # 12     ecut=    29.40 Ry     beta= 0.05
     Davidson diagonalization with overlap
     ethr =  1.00E-02,  avg # of iterations =  3.4

     negative rho (up, down):  2.779E-03 0.000E+00
 
     Adding external electric field

     Computed dipole along edir(3) : 
        Dipole               -1.8151 Ry au,         -4.6135 Debye
        Dipole field         -0.0034 Ry au, 
 
        Potential amp.        0.3175 Ry
        Total length         46.3494 bohr
 

     total cpu time spent up to now is      497.0 secs

     total energy              =   -2941.86667066 Ry
     estimated scf accuracy    <      24.30283032 Ry

     iteration # 13     ecut=    29.40 Ry     beta= 0.05
     Davidson diagonalization with overlap
     ethr =  6.11E-03,  avg # of iterations =  3.4

     negative rho (up, down):  2.727E-03 0.000E+00
 
     Adding external electric field

     Computed dipole along edir(3) : 
        Dipole               -1.9283 Ry au,         -4.9012 Debye
        Dipole field         -0.0036 Ry au, 
 
        Potential amp.        0.3373 Ry
        Total length         46.3494 bohr
 

     total cpu time spent up to now is      516.2 secs

     total energy              =   -2942.33796323 Ry
     estimated scf accuracy    <      12.67365773 Ry

     iteration # 14     ecut=    29.40 Ry     beta= 0.05
     Davidson diagonalization with overlap
     ethr =  3.18E-03,  avg # of iterations =  4.4

     negative rho (up, down):  2.879E-03 0.000E+00
 
     Adding external electric field

     Computed dipole along edir(3) : 
        Dipole               -1.4839 Ry au,         -3.7718 Debye
        Dipole field         -0.0028 Ry au, 
 
        Potential amp.        0.2596 Ry
        Total length         46.3494 bohr
 

     total cpu time spent up to now is      535.7 secs

     total energy              =   -2942.49731470 Ry
     estimated scf accuracy    <       8.11864476 Ry

     iteration # 15     ecut=    29.40 Ry     beta= 0.05
     Davidson diagonalization with overlap
     ethr =  2.04E-03,  avg # of iterations =  4.5

     negative rho (up, down):  3.397E-03 0.000E+00
 
     Adding external electric field

     Computed dipole along edir(3) : 
        Dipole               -0.4747 Ry au,         -1.2065 Debye
        Dipole field         -0.0009 Ry au, 
 
        Potential amp.        0.0830 Ry
        Total length         46.3494 bohr
 

     total cpu time spent up to now is      555.7 secs

     total energy              =   -2942.59142525 Ry
     estimated scf accuracy    <       4.77054951 Ry

     iteration # 16     ecut=    29.40 Ry     beta= 0.05
     Davidson diagonalization with overlap
     ethr =  1.20E-03,  avg # of iterations =  4.0

     negative rho (up, down):  3.497E-03 0.000E+00
 
     Adding external electric field

     Computed dipole along edir(3) : 
        Dipole               -0.2107 Ry au,         -0.5356 Debye
        Dipole field         -0.0004 Ry au, 
 
        Potential amp.        0.0369 Ry
        Total length         46.3494 bohr
 

     total cpu time spent up to now is      575.1 secs

     total energy              =   -2942.79348840 Ry
     estimated scf accuracy    <       1.26200471 Ry

     iteration # 17     ecut=    29.40 Ry     beta= 0.05
     Davidson diagonalization with overlap
     c_bands:  2 eigenvalues not converged
     c_bands:  2 eigenvalues not converged
     c_bands:  3 eigenvalues not converged
     c_bands:  2 eigenvalues not converged
     c_bands:  2 eigenvalues not converged
     c_bands:  1 eigenvalues not converged
     ethr =  3.17E-04,  avg # of iterations = 15.0

     negative rho (up, down):  3.961E-03 0.000E+00
 
     Adding external electric field

     Computed dipole along edir(3) : 
        Dipole                0.7164 Ry au,          1.8210 Debye
        Dipole field          0.0014 Ry au, 
 
        Potential amp.       -0.1253 Ry
        Total length         46.3494 bohr
 

     total cpu time spent up to now is      601.3 secs

     total energy              =   -2943.02773387 Ry
     estimated scf accuracy    <       1.22636470 Ry

     iteration # 18     ecut=    29.40 Ry     beta= 0.05
     Davidson diagonalization with overlap
     c_bands:  2 eigenvalues not converged
     c_bands:  2 eigenvalues not converged
     ethr =  3.08E-04,  avg # of iterations = 15.9

     negative rho (up, down):  3.876E-03 0.000E+00
 
     Adding external electric field

     Computed dipole along edir(3) : 
        Dipole                0.5993 Ry au,          1.5234 Debye
        Dipole field          0.0011 Ry au, 
 
        Potential amp.       -0.1048 Ry
        Total length         46.3494 bohr
 

     total cpu time spent up to now is      629.7 secs

     total energy              =   -2943.15575222 Ry
     estimated scf accuracy    <       2.92705282 Ry

     iteration # 19     ecut=    29.40 Ry     beta= 0.05
     Davidson diagonalization with overlap
     ethr =  3.08E-04,  avg # of iterations =  3.2

     negative rho (up, down):  4.743E-03 0.000E+00
 
     Adding external electric field

     Computed dipole along edir(3) : 
        Dipole                2.4855 Ry au,          6.3176 Debye
        Dipole field          0.0047 Ry au, 
 
        Potential amp.       -0.4348 Ry
        Total length         46.3494 bohr
 

     total cpu time spent up to now is      648.4 secs

     total energy              =   -2943.35732310 Ry
     estimated scf accuracy    <       3.03082624 Ry

     iteration # 20     ecut=    29.40 Ry     beta= 0.05
     Davidson diagonalization with overlap
     c_bands:  1 eigenvalues not converged
     c_bands:  2 eigenvalues not converged
     c_bands:  1 eigenvalues not converged
     c_bands:  2 eigenvalues not converged
     c_bands:  1 eigenvalues not converged
     ethr =  3.08E-04,  avg # of iterations = 18.8

     negative rho (up, down):  4.156E-03 0.000E+00
 
     Adding external electric field

     Computed dipole along edir(3) : 
        Dipole                1.0957 Ry au,          2.7850 Debye
        Dipole field          0.0021 Ry au, 
 
        Potential amp.       -0.1917 Ry
        Total length         46.3494 bohr
 

     total cpu time spent up to now is      683.7 secs

     total energy              =   -2942.08464286 Ry
     estimated scf accuracy    <     145.23509727 Ry

     iteration # 21     ecut=    29.40 Ry     beta= 0.05
     Davidson diagonalization with overlap
     ethr =  3.08E-04,  avg # of iterations = 13.0

     negative rho (up, down):  3.941E-03 0.000E+00
 
     Adding external electric field

     Computed dipole along edir(3) : 
        Dipole                0.7562 Ry au,          1.9220 Debye
        Dipole field          0.0014 Ry au, 
 
        Potential amp.       -0.1323 Ry
        Total length         46.3494 bohr
 

     total cpu time spent up to now is      711.0 secs

     total energy              =   -2942.94155250 Ry
     estimated scf accuracy    <       4.07969624 Ry

     iteration # 22     ecut=    29.40 Ry     beta= 0.05
     Davidson diagonalization with overlap
     ethr =  3.08E-04,  avg # of iterations =  2.4

     negative rho (up, down):  4.110E-03 0.000E+00
 
     Adding external electric field

     Computed dipole along edir(3) : 
        Dipole                0.6293 Ry au,          1.5996 Debye
        Dipole field          0.0012 Ry au, 
 
        Potential amp.       -0.1101 Ry
        Total length         46.3494 bohr
 

     total cpu time spent up to now is      729.8 secs

     total energy              =   -2942.89065144 Ry
     estimated scf accuracy    <       3.57083585 Ry

     iteration # 23     ecut=    29.40 Ry     beta= 0.05
     Davidson diagonalization with overlap
     c_bands:  1 eigenvalues not converged
     ethr =  3.08E-04,  avg # of iterations = 11.0

     negative rho (up, down):  4.102E-03 0.000E+00
 
     Adding external electric field

     Computed dipole along edir(3) : 
        Dipole                0.1860 Ry au,          0.4727 Debye
        Dipole field          0.0004 Ry au, 
 
        Potential amp.       -0.0325 Ry
        Total length         46.3494 bohr
 

     total cpu time spent up to now is      752.4 secs

     total energy              =   -2942.84868550 Ry
     estimated scf accuracy    <       2.40963758 Ry

     iteration # 24     ecut=    29.40 Ry     beta= 0.05
     Davidson diagonalization with overlap
     c_bands:  2 eigenvalues not converged
     c_bands:  2 eigenvalues not converged
     ethr =  3.08E-04,  avg # of iterations = 12.8

     negative rho (up, down):  4.318E-03 0.000E+00
 
     Adding external electric field

     Computed dipole along edir(3) : 
        Dipole               -0.1397 Ry au,         -0.3550 Debye
        Dipole field         -0.0003 Ry au, 
 
        Potential amp.        0.0244 Ry
        Total length         46.3494 bohr
 

     total cpu time spent up to now is      777.6 secs

     total energy              =   -2942.95862632 Ry
     estimated scf accuracy    <       1.95633822 Ry

     iteration # 25     ecut=    29.40 Ry     beta= 0.05
     Davidson diagonalization with overlap
     c_bands:  4 eigenvalues not converged
     c_bands:  4 eigenvalues not converged
     ethr =  3.08E-04,  avg # of iterations = 12.0

     negative rho (up, down):  4.050E-03 0.000E+00
 
     Adding external electric field

     Computed dipole along edir(3) : 
        Dipole               -0.8449 Ry au,         -2.1475 Debye
        Dipole field         -0.0016 Ry au, 
 
        Potential amp.        0.1478 Ry
        Total length         46.3494 bohr
 

     total cpu time spent up to now is      801.7 secs

     total energy              =   -2942.92920621 Ry
     estimated scf accuracy    <       2.29256063 Ry

     iteration # 26     ecut=    29.40 Ry     beta= 0.05
     Davidson diagonalization with overlap
     ethr =  3.08E-04,  avg # of iterations = 11.7

     negative rho (up, down):  4.058E-03 0.000E+00
 
     Adding external electric field

     Computed dipole along edir(3) : 
        Dipole               -1.0918 Ry au,         -2.7751 Debye
        Dipole field         -0.0021 Ry au, 
 
        Potential amp.        0.1910 Ry
        Total length         46.3494 bohr
 

     total cpu time spent up to now is      826.1 secs

     total energy              =   -2942.97776172 Ry
     estimated scf accuracy    <       3.04882944 Ry

     iteration # 27     ecut=    29.40 Ry     beta= 0.05
     Davidson diagonalization with overlap
     ethr =  3.08E-04,  avg # of iterations =  2.2

     negative rho (up, down):  4.185E-03 0.000E+00
 
     Adding external electric field

     Computed dipole along edir(3) : 
        Dipole               -0.9312 Ry au,         -2.3669 Debye
        Dipole field         -0.0018 Ry au, 
 
        Potential amp.        0.1629 Ry
        Total length         46.3494 bohr
 

     total cpu time spent up to now is      844.4 secs

     total energy              =   -2942.97678704 Ry
     estimated scf accuracy    <       2.02715462 Ry

     iteration # 28     ecut=    29.40 Ry     beta= 0.05
     Davidson diagonalization with overlap
     ethr =  3.08E-04,  avg # of iterations =  1.6

     negative rho (up, down):  4.874E-03 0.000E+00
 
     Adding external electric field

     Computed dipole along edir(3) : 
        Dipole               -0.3755 Ry au,         -0.9544 Debye
        Dipole field         -0.0007 Ry au, 
 
        Potential amp.        0.0657 Ry
        Total length         46.3494 bohr
 

     total cpu time spent up to now is      862.4 secs

     total energy              =   -2942.88344317 Ry
     estimated scf accuracy    <       2.54976887 Ry

     iteration # 29     ecut=    29.40 Ry     beta= 0.05
     Davidson diagonalization with overlap
     ethr =  3.08E-04,  avg # of iterations =  7.0

     negative rho (up, down):  4.647E-03 0.000E+00
 
     Adding external electric field

     Computed dipole along edir(3) : 
        Dipole                0.2226 Ry au,          0.5658 Debye
        Dipole field          0.0004 Ry au, 
 
        Potential amp.       -0.0389 Ry
        Total length         46.3494 bohr
 

     total cpu time spent up to now is      883.3 secs

     total energy              =   -2942.81690435 Ry
     estimated scf accuracy    <       1.07655982 Ry

     iteration # 30     ecut=    29.40 Ry     beta= 0.05
     Davidson diagonalization with overlap
     c_bands:  4 eigenvalues not converged
     c_bands:  3 eigenvalues not converged
     c_bands:  4 eigenvalues not converged
     c_bands:  4 eigenvalues not converged
     c_bands:  2 eigenvalues not converged
     ethr =  2.70E-04,  avg # of iterations = 19.8

     negative rho (up, down):  4.686E-03 0.000E+00
 
     Adding external electric field

     Computed dipole along edir(3) : 
        Dipole                0.2706 Ry au,          0.6878 Debye
        Dipole field          0.0005 Ry au, 
 
        Potential amp.       -0.0473 Ry
        Total length         46.3494 bohr
 

     total cpu time spent up to now is      913.4 secs

     total energy              =   -2942.88489927 Ry
     estimated scf accuracy    <       0.59565575 Ry

     iteration # 31     ecut=    29.40 Ry     beta= 0.05
     Davidson diagonalization with overlap
     c_bands:  2 eigenvalues not converged
     c_bands:  3 eigenvalues not converged
     ethr =  1.50E-04,  avg # of iterations = 13.4

     negative rho (up, down):  4.943E-03 0.000E+00
 
     Adding external electric field

     Computed dipole along edir(3) : 
        Dipole                1.1344 Ry au,          2.8833 Debye
        Dipole field          0.0021 Ry au, 
 
        Potential amp.       -0.1984 Ry
        Total length         46.3494 bohr
 

     total cpu time spent up to now is      938.5 secs

     total energy              =   -2942.82055418 Ry
     estimated scf accuracy    <       0.89453374 Ry

     iteration # 32     ecut=    29.40 Ry     beta= 0.05
     Davidson diagonalization with overlap
     c_bands:  3 eigenvalues not converged
     c_bands:  1 eigenvalues not converged
     c_bands:  4 eigenvalues not converged
     c_bands:  2 eigenvalues not converged
     c_bands:  2 eigenvalues not converged
     ethr =  1.50E-04,  avg # of iterations = 22.5

     negative rho (up, down):  5.073E-03 0.000E+00
 
     Adding external electric field

     Computed dipole along edir(3) : 
        Dipole                0.8133 Ry au,          2.0671 Debye
        Dipole field          0.0015 Ry au, 
 
        Potential amp.       -0.1423 Ry
        Total length         46.3494 bohr
 

     total cpu time spent up to now is      975.0 secs

     total energy              =   -2942.88504577 Ry
     estimated scf accuracy    <       2.95190892 Ry

     iteration # 33     ecut=    29.40 Ry     beta= 0.05
     Davidson diagonalization with overlap
     ethr =  1.50E-04,  avg # of iterations =  4.3

     negative rho (up, down):  5.456E-03 0.000E+00
 
     Adding external electric field

     Computed dipole along edir(3) : 
        Dipole                0.4199 Ry au,          1.0674 Debye
        Dipole field          0.0008 Ry au, 
 
        Potential amp.       -0.0735 Ry
        Total length         46.3494 bohr
 

     total cpu time spent up to now is      994.4 secs

     total energy              =   -2942.80570032 Ry
     estimated scf accuracy    <       1.53327596 Ry

     iteration # 34     ecut=    29.40 Ry     beta= 0.05
     Davidson diagonalization with overlap
     c_bands:  1 eigenvalues not converged
     c_bands:  2 eigenvalues not converged
     c_bands:  1 eigenvalues not converged
     ethr =  1.50E-04,  avg # of iterations = 16.4

     negative rho (up, down):  5.877E-03 0.000E+00
 
     Adding external electric field

     Computed dipole along edir(3) : 
        Dipole                1.0044 Ry au,          2.5530 Debye
        Dipole field          0.0019 Ry au, 
 
        Potential amp.       -0.1757 Ry
        Total length         46.3494 bohr
 

     total cpu time spent up to now is     1022.1 secs

     total energy              =   -2942.85259617 Ry
     estimated scf accuracy    <       0.45478371 Ry

     iteration # 35     ecut=    29.40 Ry     beta= 0.05
     Davidson diagonalization with overlap
     ethr =  1.14E-04,  avg # of iterations = 15.2

     negative rho (up, down):  6.079E-03 0.000E+00
 
     Adding external electric field

     Computed dipole along edir(3) : 
        Dipole                1.4622 Ry au,          3.7164 Debye
        Dipole field          0.0028 Ry au, 
 
        Potential amp.       -0.2558 Ry
        Total length         46.3494 bohr
 

     total cpu time spent up to now is     1047.7 secs

     total energy              =   -2942.86667827 Ry
     estimated scf accuracy    <       0.57459653 Ry

     iteration # 36     ecut=    29.40 Ry     beta= 0.05
     Davidson diagonalization with overlap
     c_bands:  1 eigenvalues not converged
     c_bands:  3 eigenvalues not converged
     c_bands:  4 eigenvalues not converged
     c_bands:  1 eigenvalues not converged
     ethr =  1.14E-04,  avg # of iterations = 18.6

     negative rho (up, down):  6.723E-03 0.000E+00
 
     Adding external electric field

     Computed dipole along edir(3) : 
        Dipole                1.4135 Ry au,          3.5929 Debye
        Dipole field          0.0027 Ry au, 
 
        Potential amp.       -0.2473 Ry
        Total length         46.3494 bohr
 

     total cpu time spent up to now is     1075.7 secs

     total energy              =   -2942.88797572 Ry
     estimated scf accuracy    <       2.54269040 Ry

     iteration # 37     ecut=    29.40 Ry     beta= 0.05
     Davidson diagonalization with overlap
     ethr =  1.14E-04,  avg # of iterations =  1.0

     negative rho (up, down):  8.885E-03 0.000E+00
 
     Adding external electric field

     Computed dipole along edir(3) : 
        Dipole                0.8342 Ry au,          2.1204 Debye
        Dipole field          0.0016 Ry au, 
 
        Potential amp.       -0.1459 Ry
        Total length         46.3494 bohr
 

     total cpu time spent up to now is     1093.0 secs

     total energy              =   -2942.72468611 Ry
     estimated scf accuracy    <       1.92334289 Ry

     iteration # 38     ecut=    29.40 Ry     beta= 0.05
     Davidson diagonalization with overlap
     c_bands:  1 eigenvalues not converged
     c_bands:  3 eigenvalues not converged
     c_bands:  4 eigenvalues not converged
     c_bands:  3 eigenvalues not converged
     c_bands:  4 eigenvalues not converged
     c_bands:  4 eigenvalues not converged
     c_bands:  3 eigenvalues not converged
     c_bands:  3 eigenvalues not converged
     c_bands:  3 eigenvalues not converged
     ethr =  1.14E-04,  avg # of iterations = 20.8

     negative rho (up, down):  8.417E-03 0.000E+00
 
     Adding external electric field

     Computed dipole along edir(3) : 
        Dipole                1.0458 Ry au,          2.6583 Debye
        Dipole field          0.0020 Ry au, 
 
        Potential amp.       -0.1830 Ry
        Total length         46.3494 bohr
 

     total cpu time spent up to now is     1127.9 secs

     total energy              =   -2942.85865206 Ry
     estimated scf accuracy    <       1.15906270 Ry

     iteration # 39     ecut=    29.40 Ry     beta= 0.05
     Davidson diagonalization with overlap
     ethr =  1.14E-04,  avg # of iterations =  2.8

     negative rho (up, down):  6.797E-03 0.000E+00
 
     Adding external electric field

     Computed dipole along edir(3) : 
        Dipole                1.4065 Ry au,          3.5750 Debye
        Dipole field          0.0027 Ry au, 
 
        Potential amp.       -0.2460 Ry
        Total length         46.3494 bohr
 

     total cpu time spent up to now is     1146.5 secs

     total energy              =   -2942.81230748 Ry
     estimated scf accuracy    <       0.80750521 Ry

     iteration # 40     ecut=    29.40 Ry     beta= 0.05
     Davidson diagonalization with overlap
     c_bands:  2 eigenvalues not converged
     c_bands:  3 eigenvalues not converged
     c_bands:  1 eigenvalues not converged
     c_bands:  1 eigenvalues not converged
     c_bands:  4 eigenvalues not converged
     c_bands:  1 eigenvalues not converged
     c_bands:  2 eigenvalues not converged
     c_bands:  3 eigenvalues not converged
     ethr =  1.14E-04,  avg # of iterations = 20.6

     negative rho (up, down):  6.827E-03 0.000E+00
 
     Adding external electric field

     Computed dipole along edir(3) : 
        Dipole                1.1822 Ry au,          3.0049 Debye
        Dipole field          0.0022 Ry au, 
 
        Potential amp.       -0.2068 Ry
        Total length         46.3494 bohr
 

     total cpu time spent up to now is     1178.0 secs

     total energy              =   -2942.82836698 Ry
     estimated scf accuracy    <       1.22580629 Ry

     iteration # 41     ecut=    29.40 Ry     beta= 0.05
     Davidson diagonalization with overlap
     ethr =  1.14E-04,  avg # of iterations =  4.3

     negative rho (up, down):  7.405E-03 0.000E+00
 
     Adding external electric field

     Computed dipole along edir(3) : 
        Dipole                1.1286 Ry au,          2.8687 Debye
        Dipole field          0.0021 Ry au, 
 
        Potential amp.       -0.1974 Ry
        Total length         46.3494 bohr
 

     total cpu time spent up to now is     1197.5 secs

     total energy              =   -2942.83529025 Ry
     estimated scf accuracy    <       0.10002053 Ry

     iteration # 42     ecut=    29.40 Ry     beta= 0.05
     Davidson diagonalization with overlap
     c_bands:  2 eigenvalues not converged
     c_bands:  1 eigenvalues not converged
     c_bands:  2 eigenvalues not converged
     c_bands:  2 eigenvalues not converged
     c_bands:  2 eigenvalues not converged
     ethr =  2.51E-05,  avg # of iterations = 17.2

     negative rho (up, down):  8.927E-03 0.000E+00
 
     Adding external electric field

     Computed dipole along edir(3) : 
        Dipole                1.1571 Ry au,          2.9412 Debye
        Dipole field          0.0022 Ry au, 
 
        Potential amp.       -0.2024 Ry
        Total length         46.3494 bohr
 

     total cpu time spent up to now is     1225.9 secs

     total energy              =   -2942.84814312 Ry
     estimated scf accuracy    <       0.11780782 Ry

     iteration # 43     ecut=    29.40 Ry     beta= 0.05
     Davidson diagonalization with overlap
     ethr =  2.51E-05,  avg # of iterations =  6.8

     negative rho (up, down):  9.934E-03 0.000E+00
 
     Adding external electric field

     Computed dipole along edir(3) : 
        Dipole                1.2933 Ry au,          3.2874 Debye
        Dipole field          0.0024 Ry au, 
 
        Potential amp.       -0.2263 Ry
        Total length         46.3494 bohr
 

     total cpu time spent up to now is     1246.3 secs

     total energy              =   -2942.84154091 Ry
     estimated scf accuracy    <       0.26821017 Ry

     iteration # 44     ecut=    29.40 Ry     beta= 0.05
     Davidson diagonalization with overlap
     ethr =  2.51E-05,  avg # of iterations =  3.8

     negative rho (up, down):  9.996E-03 0.000E+00
 
     Adding external electric field

     Computed dipole along edir(3) : 
        Dipole                1.3208 Ry au,          3.3570 Debye
        Dipole field          0.0025 Ry au, 
 
        Potential amp.       -0.2310 Ry
        Total length         46.3494 bohr
 

     total cpu time spent up to now is     1265.0 secs

     total energy              =   -2942.84378347 Ry
     estimated scf accuracy    <       0.04591884 Ry

     iteration # 45     ecut=    29.40 Ry     beta= 0.05
     Davidson diagonalization with overlap
     ethr =  1.15E-05,  avg # of iterations =  8.8

     negative rho (up, down):  9.706E-03 0.000E+00
 
     Adding external electric field

     Computed dipole along edir(3) : 
        Dipole                1.4159 Ry au,          3.5989 Debye
        Dipole field          0.0027 Ry au, 
 
        Potential amp.       -0.2477 Ry
        Total length         46.3494 bohr
 

     total cpu time spent up to now is     1286.5 secs

     total energy              =   -2942.84124069 Ry
     estimated scf accuracy    <       0.03564325 Ry

     iteration # 46     ecut=    29.40 Ry     beta= 0.05
     Davidson diagonalization with overlap
     c_bands:  1 eigenvalues not converged
     c_bands:  1 eigenvalues not converged
     c_bands:  1 eigenvalues not converged
     c_bands:  2 eigenvalues not converged
     c_bands:  1 eigenvalues not converged
     ethr =  8.96E-06,  avg # of iterations = 17.9

     negative rho (up, down):  9.956E-03 0.000E+00
 
     Adding external electric field

     Computed dipole along edir(3) : 
        Dipole                1.2633 Ry au,          3.2111 Debye
        Dipole field          0.0024 Ry au, 
 
        Potential amp.       -0.2210 Ry
        Total length         46.3494 bohr
 

     total cpu time spent up to now is     1314.5 secs

     total energy              =   -2942.83958366 Ry
     estimated scf accuracy    <       0.06943449 Ry

     iteration # 47     ecut=    29.40 Ry     beta= 0.05
     Davidson diagonalization with overlap
     c_bands:  1 eigenvalues not converged
     c_bands:  1 eigenvalues not converged
     c_bands:  3 eigenvalues not converged
     c_bands:  3 eigenvalues not converged
     c_bands:  2 eigenvalues not converged
     ethr =  8.96E-06,  avg # of iterations = 18.0

     negative rho (up, down):  1.081E-02 0.000E+00
 
     Adding external electric field

     Computed dipole along edir(3) : 
        Dipole                1.3741 Ry au,          3.4927 Debye
        Dipole field          0.0026 Ry au, 
 
        Potential amp.       -0.2404 Ry
        Total length         46.3494 bohr
 

     total cpu time spent up to now is     1341.9 secs

     total energy              =   -2942.84303529 Ry
     estimated scf accuracy    <       0.09439586 Ry

     iteration # 48     ecut=    29.40 Ry     beta= 0.05
     Davidson diagonalization with overlap
     ethr =  8.96E-06,  avg # of iterations =  7.1

     negative rho (up, down):  1.259E-02 0.000E+00
 
     Adding external electric field

     Computed dipole along edir(3) : 
        Dipole                1.5285 Ry au,          3.8851 Debye
        Dipole field          0.0029 Ry au, 
 
        Potential amp.       -0.2674 Ry
        Total length         46.3494 bohr
 

     total cpu time spent up to now is     1362.4 secs

     total energy              =   -2942.84141117 Ry
     estimated scf accuracy    <       0.03636856 Ry

     iteration # 49     ecut=    29.40 Ry     beta= 0.05
     Davidson diagonalization with overlap
     c_bands:  1 eigenvalues not converged
     c_bands:  4 eigenvalues not converged
     ethr =  8.96E-06,  avg # of iterations = 15.0

     negative rho (up, down):  1.262E-02 0.000E+00
 
     Adding external electric field

     Computed dipole along edir(3) : 
        Dipole                1.5065 Ry au,          3.8291 Debye
        Dipole field          0.0028 Ry au, 
 
        Potential amp.       -0.2635 Ry
        Total length         46.3494 bohr
 

     total cpu time spent up to now is     1389.2 secs

     total energy              =   -2942.84390577 Ry
     estimated scf accuracy    <       0.03812199 Ry

     iteration # 50     ecut=    29.40 Ry     beta= 0.05
     Davidson diagonalization with overlap
     ethr =  8.96E-06,  avg # of iterations =  3.0

     negative rho (up, down):  1.246E-02 0.000E+00
 
     Adding external electric field

     Computed dipole along edir(3) : 
        Dipole                1.4662 Ry au,          3.7268 Debye
        Dipole field          0.0028 Ry au, 
 
        Potential amp.       -0.2565 Ry
        Total length         46.3494 bohr
 

     total cpu time spent up to now is     1407.7 secs

     total energy              =   -2942.84332451 Ry
     estimated scf accuracy    <       0.01656439 Ry

     iteration # 51     ecut=    29.40 Ry     beta= 0.05
     Davidson diagonalization with overlap
     ethr =  4.16E-06,  avg # of iterations =  9.0

     negative rho (up, down):  1.237E-02 0.000E+00
 
     Adding external electric field

     Computed dipole along edir(3) : 
        Dipole                1.5066 Ry au,          3.8294 Debye
        Dipole field          0.0028 Ry au, 
 
        Potential amp.       -0.2636 Ry
        Total length         46.3494 bohr
 

     total cpu time spent up to now is     1429.3 secs

     total energy              =   -2942.84379401 Ry
     estimated scf accuracy    <       0.00274200 Ry

     iteration # 52     ecut=    29.40 Ry     beta= 0.05
     Davidson diagonalization with overlap
     c_bands:  1 eigenvalues not converged
     ethr =  6.89E-07,  avg # of iterations = 17.1

     negative rho (up, down):  1.180E-02 0.000E+00
 
     Adding external electric field

     Computed dipole along edir(3) : 
        Dipole                1.4847 Ry au,          3.7737 Debye
        Dipole field          0.0028 Ry au, 
 
        Potential amp.       -0.2597 Ry
        Total length         46.3494 bohr
 

     total cpu time spent up to now is     1457.4 secs

     total energy              =   -2942.84417199 Ry
     estimated scf accuracy    <       0.02785974 Ry

     iteration # 53     ecut=    29.40 Ry     beta= 0.05
     Davidson diagonalization with overlap
     ethr =  6.89E-07,  avg # of iterations =  2.6

     negative rho (up, down):  1.174E-02 0.000E+00
 
     Adding external electric field

     Computed dipole along edir(3) : 
        Dipole                1.4838 Ry au,          3.7715 Debye
        Dipole field          0.0028 Ry au, 
 
        Potential amp.       -0.2596 Ry
        Total length         46.3494 bohr
 

     total cpu time spent up to now is     1475.2 secs

     total energy              =   -2942.84432520 Ry
     estimated scf accuracy    <       0.02344680 Ry

     iteration # 54     ecut=    29.40 Ry     beta= 0.05
     Davidson diagonalization with overlap
     ethr =  6.89E-07,  avg # of iterations = 10.6

     negative rho (up, down):  1.198E-02 0.000E+00
 
     Adding external electric field

     Computed dipole along edir(3) : 
        Dipole                1.4906 Ry au,          3.7888 Debye
        Dipole field          0.0028 Ry au, 
 
        Potential amp.       -0.2608 Ry
        Total length         46.3494 bohr
 

     total cpu time spent up to now is     1498.3 secs

     total energy              =   -2942.84440324 Ry
     estimated scf accuracy    <       0.01792205 Ry

     iteration # 55     ecut=    29.40 Ry     beta= 0.05
     Davidson diagonalization with overlap
     ethr =  6.89E-07,  avg # of iterations =  6.1

     negative rho (up, down):  1.321E-02 0.000E+00
 
     Adding external electric field

     Computed dipole along edir(3) : 
        Dipole                1.4928 Ry au,          3.7942 Debye
        Dipole field          0.0028 Ry au, 
 
        Potential amp.       -0.2611 Ry
        Total length         46.3494 bohr
 

     total cpu time spent up to now is     1518.0 secs

     total energy              =   -2942.84357421 Ry
     estimated scf accuracy    <       0.01955583 Ry

     iteration # 56     ecut=    29.40 Ry     beta= 0.05
     Davidson diagonalization with overlap
     c_bands:  1 eigenvalues not converged
     ethr =  6.89E-07,  avg # of iterations = 13.0

     negative rho (up, down):  1.357E-02 0.000E+00
 
     Adding external electric field

     Computed dipole along edir(3) : 
        Dipole                1.4930 Ry au,          3.7947 Debye
        Dipole field          0.0028 Ry au, 
 
        Potential amp.       -0.2612 Ry
        Total length         46.3494 bohr
 

     total cpu time spent up to now is     1542.3 secs

     total energy              =   -2942.84374359 Ry
     estimated scf accuracy    <       0.00322945 Ry

     iteration # 57     ecut=    29.40 Ry     beta= 0.05
     Davidson diagonalization with overlap
     ethr =  6.89E-07,  avg # of iterations =  1.9

     negative rho (up, down):  1.403E-02 0.000E+00
 
     Adding external electric field

     Computed dipole along edir(3) : 
        Dipole                1.4957 Ry au,          3.8016 Debye
        Dipole field          0.0028 Ry au, 
 
        Potential amp.       -0.2616 Ry
        Total length         46.3494 bohr
 

     total cpu time spent up to now is     1560.6 secs

     total energy              =   -2942.84369297 Ry
     estimated scf accuracy    <       0.00206228 Ry

     iteration # 58     ecut=    29.40 Ry     beta= 0.05
     Davidson diagonalization with overlap
     c_bands:  2 eigenvalues not converged
     ethr =  5.18E-07,  avg # of iterations = 13.0

     negative rho (up, down):  1.385E-02 0.000E+00
 
     Adding external electric field

     Computed dipole along edir(3) : 
        Dipole                1.4877 Ry au,          3.7813 Debye
        Dipole field          0.0028 Ry au, 
 
        Potential amp.       -0.2602 Ry
        Total length         46.3494 bohr
 

     total cpu time spent up to now is     1584.8 secs

     total energy              =   -2942.84349731 Ry
     estimated scf accuracy    <       0.00150535 Ry

     iteration # 59     ecut=    29.40 Ry     beta= 0.05
     Davidson diagonalization with overlap
     ethr =  3.78E-07,  avg # of iterations = 11.3

     negative rho (up, down):  1.399E-02 0.000E+00
 
     Adding external electric field

     Computed dipole along edir(3) : 
        Dipole                1.4911 Ry au,          3.7901 Debye
        Dipole field          0.0028 Ry au, 
 
        Potential amp.       -0.2609 Ry
        Total length         46.3494 bohr
 

     total cpu time spent up to now is     1610.0 secs

     total energy              =   -2942.84364051 Ry
     estimated scf accuracy    <       0.00041926 Ry

     iteration # 60     ecut=    29.40 Ry     beta= 0.05
     Davidson diagonalization with overlap
     ethr =  1.05E-07,  avg # of iterations = 14.3

     negative rho (up, down):  1.415E-02 0.000E+00
 
     Adding external electric field

     Computed dipole along edir(3) : 
        Dipole                1.4875 Ry au,          3.7807 Debye
        Dipole field          0.0028 Ry au, 
 
        Potential amp.       -0.2602 Ry
        Total length         46.3494 bohr
 

     total cpu time spent up to now is     1636.9 secs

     total energy              =   -2942.84367157 Ry
     estimated scf accuracy    <       0.00022403 Ry

     iteration # 61     ecut=    29.40 Ry     beta= 0.05
     Davidson diagonalization with overlap
     ethr =  5.63E-08,  avg # of iterations =  7.0

     negative rho (up, down):  1.435E-02 0.000E+00
 
     Adding external electric field

     Computed dipole along edir(3) : 
        Dipole                1.4886 Ry au,          3.7838 Debye
        Dipole field          0.0028 Ry au, 
 
        Potential amp.       -0.2604 Ry
        Total length         46.3494 bohr
 

     total cpu time spent up to now is     1658.5 secs

     total energy              =   -2942.84369689 Ry
     estimated scf accuracy    <       0.00005648 Ry

     iteration # 62     ecut=    29.40 Ry     beta= 0.05
     Davidson diagonalization with overlap
     c_bands:  1 eigenvalues not converged
     ethr =  1.42E-08,  avg # of iterations = 13.6

     negative rho (up, down):  1.466E-02 0.000E+00
 
     Adding external electric field

     Computed dipole along edir(3) : 
        Dipole                1.4943 Ry au,          3.7982 Debye
        Dipole field          0.0028 Ry au, 
 
        Potential amp.       -0.2614 Ry
        Total length         46.3494 bohr
 

     total cpu time spent up to now is     1687.4 secs

     total energy              =   -2942.84370944 Ry
     estimated scf accuracy    <       0.00002653 Ry

     iteration # 63     ecut=    29.40 Ry     beta= 0.05
     Davidson diagonalization with overlap
     ethr =  6.67E-09,  avg # of iterations = 11.4

     negative rho (up, down):  1.492E-02 0.000E+00
 
     Adding external electric field

     Computed dipole along edir(3) : 
        Dipole                1.4981 Ry au,          3.8078 Debye
        Dipole field          0.0028 Ry au, 
 
        Potential amp.       -0.2621 Ry
        Total length         46.3494 bohr
 

     total cpu time spent up to now is     1710.9 secs

     total energy              =   -2942.84371482 Ry
     estimated scf accuracy    <       0.00002230 Ry

     iteration # 64     ecut=    29.40 Ry     beta= 0.05
     Davidson diagonalization with overlap
     ethr =  5.60E-09,  avg # of iterations =  5.2

     negative rho (up, down):  1.495E-02 0.000E+00
 
     Adding external electric field

     Computed dipole along edir(3) : 
        Dipole                1.4984 Ry au,          3.8084 Debye
        Dipole field          0.0028 Ry au, 
 
        Potential amp.       -0.2621 Ry
        Total length         46.3494 bohr
 

     total cpu time spent up to now is     1731.3 secs

     total energy              =   -2942.84371763 Ry
     estimated scf accuracy    <       0.00001025 Ry

     iteration # 65     ecut=    29.40 Ry     beta= 0.05
     Davidson diagonalization with overlap
     c_bands:  1 eigenvalues not converged
     ethr =  2.58E-09,  avg # of iterations = 13.2

     negative rho (up, down):  1.499E-02 0.000E+00
 
     Adding external electric field

     Computed dipole along edir(3) : 
        Dipole                1.4979 Ry au,          3.8073 Debye
        Dipole field          0.0028 Ry au, 
 
        Potential amp.       -0.2620 Ry
        Total length         46.3494 bohr
 

     total cpu time spent up to now is     1762.8 secs

     total energy              =   -2942.84372177 Ry
     estimated scf accuracy    <       0.00001375 Ry

     iteration # 66     ecut=    29.40 Ry     beta= 0.05
     Davidson diagonalization with overlap
     ethr =  2.58E-09,  avg # of iterations =  5.8

     negative rho (up, down):  1.491E-02 0.000E+00
 
     Adding external electric field

     Computed dipole along edir(3) : 
        Dipole                1.4962 Ry au,          3.8029 Debye
        Dipole field          0.0028 Ry au, 
 
        Potential amp.       -0.2617 Ry
        Total length         46.3494 bohr
 

     total cpu time spent up to now is     1783.8 secs

     total energy              =   -2942.84372431 Ry
     estimated scf accuracy    <       0.00000704 Ry

     iteration # 67     ecut=    29.40 Ry     beta= 0.05
     Davidson diagonalization with overlap
     ethr =  1.77E-09,  avg # of iterations = 11.9

     negative rho (up, down):  1.502E-02 0.000E+00
 
     Adding external electric field

     Computed dipole along edir(3) : 
        Dipole                1.4968 Ry au,          3.8044 Debye
        Dipole field          0.0028 Ry au, 
 
        Potential amp.       -0.2618 Ry
        Total length         46.3494 bohr
 

     total cpu time spent up to now is     1807.4 secs

     total energy              =   -2942.84372727 Ry
     estimated scf accuracy    <       0.00000360 Ry

     iteration # 68     ecut=    29.40 Ry     beta= 0.05
     Davidson diagonalization with overlap
     ethr =  9.05E-10,  avg # of iterations =  4.6

     negative rho (up, down):  1.508E-02 0.000E+00
 
     Adding external electric field

     Computed dipole along edir(3) : 
        Dipole                1.4965 Ry au,          3.8038 Debye
        Dipole field          0.0028 Ry au, 
 
        Potential amp.       -0.2618 Ry
        Total length         46.3494 bohr
 

     total cpu time spent up to now is     1827.6 secs

     total energy              =   -2942.84372962 Ry
     estimated scf accuracy    <       0.00000190 Ry

     iteration # 69     ecut=    29.40 Ry     beta= 0.05
     Davidson diagonalization with overlap
     ethr =  4.77E-10,  avg # of iterations = 11.6

     negative rho (up, down):  1.506E-02 0.000E+00
 
     Adding external electric field

     Computed dipole along edir(3) : 
        Dipole                1.4955 Ry au,          3.8012 Debye
        Dipole field          0.0028 Ry au, 
 
        Potential amp.       -0.2616 Ry
        Total length         46.3494 bohr
 

     total cpu time spent up to now is     1851.8 secs

     total energy              =   -2942.84373161 Ry
     estimated scf accuracy    <       0.00000107 Ry

     iteration # 70     ecut=    29.40 Ry     beta= 0.05
     Davidson diagonalization with overlap
     ethr =  2.69E-10,  avg # of iterations = 13.8

     negative rho (up, down):  1.506E-02 0.000E+00
 
     Adding external electric field

     Computed dipole along edir(3) : 
        Dipole                1.4955 Ry au,          3.8012 Debye
        Dipole field          0.0028 Ry au, 
 
        Potential amp.       -0.2616 Ry
        Total length         46.3494 bohr
 

     total cpu time spent up to now is     1877.2 secs

     total energy              =   -2942.84373349 Ry
     estimated scf accuracy    <       0.00000062 Ry

     iteration # 71     ecut=    29.40 Ry     beta= 0.05
     Davidson diagonalization with overlap
     ethr =  1.56E-10,  avg # of iterations = 10.2

     negative rho (up, down):  1.504E-02 0.000E+00
 
     Adding external electric field

     Computed dipole along edir(3) : 
        Dipole                1.4951 Ry au,          3.8000 Debye
        Dipole field          0.0028 Ry au, 
 
        Potential amp.       -0.2615 Ry
        Total length         46.3494 bohr
 

     total cpu time spent up to now is     1901.8 secs

     total energy              =   -2942.84373520 Ry
     estimated scf accuracy    <       0.00000032 Ry

     iteration # 72     ecut=    29.40 Ry     beta= 0.05
     Davidson diagonalization with overlap
     ethr =  8.01E-11,  avg # of iterations =  9.3

     negative rho (up, down):  1.506E-02 0.000E+00
 
     Adding external electric field

     Computed dipole along edir(3) : 
        Dipole                1.4951 Ry au,          3.8002 Debye
        Dipole field          0.0028 Ry au, 
 
        Potential amp.       -0.2615 Ry
        Total length         46.3494 bohr
 

     total cpu time spent up to now is     1924.8 secs

     total energy              =   -2942.84373671 Ry
     estimated scf accuracy    <       0.00000019 Ry

     iteration # 73     ecut=    29.40 Ry     beta= 0.05
     Davidson diagonalization with overlap
     ethr =  4.75E-11,  avg # of iterations = 13.2

     negative rho (up, down):  1.508E-02 0.000E+00
 
     Adding external electric field

     Computed dipole along edir(3) : 
        Dipole                1.4953 Ry au,          3.8006 Debye
        Dipole field          0.0028 Ry au, 
 
        Potential amp.       -0.2616 Ry
        Total length         46.3494 bohr
 

     total cpu time spent up to now is     1951.9 secs

     total energy              =   -2942.84373811 Ry
     estimated scf accuracy    <       0.00000017 Ry

     iteration # 74     ecut=    29.40 Ry     beta= 0.05
     Davidson diagonalization with overlap
     ethr =  4.25E-11,  avg # of iterations =  1.5

     negative rho (up, down):  1.508E-02 0.000E+00
 
     Adding external electric field

     Computed dipole along edir(3) : 
        Dipole                1.4955 Ry au,          3.8013 Debye
        Dipole field          0.0028 Ry au, 
 
        Potential amp.       -0.2616 Ry
        Total length         46.3494 bohr
 

     total cpu time spent up to now is     1969.5 secs

     total energy              =   -2942.84373931 Ry
     estimated scf accuracy    <       0.00000013 Ry

     iteration # 75     ecut=    29.40 Ry     beta= 0.05
     Davidson diagonalization with overlap
     c_bands:  1 eigenvalues not converged
     ethr =  3.17E-11,  avg # of iterations = 15.3

     negative rho (up, down):  1.512E-02 0.000E+00
 
     Adding external electric field

     Computed dipole along edir(3) : 
        Dipole                1.4948 Ry au,          3.7995 Debye
        Dipole field          0.0028 Ry au, 
 
        Potential amp.       -0.2615 Ry
        Total length         46.3494 bohr
 

     total cpu time spent up to now is     1998.2 secs

     End of self-consistent calculation

          k = 0.0000 0.0000 0.0000 ( 18029 PWs)   bands (ev):

   -55.2019 -55.1648 -55.1540 -55.1253 -55.1199 -55.0830 -55.0798 -55.0449
   -55.0260 -55.0129 -54.9916 -54.9866 -54.9529 -54.8562 -54.1861 -54.1521
   -31.7682 -31.6520 -31.6470 -31.5679 -31.5152 -31.5141 -31.5112 -31.4927
   -31.4430 -31.4393 -31.4115 -31.4092 -31.3990 -31.3821 -31.3692 -31.3634
   -31.3564 -31.3464 -31.3393 -31.3223 -31.3066 -31.3035 -31.2720 -31.2683
   -31.2575 -31.2567 -31.2380 -31.2286 -31.2112 -31.2103 -31.2062 -31.1854
   -31.1853 -31.1818 -31.1752 -31.1727 -31.1394 -31.1296 -31.1149 -31.0980
   -31.0694 -31.0501 -30.5958 -30.5011 -30.4790 -30.4120 -30.3252 -30.2144
   -17.9458 -16.0352 -15.7729 -15.6275 -15.5153 -15.4041 -15.2846 -15.2538
   -15.1341 -15.0580 -14.9240 -14.8977 -14.8751 -14.8517 -14.8398 -14.8271
   -14.7515 -14.7450 -14.7289 -14.7007 -14.6988 -14.6536 -14.6439 -14.6045
   -14.5795 -14.5581 -14.4536 -14.3654 -14.2914 -14.0746 -13.4319 -12.6890
   -12.5714  -9.7145  -6.5946  -6.0858  -4.5525  -3.3736  -3.2627  -3.2256
    -3.1399  -3.1048  -3.0962  -3.0429  -2.9561  -2.7922  -2.6502  -2.6247
    -2.4930  -2.4180  -2.4018  -2.3771  -2.2474  -2.2120  -2.1612  -2.1216
    -2.0630  -2.0321  -2.0086  -1.9930  -1.9620  -1.9529  -1.9277  -1.8385
    -1.7789  -1.6852  -1.6679  -1.6013  -1.5927  -1.5607  -1.5396  -1.4944
    -1.4841  -1.4337  -1.4268  -1.4142  -1.3946  -1.2643  -1.2231  -1.1133
    -1.0518  -0.9642  -0.8437  -0.8036  -0.7895  -0.6989  -0.6901  -0.6580
    -0.5816  -0.5783  -0.5477  -0.4395  -0.3745  -0.3109  -0.2520  -0.2255
    -0.1925  -0.1150  -0.0242   0.0119   0.0286   0.0518   0.1520   0.1870
     0.2427   0.3095   0.3210   0.3342   0.4144   0.4550   0.5303   0.5671
     0.5847   0.6732   0.6999   0.7274   0.7280   0.7659   0.7800   0.8198
     0.8684   0.8952   0.9817   1.0570   1.1033   1.3474   1.3999   1.4059
     1.7320   1.7399   1.8364   2.0198   2.4129   2.4613   3.8947   3.9636
     4.0392   4.0441   4.0666   4.1304   4.3683   4.3914   4.4003   4.4025
     4.4292

          k = 0.0000 0.0419 0.0000 ( 17933 PWs)   bands (ev):

   -55.1969 -55.1697 -55.1490 -55.1248 -55.1247 -55.0808 -55.0748 -55.0498
   -55.0209 -55.0149 -54.9965 -54.9816 -54.9578 -54.8567 -54.1811 -54.1570
   -31.7112 -31.6163 -31.5929 -31.5133 -31.5024 -31.4621 -31.4610 -31.4493
   -31.4474 -31.4380 -31.4307 -31.4002 -31.3951 -31.3921 -31.3751 -31.3727
   -31.3568 -31.3490 -31.3419 -31.3249 -31.3077 -31.3076 -31.2927 -31.2720
   -31.2524 -31.2513 -31.2464 -31.2390 -31.2321 -31.2288 -31.2250 -31.2177
   -31.1953 -31.1931 -31.1843 -31.1766 -31.1719 -31.1678 -31.1522 -31.1252
   -31.0869 -31.0680 -30.5415 -30.4976 -30.4820 -30.3994 -30.3378 -30.2716
   -17.9443 -15.9061 -15.6574 -15.5335 -15.4431 -15.2976 -15.2429 -15.2171
   -15.1138 -15.0638 -15.0182 -14.9480 -14.8931 -14.8820 -14.8215 -14.8092
   -14.7810 -14.7680 -14.7202 -14.7048 -14.6894 -14.6877 -14.6621 -14.6393
   -14.5979 -14.5757 -14.5092 -14.4205 -14.3512 -14.1941 -13.4327 -12.6925
   -12.6107  -9.7244  -6.5873  -6.0808  -4.5423  -3.2514  -3.1831  -3.0588
    -3.0271  -2.9826  -2.9486  -2.9198  -2.8145  -2.5753  -2.5556  -2.5196
    -2.4483  -2.3782  -2.3523  -2.3059  -2.2839  -2.2237  -2.2173  -2.1805
    -2.1611  -2.1437  -2.1012  -2.0766  -2.0040  -1.9865  -1.9528  -1.9263
    -1.8784  -1.8198  -1.7999  -1.7619  -1.7523  -1.7053  -1.6819  -1.6302
    -1.5121  -1.5026  -1.3739  -1.3419  -1.1967  -1.1609  -1.1334  -1.0187
    -0.9696  -0.9416  -0.8832  -0.7859  -0.6633  -0.5877  -0.5511  -0.5353
    -0.5269  -0.4415  -0.4101  -0.3756  -0.3712  -0.2328  -0.2138  -0.2036
    -0.1362  -0.1261  -0.0486  -0.0361  -0.0261  -0.0051   0.0814   0.1690
     0.1930   0.1951   0.2808   0.2865   0.3469   0.3912   0.4412   0.5214
     0.5306   0.5453   0.5787   0.6025   0.6254   0.7291   0.7491   0.7953
     0.8251   0.9022   0.9752   1.0625   1.0908   1.1038   1.1863   1.2681
     1.4439   1.6065   2.0197   2.0946   2.3678   2.3715   4.0907   4.1002
     4.1300   4.1852   4.2672   4.2738   4.3093   4.3281   4.3786   4.3960
     4.4640

          k = 0.0000-0.0839 0.0000 ( 17884 PWs)   bands (ev):

   -55.1881 -55.1784 -55.1371 -55.1366 -55.1240 -55.0786 -55.0652 -55.0593
   -55.0171 -55.0103 -55.0071 -54.9699 -54.9694 -54.8572 -54.1692 -54.1688
   -31.5758 -31.5749 -31.5680 -31.4834 -31.4606 -31.4603 -31.4583 -31.4282
   -31.4280 -31.4001 -31.3880 -31.3876 -31.3754 -31.3736 -31.3724 -31.3641
   -31.3494 -31.3433 -31.3407 -31.3337 -31.3306 -31.3265 -31.2938 -31.2799
   -31.2764 -31.2722 -31.2721 -31.2691 -31.2591 -31.2587 -31.2584 -31.2432
   -31.2402 -31.2380 -31.2322 -31.2009 -31.1685 -31.1660 -31.1507 -31.1504
   -31.1268 -31.0666 -30.4897 -30.4894 -30.4085 -30.4082 -30.3687 -30.3685
   -17.9429 -15.6534 -15.5375 -15.4065 -15.3489 -15.3028 -15.2113 -15.2046
   -15.1013 -15.0700 -15.0608 -15.0266 -14.9888 -14.9583 -14.8224 -14.8146
   -14.8003 -14.7982 -14.7454 -14.6773 -14.6536 -14.6325 -14.6164 -14.6125
   -14.6049 -14.5619 -14.5474 -14.4973 -14.4931 -14.3972 -13.4333 -12.6734
   -12.6733  -9.7342  -6.5805  -6.0761  -4.5328  -3.2435  -3.0120  -2.7705
    -2.7370  -2.6875  -2.6488  -2.6299  -2.6183  -2.6124  -2.5563  -2.5208
    -2.4776  -2.4757  -2.4062  -2.4047  -2.3585  -2.3534  -2.3225  -2.2621
    -2.2093  -2.1887  -2.1496  -2.0922  -2.0741  -2.0588  -2.0381  -2.0285
    -1.9374  -1.9198  -1.8390  -1.8180  -1.7956  -1.6628  -1.6319  -1.6022
    -1.5753  -1.3756  -1.3098  -1.2599  -1.1471  -1.1169  -1.0175  -0.9784
    -0.9655  -0.8312  -0.7264  -0.7115  -0.7024  -0.6661  -0.6530  -0.6228
    -0.5929  -0.5768  -0.5201  -0.4368  -0.4154  -0.3709  -0.2772  -0.2654
    -0.0493  -0.0291   0.0180   0.0466   0.0861   0.1491   0.1720   0.1864
     0.1881   0.2396   0.2757   0.3146   0.3198   0.3638   0.3974   0.4139
     0.4314   0.4511   0.4820   0.5337   0.5747   0.5838   0.5844   0.6104
     0.6390   0.9340   0.9917   1.0044   1.0091   1.0744   1.1548   1.1893
     1.3514   1.3590   2.1614   2.1619   2.3034   2.3036   4.1530   4.1636
     4.2053   4.2197   4.2997   4.3313   4.3758   4.3790   4.4705   4.4831
     4.4932

          k = 0.0380 0.0000 0.0000 ( 17913 PWs)   bands (ev):

   -55.2018 -55.1647 -55.1539 -55.1252 -55.1198 -55.0829 -55.0797 -55.0448
   -55.0257 -55.0128 -54.9915 -54.9866 -54.9528 -54.8561 -54.1860 -54.1520
   -31.7683 -31.6520 -31.6479 -31.5733 -31.5192 -31.5156 -31.5133 -31.4930
   -31.4427 -31.4392 -31.4093 -31.3990 -31.3945 -31.3819 -31.3691 -31.3560
   -31.3481 -31.3459 -31.3328 -31.3050 -31.3034 -31.3013 -31.2801 -31.2749
   -31.2680 -31.2565 -31.2379 -31.2286 -31.2110 -31.2095 -31.1987 -31.1944
   -31.1853 -31.1848 -31.1816 -31.1751 -31.1381 -31.1292 -31.1148 -31.0984
   -31.0719 -31.0501 -30.5952 -30.5046 -30.4770 -30.4118 -30.3251 -30.2142
   -17.9454 -15.9554 -15.6862 -15.6237 -15.4757 -15.3115 -15.2902 -15.2541
   -15.1537 -15.0616 -14.9942 -14.9866 -14.9505 -14.9085 -14.9006 -14.8727
   -14.8400 -14.8020 -14.7230 -14.7007 -14.6491 -14.6097 -14.5876 -14.5728
   -14.5284 -14.4633 -14.4404 -14.4247 -14.3776 -14.0728 -13.4331 -12.6856
   -12.5711  -9.7124  -6.5946  -6.0909  -4.5494  -3.2594  -3.2474  -3.1145
    -3.0366  -2.9909  -2.9029  -2.8526  -2.8088  -2.7711  -2.7360  -2.6539
    -2.6271  -2.5456  -2.4962  -2.3562  -2.2796  -2.2693  -2.1942  -2.1412
    -2.0060  -1.9846  -1.9706  -1.9185  -1.8773  -1.8666  -1.8116  -1.7929
    -1.7279  -1.7046  -1.6092  -1.5754  -1.5567  -1.5417  -1.5166  -1.5076
    -1.4456  -1.3899  -1.3348  -1.2967  -1.2666  -1.2097  -1.1607  -1.1398
    -1.0099  -0.9945  -0.8752  -0.8384  -0.8123  -0.7496  -0.7169  -0.6656
    -0.6181  -0.6147  -0.5599  -0.5529  -0.5259  -0.3011  -0.2667  -0.2161
    -0.1476  -0.0981  -0.0865  -0.0605  -0.0359   0.0986   0.1044   0.1566
     0.1893   0.2168   0.2845   0.3226   0.3442   0.4037   0.4506   0.4849
     0.5239   0.5320   0.5560   0.6131   0.6506   0.7202   0.7414   0.7629
     0.8026   0.8224   0.8985   0.9786   1.0383   1.1412   1.2241   1.4579
     1.5928   1.7453   1.8483   1.9886   2.3002   2.3784   3.9104   3.9983
     4.1555   4.1909   4.2271   4.2855   4.3348   4.3495   4.3847   4.3973
     4.4064

          k = 0.0380 0.0419 0.0000 ( 17878 PWs)   bands (ev):

   -55.1968 -55.1697 -55.1489 -55.1248 -55.1246 -55.0808 -55.0747 -55.0498
   -55.0207 -55.0149 -54.9965 -54.9816 -54.9578 -54.8566 -54.1810 -54.1570
   -31.7114 -31.6165 -31.5938 -31.5196 -31.5023 -31.4663 -31.4649 -31.4497
   -31.4476 -31.4378 -31.4308 -31.3954 -31.3928 -31.3862 -31.3749 -31.3728
   -31.3435 -31.3414 -31.3391 -31.3250 -31.3077 -31.2918 -31.2886 -31.2772
   -31.2677 -31.2521 -31.2462 -31.2366 -31.2323 -31.2248 -31.2200 -31.2164
   -31.2047 -31.1935 -31.1841 -31.1804 -31.1760 -31.1742 -31.1520 -31.1252
   -31.0867 -31.0708 -30.5412 -30.5004 -30.4810 -30.3992 -30.3379 -30.2715
   -17.9440 -15.8333 -15.5819 -15.5456 -15.3812 -15.2508 -15.2220 -15.1928
   -15.1244 -15.0811 -15.0156 -14.9785 -14.9549 -14.8925 -14.8794 -14.8562
   -14.8493 -14.7857 -14.7641 -14.7368 -14.6821 -14.6567 -14.6257 -14.6083
   -14.5806 -14.5301 -14.4964 -14.4883 -14.4316 -14.1926 -13.4339 -12.6902
   -12.6109  -9.7223  -6.5872  -6.0852  -4.5400  -3.2499  -3.0748  -3.0252
    -2.9419  -2.8260  -2.7465  -2.6986  -2.6372  -2.6055  -2.5564  -2.5230
    -2.4655  -2.4018  -2.3292  -2.2918  -2.2474  -2.2254  -2.2072  -2.1538
    -2.1083  -2.0817  -2.0338  -2.0099  -1.9934  -1.9652  -1.9116  -1.9023
    -1.8553  -1.8236  -1.8025  -1.7732  -1.7124  -1.6683  -1.6389  -1.5951
    -1.4964  -1.4197  -1.3285  -1.2662  -1.2150  -1.1988  -1.0755  -1.0195
    -0.9918  -0.9307  -0.8202  -0.7693  -0.7025  -0.6873  -0.6317  -0.6063
    -0.5585  -0.5403  -0.4953  -0.4648  -0.3880  -0.3458  -0.3138  -0.2886
    -0.1812  -0.1575  -0.1452  -0.1060  -0.0355   0.0123   0.0262   0.0799
     0.0984   0.1368   0.1676   0.1804   0.2102   0.2669   0.3373   0.3556
     0.4088   0.4461   0.5134   0.5356   0.6019   0.6750   0.7392   0.7798
     0.8656   0.8988   0.9437   1.0270   1.0623   1.1145   1.2141   1.2159
     1.3882   1.5639   2.0305   2.0980   2.2899   2.3533   4.0771   4.0950
     4.1207   4.2339   4.2612   4.3015   4.3255   4.4065   4.4418   4.4704
     4.4900

          k = 0.0380-0.0839 0.0000 ( 17916 PWs)   bands (ev):

   -55.1881 -55.1784 -55.1371 -55.1366 -55.1240 -55.0786 -55.0653 -55.0594
   -55.0171 -55.0102 -55.0070 -54.9700 -54.9695 -54.8573 -54.1692 -54.1688
   -31.5761 -31.5751 -31.5683 -31.4835 -31.4614 -31.4610 -31.4585 -31.4282
   -31.4280 -31.4046 -31.4002 -31.3941 -31.3899 -31.3658 -31.3542 -31.3486
   -31.3469 -31.3392 -31.3367 -31.3354 -31.3344 -31.3315 -31.2900 -31.2817
   -31.2783 -31.2715 -31.2595 -31.2583 -31.2578 -31.2517 -31.2488 -31.2467
   -31.2431 -31.2406 -31.2401 -31.2028 -31.1802 -31.1777 -31.1507 -31.1504
   -31.1263 -31.0702 -30.4908 -30.4905 -30.4084 -30.4081 -30.3687 -30.3685
   -17.9427 -15.6133 -15.4903 -15.3878 -15.3013 -15.2893 -15.1691 -15.1487
   -15.0932 -15.0641 -15.0561 -15.0179 -14.9496 -14.9167 -14.8331 -14.8294
   -14.8230 -14.8007 -14.7919 -14.7609 -14.7067 -14.6860 -14.6428 -14.6360
   -14.5849 -14.5784 -14.5678 -14.5476 -14.5467 -14.3852 -13.4343 -12.6732
   -12.6731  -9.7322  -6.5799  -6.0810  -4.5319  -3.2419  -3.0075  -2.7096
    -2.6922  -2.6623  -2.5000  -2.4706  -2.4602  -2.4168  -2.3952  -2.3822
    -2.3516  -2.3268  -2.3167  -2.2844  -2.2801  -2.2528  -2.2481  -2.1948
    -2.1837  -2.1348  -2.1199  -2.0912  -2.0622  -2.0353  -1.9784  -1.9633
    -1.9299  -1.8902  -1.8704  -1.8403  -1.7756  -1.7193  -1.6596  -1.4754
    -1.4111  -1.3967  -1.2808  -1.2361  -1.1645  -1.1412  -1.1300  -1.0732
    -1.0501  -0.9697  -0.9452  -0.8899  -0.8837  -0.8569  -0.7715  -0.6885
    -0.6464  -0.5893  -0.5551  -0.5221  -0.4968  -0.4473  -0.2883  -0.2488
    -0.2314  -0.1755  -0.1369  -0.0628  -0.0344  -0.0096  -0.0007   0.0309
     0.0863   0.1488   0.1556   0.1796   0.2217   0.2650   0.2742   0.3049
     0.3244   0.4879   0.5177   0.5301   0.5602   0.6704   0.6950   0.8532
     0.8574   0.8861   0.9369   1.0150   1.0383   1.0774   1.1211   1.1298
     1.3423   1.3490   2.1748   2.1754   2.2939   2.2946   4.0647   4.1529
     4.1850   4.2108   4.2977   4.3392   4.3527   4.3786   4.4799   4.4995
     4.5450

          k = 0.0380-0.0419 0.0000 ( 17876 PWs)   bands (ev):

   -55.1968 -55.1697 -55.1489 -55.1248 -55.1246 -55.0808 -55.0747 -55.0498
   -55.0207 -55.0149 -54.9964 -54.9816 -54.9578 -54.8566 -54.1810 -54.1570
   -31.7113 -31.6165 -31.5938 -31.5196 -31.5023 -31.4663 -31.4651 -31.4497
   -31.4476 -31.4378 -31.4308 -31.3954 -31.3928 -31.3861 -31.3749 -31.3728
   -31.3430 -31.3415 -31.3390 -31.3250 -31.3077 -31.2918 -31.2886 -31.2775
   -31.2679 -31.2521 -31.2462 -31.2365 -31.2323 -31.2247 -31.2200 -31.2163
   -31.2049 -31.1943 -31.1835 -31.1802 -31.1761 -31.1742 -31.1520 -31.1252
   -31.0866 -31.0707 -30.5411 -30.5004 -30.4810 -30.3992 -30.3379 -30.2715
   -17.9440 -15.8332 -15.5818 -15.5452 -15.3806 -15.2514 -15.2215 -15.1926
   -15.1242 -15.0810 -15.0160 -14.9803 -14.9560 -14.8942 -14.8785 -14.8576
   -14.8497 -14.7823 -14.7639 -14.7369 -14.6820 -14.6566 -14.6257 -14.6080
   -14.5806 -14.5294 -14.4962 -14.4886 -14.4319 -14.1924 -13.4337 -12.6902
   -12.6109  -9.7224  -6.5866  -6.0865  -4.5405  -3.2485  -3.0759  -3.0279
    -2.9439  -2.8256  -2.7390  -2.6974  -2.6365  -2.6013  -2.5571  -2.5252
    -2.4661  -2.4007  -2.3286  -2.2910  -2.2439  -2.2291  -2.2118  -2.1536
    -2.1075  -2.0847  -2.0362  -2.0116  -2.0022  -1.9651  -1.9117  -1.9023
    -1.8550  -1.8218  -1.7975  -1.7671  -1.7104  -1.6482  -1.6278  -1.5981
    -1.4986  -1.4287  -1.3600  -1.2704  -1.2144  -1.1965  -1.0721  -1.0120
    -0.9890  -0.9302  -0.8352  -0.7746  -0.6981  -0.6753  -0.6264  -0.5998
    -0.5591  -0.5448  -0.5067  -0.4699  -0.3877  -0.3508  -0.3107  -0.2840
    -0.1827  -0.1609  -0.1453  -0.1057  -0.0215   0.0040   0.0361   0.0849
     0.1006   0.1388   0.1720   0.1787   0.2103   0.2640   0.3347   0.3570
     0.4076   0.4454   0.5143   0.5312   0.6058   0.6716   0.7452   0.7732
     0.8596   0.8966   0.9438   1.0325   1.0599   1.1179   1.2143   1.2152
     1.3885   1.5640   2.0306   2.0980   2.2898   2.3539   4.0787   4.0937
     4.1204   4.2335   4.2632   4.3030   4.3250   4.4073   4.4471   4.4693
     4.4944

          k =-0.0760-0.0000 0.0000 ( 17886 PWs)   bands (ev):

   -55.2017 -55.1647 -55.1539 -55.1251 -55.1198 -55.0829 -55.0797 -55.0448
   -55.0255 -55.0128 -54.9915 -54.9867 -54.9528 -54.8561 -54.1860 -54.1520
   -31.7685 -31.6523 -31.6488 -31.5784 -31.5231 -31.5189 -31.5133 -31.4933
   -31.4426 -31.4392 -31.4094 -31.3989 -31.3825 -31.3693 -31.3690 -31.3559
   -31.3458 -31.3272 -31.3233 -31.3035 -31.3009 -31.3005 -31.2975 -31.2684
   -31.2680 -31.2567 -31.2378 -31.2287 -31.2284 -31.2113 -31.2093 -31.1902
   -31.1856 -31.1849 -31.1818 -31.1787 -31.1372 -31.1290 -31.1147 -31.0991
   -31.0744 -31.0502 -30.5948 -30.5081 -30.4756 -30.4117 -30.3250 -30.2143
   -17.9450 -15.8150 -15.7206 -15.5417 -15.4124 -15.2711 -15.2509 -15.2445
   -15.1111 -15.0983 -15.0648 -15.0403 -15.0092 -14.9850 -14.9560 -14.9208
   -14.9068 -14.8240 -14.7008 -14.6676 -14.6401 -14.6180 -14.6147 -14.6106
   -14.5378 -14.4917 -14.4494 -14.3729 -14.3364 -14.0715 -13.4343 -12.6825
   -12.5708  -9.7104  -6.5946  -6.0962  -4.5466  -3.2577  -3.2111  -3.1001
    -3.0334  -2.8474  -2.7556  -2.7092  -2.7010  -2.6897  -2.6660  -2.6339
    -2.6059  -2.5207  -2.4501  -2.4342  -2.2706  -2.1628  -2.1335  -2.0512
    -1.9925  -1.9217  -1.8540  -1.8157  -1.7970  -1.7789  -1.7483  -1.7293
    -1.6972  -1.6845  -1.6341  -1.5860  -1.5571  -1.5399  -1.5209  -1.5018
    -1.4959  -1.4796  -1.4071  -1.3463  -1.2867  -1.1688  -1.0394  -1.0220
    -0.9087  -0.9021  -0.8527  -0.8438  -0.8183  -0.8083  -0.7686  -0.7383
    -0.7125  -0.6438  -0.6188  -0.5617  -0.5206  -0.4959  -0.4749  -0.4081
    -0.2069  -0.1514  -0.1272  -0.0967  -0.0698   0.0219   0.0741   0.0945
     0.1337   0.1902   0.2297   0.2581   0.2914   0.3024   0.3642   0.3826
     0.4507   0.4787   0.5366   0.5687   0.5936   0.6358   0.6377   0.6724
     0.7413   0.7923   0.9177   1.0129   1.0336   1.1205   1.2783   1.3174
     1.4845   1.7499   1.8697   1.9637   2.1699   2.3235   3.9103   3.9555
     4.0372   4.1659   4.2157   4.2792   4.3365   4.3698   4.3848   4.4072
     4.4768

          k =-0.0760 0.0419 0.0000 ( 17914 PWs)   bands (ev):

   -55.1967 -55.1697 -55.1489 -55.1248 -55.1245 -55.0809 -55.0748 -55.0498
   -55.0206 -55.0149 -54.9964 -54.9818 -54.9578 -54.8567 -54.1810 -54.1570
   -31.7117 -31.6167 -31.5948 -31.5258 -31.5025 -31.4706 -31.4691 -31.4503
   -31.4477 -31.4378 -31.4309 -31.3955 -31.3926 -31.3760 -31.3729 -31.3682
   -31.3416 -31.3300 -31.3253 -31.3232 -31.3078 -31.2897 -31.2882 -31.2873
   -31.2565 -31.2529 -31.2464 -31.2359 -31.2354 -31.2324 -31.2245 -31.2226
   -31.1940 -31.1939 -31.1917 -31.1839 -31.1821 -31.1766 -31.1526 -31.1253
   -31.0866 -31.0738 -30.5409 -30.5034 -30.4803 -30.3992 -30.3379 -30.2715
   -17.9438 -15.6986 -15.6414 -15.4565 -15.3208 -15.2255 -15.1764 -15.1651
   -15.1203 -15.0592 -15.0122 -15.0037 -14.9975 -14.9625 -14.9345 -14.9043
   -14.8953 -14.8226 -14.7641 -14.7582 -14.6782 -14.6685 -14.6338 -14.6279
   -14.5870 -14.5849 -14.4937 -14.4607 -14.4435 -14.1914 -13.4350 -12.6880
   -12.6113  -9.7204  -6.5866  -6.0910  -4.5385  -3.2490  -3.0480  -3.0248
    -2.9246  -2.6306  -2.5855  -2.5488  -2.5020  -2.4716  -2.4378  -2.4245
    -2.4100  -2.3535  -2.3047  -2.2345  -2.2085  -2.1799  -2.1693  -2.1510
    -2.0923  -2.0253  -2.0233  -1.9525  -1.9263  -1.9002  -1.8863  -1.8346
    -1.8027  -1.7643  -1.7514  -1.7475  -1.6993  -1.6662  -1.6458  -1.4537
    -1.4271  -1.3780  -1.3640  -1.3175  -1.2654  -1.1837  -1.0060  -0.9748
    -0.9535  -0.9447  -0.8465  -0.8315  -0.8018  -0.7688  -0.7082  -0.6390
    -0.6175  -0.6026  -0.5706  -0.5410  -0.4917  -0.4763  -0.4529  -0.4106
    -0.3902  -0.3627  -0.2963  -0.2723  -0.1903  -0.1786  -0.0983  -0.0089
    -0.0003   0.0264   0.0524   0.0925   0.1182   0.2394   0.2723   0.3176
     0.3499   0.4358   0.5197   0.5441   0.6142   0.6675   0.7077   0.7597
     0.8805   0.9883   1.0085   1.0630   1.1002   1.1333   1.2057   1.2921
     1.3061   1.4472   2.0459   2.1002   2.2120   2.3424   4.0681   4.0960
     4.1133   4.1255   4.2105   4.2559   4.2969   4.3594   4.4237   4.4926
     4.5260

          k =-0.0760-0.0839 0.0000 ( 17948 PWs)   bands (ev):

   -55.1881 -55.1784 -55.1371 -55.1366 -55.1240 -55.0787 -55.0653 -55.0594
   -55.0172 -55.0101 -55.0070 -54.9701 -54.9696 -54.8573 -54.1692 -54.1689
   -31.5764 -31.5754 -31.5686 -31.4837 -31.4622 -31.4618 -31.4588 -31.4283
   -31.4281 -31.4125 -31.4018 -31.4003 -31.3916 -31.3659 -31.3566 -31.3434
   -31.3426 -31.3388 -31.3354 -31.3299 -31.3280 -31.3219 -31.2829 -31.2796
   -31.2794 -31.2781 -31.2603 -31.2587 -31.2568 -31.2564 -31.2515 -31.2432
   -31.2402 -31.2233 -31.2199 -31.2039 -31.2031 -31.2003 -31.1507 -31.1505
   -31.1259 -31.0738 -30.4918 -30.4915 -30.4084 -30.4081 -30.3687 -30.3685
   -17.9425 -15.5602 -15.4303 -15.4012 -15.2448 -15.2086 -15.1752 -15.1620
   -15.0410 -15.0036 -14.9790 -14.9697 -14.9520 -14.9117 -14.9061 -14.8990
   -14.8286 -14.8094 -14.8051 -14.7828 -14.7247 -14.7157 -14.7118 -14.7043
   -14.6537 -14.6501 -14.5693 -14.5594 -14.5561 -14.3761 -13.4353 -12.6729
   -12.6728  -9.7304  -6.5792  -6.0860  -4.5310  -3.2405  -3.0027  -2.6927
    -2.6883  -2.6598  -2.4587  -2.3960  -2.3653  -2.3597  -2.2624  -2.2258
    -2.2012  -2.1978  -2.1325  -2.1180  -2.0866  -2.0571  -2.0409  -2.0268
    -2.0105  -1.9963  -1.9717  -1.9343  -1.9262  -1.9176  -1.8856  -1.8644
    -1.8414  -1.8188  -1.8056  -1.7871  -1.7611  -1.7385  -1.6017  -1.5702
    -1.4998  -1.4550  -1.4136  -1.4093  -1.3375  -1.3010  -1.2509  -1.2387
    -1.2214  -1.0810  -1.0237  -0.9726  -0.9527  -0.9418  -0.8129  -0.7986
    -0.7255  -0.7079  -0.6916  -0.6155  -0.5659  -0.5277  -0.5140  -0.4208
    -0.4051  -0.3391  -0.2369  -0.2141  -0.2003  -0.1596  -0.1566  -0.1094
    -0.1023  -0.0181   0.0260   0.0611   0.0719   0.1077   0.3007   0.3168
     0.3266   0.4798   0.4960   0.6371   0.6807   0.7471   0.8061   0.8450
     0.9066   0.9438   1.0636   1.0898   1.1016   1.1113   1.1713   1.1832
     1.2459   1.2567   2.1925   2.1931   2.2812   2.2814   4.0406   4.1480
     4.1557   4.1974   4.3172   4.3475   4.4097   4.4369   4.4789   4.4820
     4.5418

     the Fermi energy is     3.9580 ev

!    total energy              =   -2942.84375049 Ry
     estimated scf accuracy    <       0.00000006 Ry
     smearing contrib. (-TS)   =      -0.03707708 Ry
     internal energy E=F+TS    =   -2942.80667342 Ry

     The total energy is F=E-TS. E is the sum of the following terms:
     one-electron contribution =  -23366.58497418 Ry
     hartree contribution      =   11777.46805904 Ry
     xc contribution           =    -487.74042435 Ry
     ewald contribution        =    9134.04644928 Ry
     electric field correction =       0.00421679 Ry

     convergence has been achieved in  75 iterations

     Forces acting on atoms (cartesian axes, Ry/au):

     atom    1 type  1   force =     0.00016987   -0.00032787    0.09327755
     atom    2 type  1   force =    -0.00006059   -0.00042121   -0.17825015
     atom    3 type  2   force =     0.00002613   -0.00032278   -0.02003286
     atom    4 type  2   force =     0.00002162   -0.00183370    0.05923432
     atom    5 type  2   force =    -0.01046096   -0.00026327    0.00864037
     atom    6 type  2   force =     0.01147520    0.00040859    0.00645218
     atom    7 type  1   force =    -0.00100342    0.00212950   -0.01398106
     atom    8 type  1   force =     0.00081484   -0.00094614   -0.00572626
     atom    9 type  2   force =    -0.00009983    0.00012693   -0.00001691
     atom   10 type  2   force =    -0.00185441    0.00411267    0.00028073
     atom   11 type  2   force =    -0.00008865   -0.00064736    0.00028208
     atom   12 type  2   force =     0.00000868   -0.00041718    0.00053744
     atom   13 type  1   force =     0.00003854    0.00009730    0.00032594
     atom   14 type  1   force =    -0.00037614   -0.00000266    0.00008321
     atom   15 type  2   force =     0.00052146    0.00025068   -0.00034507
     atom   16 type  2   force =     0.00032147   -0.00035050   -0.00005743
     atom   17 type  2   force =    -0.00057211   -0.00001256   -0.00001314
     atom   18 type  2   force =     0.00054121   -0.00020511   -0.00000212
     atom   19 type  1   force =    -0.00003037   -0.00054616    0.00023216
     atom   20 type  1   force =     0.00070318    0.00013092    0.00092745
     atom   21 type  2   force =     0.00012529   -0.00012771    0.10403744
     atom   22 type  2   force =    -0.00032045    0.00016153   -0.00022083
     atom   23 type  2   force =    -0.07027855   -0.00021725   -0.02688234
     atom   24 type  2   force =     0.07026993    0.00022080   -0.02690603
     atom   25 type  1   force =     0.00008031   -0.00032342    0.09258521
     atom   26 type  1   force =    -0.00002744   -0.00059561   -0.17836621
     atom   27 type  2   force =     0.00012976   -0.00016340   -0.01908787
     atom   28 type  2   force =     0.00005140   -0.00163491    0.05859348
     atom   29 type  2   force =    -0.01105851   -0.00055857    0.00932073
     atom   30 type  2   force =     0.01197885   -0.00002004    0.00721017
     atom   31 type  1   force =    -0.00093273    0.00646402   -0.01504601
     atom   32 type  1   force =     0.00085645    0.00101381   -0.00587034
     atom   33 type  2   force =     0.00017452   -0.00057395   -0.00004902
     atom   34 type  2   force =    -0.00185850   -0.00052059   -0.00048908
     atom   35 type  2   force =    -0.00047113    0.00006785   -0.00043750
     atom   36 type  2   force =     0.00037030   -0.00011292    0.00017850
     atom   37 type  1   force =    -0.00051802   -0.00024818    0.00019967
     atom   38 type  1   force =    -0.00004703   -0.00014911   -0.00008590
     atom   39 type  2   force =     0.00030070   -0.00061355   -0.00001137
     atom   40 type  2   force =    -0.00060282   -0.00051346    0.00026494
     atom   41 type  2   force =    -0.00024674   -0.00073816   -0.00069861
     atom   42 type  2   force =     0.00046032   -0.00008327   -0.00009119
     atom   43 type  1   force =     0.00024030   -0.00019480   -0.00020015
     atom   44 type  1   force =     0.00051011    0.00004749    0.00081228
     atom   45 type  2   force =     0.00013424   -0.00014362    0.10400162
     atom   46 type  2   force =    -0.07027972   -0.00016795   -0.02685350
     atom   47 type  2   force =     0.07024882    0.00025606   -0.02690909
     atom   48 type  3   force =     0.00357629    0.00164522   -0.00035814
     atom   49 type  3   force =     0.00069075    0.00009729    0.00082988
     atom   50 type  4   force =    -0.01997966   -0.00130620   -0.00038853
     atom   51 type  5   force =     0.00614718   -0.00140973   -0.00190357
     atom   52 type  5   force =     0.00690641   -0.00169925    0.00453688
     atom   53 type  5   force =     0.00397415    0.00251049   -0.00417580
     atom   54 type  5   force =     0.00018566   -0.00119578    0.00082251
     atom   55 type  5   force =    -0.00000307   -0.00037109   -0.00010938
     atom   56 type  5   force =    -0.00088311    0.00023785   -0.00010127

     Total force =     0.367111     Total SCF correction =     0.000687
  @ DRIVER MODE: Message from server: STATUS
  @ DRIVER MODE: Message from server: GETFORCE
  @ DRIVER MODE: Returning v,forces,stress,ensemble 

     Writing output data file ./calc.save/
  @ DRIVER MODE: Message from server: EXIT
  @ DRIVE MODE: Exiting  
 
     init_run     :     18.30s CPU     18.65s WALL (       1 calls)
     electrons    :   1936.51s CPU   1978.71s WALL (       1 calls)
     forces       :      3.93s CPU      4.10s WALL (       1 calls)

     Called by init_run:
     wfcinit      :      8.19s CPU      8.29s WALL (       1 calls)
     potinit      :      9.10s CPU      9.19s WALL (       1 calls)
     hinit0       :      0.48s CPU      0.49s WALL (       1 calls)

     Called by electrons:
     c_bands      :   1619.57s CPU   1641.22s WALL (      75 calls)
     sum_band     :    213.39s CPU    223.28s WALL (      75 calls)
     v_of_rho     :     77.38s CPU     80.06s WALL (      76 calls)
     newd         :     30.99s CPU     38.97s WALL (      76 calls)
     mix_rho      :      2.93s CPU      3.01s WALL (      75 calls)
     vdW_kernel   :      7.64s CPU      7.66s WALL (       1 calls)

     Called by c_bands:
     init_us_2    :     11.52s CPU     11.61s WALL (    1520 calls)
     cegterg      :   1585.99s CPU   1607.07s WALL (     768 calls)

     Called by *egterg:
     cdiaghg      :    204.49s CPU    205.50s WALL (    8260 calls)
     h_psi        :    892.37s CPU    905.00s WALL (    8271 calls)
     s_psi        :    123.08s CPU    123.52s WALL (    8271 calls)
     g_psi        :      3.11s CPU      3.13s WALL (    7493 calls)

     Called by h_psi:
     h_psi:calbec :    114.66s CPU    116.01s WALL (    8271 calls)
     vloc_psi     :    650.12s CPU    656.05s WALL (    8271 calls)
     add_vuspsi   :    123.06s CPU    125.28s WALL (    8271 calls)

     General routines
     calbec       :    151.54s CPU    153.01s WALL (    9061 calls)
     fft          :     43.21s CPU     43.43s WALL (    4788 calls)
     ffts         :      0.26s CPU      0.26s WALL (     151 calls)
     fftw         :    717.24s CPU    723.66s WALL (  991916 calls)
     interpolate  :      0.82s CPU      0.82s WALL (      76 calls)
     davcio       :      0.00s CPU      0.11s WALL (      10 calls)
 
     Parallel routines
 
     PWSCF        :  32m39.03s CPU  33m22.83s WALL

 
   This run was terminated on:   0:55:29  25Aug2021            

=------------------------------------------------------------------------------=
   JOB DONE.
=------------------------------------------------------------------------------=
