
     Program PWSCF v.6.7GPU starts on  2Aug2021 at 19:41:40 

     This program is part of the open-source Quantum ESPRESSO suite
     for quantum simulation of materials; please cite
         "P. Giannozzi et al., J. Phys.:Condens. Matter 21 395502 (2009);
         "P. Giannozzi et al., J. Phys.:Condens. Matter 29 465901 (2017);
         "P. Giannozzi et al., J. Chem. Phys. 152 154105 (2020);
          URL http://www.quantum-espresso.org", 
     in publications or presentations arising from this work. More details at
     http://www.quantum-espresso.org/quote

     Parallel version (MPI), running on    16 processors

     MPI processes distributed on     1 nodes
     R & G space division:  proc/nbgrp/npool/nimage =      16
     Reading input from /storage/home/hcoda1/3/ntian30/research/carbon/02Aug_vib_paired/ads_slab/CH3NH3_a/out_0022/pw.inp
Warning: card &CELL ignored
Warning: card   CELL_DYNAMICS='IPI', ignored
Warning: card / ignored

     Current dimensions of program PWSCF are:
     Max number of different atomic species (ntypx) = 10
     Max number of k-points (npk) =  40000
     Max angular momentum in pseudopotentials (lmaxx) =  3
     Presently no symmetry can be used with electric field

     Message from routine cell_base_init:
     DEPRECATED: use true lattice parameter, not A to a.u. conversion factor

     **************************************************************************
     Initializing libbeef V0.1.2 with the BEEF-vdW functional.
     Citation: Wellendorff et al., PRB 85, 235149 (2012).
     **************************************************************************


     IMPORTANT: XC functional enforced from input :
     Exchange-correlation= BEEF-VDW
                           (   1   4  43  14   2   0   0)
     Any further DFT definition will be discarded
     Please, verify this is what you really want


     Subspace diagonalization in iterative solution of the eigenvalue problem:
     one sub-group per band group will be used
     scalapack distributed-memory algorithm (size of sub-group:  4*  4 procs)

  @ DRIVER MODE: Connecting to 
 qe_1139763_2482539.sched-torque.pace.gatech.educ_7nllue_scratch
  using UNIX socket
  @ DRIVER MODE: Message from server: STATUS
  @ DRIVER MODE: Message from server: INIT
  @ DRIVER MODE: Receiving replica           0          -1
  @ DRIVER MODE: Receiving encoded integer          25
  @ DRIVER MODE:  SCF:  T  FORCE:  T  STRESS:  F  VC:  F  ENSEMBLE:  F
  @ DRIVER MODE:  SCF:  T  FORCE:  T  STRESS:  F  VC:  F  ENSEMBLE:  F
 
     Parallelization info
     --------------------
     sticks:   dense  smooth     PW     G-vecs:    dense   smooth      PW
     Min         204      82     23                35422     8962    1367
     Max         205      84     24                35435     8968    1382
     Sum        3275    1317    379               566857   143421   21985
 
     Using Slab Decomposition
 


     bravais-lattice index     =            0
     lattice parameter (alat)  =       1.8897  a.u.
     unit-cell volume          =    6658.9804 (a.u.)^3
     number of atoms/cell      =           55
     number of atomic types    =            5
     number of electrons       =       393.00
     number of Kohn-Sham states=          206
     kinetic-energy cutoff     =      29.3995  Ry
     charge density cutoff     =     293.9946  Ry
     scf convergence threshold =      7.3E-08
     mixing beta               =       0.0500
     number of iterations used =            8  plain     mixing
     Exchange-correlation= BEEF-VDW
                           (   1   4  43  14   2   0   0)

     celldm(1)=   1.889726  celldm(2)=   0.000000  celldm(3)=   0.000000
     celldm(4)=   0.000000  celldm(5)=   0.000000  celldm(6)=   0.000000

     crystal axes: (cart. coord. in units of alat)
               a(1) = (   6.579727   0.000000   0.000000 )  
               a(2) = (  -0.000775   5.961596   0.000000 )  
               a(3) = (   0.000000   0.000000  25.155947 )  

     reciprocal axes: (cart. coord. in units 2 pi/alat)
               b(1) = (  0.151982  0.000020  0.000000 )  
               b(2) = (  0.000000  0.167740  0.000000 )  
               b(3) = (  0.000000  0.000000  0.039752 )  


     PseudoPot. # 1 for Ti read from file:
     /storage/coda1/p-amedford6/0/shared/rich_project_chbe-medford/medford-share/data/pseudos_module/espresso/nninc/pbe/van/Ti.UPF
     MD5 check sum: 8e4df49b7f0d34bbd5052bf3f5ea0213
     Pseudo is Ultrasoft, Zval = 12.0
     Generated by new atomic code, or converted to UPF format
     Using radial grid of  851 points,  6 beta functions with: 
                l(1) =   0
                l(2) =   0
                l(3) =   1
                l(4) =   1
                l(5) =   2
                l(6) =   2
     Q(r) pseudized with  8 coefficients,  rinner =    1.000   1.000   1.000
                                                       1.000   1.000

     PseudoPot. # 2 for O  read from file:
     /storage/coda1/p-amedford6/0/shared/rich_project_chbe-medford/medford-share/data/pseudos_module/espresso/nninc/pbe/van/O.UPF
     MD5 check sum: 78c19812648e8988a0fe644b0f25305e
     Pseudo is Ultrasoft, Zval =  6.0
     Generated by new atomic code, or converted to UPF format
     Using radial grid of  737 points,  4 beta functions with: 
                l(1) =   0
                l(2) =   0
                l(3) =   1
                l(4) =   1
     Q(r) pseudized with  8 coefficients,  rinner =    0.800   0.800   0.800


     PseudoPot. # 3 for C  read from file:
     /storage/coda1/p-amedford6/0/shared/rich_project_chbe-medford/medford-share/data/pseudos_module/espresso/nninc/pbe/van/C.UPF
     MD5 check sum: 1a69bf6b8db32088f5b2163dbdb77a27
     Pseudo is Ultrasoft, Zval =  4.0
     Generated by new atomic code, or converted to UPF format
     Using radial grid of  721 points,  4 beta functions with: 
                l(1) =   0
                l(2) =   0
                l(3) =   1
                l(4) =   1
     Q(r) pseudized with  8 coefficients,  rinner =    0.800   0.800   0.800


     PseudoPot. # 4 for H  read from file:
     /storage/coda1/p-amedford6/0/shared/rich_project_chbe-medford/medford-share/data/pseudos_module/espresso/nninc/pbe/van/H.UPF
     MD5 check sum: b5ee9d7bfd3a09ee7748110bda690ff7
     Pseudo is Ultrasoft, Zval =  1.0
     Generated by new atomic code, or converted to UPF format
     Using radial grid of  615 points,  1 beta functions with: 
                l(1) =   0
     Q(r) pseudized with  8 coefficients,  rinner =    0.800

     PseudoPot. # 5 for N  read from file:
     /storage/coda1/p-amedford6/0/shared/rich_project_chbe-medford/medford-share/data/pseudos_module/espresso/nninc/pbe/van/N.UPF
     MD5 check sum: 90d10febe142ad51ac9d5be1deb811c4
     Pseudo is Ultrasoft, Zval =  5.0
     Generated by new atomic code, or converted to UPF format
     Using radial grid of  729 points,  4 beta functions with: 
                l(1) =   0
                l(2) =   0
                l(3) =   1
                l(4) =   1
     Q(r) pseudized with  8 coefficients,  rinner =    0.800   0.800   0.800


     atomic species   valence    mass     pseudopotential
        Ti1           12.00    47.86700     Ti( 1.00)
        O1             6.00    15.99900     O ( 1.00)
        C1             4.00    12.01100     C ( 1.00)
        H1             1.00     1.00800     H ( 1.00)
        N1             5.00    14.00700     N ( 1.00)

     No symmetry found



   Cartesian axes

     site n.     atom                  positions (alat units)
         1           Ti1 tau(   1) = (   0.0004258   2.9801865   6.0000000  )
         2           Ti1 tau(   2) = (   3.2906075   1.4906267   6.0002472  )
         3           O1  tau(   3) = (   0.0006271   0.0005054   7.9858123  )
         4           O1  tau(   4) = (   3.2906025   0.0005020   7.3038282  )
         5           O1  tau(   5) = (   4.5942328   1.4918067   9.2879030  )
         6           O1  tau(   6) = (   1.9868534   1.4903216   9.2879459  )
         7           Ti1 tau(   7) = (   3.2907910   2.8959150   9.1758416  )
         8           Ti1 tau(   8) = (   0.0015273   1.4827037   9.2680791  )
         9           O1  tau(   9) = (   3.2981156   0.0012339  11.3300471  )
        10           O1  tau(  10) = (   0.0116148   5.9584955  10.6183126  )
        11           O1  tau(  11) = (   1.3033605   1.5036236  12.6199488  )
        12           O1  tau(  12) = (   5.2811161   1.5074500  12.6162500  )
        13           Ti1 tau(  13) = (   0.0407500   2.9455431  12.6352795  )
        14           Ti1 tau(  14) = (   3.3444429   1.4910927  12.4779025  )
        15           O1  tau(  15) = (   0.0052662   0.0451097  14.6026341  )
        16           O1  tau(  16) = (   3.2946143   0.0124870  13.9210852  )
        17           O1  tau(  17) = (   4.5465206   1.5046604  16.0624161  )
        18           O1  tau(  18) = (   2.0546879   1.5048301  16.0609706  )
        19           Ti1 tau(  19) = (   3.2991624   2.9918142  15.6995589  )
        20           Ti1 tau(  20) = (   6.5707204   1.4025535  15.8059435  )
        21           O1  tau(  21) = (   3.2904802   0.0005063   4.7018136  )
        22           O1  tau(  22) = (   0.0164654   0.0145536  17.1360041  )
        23           O1  tau(  23) = (   1.3043587   1.4918075   6.0039043  )
        24           O1  tau(  24) = (   5.2767064   1.4903225   6.0039473  )
        25           Ti1 tau(  25) = (   0.0000382   5.9609847   6.0000000  )
        26           Ti1 tau(  26) = (   3.2902200   4.4714249   6.0002472  )
        27           O1  tau(  27) = (   0.0002396   2.9813036   7.9858123  )
        28           O1  tau(  28) = (   3.2902150   2.9813002   7.3038282  )
        29           O1  tau(  29) = (   4.5938453   4.4726049   9.2879030  )
        30           O1  tau(  30) = (   1.9864658   4.4711199   9.2879459  )
        31           Ti1 tau(  31) = (   3.2891106   5.8743827   9.1763621  )
        32           Ti1 tau(  32) = (   0.0006254   4.4649316   9.2693709  )
        33           O1  tau(  33) = (   3.2977166   2.9913250  11.3287690  )
        34           O1  tau(  34) = (   0.0092240   2.9805883  10.6323155  )
        35           O1  tau(  35) = (   1.3008534   4.4801743  12.6308489  )
        36           O1  tau(  36) = (   5.2850400   4.4860598  12.6280017  )
        37           Ti1 tau(  37) = (   0.0409916   5.9178611  12.5441859  )
        38           Ti1 tau(  38) = (   3.3442415   4.4710906  12.4862270  )
        39           O1  tau(  39) = (   0.0109228   2.9791018  14.7123696  )
        40           O1  tau(  40) = (   3.2998940   2.9912248  13.9043662  )
        41           O1  tau(  41) = (   4.5474046   4.4713503  16.0779382  )
        42           O1  tau(  42) = (   2.0618872   4.4767818  16.0643778  )
        43           Ti1 tau(  43) = (   3.2722838   0.0128901  15.7174356  )
        44           Ti1 tau(  44) = (   6.5592075   4.4947239  16.1563676  )
        45           O1  tau(  45) = (   3.2900926   2.9813045   4.7018136  )
        46           O1  tau(  46) = (   1.3039711   4.4726057   6.0039043  )
        47           O1  tau(  47) = (   5.2763189   4.4711207   6.0039473  )
        48           C1  tau(  48) = (   0.0359503   3.0870652  17.8341721  )
        49           H1  tau(  49) = (   5.8142062   3.6010452  18.3763092  )
        50           H1  tau(  50) = (   6.4784518   2.0305676  18.0614951  )
        51           H1  tau(  51) = (   0.9863100   3.3882628  18.2908018  )
        52           N1  tau(  52) = (   4.7642638   1.7931862  21.6370373  )
        53           H1  tau(  53) = (   4.5527921   2.7808570  21.5386679  )
        54           H1  tau(  54) = (   4.1042548   1.2952780  21.0483319  )
        55           H1  tau(  55) = (   4.5435699   1.5432347  22.5953497  )

     number of k points=    10  Fermi-Dirac smearing, width (Ry)=  0.0073
                       cart. coord. in units 2pi/alat
        k(    1) = (   0.0000000   0.0000000   0.0000000), wk =   0.1250000
        k(    2) = (   0.0000000   0.0419351   0.0000000), wk =   0.2500000
        k(    3) = (   0.0000000  -0.0838702   0.0000000), wk =   0.1250000
        k(    4) = (   0.0379955   0.0000049   0.0000000), wk =   0.2500000
        k(    5) = (   0.0379955   0.0419400   0.0000000), wk =   0.2500000
        k(    6) = (   0.0379955  -0.0838652   0.0000000), wk =   0.2500000
        k(    7) = (   0.0379955  -0.0419301   0.0000000), wk =   0.2500000
        k(    8) = (  -0.0759910  -0.0000099   0.0000000), wk =   0.1250000
        k(    9) = (  -0.0759910   0.0419252   0.0000000), wk =   0.2500000
        k(   10) = (  -0.0759910  -0.0838800   0.0000000), wk =   0.1250000

     Dense  grid:   566857 G-vectors     FFT dimensions: (  72,  64, 270)

     Smooth grid:   143421 G-vectors     FFT dimensions: (  45,  40, 180)

     Estimated max dynamical RAM per process >     229.54 MB

     Estimated total dynamical RAM >       3.59 GB
     Cannot read rho : file not found

     Initial potential from superposition of free atoms

     starting charge  376.99914, renormalised to  393.00000

     negative rho (up, down):  1.000E-02 0.000E+00


     %%%%%%%%%%%%%%%%%%%%%%%%%%%%%%%%%%%%%%%%%%%%%%%%%%%%%%%%%%%%%%%%%%%%%%%%
     %                                                                      %
     % You are using vdW-DF, which was implemented by the Thonhauser group. %
     % Please cite the following two papers that made this development      %
     % possible and the two reviews that describe the various versions:     %
     %                                                                      %
     %   T. Thonhauser et al., PRL 115, 136402 (2015).                      %
     %   T. Thonhauser et al., PRB 76, 125112 (2007).                       %
     %   K. Berland et al., Rep. Prog. Phys. 78, 066501 (2015).             %
     %   D.C. Langreth et al., J. Phys.: Condens. Matter 21, 084203 (2009). %
     %                                                                      %
     %                                                                      %
     % If you are calculating the stress with vdW-DF, please also cite:     %
     %                                                                      %
     %   R. Sabatini et al., J. Phys.: Condens. Matter 24, 424209 (2012).   %
     %                                                                      %
     %%%%%%%%%%%%%%%%%%%%%%%%%%%%%%%%%%%%%%%%%%%%%%%%%%%%%%%%%%%%%%%%%%%%%%%%


 
     Adding external electric field

     Computed dipole along edir(3) : 
        Dipole               -9.0616 Ry au,        -23.0322 Debye
        Dipole field         -0.0171 Ry au, 
 
        Potential amp.        1.5852 Ry
        Total length         46.3494 bohr
 
     Starting wfcs are  298 atomic wfcs
  @ DRIVER MODE: Message from server: STATUS
  @ DRIVER MODE: Message from server: POSDATA
  @ DRIVER MODE: Reading and sharing cell 
  @ DRIVER MODE: Reading and sharing positions 
  @ DRIVER MODE: Received positions 

     total cpu time spent up to now is        7.7 secs

     Self-consistent Calculation

     iteration #  1     ecut=    29.40 Ry     beta= 0.05
     Davidson diagonalization with overlap
     c_bands:  1 eigenvalues not converged
     c_bands:  1 eigenvalues not converged
     c_bands:  1 eigenvalues not converged
     ethr =  1.00E-05,  avg # of iterations = 17.8

     negative rho (up, down):  9.516E-03 0.000E+00
 
     Adding external electric field

     Computed dipole along edir(3) : 
        Dipole               32.0103 Ry au,         81.3619 Debye
        Dipole field          0.0604 Ry au, 
 
        Potential amp.       -5.5997 Ry
        Total length         46.3494 bohr
 

     total cpu time spent up to now is       42.8 secs

     total energy              =   -2692.43321402 Ry
     estimated scf accuracy    <    2566.22542147 Ry

     iteration #  2     ecut=    29.40 Ry     beta= 0.05
     Davidson diagonalization with overlap
     c_bands:  1 eigenvalues not converged
     c_bands:  1 eigenvalues not converged
     ethr =  1.00E-02,  avg # of iterations = 21.4

     negative rho (up, down):  2.207E-03 0.000E+00
 
     Adding external electric field

     Computed dipole along edir(3) : 
        Dipole               -4.5750 Ry au,        -11.6284 Debye
        Dipole field         -0.0086 Ry au, 
 
        Potential amp.        0.8003 Ry
        Total length         46.3494 bohr
 

     total cpu time spent up to now is       90.4 secs

     total energy              =   -2481.98464899 Ry
     estimated scf accuracy    <   57439.62552099 Ry

     iteration #  3     ecut=    29.40 Ry     beta= 0.05
     Davidson diagonalization with overlap
     ethr =  1.00E-02,  avg # of iterations = 16.4

     negative rho (up, down):  2.287E-03 0.000E+00
 
     Adding external electric field

     Computed dipole along edir(3) : 
        Dipole               -5.6706 Ry au,        -14.4133 Debye
        Dipole field         -0.0107 Ry au, 
 
        Potential amp.        0.9920 Ry
        Total length         46.3494 bohr
 

     total cpu time spent up to now is      121.5 secs

     total energy              =   -2906.67577268 Ry
     estimated scf accuracy    <    2551.03017909 Ry

     iteration #  4     ecut=    29.40 Ry     beta= 0.05
     Davidson diagonalization with overlap
     ethr =  1.00E-02,  avg # of iterations = 15.9

     negative rho (up, down):  2.300E-03 0.000E+00
 
     Adding external electric field

     Computed dipole along edir(3) : 
        Dipole               -5.7933 Ry au,        -14.7252 Debye
        Dipole field         -0.0109 Ry au, 
 
        Potential amp.        1.0135 Ry
        Total length         46.3494 bohr
 

     total cpu time spent up to now is      135.2 secs

     total energy              =   -2911.01410720 Ry
     estimated scf accuracy    <     683.13607684 Ry

     iteration #  5     ecut=    29.40 Ry     beta= 0.05
     Davidson diagonalization with overlap
     ethr =  1.00E-02,  avg # of iterations =  5.8

     negative rho (up, down):  2.259E-03 0.000E+00
 
     Adding external electric field

     Computed dipole along edir(3) : 
        Dipole               -5.3731 Ry au,        -13.6571 Debye
        Dipole field         -0.0101 Ry au, 
 
        Potential amp.        0.9399 Ry
        Total length         46.3494 bohr
 

     total cpu time spent up to now is      144.0 secs

     total energy              =   -2912.62293286 Ry
     estimated scf accuracy    <     269.35600069 Ry

     iteration #  6     ecut=    29.40 Ry     beta= 0.05
     Davidson diagonalization with overlap
     ethr =  1.00E-02,  avg # of iterations =  9.8

     negative rho (up, down):  2.020E-03 0.000E+00
 
     Adding external electric field

     Computed dipole along edir(3) : 
        Dipole               -4.5617 Ry au,        -11.5946 Debye
        Dipole field         -0.0086 Ry au, 
 
        Potential amp.        0.7980 Ry
        Total length         46.3494 bohr
 

     total cpu time spent up to now is      154.8 secs

     total energy              =   -2923.87836628 Ry
     estimated scf accuracy    <      24.63705021 Ry

     iteration #  7     ecut=    29.40 Ry     beta= 0.05
     Davidson diagonalization with overlap
     ethr =  6.27E-03,  avg # of iterations =  3.2

     negative rho (up, down):  2.173E-03 0.000E+00
 
     Adding external electric field

     Computed dipole along edir(3) : 
        Dipole               -3.5668 Ry au,         -9.0660 Debye
        Dipole field         -0.0067 Ry au, 
 
        Potential amp.        0.6240 Ry
        Total length         46.3494 bohr
 

     total cpu time spent up to now is      162.5 secs

     total energy              =   -2924.54358904 Ry
     estimated scf accuracy    <      22.85786590 Ry

     iteration #  8     ecut=    29.40 Ry     beta= 0.05
     Davidson diagonalization with overlap
     ethr =  5.82E-03,  avg # of iterations =  1.9

     negative rho (up, down):  2.340E-03 0.000E+00
 
     Adding external electric field

     Computed dipole along edir(3) : 
        Dipole               -1.2192 Ry au,         -3.0989 Debye
        Dipole field         -0.0023 Ry au, 
 
        Potential amp.        0.2133 Ry
        Total length         46.3494 bohr
 

     total cpu time spent up to now is      169.8 secs

     total energy              =   -2925.98694207 Ry
     estimated scf accuracy    <      25.05414264 Ry

     iteration #  9     ecut=    29.40 Ry     beta= 0.05
     Davidson diagonalization with overlap
     ethr =  5.82E-03,  avg # of iterations = 15.1

     negative rho (up, down):  2.088E-03 0.000E+00
 
     Adding external electric field

     Computed dipole along edir(3) : 
        Dipole               -2.0091 Ry au,         -5.1065 Debye
        Dipole field         -0.0038 Ry au, 
 
        Potential amp.        0.3515 Ry
        Total length         46.3494 bohr
 

     total cpu time spent up to now is      183.4 secs

     total energy              =   -2926.35754609 Ry
     estimated scf accuracy    <    1420.44086933 Ry

     iteration # 10     ecut=    29.40 Ry     beta= 0.05
     Davidson diagonalization with overlap
     ethr =  5.82E-03,  avg # of iterations =  4.9

     negative rho (up, down):  1.880E-03 0.000E+00
 
     Adding external electric field

     Computed dipole along edir(3) : 
        Dipole               -1.2308 Ry au,         -3.1283 Debye
        Dipole field         -0.0023 Ry au, 
 
        Potential amp.        0.2153 Ry
        Total length         46.3494 bohr
 

     total cpu time spent up to now is      191.6 secs

     total energy              =   -2925.85841509 Ry
     estimated scf accuracy    <     921.44658539 Ry

     iteration # 11     ecut=    29.40 Ry     beta= 0.05
     Davidson diagonalization with overlap
     ethr =  5.82E-03,  avg # of iterations =  2.8

     negative rho (up, down):  1.868E-03 0.000E+00
 
     Adding external electric field

     Computed dipole along edir(3) : 
        Dipole                1.4694 Ry au,          3.7348 Debye
        Dipole field          0.0028 Ry au, 
 
        Potential amp.       -0.2570 Ry
        Total length         46.3494 bohr
 

     total cpu time spent up to now is      199.0 secs

     total energy              =   -2933.74489698 Ry
     estimated scf accuracy    <     923.99754616 Ry

     iteration # 12     ecut=    29.40 Ry     beta= 0.05
     Davidson diagonalization with overlap
     ethr =  5.82E-03,  avg # of iterations =  2.0

     negative rho (up, down):  1.666E-03 0.000E+00
 
     Adding external electric field

     Computed dipole along edir(3) : 
        Dipole                1.3420 Ry au,          3.4109 Debye
        Dipole field          0.0025 Ry au, 
 
        Potential amp.       -0.2348 Ry
        Total length         46.3494 bohr
 

     total cpu time spent up to now is      206.4 secs

     total energy              =   -2914.53825266 Ry
     estimated scf accuracy    <    1459.43479771 Ry

     iteration # 13     ecut=    29.40 Ry     beta= 0.05
     Davidson diagonalization with overlap
     ethr =  5.82E-03,  avg # of iterations = 12.4

     negative rho (up, down):  1.977E-03 0.000E+00
 
     Adding external electric field

     Computed dipole along edir(3) : 
        Dipole                2.7929 Ry au,          7.0988 Debye
        Dipole field          0.0053 Ry au, 
 
        Potential amp.       -0.4886 Ry
        Total length         46.3494 bohr
 

     total cpu time spent up to now is      218.9 secs

     total energy              =   -2930.64499034 Ry
     estimated scf accuracy    <     233.46201395 Ry

     iteration # 14     ecut=    29.40 Ry     beta= 0.05
     Davidson diagonalization with overlap
     ethr =  5.82E-03,  avg # of iterations = 10.6

     negative rho (up, down):  2.230E-03 0.000E+00
 
     Adding external electric field

     Computed dipole along edir(3) : 
        Dipole                2.8598 Ry au,          7.2688 Debye
        Dipole field          0.0054 Ry au, 
 
        Potential amp.       -0.5003 Ry
        Total length         46.3494 bohr
 

     total cpu time spent up to now is      229.8 secs

     total energy              =   -2932.40936742 Ry
     estimated scf accuracy    <    1495.67158829 Ry

     iteration # 15     ecut=    29.40 Ry     beta= 0.05
     Davidson diagonalization with overlap
     ethr =  5.82E-03,  avg # of iterations =  1.7

     negative rho (up, down):  1.889E-03 0.000E+00
 
     Adding external electric field

     Computed dipole along edir(3) : 
        Dipole                1.2031 Ry au,          3.0579 Debye
        Dipole field          0.0023 Ry au, 
 
        Potential amp.       -0.2105 Ry
        Total length         46.3494 bohr
 

     total cpu time spent up to now is      237.1 secs

     total energy              =   -2912.17110905 Ry
     estimated scf accuracy    <     978.64158115 Ry

     iteration # 16     ecut=    29.40 Ry     beta= 0.05
     Davidson diagonalization with overlap
     ethr =  5.82E-03,  avg # of iterations = 11.5

     negative rho (up, down):  1.911E-03 0.000E+00
 
     Adding external electric field

     Computed dipole along edir(3) : 
        Dipole                0.6218 Ry au,          1.5804 Debye
        Dipole field          0.0012 Ry au, 
 
        Potential amp.       -0.1088 Ry
        Total length         46.3494 bohr
 

     total cpu time spent up to now is      249.2 secs

     total energy              =   -2922.27330754 Ry
     estimated scf accuracy    <      18.12482783 Ry

     iteration # 17     ecut=    29.40 Ry     beta= 0.05
     Davidson diagonalization with overlap
     ethr =  4.61E-03,  avg # of iterations =  1.7

     negative rho (up, down):  1.948E-03 0.000E+00
 
     Adding external electric field

     Computed dipole along edir(3) : 
        Dipole                0.2639 Ry au,          0.6707 Debye
        Dipole field          0.0005 Ry au, 
 
        Potential amp.       -0.0462 Ry
        Total length         46.3494 bohr
 

     total cpu time spent up to now is      258.8 secs

     total energy              =   -2922.30061581 Ry
     estimated scf accuracy    <      20.79932658 Ry

     iteration # 18     ecut=    29.40 Ry     beta= 0.05
     Davidson diagonalization with overlap
     ethr =  4.61E-03,  avg # of iterations =  1.7

     negative rho (up, down):  1.991E-03 0.000E+00
 
     Adding external electric field

     Computed dipole along edir(3) : 
        Dipole                0.2126 Ry au,          0.5403 Debye
        Dipole field          0.0004 Ry au, 
 
        Potential amp.       -0.0372 Ry
        Total length         46.3494 bohr
 

     total cpu time spent up to now is      265.9 secs

     total energy              =   -2921.95482792 Ry
     estimated scf accuracy    <      17.78535244 Ry

     iteration # 19     ecut=    29.40 Ry     beta= 0.05
     Davidson diagonalization with overlap
     ethr =  4.53E-03,  avg # of iterations =  3.9

     negative rho (up, down):  2.013E-03 0.000E+00
 
     Adding external electric field

     Computed dipole along edir(3) : 
        Dipole                0.2517 Ry au,          0.6398 Debye
        Dipole field          0.0005 Ry au, 
 
        Potential amp.       -0.0440 Ry
        Total length         46.3494 bohr
 

     total cpu time spent up to now is      274.0 secs

     total energy              =   -2923.02123027 Ry
     estimated scf accuracy    <       4.90603132 Ry

     iteration # 20     ecut=    29.40 Ry     beta= 0.05
     Davidson diagonalization with overlap
     ethr =  1.25E-03,  avg # of iterations =  6.7

     negative rho (up, down):  2.004E-03 0.000E+00
 
     Adding external electric field

     Computed dipole along edir(3) : 
        Dipole                0.0670 Ry au,          0.1703 Debye
        Dipole field          0.0001 Ry au, 
 
        Potential amp.       -0.0117 Ry
        Total length         46.3494 bohr
 

     total cpu time spent up to now is      283.3 secs

     total energy              =   -2923.51893794 Ry
     estimated scf accuracy    <       4.50272795 Ry

     iteration # 21     ecut=    29.40 Ry     beta= 0.05
     Davidson diagonalization with overlap
     ethr =  1.15E-03,  avg # of iterations =  1.8

     negative rho (up, down):  2.048E-03 0.000E+00
 
     Adding external electric field

     Computed dipole along edir(3) : 
        Dipole                0.3665 Ry au,          0.9316 Debye
        Dipole field          0.0007 Ry au, 
 
        Potential amp.       -0.0641 Ry
        Total length         46.3494 bohr
 

     total cpu time spent up to now is      293.3 secs

     total energy              =   -2923.28106218 Ry
     estimated scf accuracy    <       4.74931380 Ry

     iteration # 22     ecut=    29.40 Ry     beta= 0.05
     Davidson diagonalization with overlap
     ethr =  1.15E-03,  avg # of iterations =  1.2

     negative rho (up, down):  2.379E-03 0.000E+00
 
     Adding external electric field

     Computed dipole along edir(3) : 
        Dipole                1.4511 Ry au,          3.6883 Debye
        Dipole field          0.0027 Ry au, 
 
        Potential amp.       -0.2538 Ry
        Total length         46.3494 bohr
 

     total cpu time spent up to now is      300.1 secs

     total energy              =   -2922.48615069 Ry
     estimated scf accuracy    <       3.77699659 Ry

     iteration # 23     ecut=    29.40 Ry     beta= 0.05
     Davidson diagonalization with overlap
     c_bands:  4 eigenvalues not converged
     c_bands:  3 eigenvalues not converged
     c_bands:  1 eigenvalues not converged
     c_bands:  1 eigenvalues not converged
     ethr =  9.61E-04,  avg # of iterations = 18.4

     negative rho (up, down):  2.390E-03 0.000E+00
 
     Adding external electric field

     Computed dipole along edir(3) : 
        Dipole                1.1290 Ry au,          2.8697 Debye
        Dipole field          0.0021 Ry au, 
 
        Potential amp.       -0.1975 Ry
        Total length         46.3494 bohr
 

     total cpu time spent up to now is      315.9 secs

     total energy              =   -2921.54289801 Ry
     estimated scf accuracy    <     120.52033703 Ry

     iteration # 24     ecut=    29.40 Ry     beta= 0.05
     Davidson diagonalization with overlap
     ethr =  9.61E-04,  avg # of iterations =  6.4

     negative rho (up, down):  2.556E-03 0.000E+00
 
     Adding external electric field

     Computed dipole along edir(3) : 
        Dipole                0.2906 Ry au,          0.7385 Debye
        Dipole field          0.0005 Ry au, 
 
        Potential amp.       -0.0508 Ry
        Total length         46.3494 bohr
 

     total cpu time spent up to now is      324.7 secs

     total energy              =   -2922.52070607 Ry
     estimated scf accuracy    <       2.40170014 Ry

     iteration # 25     ecut=    29.40 Ry     beta= 0.05
     Davidson diagonalization with overlap
     c_bands:  1 eigenvalues not converged
     ethr =  6.11E-04,  avg # of iterations = 16.1

     negative rho (up, down):  2.895E-03 0.000E+00
 
     Adding external electric field

     Computed dipole along edir(3) : 
        Dipole                0.3083 Ry au,          0.7836 Debye
        Dipole field          0.0006 Ry au, 
 
        Potential amp.       -0.0539 Ry
        Total length         46.3494 bohr
 

     total cpu time spent up to now is      340.5 secs

     total energy              =   -2922.64337427 Ry
     estimated scf accuracy    <       3.57976005 Ry

     iteration # 26     ecut=    29.40 Ry     beta= 0.05
     Davidson diagonalization with overlap
     ethr =  6.11E-04,  avg # of iterations =  8.8

     negative rho (up, down):  3.015E-03 0.000E+00
 
     Adding external electric field

     Computed dipole along edir(3) : 
        Dipole                0.2316 Ry au,          0.5887 Debye
        Dipole field          0.0004 Ry au, 
 
        Potential amp.       -0.0405 Ry
        Total length         46.3494 bohr
 

     total cpu time spent up to now is      350.1 secs

     total energy              =   -2922.82685323 Ry
     estimated scf accuracy    <       1.19610946 Ry

     iteration # 27     ecut=    29.40 Ry     beta= 0.05
     Davidson diagonalization with overlap
     ethr =  3.04E-04,  avg # of iterations =  6.0

     negative rho (up, down):  3.175E-03 0.000E+00
 
     Adding external electric field

     Computed dipole along edir(3) : 
        Dipole                0.1341 Ry au,          0.3409 Debye
        Dipole field          0.0003 Ry au, 
 
        Potential amp.       -0.0235 Ry
        Total length         46.3494 bohr
 

     total cpu time spent up to now is      360.1 secs

     total energy              =   -2922.78965896 Ry
     estimated scf accuracy    <       0.90640351 Ry

     iteration # 28     ecut=    29.40 Ry     beta= 0.05
     Davidson diagonalization with overlap
     c_bands:  1 eigenvalues not converged
     c_bands:  1 eigenvalues not converged
     c_bands:  1 eigenvalues not converged
     ethr =  2.31E-04,  avg # of iterations = 11.8

     negative rho (up, down):  3.148E-03 0.000E+00
 
     Adding external electric field

     Computed dipole along edir(3) : 
        Dipole                0.2671 Ry au,          0.6790 Debye
        Dipole field          0.0005 Ry au, 
 
        Potential amp.       -0.0467 Ry
        Total length         46.3494 bohr
 

     total cpu time spent up to now is      370.6 secs

     total energy              =   -2922.83718579 Ry
     estimated scf accuracy    <       0.56536659 Ry

     iteration # 29     ecut=    29.40 Ry     beta= 0.05
     Davidson diagonalization with overlap
     c_bands:  4 eigenvalues not converged
     c_bands:  2 eigenvalues not converged
     c_bands:  1 eigenvalues not converged
     c_bands:  4 eigenvalues not converged
     ethr =  1.44E-04,  avg # of iterations = 16.5

     negative rho (up, down):  3.247E-03 0.000E+00
 
     Adding external electric field

     Computed dipole along edir(3) : 
        Dipole                0.5210 Ry au,          1.3244 Debye
        Dipole field          0.0010 Ry au, 
 
        Potential amp.       -0.0911 Ry
        Total length         46.3494 bohr
 

     total cpu time spent up to now is      382.3 secs

     total energy              =   -2922.90187262 Ry
     estimated scf accuracy    <       0.54221440 Ry

     iteration # 30     ecut=    29.40 Ry     beta= 0.05
     Davidson diagonalization with overlap
     c_bands:  1 eigenvalues not converged
     c_bands:  1 eigenvalues not converged
     c_bands:  4 eigenvalues not converged
     c_bands:  2 eigenvalues not converged
     c_bands:  1 eigenvalues not converged
     c_bands:  2 eigenvalues not converged
     c_bands:  1 eigenvalues not converged
     c_bands:  2 eigenvalues not converged
     ethr =  1.38E-04,  avg # of iterations = 19.6

     negative rho (up, down):  2.975E-03 0.000E+00
 
     Adding external electric field

     Computed dipole along edir(3) : 
        Dipole                0.1207 Ry au,          0.3069 Debye
        Dipole field          0.0002 Ry au, 
 
        Potential amp.       -0.0211 Ry
        Total length         46.3494 bohr
 

     total cpu time spent up to now is      397.3 secs

     total energy              =   -2922.58165048 Ry
     estimated scf accuracy    <       2.03803675 Ry

     iteration # 31     ecut=    29.40 Ry     beta= 0.05
     Davidson diagonalization with overlap
     c_bands:  1 eigenvalues not converged
     c_bands:  2 eigenvalues not converged
     ethr =  1.38E-04,  avg # of iterations = 15.6

     negative rho (up, down):  3.014E-03 0.000E+00
 
     Adding external electric field

     Computed dipole along edir(3) : 
        Dipole               -0.1576 Ry au,         -0.4006 Debye
        Dipole field         -0.0003 Ry au, 
 
        Potential amp.        0.0276 Ry
        Total length         46.3494 bohr
 

     total cpu time spent up to now is      412.3 secs

     total energy              =   -2922.89038636 Ry
     estimated scf accuracy    <       0.70721286 Ry

     iteration # 32     ecut=    29.40 Ry     beta= 0.05
     Davidson diagonalization with overlap
     c_bands:  1 eigenvalues not converged
     ethr =  1.38E-04,  avg # of iterations =  7.8

     negative rho (up, down):  2.870E-03 0.000E+00
 
     Adding external electric field

     Computed dipole along edir(3) : 
        Dipole                0.4180 Ry au,          1.0624 Debye
        Dipole field          0.0008 Ry au, 
 
        Potential amp.       -0.0731 Ry
        Total length         46.3494 bohr
 

     total cpu time spent up to now is      421.2 secs

     total energy              =   -2922.73404592 Ry
     estimated scf accuracy    <       0.93226965 Ry

     iteration # 33     ecut=    29.40 Ry     beta= 0.05
     Davidson diagonalization with overlap
     c_bands:  4 eigenvalues not converged
     c_bands:  2 eigenvalues not converged
     ethr =  1.38E-04,  avg # of iterations = 16.0

     negative rho (up, down):  2.820E-03 0.000E+00
 
     Adding external electric field

     Computed dipole along edir(3) : 
        Dipole                0.4541 Ry au,          1.1541 Debye
        Dipole field          0.0009 Ry au, 
 
        Potential amp.       -0.0794 Ry
        Total length         46.3494 bohr
 

     total cpu time spent up to now is      435.8 secs

     total energy              =   -2922.79123578 Ry
     estimated scf accuracy    <       0.24626165 Ry

     iteration # 34     ecut=    29.40 Ry     beta= 0.05
     Davidson diagonalization with overlap
     c_bands:  1 eigenvalues not converged
     c_bands:  1 eigenvalues not converged
     c_bands:  1 eigenvalues not converged
     ethr =  6.27E-05,  avg # of iterations = 14.6

     negative rho (up, down):  2.922E-03 0.000E+00
 
     Adding external electric field

     Computed dipole along edir(3) : 
        Dipole                0.5104 Ry au,          1.2973 Debye
        Dipole field          0.0010 Ry au, 
 
        Potential amp.       -0.0893 Ry
        Total length         46.3494 bohr
 

     total cpu time spent up to now is      446.8 secs

     total energy              =   -2922.80242518 Ry
     estimated scf accuracy    <       0.17856536 Ry

     iteration # 35     ecut=    29.40 Ry     beta= 0.05
     Davidson diagonalization with overlap
     c_bands:  1 eigenvalues not converged
     c_bands:  1 eigenvalues not converged
     ethr =  4.54E-05,  avg # of iterations = 17.3

     negative rho (up, down):  2.914E-03 0.000E+00
 
     Adding external electric field

     Computed dipole along edir(3) : 
        Dipole                0.5296 Ry au,          1.3462 Debye
        Dipole field          0.0010 Ry au, 
 
        Potential amp.       -0.0927 Ry
        Total length         46.3494 bohr
 

     total cpu time spent up to now is      463.0 secs

     total energy              =   -2922.77427035 Ry
     estimated scf accuracy    <       0.48346664 Ry

     iteration # 36     ecut=    29.40 Ry     beta= 0.05
     Davidson diagonalization with overlap
     c_bands:  1 eigenvalues not converged
     c_bands:  1 eigenvalues not converged
     ethr =  4.54E-05,  avg # of iterations = 16.5

     negative rho (up, down):  3.079E-03 0.000E+00
 
     Adding external electric field

     Computed dipole along edir(3) : 
        Dipole                0.5170 Ry au,          1.3141 Debye
        Dipole field          0.0010 Ry au, 
 
        Potential amp.       -0.0904 Ry
        Total length         46.3494 bohr
 

     total cpu time spent up to now is      479.4 secs

     total energy              =   -2922.77762305 Ry
     estimated scf accuracy    <       0.10721250 Ry

     iteration # 37     ecut=    29.40 Ry     beta= 0.05
     Davidson diagonalization with overlap
     c_bands:  2 eigenvalues not converged
     c_bands:  1 eigenvalues not converged
     ethr =  2.73E-05,  avg # of iterations = 18.0

     negative rho (up, down):  3.198E-03 0.000E+00
 
     Adding external electric field

     Computed dipole along edir(3) : 
        Dipole                0.4286 Ry au,          1.0893 Debye
        Dipole field          0.0008 Ry au, 
 
        Potential amp.       -0.0750 Ry
        Total length         46.3494 bohr
 

     total cpu time spent up to now is      496.0 secs

     total energy              =   -2922.76814269 Ry
     estimated scf accuracy    <       0.21273816 Ry

     iteration # 38     ecut=    29.40 Ry     beta= 0.05
     Davidson diagonalization with overlap
     c_bands:  3 eigenvalues not converged
     c_bands:  1 eigenvalues not converged
     c_bands:  1 eigenvalues not converged
     ethr =  2.73E-05,  avg # of iterations = 16.5

     negative rho (up, down):  3.460E-03 0.000E+00
 
     Adding external electric field

     Computed dipole along edir(3) : 
        Dipole                0.4649 Ry au,          1.1816 Debye
        Dipole field          0.0009 Ry au, 
 
        Potential amp.       -0.0813 Ry
        Total length         46.3494 bohr
 

     total cpu time spent up to now is      510.5 secs

     total energy              =   -2922.79431743 Ry
     estimated scf accuracy    <       0.10541234 Ry

     iteration # 39     ecut=    29.40 Ry     beta= 0.05
     Davidson diagonalization with overlap
     ethr =  2.68E-05,  avg # of iterations =  3.5

     negative rho (up, down):  3.921E-03 0.000E+00
 
     Adding external electric field

     Computed dipole along edir(3) : 
        Dipole                0.5656 Ry au,          1.4376 Debye
        Dipole field          0.0011 Ry au, 
 
        Potential amp.       -0.0989 Ry
        Total length         46.3494 bohr
 

     total cpu time spent up to now is      518.4 secs

     total energy              =   -2922.79717579 Ry
     estimated scf accuracy    <       0.11173640 Ry

     iteration # 40     ecut=    29.40 Ry     beta= 0.05
     Davidson diagonalization with overlap
     c_bands:  4 eigenvalues not converged
     ethr =  2.68E-05,  avg # of iterations = 10.8

     negative rho (up, down):  5.485E-03 0.000E+00
 
     Adding external electric field

     Computed dipole along edir(3) : 
        Dipole                0.7530 Ry au,          1.9140 Debye
        Dipole field          0.0014 Ry au, 
 
        Potential amp.       -0.1317 Ry
        Total length         46.3494 bohr
 

     total cpu time spent up to now is      528.0 secs

     total energy              =   -2922.79071052 Ry
     estimated scf accuracy    <       0.08569410 Ry

     iteration # 41     ecut=    29.40 Ry     beta= 0.05
     Davidson diagonalization with overlap
     c_bands:  1 eigenvalues not converged
     c_bands:  1 eigenvalues not converged
     c_bands:  1 eigenvalues not converged
     ethr =  2.18E-05,  avg # of iterations = 14.1

     negative rho (up, down):  5.276E-03 0.000E+00
 
     Adding external electric field

     Computed dipole along edir(3) : 
        Dipole                0.6872 Ry au,          1.7468 Debye
        Dipole field          0.0013 Ry au, 
 
        Potential amp.       -0.1202 Ry
        Total length         46.3494 bohr
 

     total cpu time spent up to now is      538.8 secs

     total energy              =   -2922.78132497 Ry
     estimated scf accuracy    <       0.09735024 Ry

     iteration # 42     ecut=    29.40 Ry     beta= 0.05
     Davidson diagonalization with overlap
     c_bands:  1 eigenvalues not converged
     c_bands:  4 eigenvalues not converged
     c_bands:  3 eigenvalues not converged
     c_bands:  1 eigenvalues not converged
     ethr =  2.18E-05,  avg # of iterations = 16.8

     negative rho (up, down):  5.333E-03 0.000E+00
 
     Adding external electric field

     Computed dipole along edir(3) : 
        Dipole                0.6333 Ry au,          1.6098 Debye
        Dipole field          0.0012 Ry au, 
 
        Potential amp.       -0.1108 Ry
        Total length         46.3494 bohr
 

     total cpu time spent up to now is      554.2 secs

     total energy              =   -2922.78790838 Ry
     estimated scf accuracy    <       0.03132476 Ry

     iteration # 43     ecut=    29.40 Ry     beta= 0.05
     Davidson diagonalization with overlap
     c_bands:  1 eigenvalues not converged
     ethr =  7.97E-06,  avg # of iterations =  9.9

     negative rho (up, down):  5.372E-03 0.000E+00
 
     Adding external electric field

     Computed dipole along edir(3) : 
        Dipole                0.6090 Ry au,          1.5479 Debye
        Dipole field          0.0011 Ry au, 
 
        Potential amp.       -0.1065 Ry
        Total length         46.3494 bohr
 

     total cpu time spent up to now is      563.9 secs

     total energy              =   -2922.78938837 Ry
     estimated scf accuracy    <       0.01183846 Ry

     iteration # 44     ecut=    29.40 Ry     beta= 0.05
     Davidson diagonalization with overlap
     c_bands:  3 eigenvalues not converged
     ethr =  3.01E-06,  avg # of iterations = 13.8

     negative rho (up, down):  5.578E-03 0.000E+00
 
     Adding external electric field

     Computed dipole along edir(3) : 
        Dipole                0.5912 Ry au,          1.5026 Debye
        Dipole field          0.0011 Ry au, 
 
        Potential amp.       -0.1034 Ry
        Total length         46.3494 bohr
 

     total cpu time spent up to now is      576.2 secs

     total energy              =   -2922.78911468 Ry
     estimated scf accuracy    <       0.01452487 Ry

     iteration # 45     ecut=    29.40 Ry     beta= 0.05
     Davidson diagonalization with overlap
     c_bands:  1 eigenvalues not converged
     ethr =  3.01E-06,  avg # of iterations =  5.3

     negative rho (up, down):  7.555E-03 0.000E+00
 
     Adding external electric field

     Computed dipole along edir(3) : 
        Dipole                0.6239 Ry au,          1.5857 Debye
        Dipole field          0.0012 Ry au, 
 
        Potential amp.       -0.1091 Ry
        Total length         46.3494 bohr
 

     total cpu time spent up to now is      584.4 secs

     total energy              =   -2922.78766025 Ry
     estimated scf accuracy    <       0.00980479 Ry

     iteration # 46     ecut=    29.40 Ry     beta= 0.05
     Davidson diagonalization with overlap
     c_bands:  1 eigenvalues not converged
     c_bands:  1 eigenvalues not converged
     ethr =  2.49E-06,  avg # of iterations = 12.7

     negative rho (up, down):  7.659E-03 0.000E+00
 
     Adding external electric field

     Computed dipole along edir(3) : 
        Dipole                0.5955 Ry au,          1.5137 Debye
        Dipole field          0.0011 Ry au, 
 
        Potential amp.       -0.1042 Ry
        Total length         46.3494 bohr
 

     total cpu time spent up to now is      599.2 secs

     total energy              =   -2922.78883725 Ry
     estimated scf accuracy    <       0.00368846 Ry

     iteration # 47     ecut=    29.40 Ry     beta= 0.05
     Davidson diagonalization with overlap
     c_bands:  1 eigenvalues not converged
     c_bands:  1 eigenvalues not converged
     ethr =  9.39E-07,  avg # of iterations = 14.2

     negative rho (up, down):  9.279E-03 0.000E+00
 
     Adding external electric field

     Computed dipole along edir(3) : 
        Dipole                0.5857 Ry au,          1.4886 Debye
        Dipole field          0.0011 Ry au, 
 
        Potential amp.       -0.1025 Ry
        Total length         46.3494 bohr
 

     total cpu time spent up to now is      611.2 secs

     total energy              =   -2922.78913789 Ry
     estimated scf accuracy    <       0.00254895 Ry

     iteration # 48     ecut=    29.40 Ry     beta= 0.05
     Davidson diagonalization with overlap
     c_bands:  1 eigenvalues not converged
     c_bands:  2 eigenvalues not converged
     ethr =  6.49E-07,  avg # of iterations = 14.9

     negative rho (up, down):  9.497E-03 0.000E+00
 
     Adding external electric field

     Computed dipole along edir(3) : 
        Dipole                0.5735 Ry au,          1.4576 Debye
        Dipole field          0.0011 Ry au, 
 
        Potential amp.       -0.1003 Ry
        Total length         46.3494 bohr
 

     total cpu time spent up to now is      635.1 secs

     total energy              =   -2922.78920634 Ry
     estimated scf accuracy    <       0.00458017 Ry

     iteration # 49     ecut=    29.40 Ry     beta= 0.05
     Davidson diagonalization with overlap
     ethr =  6.49E-07,  avg # of iterations =  7.2

     negative rho (up, down):  9.203E-03 0.000E+00
 
     Adding external electric field

     Computed dipole along edir(3) : 
        Dipole                0.5623 Ry au,          1.4293 Debye
        Dipole field          0.0011 Ry au, 
 
        Potential amp.       -0.0984 Ry
        Total length         46.3494 bohr
 

     total cpu time spent up to now is      644.3 secs

     total energy              =   -2922.78934186 Ry
     estimated scf accuracy    <       0.00150551 Ry

     iteration # 50     ecut=    29.40 Ry     beta= 0.05
     Davidson diagonalization with overlap
     ethr =  3.83E-07,  avg # of iterations = 11.7

     negative rho (up, down):  8.808E-03 0.000E+00
 
     Adding external electric field

     Computed dipole along edir(3) : 
        Dipole                0.5544 Ry au,          1.4091 Debye
        Dipole field          0.0010 Ry au, 
 
        Potential amp.       -0.0970 Ry
        Total length         46.3494 bohr
 

     total cpu time spent up to now is      654.6 secs

     total energy              =   -2922.78928679 Ry
     estimated scf accuracy    <       0.00112869 Ry

     iteration # 51     ecut=    29.40 Ry     beta= 0.05
     Davidson diagonalization with overlap
     ethr =  2.87E-07,  avg # of iterations =  9.0

     negative rho (up, down):  9.431E-03 0.000E+00
 
     Adding external electric field

     Computed dipole along edir(3) : 
        Dipole                0.5576 Ry au,          1.4172 Debye
        Dipole field          0.0011 Ry au, 
 
        Potential amp.       -0.0975 Ry
        Total length         46.3494 bohr
 

     total cpu time spent up to now is      665.4 secs

     total energy              =   -2922.78921823 Ry
     estimated scf accuracy    <       0.00064993 Ry

     iteration # 52     ecut=    29.40 Ry     beta= 0.05
     Davidson diagonalization with overlap
     ethr =  1.65E-07,  avg # of iterations = 13.0

     negative rho (up, down):  9.967E-03 0.000E+00
 
     Adding external electric field

     Computed dipole along edir(3) : 
        Dipole                0.5558 Ry au,          1.4126 Debye
        Dipole field          0.0010 Ry au, 
 
        Potential amp.       -0.0972 Ry
        Total length         46.3494 bohr
 

     total cpu time spent up to now is      682.7 secs

     total energy              =   -2922.78932299 Ry
     estimated scf accuracy    <       0.00066736 Ry

     iteration # 53     ecut=    29.40 Ry     beta= 0.05
     Davidson diagonalization with overlap
     ethr =  1.65E-07,  avg # of iterations =  9.2

     negative rho (up, down):  1.026E-02 0.000E+00
 
     Adding external electric field

     Computed dipole along edir(3) : 
        Dipole                0.5516 Ry au,          1.4021 Debye
        Dipole field          0.0010 Ry au, 
 
        Potential amp.       -0.0965 Ry
        Total length         46.3494 bohr
 

     total cpu time spent up to now is      697.0 secs

     total energy              =   -2922.78940057 Ry
     estimated scf accuracy    <       0.00016258 Ry

     iteration # 54     ecut=    29.40 Ry     beta= 0.05
     Davidson diagonalization with overlap
     ethr =  4.14E-08,  avg # of iterations = 12.0

     negative rho (up, down):  1.069E-02 0.000E+00
 
     Adding external electric field

     Computed dipole along edir(3) : 
        Dipole                0.5536 Ry au,          1.4071 Debye
        Dipole field          0.0010 Ry au, 
 
        Potential amp.       -0.0968 Ry
        Total length         46.3494 bohr
 

     total cpu time spent up to now is      710.1 secs

     total energy              =   -2922.78943263 Ry
     estimated scf accuracy    <       0.00013247 Ry

     iteration # 55     ecut=    29.40 Ry     beta= 0.05
     Davidson diagonalization with overlap
     ethr =  3.37E-08,  avg # of iterations =  6.4

     negative rho (up, down):  1.109E-02 0.000E+00
 
     Adding external electric field

     Computed dipole along edir(3) : 
        Dipole                0.5529 Ry au,          1.4053 Debye
        Dipole field          0.0010 Ry au, 
 
        Potential amp.       -0.0967 Ry
        Total length         46.3494 bohr
 

     total cpu time spent up to now is      722.3 secs

     total energy              =   -2922.78945755 Ry
     estimated scf accuracy    <       0.00004769 Ry

     iteration # 56     ecut=    29.40 Ry     beta= 0.05
     Davidson diagonalization with overlap
     ethr =  1.21E-08,  avg # of iterations = 15.3

     negative rho (up, down):  1.105E-02 0.000E+00
 
     Adding external electric field

     Computed dipole along edir(3) : 
        Dipole                0.5519 Ry au,          1.4028 Debye
        Dipole field          0.0010 Ry au, 
 
        Potential amp.       -0.0965 Ry
        Total length         46.3494 bohr
 

     total cpu time spent up to now is      738.6 secs

     total energy              =   -2922.78947915 Ry
     estimated scf accuracy    <       0.00010621 Ry

     iteration # 57     ecut=    29.40 Ry     beta= 0.05
     Davidson diagonalization with overlap
     ethr =  1.21E-08,  avg # of iterations =  1.2

     negative rho (up, down):  1.096E-02 0.000E+00
 
     Adding external electric field

     Computed dipole along edir(3) : 
        Dipole                0.5501 Ry au,          1.3982 Debye
        Dipole field          0.0010 Ry au, 
 
        Potential amp.       -0.0962 Ry
        Total length         46.3494 bohr
 

     total cpu time spent up to now is      745.5 secs

     total energy              =   -2922.78945901 Ry
     estimated scf accuracy    <       0.00007828 Ry

     iteration # 58     ecut=    29.40 Ry     beta= 0.05
     Davidson diagonalization with overlap
     c_bands:  1 eigenvalues not converged
     ethr =  1.21E-08,  avg # of iterations = 14.7

     negative rho (up, down):  1.119E-02 0.000E+00
 
     Adding external electric field

     Computed dipole along edir(3) : 
        Dipole                0.5501 Ry au,          1.3983 Debye
        Dipole field          0.0010 Ry au, 
 
        Potential amp.       -0.0962 Ry
        Total length         46.3494 bohr
 

     total cpu time spent up to now is      763.2 secs

     total energy              =   -2922.78948405 Ry
     estimated scf accuracy    <       0.00007305 Ry

     iteration # 59     ecut=    29.40 Ry     beta= 0.05
     Davidson diagonalization with overlap
     ethr =  1.21E-08,  avg # of iterations =  7.9

     negative rho (up, down):  1.123E-02 0.000E+00
 
     Adding external electric field

     Computed dipole along edir(3) : 
        Dipole                0.5504 Ry au,          1.3989 Debye
        Dipole field          0.0010 Ry au, 
 
        Potential amp.       -0.0963 Ry
        Total length         46.3494 bohr
 

     total cpu time spent up to now is      773.3 secs

     total energy              =   -2922.78949170 Ry
     estimated scf accuracy    <       0.00001736 Ry

     iteration # 60     ecut=    29.40 Ry     beta= 0.05
     Davidson diagonalization with overlap
     c_bands:  1 eigenvalues not converged
     ethr =  4.42E-09,  avg # of iterations = 13.5

     negative rho (up, down):  1.125E-02 0.000E+00
 
     Adding external electric field

     Computed dipole along edir(3) : 
        Dipole                0.5489 Ry au,          1.3951 Debye
        Dipole field          0.0010 Ry au, 
 
        Potential amp.       -0.0960 Ry
        Total length         46.3494 bohr
 

     total cpu time spent up to now is      790.0 secs

     total energy              =   -2922.78950378 Ry
     estimated scf accuracy    <       0.00003235 Ry

     iteration # 61     ecut=    29.40 Ry     beta= 0.05
     Davidson diagonalization with overlap
     ethr =  4.42E-09,  avg # of iterations =  4.0

     negative rho (up, down):  1.123E-02 0.000E+00
 
     Adding external electric field

     Computed dipole along edir(3) : 
        Dipole                0.5482 Ry au,          1.3933 Debye
        Dipole field          0.0010 Ry au, 
 
        Potential amp.       -0.0959 Ry
        Total length         46.3494 bohr
 

     total cpu time spent up to now is      799.6 secs

     total energy              =   -2922.78950668 Ry
     estimated scf accuracy    <       0.00001433 Ry

     iteration # 62     ecut=    29.40 Ry     beta= 0.05
     Davidson diagonalization with overlap
     ethr =  3.65E-09,  avg # of iterations = 11.4

     negative rho (up, down):  1.124E-02 0.000E+00
 
     Adding external electric field

     Computed dipole along edir(3) : 
        Dipole                0.5482 Ry au,          1.3933 Debye
        Dipole field          0.0010 Ry au, 
 
        Potential amp.       -0.0959 Ry
        Total length         46.3494 bohr
 

     total cpu time spent up to now is      817.3 secs

     total energy              =   -2922.78951526 Ry
     estimated scf accuracy    <       0.00000202 Ry

     iteration # 63     ecut=    29.40 Ry     beta= 0.05
     Davidson diagonalization with overlap
     c_bands:  1 eigenvalues not converged
     ethr =  5.14E-10,  avg # of iterations = 10.4

     negative rho (up, down):  1.123E-02 0.000E+00
 
     Adding external electric field

     Computed dipole along edir(3) : 
        Dipole                0.5485 Ry au,          1.3942 Debye
        Dipole field          0.0010 Ry au, 
 
        Potential amp.       -0.0960 Ry
        Total length         46.3494 bohr
 

     total cpu time spent up to now is      829.0 secs

     total energy              =   -2922.78952016 Ry
     estimated scf accuracy    <       0.00000257 Ry

     iteration # 64     ecut=    29.40 Ry     beta= 0.05
     Davidson diagonalization with overlap
     ethr =  5.14E-10,  avg # of iterations =  2.8

     negative rho (up, down):  1.121E-02 0.000E+00
 
     Adding external electric field

     Computed dipole along edir(3) : 
        Dipole                0.5488 Ry au,          1.3948 Debye
        Dipole field          0.0010 Ry au, 
 
        Potential amp.       -0.0960 Ry
        Total length         46.3494 bohr
 

     total cpu time spent up to now is      839.0 secs

     total energy              =   -2922.78952439 Ry
     estimated scf accuracy    <       0.00000171 Ry

     iteration # 65     ecut=    29.40 Ry     beta= 0.05
     Davidson diagonalization with overlap
     ethr =  4.35E-10,  avg # of iterations =  7.9

     negative rho (up, down):  1.122E-02 0.000E+00
 
     Adding external electric field

     Computed dipole along edir(3) : 
        Dipole                0.5493 Ry au,          1.3962 Debye
        Dipole field          0.0010 Ry au, 
 
        Potential amp.       -0.0961 Ry
        Total length         46.3494 bohr
 

     total cpu time spent up to now is      872.4 secs

     total energy              =   -2922.78952857 Ry
     estimated scf accuracy    <       0.00000086 Ry

     iteration # 66     ecut=    29.40 Ry     beta= 0.05
     Davidson diagonalization with overlap
     ethr =  2.18E-10,  avg # of iterations = 13.0

     negative rho (up, down):  1.126E-02 0.000E+00
 
     Adding external electric field

     Computed dipole along edir(3) : 
        Dipole                0.5490 Ry au,          1.3955 Debye
        Dipole field          0.0010 Ry au, 
 
        Potential amp.       -0.0960 Ry
        Total length         46.3494 bohr
 

     total cpu time spent up to now is      888.0 secs

     total energy              =   -2922.78953228 Ry
     estimated scf accuracy    <       0.00000178 Ry

     iteration # 67     ecut=    29.40 Ry     beta= 0.05
     Davidson diagonalization with overlap
     ethr =  2.18E-10,  avg # of iterations =  7.6

     negative rho (up, down):  1.126E-02 0.000E+00
 
     Adding external electric field

     Computed dipole along edir(3) : 
        Dipole                0.5491 Ry au,          1.3958 Debye
        Dipole field          0.0010 Ry au, 
 
        Potential amp.       -0.0961 Ry
        Total length         46.3494 bohr
 

     total cpu time spent up to now is      898.6 secs

     total energy              =   -2922.78953565 Ry
     estimated scf accuracy    <       0.00000041 Ry

     iteration # 68     ecut=    29.40 Ry     beta= 0.05
     Davidson diagonalization with overlap
     ethr =  1.03E-10,  avg # of iterations =  5.5

     negative rho (up, down):  1.126E-02 0.000E+00
 
     Adding external electric field

     Computed dipole along edir(3) : 
        Dipole                0.5494 Ry au,          1.3964 Debye
        Dipole field          0.0010 Ry au, 
 
        Potential amp.       -0.0961 Ry
        Total length         46.3494 bohr
 

     total cpu time spent up to now is      910.9 secs

     total energy              =   -2922.78953864 Ry
     estimated scf accuracy    <       0.00000023 Ry

     iteration # 69     ecut=    29.40 Ry     beta= 0.05
     Davidson diagonalization with overlap
     c_bands:  1 eigenvalues not converged
     ethr =  5.79E-11,  avg # of iterations = 15.0

     negative rho (up, down):  1.127E-02 0.000E+00
 
     Adding external electric field

     Computed dipole along edir(3) : 
        Dipole                0.5497 Ry au,          1.3971 Debye
        Dipole field          0.0010 Ry au, 
 
        Potential amp.       -0.0962 Ry
        Total length         46.3494 bohr
 

     total cpu time spent up to now is      926.9 secs

     total energy              =   -2922.78954139 Ry
     estimated scf accuracy    <       0.00000033 Ry

     iteration # 70     ecut=    29.40 Ry     beta= 0.05
     Davidson diagonalization with overlap
     ethr =  5.79E-11,  avg # of iterations =  6.5

     negative rho (up, down):  1.127E-02 0.000E+00
 
     Adding external electric field

     Computed dipole along edir(3) : 
        Dipole                0.5501 Ry au,          1.3983 Debye
        Dipole field          0.0010 Ry au, 
 
        Potential amp.       -0.0962 Ry
        Total length         46.3494 bohr
 

     total cpu time spent up to now is      937.8 secs

     total energy              =   -2922.78954381 Ry
     estimated scf accuracy    <       0.00000011 Ry

     iteration # 71     ecut=    29.40 Ry     beta= 0.05
     Davidson diagonalization with overlap
     c_bands:  1 eigenvalues not converged
     ethr =  2.75E-11,  avg # of iterations = 14.3

     negative rho (up, down):  1.127E-02 0.000E+00
 
     Adding external electric field

     Computed dipole along edir(3) : 
        Dipole                0.5500 Ry au,          1.3981 Debye
        Dipole field          0.0010 Ry au, 
 
        Potential amp.       -0.0962 Ry
        Total length         46.3494 bohr
 

     total cpu time spent up to now is      957.5 secs

     total energy              =   -2922.78954605 Ry
     estimated scf accuracy    <       0.00000026 Ry

     iteration # 72     ecut=    29.40 Ry     beta= 0.05
     Davidson diagonalization with overlap
     ethr =  2.75E-11,  avg # of iterations =  3.1

     negative rho (up, down):  1.127E-02 0.000E+00
 
     Adding external electric field

     Computed dipole along edir(3) : 
        Dipole                0.5500 Ry au,          1.3981 Debye
        Dipole field          0.0010 Ry au, 
 
        Potential amp.       -0.0962 Ry
        Total length         46.3494 bohr
 

     total cpu time spent up to now is      965.2 secs

     total energy              =   -2922.78954799 Ry
     estimated scf accuracy    <       0.00000016 Ry

     iteration # 73     ecut=    29.40 Ry     beta= 0.05
     Davidson diagonalization with overlap
     ethr =  2.75E-11,  avg # of iterations =  1.0

     negative rho (up, down):  1.128E-02 0.000E+00
 
     Adding external electric field

     Computed dipole along edir(3) : 
        Dipole                0.5500 Ry au,          1.3979 Debye
        Dipole field          0.0010 Ry au, 
 
        Potential amp.       -0.0962 Ry
        Total length         46.3494 bohr
 

     total cpu time spent up to now is      972.0 secs

     total energy              =   -2922.78954972 Ry
     estimated scf accuracy    <       0.00000016 Ry

     iteration # 74     ecut=    29.40 Ry     beta= 0.05
     Davidson diagonalization with overlap
     ethr =  2.75E-11,  avg # of iterations =  4.0

     negative rho (up, down):  1.128E-02 0.000E+00
 
     Adding external electric field

     Computed dipole along edir(3) : 
        Dipole                0.5500 Ry au,          1.3979 Debye
        Dipole field          0.0010 Ry au, 
 
        Potential amp.       -0.0962 Ry
        Total length         46.3494 bohr
 

     total cpu time spent up to now is      980.9 secs

     total energy              =   -2922.78955129 Ry
     estimated scf accuracy    <       0.00000011 Ry

     iteration # 75     ecut=    29.40 Ry     beta= 0.05
     Davidson diagonalization with overlap
     ethr =  2.73E-11,  avg # of iterations =  1.0

     negative rho (up, down):  1.128E-02 0.000E+00
 
     Adding external electric field

     Computed dipole along edir(3) : 
        Dipole                0.5500 Ry au,          1.3980 Debye
        Dipole field          0.0010 Ry au, 
 
        Potential amp.       -0.0962 Ry
        Total length         46.3494 bohr
 

     total cpu time spent up to now is      987.7 secs

     total energy              =   -2922.78955272 Ry
     estimated scf accuracy    <       0.00000010 Ry

     iteration # 76     ecut=    29.40 Ry     beta= 0.05
     Davidson diagonalization with overlap
     ethr =  2.58E-11,  avg # of iterations =  1.0

     negative rho (up, down):  1.128E-02 0.000E+00
 
     Adding external electric field

     Computed dipole along edir(3) : 
        Dipole                0.5500 Ry au,          1.3979 Debye
        Dipole field          0.0010 Ry au, 
 
        Potential amp.       -0.0962 Ry
        Total length         46.3494 bohr
 

     total cpu time spent up to now is      994.5 secs

     total energy              =   -2922.78955400 Ry
     estimated scf accuracy    <       0.00000010 Ry

     iteration # 77     ecut=    29.40 Ry     beta= 0.05
     Davidson diagonalization with overlap
     ethr =  2.54E-11,  avg # of iterations =  1.0

     negative rho (up, down):  1.128E-02 0.000E+00
 
     Adding external electric field

     Computed dipole along edir(3) : 
        Dipole                0.5499 Ry au,          1.3978 Debye
        Dipole field          0.0010 Ry au, 
 
        Potential amp.       -0.0962 Ry
        Total length         46.3494 bohr
 

     total cpu time spent up to now is     1001.3 secs

     total energy              =   -2922.78955515 Ry
     estimated scf accuracy    <       0.00000009 Ry

     iteration # 78     ecut=    29.40 Ry     beta= 0.05
     Davidson diagonalization with overlap
     ethr =  2.41E-11,  avg # of iterations =  2.2

     negative rho (up, down):  1.131E-02 0.000E+00
 
     Adding external electric field

     Computed dipole along edir(3) : 
        Dipole                0.5506 Ry au,          1.3994 Debye
        Dipole field          0.0010 Ry au, 
 
        Potential amp.       -0.0963 Ry
        Total length         46.3494 bohr
 

     total cpu time spent up to now is     1008.7 secs

     End of self-consistent calculation

          k = 0.0000 0.0000 0.0000 ( 18029 PWs)   bands (ev):

   -56.0342 -56.0303 -56.0002 -55.9938 -55.9016 -55.8668 -55.8663 -55.8421
   -55.8233 -55.8081 -55.8031 -55.7694 -55.5692 -55.4018 -55.0099 -54.9758
   -32.5886 -32.5162 -32.3611 -32.3550 -32.3414 -32.3402 -32.3272 -32.2938
   -32.2767 -32.2396 -32.2336 -32.2329 -32.2097 -32.1863 -32.1734 -32.1672
   -32.1382 -32.1353 -32.1214 -32.0913 -32.0812 -32.0700 -32.0387 -32.0339
   -32.0296 -32.0278 -32.0133 -32.0119 -32.0055 -31.9801 -31.9797 -31.9771
   -31.9721 -31.9714 -31.9563 -31.9470 -31.9154 -31.8480 -31.7833 -31.6894
   -31.6305 -31.5193 -31.4169 -31.3288 -31.3063 -31.2336 -31.1471 -31.0361
   -16.7685 -16.5053 -16.2732 -16.1827 -16.1327 -16.0461 -15.8688 -15.7523
   -15.7037 -15.6029 -15.5706 -15.5504 -15.5341 -15.5035 -15.4953 -15.4703
   -15.4590 -15.4528 -15.4180 -15.3903 -15.3650 -15.3504 -15.2304 -15.1782
   -15.1622 -15.1308 -15.0829 -15.0666 -14.6123 -13.6553 -13.5125 -13.3961
    -9.0418  -4.1432  -3.9630  -3.9380  -3.8893  -3.8475  -3.7139  -3.6966
    -3.6451  -3.5845  -3.2673  -3.2098  -3.2018  -3.1608  -3.1461  -2.9907
    -2.9251  -2.8509  -2.8337  -2.8288  -2.8031  -2.7979  -2.7934  -2.7505
    -2.7082  -2.6543  -2.6299  -2.5576  -2.5187  -2.4442  -2.3709  -2.3440
    -2.3015  -2.2971  -2.2624  -2.2505  -2.2419  -2.2320  -2.1967  -2.1781
    -2.0016  -1.9473  -1.8831  -1.8167  -1.8028  -1.6387  -1.5318  -1.4843
    -1.4654  -1.4583  -1.4399  -1.4233  -1.3274  -1.2092  -1.1764  -1.1267
    -1.0788  -1.0303  -1.0005  -0.9001  -0.8835  -0.7928  -0.7793  -0.7608
    -0.6472  -0.6253  -0.4915  -0.4701  -0.4642  -0.4040  -0.3884  -0.3155
    -0.2913  -0.2348  -0.1696  -0.1574  -0.0893  -0.0631  -0.0602  -0.0032
     0.0012   0.0465   0.0606   0.1710   0.2266   0.2760   0.3299   0.4359
     0.5162   0.6305   0.6773   0.7367   0.9382   1.0118   1.1215   1.1847
     1.2050   1.4667   1.5831   1.6286   3.1045   3.1895   3.2113   3.2370
     3.3445   3.3696   3.5549   3.5718   3.6063   3.6262

          k = 0.0000 0.0419 0.0000 ( 17933 PWs)   bands (ev):

   -56.0292 -56.0250 -56.0051 -55.9989 -55.8965 -55.8717 -55.8625 -55.8371
   -55.8269 -55.8130 -55.7981 -55.7742 -55.5684 -55.4024 -55.0048 -54.9807
   -32.5311 -32.4623 -32.3266 -32.3226 -32.3147 -32.3067 -32.3012 -32.2585
   -32.2554 -32.2526 -32.2387 -32.2239 -32.2131 -32.2057 -32.1948 -32.1760
   -32.1725 -32.1216 -32.1082 -32.1052 -32.0711 -32.0646 -32.0530 -32.0433
   -32.0357 -32.0301 -32.0284 -32.0219 -32.0199 -32.0128 -32.0090 -32.0006
   -31.9772 -31.9759 -31.9710 -31.9591 -31.9573 -31.8421 -31.7825 -31.6894
   -31.6461 -31.5429 -31.3628 -31.3253 -31.3094 -31.2210 -31.1597 -31.0933
   -16.6327 -16.3852 -16.1638 -16.0748 -16.0335 -16.0075 -15.8937 -15.8080
   -15.7871 -15.6283 -15.5816 -15.5589 -15.5429 -15.5120 -15.4944 -15.4887
   -15.4852 -15.4455 -15.4300 -15.4137 -15.3740 -15.3246 -15.2338 -15.2191
   -15.2122 -15.1846 -15.1395 -15.0866 -14.7151 -13.6549 -13.5166 -13.4357
    -9.0499  -3.9512  -3.7980  -3.7625  -3.7285  -3.7143  -3.7030  -3.6775
    -3.4878  -3.3545  -3.2548  -3.1875  -3.1095  -3.0770  -3.0734  -3.0072
    -2.9930  -2.9774  -2.9151  -2.8905  -2.8758  -2.8447  -2.7836  -2.7700
    -2.7317  -2.7230  -2.7062  -2.6790  -2.6076  -2.5732  -2.5231  -2.5160
    -2.4623  -2.4501  -2.3618  -2.2815  -2.2602  -2.1831  -2.1034  -1.9863
    -1.9311  -1.9098  -1.8104  -1.7740  -1.6973  -1.6267  -1.5973  -1.4332
    -1.3707  -1.3321  -1.3200  -1.2557  -1.1995  -1.0761  -1.0518  -1.0068
    -0.9839  -0.9317  -0.9254  -0.9180  -0.8565  -0.8394  -0.8067  -0.7818
    -0.6956  -0.6654  -0.5653  -0.5326  -0.5272  -0.5050  -0.4701  -0.4621
    -0.3089  -0.2901  -0.2495  -0.2109  -0.1968  -0.1851  -0.1516  -0.1323
    -0.0404   0.0058   0.0495   0.1232   0.1737   0.2250   0.2455   0.3103
     0.3126   0.3874   0.5625   0.6312   0.6718   0.9967   1.2012   1.2355
     1.2853   1.4684   1.5371   1.5407   3.3005   3.3416   3.3606   3.4377
     3.4567   3.5041   3.5457   3.5754   3.6448   3.6544

          k = 0.0000-0.0839 0.0000 ( 17884 PWs)   bands (ev):

   -56.0176 -56.0166 -56.0149 -56.0090 -55.8865 -55.8816 -55.8578 -55.8318
   -55.8258 -55.8239 -55.7873 -55.7850 -55.5676 -55.4031 -54.9929 -54.9926
   -32.3940 -32.3875 -32.3303 -32.3297 -32.3129 -32.3122 -32.2931 -32.2884
   -32.2218 -32.2182 -32.2032 -32.1952 -32.1822 -32.1648 -32.1639 -32.1551
   -32.1439 -32.1394 -32.1383 -32.1368 -32.1086 -32.1051 -32.0930 -32.0814
   -32.0762 -32.0758 -32.0542 -32.0504 -32.0329 -32.0305 -32.0193 -32.0178
   -31.9965 -31.9903 -31.9676 -31.9666 -31.9265 -31.8310 -31.7817 -31.6899
   -31.6748 -31.5635 -31.3172 -31.3171 -31.2299 -31.2297 -31.1904 -31.1903
   -16.2917 -16.2845 -16.1028 -16.1002 -15.9398 -15.9307 -15.8339 -15.8055
   -15.7994 -15.7614 -15.7457 -15.7410 -15.5935 -15.5872 -15.4517 -15.4093
   -15.4043 -15.3795 -15.3695 -15.3654 -15.3464 -15.3311 -15.3151 -15.3113
   -15.2826 -15.2703 -15.1811 -15.0143 -14.9041 -13.6545 -13.4985 -13.4983
    -9.0577  -3.7163  -3.7074  -3.5145  -3.4817  -3.4196  -3.4037  -3.3908
    -3.3735  -3.3240  -3.3237  -3.2832  -3.2350  -3.1808  -3.1332  -3.1208
    -3.1038  -3.0879  -3.0144  -2.9832  -2.9741  -2.8873  -2.8313  -2.8257
    -2.7812  -2.7631  -2.7502  -2.7319  -2.6961  -2.6430  -2.5897  -2.5212
    -2.4193  -2.4063  -2.3796  -2.3332  -2.0870  -2.0071  -1.9637  -1.9116
    -1.7883  -1.7426  -1.7327  -1.7099  -1.6386  -1.5997  -1.4645  -1.4448
    -1.4407  -1.4070  -1.3952  -1.3135  -1.2856  -1.2416  -1.1901  -1.1549
    -1.1316  -1.0688  -0.8801  -0.7626  -0.7560  -0.6901  -0.6666  -0.6517
    -0.6434  -0.6183  -0.5773  -0.5695  -0.5029  -0.4873  -0.4783  -0.4478
    -0.4267  -0.3424  -0.3214  -0.2918  -0.2705  -0.2423  -0.2315  -0.2060
    -0.1785  -0.1717  -0.1397  -0.0422   0.0230   0.1136   0.2112   0.2139
     0.2298   0.2677   0.5723   0.6378   0.6748   0.7471   1.2830   1.3445
     1.3448   1.4702   1.4739   1.4751   3.4265   3.4398   3.4514   3.4693
     3.5398   3.5492   3.6582   3.6892   3.6954   3.7016

          k = 0.0380 0.0000 0.0000 ( 17913 PWs)   bands (ev):

   -56.0341 -56.0301 -56.0001 -55.9937 -55.9014 -55.8667 -55.8662 -55.8419
   -55.8232 -55.8080 -55.8032 -55.7693 -55.5691 -55.4017 -55.0098 -54.9757
   -32.5887 -32.5171 -32.3625 -32.3614 -32.3416 -32.3400 -32.3270 -32.2985
   -32.2767 -32.2388 -32.2329 -32.2184 -32.2097 -32.1834 -32.1730 -32.1594
   -32.1379 -32.1303 -32.1011 -32.0911 -32.0858 -32.0808 -32.0431 -32.0335
   -32.0247 -32.0226 -32.0132 -32.0115 -32.0053 -32.0006 -31.9788 -31.9767
   -31.9719 -31.9712 -31.9564 -31.9461 -31.9157 -31.8479 -31.7859 -31.6895
   -31.6303 -31.5191 -31.4165 -31.3321 -31.3043 -31.2334 -31.1470 -31.0359
   -16.6995 -16.4221 -16.1939 -16.1488 -16.0742 -16.0457 -15.9109 -15.7504
   -15.7249 -15.7019 -15.6971 -15.6476 -15.6210 -15.5980 -15.5802 -15.5476
   -15.3931 -15.3780 -15.3334 -15.2782 -15.2668 -15.2500 -15.2377 -15.2186
   -15.2077 -15.1802 -15.1567 -15.0514 -14.6113 -13.6551 -13.5093 -13.3958
    -9.0395  -4.0733  -3.7638  -3.7139  -3.7049  -3.6964  -3.6601  -3.6288
    -3.5719  -3.5694  -3.4731  -3.2713  -3.2638  -3.1442  -3.1128  -3.0971
    -3.0597  -2.9579  -2.8943  -2.8614  -2.7944  -2.7476  -2.7386  -2.6501
    -2.6241  -2.6103  -2.5813  -2.4953  -2.4578  -2.3718  -2.3577  -2.3252
    -2.3049  -2.2577  -2.2249  -2.2051  -2.1641  -2.1063  -2.0603  -1.9824
    -1.9351  -1.8838  -1.8508  -1.8168  -1.7589  -1.7288  -1.6348  -1.5739
    -1.5394  -1.4673  -1.4486  -1.3846  -1.3158  -1.3027  -1.2934  -1.2390
    -1.1457  -1.1038  -1.0268  -0.9221  -0.8588  -0.8493  -0.8125  -0.7855
    -0.7407  -0.6867  -0.5282  -0.4789  -0.4489  -0.4187  -0.3978  -0.3470
    -0.3157  -0.2912  -0.2294  -0.2213  -0.1732  -0.1643  -0.1463  -0.1150
    -0.0991  -0.0402   0.0631   0.0978   0.1384   0.2294   0.2634   0.3538
     0.4244   0.4753   0.6219   0.6609   0.9430   0.9860   1.0236   1.1743
     1.2051   1.4595   1.4717   1.5458   3.1398   3.1633   3.4229   3.4396
     3.4748   3.5200   3.5443   3.5552   3.5765   3.6092

          k = 0.0380 0.0419 0.0000 ( 17878 PWs)   bands (ev):

   -56.0291 -56.0249 -56.0050 -55.9989 -55.8964 -55.8717 -55.8625 -55.8369
   -55.8268 -55.8130 -55.7982 -55.7742 -55.5683 -55.4024 -55.0047 -54.9807
   -32.5312 -32.4631 -32.3264 -32.3224 -32.3149 -32.3094 -32.3080 -32.2586
   -32.2556 -32.2533 -32.2432 -32.2146 -32.2100 -32.2058 -32.1949 -32.1700
   -32.1649 -32.1174 -32.1048 -32.0910 -32.0783 -32.0708 -32.0535 -32.0343
   -32.0321 -32.0302 -32.0284 -32.0229 -32.0210 -32.0126 -32.0090 -32.0012
   -31.9973 -31.9764 -31.9671 -31.9637 -31.9564 -31.8421 -31.7847 -31.6901
   -31.6460 -31.5428 -31.3625 -31.3279 -31.3084 -31.2209 -31.1598 -31.0931
   -16.5701 -16.3088 -16.0923 -16.0450 -16.0078 -15.9692 -15.8933 -15.8419
   -15.7885 -15.6885 -15.6327 -15.6239 -15.6132 -15.6103 -15.5270 -15.4992
   -15.4300 -15.4167 -15.4052 -15.3581 -15.3364 -15.2927 -15.2781 -15.2704
   -15.2542 -15.2253 -15.1629 -15.0712 -14.7145 -13.6548 -13.5144 -13.4360
    -9.0483  -3.8964  -3.7141  -3.7029  -3.5941  -3.5379  -3.4869  -3.4536
    -3.4169  -3.3449  -3.3169  -3.1837  -3.1259  -3.0635  -3.0317  -3.0136
    -2.9730  -2.9270  -2.9044  -2.8657  -2.8364  -2.8152  -2.7697  -2.7501
    -2.7340  -2.6996  -2.6686  -2.6451  -2.6051  -2.5435  -2.5088  -2.4966
    -2.4298  -2.3583  -2.2988  -2.2414  -2.1817  -2.1518  -2.0396  -2.0192
    -1.9724  -1.9201  -1.8174  -1.7642  -1.6737  -1.5966  -1.5730  -1.4862
    -1.4389  -1.4192  -1.3462  -1.3041  -1.2773  -1.2223  -1.1694  -1.1231
    -1.0920  -1.0162  -0.9804  -0.9494  -0.9203  -0.8775  -0.8385  -0.8076
    -0.7631  -0.7334  -0.6892  -0.6496  -0.6384  -0.6068  -0.5195  -0.4858
    -0.4597  -0.4089  -0.3618  -0.3329  -0.3053  -0.2708  -0.2046  -0.1569
    -0.0857  -0.0304   0.0598   0.1198   0.1935   0.2209   0.3065   0.3211
     0.3810   0.4191   0.4729   0.5643   0.6395   0.9306   1.2121   1.2443
     1.2898   1.4596   1.4619   1.5214   3.2855   3.3528   3.4053   3.4576
     3.5238   3.5361   3.6230   3.6457   3.6806   3.6940

          k = 0.0380-0.0839 0.0000 ( 17916 PWs)   bands (ev):

   -56.0176 -56.0166 -56.0149 -56.0090 -55.8866 -55.8816 -55.8579 -55.8318
   -55.8258 -55.8239 -55.7874 -55.7850 -55.5677 -55.4031 -54.9929 -54.9927
   -32.3942 -32.3878 -32.3310 -32.3305 -32.3130 -32.3122 -32.2932 -32.2884
   -32.2221 -32.2186 -32.2138 -32.2036 -32.1660 -32.1651 -32.1607 -32.1444
   -32.1433 -32.1383 -32.1372 -32.1368 -32.1196 -32.1166 -32.0904 -32.0795
   -32.0623 -32.0532 -32.0526 -32.0502 -32.0378 -32.0328 -32.0194 -32.0177
   -31.9965 -31.9904 -31.9792 -31.9784 -31.9262 -31.8310 -31.7836 -31.6910
   -31.6747 -31.5635 -31.3182 -31.3180 -31.2298 -31.2296 -31.1904 -31.1904
   -16.2518 -16.2435 -16.0527 -16.0504 -15.9154 -15.9041 -15.8315 -15.7688
   -15.7575 -15.7454 -15.7216 -15.7060 -15.6070 -15.5988 -15.4817 -15.4494
   -15.4461 -15.4352 -15.4217 -15.3938 -15.3880 -15.3817 -15.3571 -15.3317
   -15.3244 -15.2953 -15.1606 -15.0071 -14.8982 -13.6545 -13.4983 -13.4981
    -9.0570  -3.7162  -3.7075  -3.5068  -3.4738  -3.2842  -3.2586  -3.2137
    -3.1737  -3.1613  -3.1358  -3.1142  -3.0972  -3.0619  -3.0278  -3.0200
    -3.0125  -2.9907  -2.9579  -2.8788  -2.8753  -2.8606  -2.8324  -2.7960
    -2.7534  -2.7453  -2.7273  -2.7166  -2.6569  -2.6454  -2.6195  -2.5727
    -2.4826  -2.4672  -2.1464  -2.1294  -2.0979  -2.0119  -1.9388  -1.9163
    -1.8955  -1.8555  -1.8511  -1.7949  -1.7699  -1.7115  -1.6948  -1.6629
    -1.6543  -1.5328  -1.4937  -1.4423  -1.3715  -1.2665  -1.2226  -1.1808
    -1.1222  -1.0269  -1.0130  -0.9502  -0.8761  -0.8203  -0.8037  -0.7772
    -0.7684  -0.7358  -0.7133  -0.6845  -0.6392  -0.6119  -0.5956  -0.5790
    -0.5720  -0.5539  -0.4488  -0.4168  -0.3639  -0.2648  -0.1910  -0.1266
    -0.0479   0.0108   0.0675   0.0747   0.1048   0.1430   0.1575   0.2286
     0.3188   0.3601   0.5221   0.5738   0.6474   0.7426   1.2849   1.3577
     1.3582   1.4630   1.4638   1.4642   3.3871   3.4074   3.4704   3.4875
     3.5239   3.5329   3.6988   3.7123   3.7336   3.7358

          k = 0.0380-0.0419 0.0000 ( 17876 PWs)   bands (ev):

   -56.0291 -56.0249 -56.0050 -55.9989 -55.8964 -55.8717 -55.8625 -55.8369
   -55.8268 -55.8130 -55.7982 -55.7742 -55.5683 -55.4024 -55.0047 -54.9807
   -32.5312 -32.4631 -32.3264 -32.3224 -32.3149 -32.3094 -32.3080 -32.2586
   -32.2556 -32.2533 -32.2432 -32.2141 -32.2105 -32.2058 -32.1949 -32.1700
   -32.1647 -32.1173 -32.1048 -32.0909 -32.0786 -32.0708 -32.0535 -32.0342
   -32.0321 -32.0303 -32.0283 -32.0233 -32.0206 -32.0127 -32.0090 -32.0010
   -31.9976 -31.9764 -31.9669 -31.9637 -31.9564 -31.8421 -31.7847 -31.6900
   -31.6460 -31.5428 -31.3625 -31.3279 -31.3084 -31.2209 -31.1597 -31.0931
   -16.5702 -16.3087 -16.0930 -16.0451 -16.0077 -15.9694 -15.8927 -15.8420
   -15.7887 -15.6889 -15.6314 -15.6222 -15.6123 -15.6070 -15.5277 -15.5057
   -15.4257 -15.4163 -15.4119 -15.3577 -15.3356 -15.2933 -15.2781 -15.2693
   -15.2524 -15.2245 -15.1639 -15.0715 -14.7144 -13.6548 -13.5144 -13.4360
    -9.0484  -3.8958  -3.7140  -3.7029  -3.5956  -3.5401  -3.4863  -3.4551
    -3.4163  -3.3471  -3.3133  -3.1852  -3.1244  -3.0615  -3.0296  -3.0136
    -2.9682  -2.9257  -2.9051  -2.8612  -2.8400  -2.8154  -2.7719  -2.7509
    -2.7316  -2.7059  -2.6690  -2.6505  -2.5969  -2.5447  -2.5145  -2.5007
    -2.4288  -2.3605  -2.2990  -2.2468  -2.1920  -2.1518  -2.0433  -2.0171
    -1.9756  -1.9236  -1.8008  -1.7621  -1.6585  -1.5973  -1.5666  -1.4853
    -1.4407  -1.4211  -1.3476  -1.3012  -1.2864  -1.2201  -1.1647  -1.1252
    -1.0937  -1.0182  -0.9814  -0.9476  -0.9024  -0.8643  -0.8384  -0.7996
    -0.7524  -0.7289  -0.6946  -0.6567  -0.6314  -0.6053  -0.5321  -0.4842
    -0.4560  -0.4201  -0.3635  -0.3322  -0.3114  -0.2634  -0.2128  -0.1546
    -0.0872  -0.0520   0.0580   0.1160   0.1956   0.2198   0.3067   0.3250
     0.3815   0.4198   0.4658   0.5638   0.6385   0.9305   1.2121   1.2390
     1.2898   1.4593   1.4612   1.5221   3.2863   3.3537   3.4103   3.4533
     3.5327   3.5495   3.6319   3.6431   3.6776   3.6946

          k =-0.0760-0.0000 0.0000 ( 17886 PWs)   bands (ev):

   -56.0341 -56.0300 -56.0001 -55.9937 -55.9014 -55.8667 -55.8662 -55.8416
   -55.8232 -55.8080 -55.8033 -55.7693 -55.5690 -55.4017 -55.0097 -54.9757
   -32.5888 -32.5180 -32.3676 -32.3639 -32.3417 -32.3398 -32.3269 -32.3030
   -32.2768 -32.2388 -32.2329 -32.2097 -32.1977 -32.1805 -32.1730 -32.1527
   -32.1378 -32.1252 -32.1069 -32.0915 -32.0806 -32.0566 -32.0465 -32.0462
   -32.0326 -32.0230 -32.0164 -32.0134 -32.0111 -32.0052 -31.9779 -31.9763
   -31.9718 -31.9713 -31.9572 -31.9454 -31.9163 -31.8478 -31.7889 -31.6899
   -31.6302 -31.5191 -31.4161 -31.3354 -31.3030 -31.2334 -31.1469 -31.0360
   -16.6121 -16.3326 -16.1306 -16.0989 -16.0459 -15.9899 -15.8868 -15.8080
   -15.7795 -15.7464 -15.7303 -15.7121 -15.6959 -15.6778 -15.6621 -15.5736
   -15.3949 -15.3901 -15.3352 -15.3094 -15.2794 -15.2763 -15.2252 -15.1887
   -15.1702 -15.1641 -15.1199 -15.0476 -14.6105 -13.6550 -13.5063 -13.3955
    -9.0373  -4.0538  -3.7139  -3.7102  -3.6965  -3.5988  -3.5564  -3.4334
    -3.3866  -3.3603  -3.2938  -3.2807  -3.2667  -3.2521  -3.2411  -3.0546
    -3.0016  -2.9098  -2.8948  -2.8330  -2.7712  -2.6453  -2.6339  -2.5863
    -2.5787  -2.5329  -2.5153  -2.4591  -2.4367  -2.3496  -2.3395  -2.3043
    -2.2837  -2.2628  -2.2627  -2.2270  -2.1968  -2.1467  -2.0392  -1.9631
    -1.9435  -1.8564  -1.7779  -1.7326  -1.6655  -1.6413  -1.6316  -1.6252
    -1.6153  -1.5778  -1.5002  -1.4951  -1.3999  -1.3279  -1.2950  -1.2717
    -1.2432  -1.1988  -1.1567  -1.1553  -1.0790  -0.8730  -0.7965  -0.7411
    -0.7161  -0.6837  -0.6519  -0.6490  -0.5425  -0.4912  -0.4482  -0.4204
    -0.3603  -0.3538  -0.2996  -0.2926  -0.2575  -0.2137  -0.1989  -0.1359
    -0.1296  -0.0668   0.0081   0.0856   0.1120   0.2186   0.2768   0.3958
     0.4502   0.4899   0.5648   0.6602   0.7260   0.9530   1.0448   1.1499
     1.2226   1.3422   1.4530   1.4901   3.1448   3.1466   3.2339   3.3811
     3.4316   3.5148   3.5534   3.6130   3.6200   3.6334

          k =-0.0760 0.0419 0.0000 ( 17914 PWs)   bands (ev):

   -56.0291 -56.0249 -56.0051 -55.9989 -55.8964 -55.8717 -55.8625 -55.8368
   -55.8269 -55.8129 -55.7983 -55.7743 -55.5684 -55.4024 -55.0048 -54.9807
   -32.5315 -32.4641 -32.3264 -32.3224 -32.3172 -32.3146 -32.3097 -32.2589
   -32.2558 -32.2548 -32.2467 -32.2135 -32.2061 -32.1960 -32.1952 -32.1679
   -32.1546 -32.1132 -32.1048 -32.0950 -32.0708 -32.0581 -32.0542 -32.0372
   -32.0321 -32.0306 -32.0281 -32.0258 -32.0203 -32.0197 -32.0110 -32.0089
   -31.9994 -31.9760 -31.9703 -31.9670 -31.9556 -31.8420 -31.7872 -31.6909
   -31.6460 -31.5428 -31.3622 -31.3307 -31.3077 -31.2209 -31.1598 -31.0932
   -16.4921 -16.2207 -16.0470 -16.0053 -15.9940 -15.8937 -15.8907 -15.7902
   -15.7829 -15.7684 -15.6831 -15.6737 -15.6544 -15.6471 -15.5947 -15.5808
   -15.4544 -15.4147 -15.3887 -15.3832 -15.3613 -15.3168 -15.2986 -15.2730
   -15.2485 -15.2110 -15.1481 -15.0657 -14.7142 -13.6548 -13.5123 -13.4363
    -9.0469  -3.8826  -3.7140  -3.7029  -3.5469  -3.3461  -3.3305  -3.2109
    -3.1714  -3.1526  -3.1449  -3.1137  -3.0804  -3.0516  -3.0452  -2.9866
    -2.9846  -2.9431  -2.9160  -2.8785  -2.8119  -2.8047  -2.7368  -2.7083
    -2.7004  -2.6568  -2.6057  -2.5853  -2.5187  -2.5103  -2.4898  -2.4544
    -2.3878  -2.3573  -2.2752  -2.1533  -2.1385  -2.1098  -2.0395  -2.0092
    -1.9467  -1.8701  -1.8488  -1.8180  -1.6584  -1.6113  -1.5889  -1.5684
    -1.4994  -1.4515  -1.4221  -1.4107  -1.3310  -1.3013  -1.2930  -1.2537
    -1.2240  -1.1967  -1.1729  -1.1191  -1.0647  -1.0172  -1.0017  -0.9706
    -0.9001  -0.8304  -0.7777  -0.7574  -0.7093  -0.6488  -0.6412  -0.5988
    -0.5740  -0.5331  -0.4321  -0.3701  -0.3199  -0.3086  -0.2010  -0.1548
    -0.0590  -0.0139   0.1067   0.2176   0.2340   0.3050   0.3371   0.3895
     0.4321   0.4501   0.4903   0.5598   0.5747   0.7782   1.2270   1.2429
     1.2931   1.3830   1.4547   1.5107   3.2723   3.3017   3.3494   3.4272
     3.4589   3.4629   3.5909   3.6224   3.6953   3.7417

          k =-0.0760-0.0839 0.0000 ( 17948 PWs)   bands (ev):

   -56.0176 -56.0166 -56.0149 -56.0090 -55.8866 -55.8816 -55.8579 -55.8318
   -55.8258 -55.8238 -55.7875 -55.7851 -55.5677 -55.4031 -54.9929 -54.9927
   -32.3945 -32.3880 -32.3318 -32.3312 -32.3130 -32.3123 -32.2933 -32.2886
   -32.2223 -32.2213 -32.2183 -32.2075 -32.1671 -32.1662 -32.1470 -32.1426
   -32.1385 -32.1371 -32.1360 -32.1277 -32.1267 -32.1239 -32.0880 -32.0776
   -32.0728 -32.0507 -32.0464 -32.0327 -32.0240 -32.0230 -32.0192 -32.0173
   -32.0020 -32.0007 -31.9966 -31.9903 -31.9258 -31.8309 -31.7855 -31.6922
   -31.6747 -31.5635 -31.3191 -31.3190 -31.2298 -31.2296 -31.1905 -31.1904
   -16.2103 -16.1873 -15.9811 -15.9468 -15.9435 -15.9362 -15.8055 -15.7254
   -15.7249 -15.6988 -15.6376 -15.6263 -15.6047 -15.5661 -15.5416 -15.5393
   -15.5205 -15.5156 -15.4894 -15.4793 -15.4665 -15.4593 -15.3665 -15.3471
   -15.3432 -15.2935 -15.1482 -15.0017 -14.8933 -13.6545 -13.4981 -13.4979
    -9.0563  -3.7162  -3.7075  -3.5065  -3.4752  -3.2329  -3.1946  -3.1815
    -3.1126  -2.9561  -2.9166  -2.8986  -2.8908  -2.8466  -2.8390  -2.8336
    -2.8221  -2.7935  -2.7765  -2.7392  -2.7326  -2.7182  -2.7108  -2.6996
    -2.6825  -2.6527  -2.6442  -2.6174  -2.6084  -2.5894  -2.5719  -2.5437
    -2.5391  -2.4134  -2.2522  -2.2283  -2.1676  -2.1603  -2.1104  -2.0996
    -2.0946  -2.0671  -2.0342  -2.0110  -1.8501  -1.7408  -1.7260  -1.7093
    -1.6407  -1.6128  -1.5284  -1.4375  -1.3965  -1.3783  -1.3106  -1.3065
    -1.2558  -1.2317  -1.2112  -1.1436  -1.0867  -1.0505  -0.9929  -0.9870
    -0.9785  -0.9086  -0.8661  -0.7913  -0.7826  -0.7456  -0.7106  -0.6551
    -0.6185  -0.6098  -0.5196  -0.4873  -0.3749  -0.3262  -0.0680  -0.0206
     0.0332   0.0614   0.1269   0.1846   0.1893   0.2860   0.2898   0.3261
     0.4058   0.4270   0.4980   0.5173   0.5673   0.7292   1.2806   1.3759
     1.3767   1.4482   1.4486   1.4573   3.4025   3.4142   3.4214   3.4659
     3.6110   3.6157   3.6342   3.6358   3.7778   3.7979

     the Fermi energy is     3.1011 ev

!    total energy              =   -2922.78956583 Ry
     estimated scf accuracy    <       0.00000007 Ry
     smearing contrib. (-TS)   =      -0.02169371 Ry
     internal energy E=F+TS    =   -2922.76787212 Ry

     The total energy is F=E-TS. E is the sum of the following terms:
     one-electron contribution =  -23651.32902348 Ry
     hartree contribution      =   11909.87185710 Ry
     xc contribution           =    -482.26159807 Ry
     ewald contribution        =    9300.95032031 Ry
     electric field correction =       0.00057202 Ry

     convergence has been achieved in  78 iterations

     Forces acting on atoms (cartesian axes, Ry/au):

     atom    1 type  1   force =     0.00004771   -0.00022670    0.09684006
     atom    2 type  1   force =    -0.00017571   -0.00055546   -0.17514339
     atom    3 type  2   force =     0.00002243   -0.00004927   -0.02503910
     atom    4 type  2   force =     0.00002730   -0.00139906    0.05264190
     atom    5 type  2   force =    -0.01204825   -0.00050912    0.00331422
     atom    6 type  2   force =     0.01377506    0.00008745    0.00271308
     atom    7 type  1   force =    -0.00057982    0.00056571   -0.01155117
     atom    8 type  1   force =     0.00020456    0.01201254    0.02900727
     atom    9 type  2   force =    -0.00029704    0.00056865    0.00057774
     atom   10 type  2   force =    -0.00153538    0.00252407   -0.01945568
     atom   11 type  2   force =    -0.00019297   -0.00037634   -0.00013533
     atom   12 type  2   force =    -0.00089419    0.00003642   -0.00028939
     atom   13 type  1   force =     0.00054881   -0.00097274    0.00108988
     atom   14 type  1   force =     0.00145685    0.00057721   -0.00066745
     atom   15 type  2   force =    -0.00015423   -0.00101759    0.00041805
     atom   16 type  2   force =    -0.00020899   -0.00020255   -0.00146392
     atom   17 type  2   force =    -0.00061258    0.00075399    0.00001000
     atom   18 type  2   force =     0.00048143    0.00092499   -0.00000339
     atom   19 type  1   force =    -0.00019135   -0.00109764    0.00060489
     atom   20 type  1   force =    -0.00006606    0.00044685   -0.00019163
     atom   21 type  2   force =     0.00004801   -0.00003956    0.10320677
     atom   22 type  2   force =     0.00024220   -0.00022036    0.00098458
     atom   23 type  2   force =    -0.07155400   -0.00014131   -0.02770288
     atom   24 type  2   force =     0.07144667    0.00026952   -0.02773515
     atom   25 type  1   force =     0.00005552   -0.00028402    0.09643176
     atom   26 type  1   force =    -0.00019491   -0.00029388   -0.17537072
     atom   27 type  2   force =     0.00008602   -0.00016915   -0.02382972
     atom   28 type  2   force =     0.00004454   -0.00113877    0.05272567
     atom   29 type  2   force =    -0.01208886    0.00085176    0.00278103
     atom   30 type  2   force =     0.01373243    0.00123985    0.00219821
     atom   31 type  1   force =    -0.00046875    0.00303246   -0.01240705
     atom   32 type  1   force =     0.00018787   -0.01423339    0.02941870
     atom   33 type  2   force =    -0.00023149   -0.00062268    0.00043272
     atom   34 type  2   force =    -0.00098154    0.00176507   -0.02266011
     atom   35 type  2   force =    -0.00068240   -0.00060336   -0.00011284
     atom   36 type  2   force =     0.00003594   -0.00014898   -0.00032891
     atom   37 type  1   force =     0.00065330    0.00026951    0.00055343
     atom   38 type  1   force =     0.00150925    0.00019082   -0.00066848
     atom   39 type  2   force =     0.00006975    0.00013590   -0.00126425
     atom   40 type  2   force =    -0.00034827   -0.00009927    0.00176714
     atom   41 type  2   force =    -0.00082087   -0.00103258   -0.00017627
     atom   42 type  2   force =     0.00030605   -0.00144736    0.00022101
     atom   43 type  1   force =     0.00022874    0.00063971    0.00104237
     atom   44 type  1   force =     0.00038970   -0.00035789    0.00070371
     atom   45 type  2   force =     0.00005692   -0.00009225    0.10316384
     atom   46 type  2   force =    -0.07154159   -0.00011618   -0.02770869
     atom   47 type  2   force =     0.07144735    0.00031322   -0.02773869
     atom   48 type  3   force =     0.00226639    0.00298670    0.00044597
     atom   49 type  4   force =    -0.00129279   -0.00011306   -0.00073336
     atom   50 type  4   force =     0.00070118   -0.00023804    0.00151711
     atom   51 type  4   force =    -0.00325370   -0.00248797   -0.00149483
     atom   52 type  5   force =    -0.00008106   -0.00018490   -0.00037231
     atom   53 type  4   force =     0.00064383   -0.00004048   -0.00037117
     atom   54 type  4   force =     0.00006290    0.00019823   -0.00011126
     atom   55 type  4   force =    -0.00028190    0.00012130   -0.00008397

     Total force =     0.368380     Total SCF correction =     0.000962
  @ DRIVER MODE: Message from server: STATUS
  @ DRIVER MODE: Message from server: GETFORCE
  @ DRIVER MODE: Returning v,forces,stress,ensemble 

     Writing output data file ./calc.save/
  @ DRIVER MODE: Message from server: EXIT
  @ DRIVE MODE: Exiting  
 
     init_run     :      7.31s CPU      7.44s WALL (       1 calls)
     electrons    :    983.01s CPU   1001.08s WALL (       1 calls)
     forces       :      1.70s CPU      1.74s WALL (       1 calls)

     Called by init_run:
     wfcinit      :      3.33s CPU      3.37s WALL (       1 calls)
     potinit      :      3.52s CPU      3.56s WALL (       1 calls)
     hinit0       :      0.21s CPU      0.22s WALL (       1 calls)

     Called by electrons:
     c_bands      :    847.11s CPU    858.48s WALL (      78 calls)
     sum_band     :     93.69s CPU     95.91s WALL (      78 calls)
     v_of_rho     :     29.31s CPU     30.66s WALL (      79 calls)
     newd         :     11.81s CPU     14.52s WALL (      79 calls)
     mix_rho      :      3.55s CPU      3.80s WALL (      78 calls)
     vdW_kernel   :      3.03s CPU      3.05s WALL (       1 calls)

     Called by c_bands:
     init_us_2    :      4.15s CPU      4.17s WALL (    1580 calls)
     cegterg      :    832.92s CPU    843.87s WALL (     790 calls)

     Called by *egterg:
     cdiaghg      :    196.27s CPU    196.96s WALL (    8239 calls)
     h_psi        :    402.87s CPU    411.73s WALL (    8249 calls)
     s_psi        :     46.57s CPU     46.78s WALL (    8249 calls)
     g_psi        :      1.16s CPU      1.16s WALL (    7449 calls)

     Called by h_psi:
     h_psi:calbec :     48.25s CPU     48.56s WALL (    8249 calls)
     vloc_psi     :    305.45s CPU    313.82s WALL (    8249 calls)
     add_vuspsi   :     47.45s CPU     47.63s WALL (    8249 calls)

     General routines
     calbec       :     63.98s CPU     64.35s WALL (    9069 calls)
     fft          :     16.74s CPU     17.32s WALL (    4977 calls)
     ffts         :      0.16s CPU      0.16s WALL (     157 calls)
     fftw         :    350.73s CPU    359.41s WALL ( 1033108 calls)
     interpolate  :      0.39s CPU      0.40s WALL (      79 calls)
     davcio       :      0.00s CPU      0.10s WALL (      10 calls)
 
     Parallel routines
 
     PWSCF        :  16m32.33s CPU  16m50.76s WALL

 
   This run was terminated on:  19:58:31   2Aug2021            

=------------------------------------------------------------------------------=
   JOB DONE.
=------------------------------------------------------------------------------=
