
     Program PWSCF v.6.7GPU starts on  5Aug2021 at 20:56:17 

     This program is part of the open-source Quantum ESPRESSO suite
     for quantum simulation of materials; please cite
         "P. Giannozzi et al., J. Phys.:Condens. Matter 21 395502 (2009);
         "P. Giannozzi et al., J. Phys.:Condens. Matter 29 465901 (2017);
         "P. Giannozzi et al., J. Chem. Phys. 152 154105 (2020);
          URL http://www.quantum-espresso.org", 
     in publications or presentations arising from this work. More details at
     http://www.quantum-espresso.org/quote

     Parallel version (MPI), running on    16 processors

     MPI processes distributed on     1 nodes
     R & G space division:  proc/nbgrp/npool/nimage =      16
     Reading input from /storage/home/hcoda1/3/ntian30/research/carbon/15Jul_vib/reference/CH3NH2/out_0027/pw.inp
Warning: card &CELL ignored
Warning: card   CELL_DYNAMICS='IPI', ignored
Warning: card / ignored

     Current dimensions of program PWSCF are:
     Max number of different atomic species (ntypx) = 10
     Max number of k-points (npk) =  40000
     Max angular momentum in pseudopotentials (lmaxx) =  3
     Presently no symmetry can be used with electric field

     Message from routine cell_base_init:
     DEPRECATED: use true lattice parameter, not A to a.u. conversion factor

     **************************************************************************
     Initializing libbeef V0.1.2 with the BEEF-vdW functional.
     Citation: Wellendorff et al., PRB 85, 235149 (2012).
     **************************************************************************


     IMPORTANT: XC functional enforced from input :
     Exchange-correlation= BEEF-VDW
                           (   1   4  43  14   2   0   0)
     Any further DFT definition will be discarded
     Please, verify this is what you really want


     Subspace diagonalization in iterative solution of the eigenvalue problem:
     one sub-group per band group will be used
     scalapack distributed-memory algorithm (size of sub-group:  4*  4 procs)

  @ DRIVER MODE: Connecting to 
 qe_1139763_2507389.sched-torque.pace.gatech.eduxo03po9m_scratch
  using UNIX socket
  @ DRIVER MODE: Message from server: STATUS
  @ DRIVER MODE: Message from server: INIT
  @ DRIVER MODE: Receiving replica           0          -1
  @ DRIVER MODE: Receiving encoded integer          25
  @ DRIVER MODE:  SCF:  T  FORCE:  T  STRESS:  F  VC:  F  ENSEMBLE:  F
  @ DRIVER MODE:  SCF:  T  FORCE:  T  STRESS:  F  VC:  F  ENSEMBLE:  F
 
     Parallelization info
     --------------------
     sticks:   dense  smooth     PW     G-vecs:    dense   smooth      PW
     Min        1062     425    112               171772    43439    5938
     Max        1063     426    113               171779    43444    5943
     Sum       17001    6805   1803              2748395   695069   95053
 
     Using Slab Decomposition
 


     bravais-lattice index     =            0
     lattice parameter (alat)  =       1.8897  a.u.
     unit-cell volume          =   32287.0036 (a.u.)^3
     number of atoms/cell      =            7
     number of atomic types    =            3
     number of electrons       =        14.00
     number of Kohn-Sham states=           17
     kinetic-energy cutoff     =      29.3995  Ry
     charge density cutoff     =     293.9946  Ry
     scf convergence threshold =      7.3E-08
     mixing beta               =       0.0500
     number of iterations used =            8  plain     mixing
     Exchange-correlation= BEEF-VDW
                           (   1   4  43  14   2   0   0)

     celldm(1)=   1.889726  celldm(2)=   0.000000  celldm(3)=   0.000000
     celldm(4)=   0.000000  celldm(5)=   0.000000  celldm(6)=   0.000000

     crystal axes: (cart. coord. in units of alat)
               a(1) = (  14.395730   0.000000   0.000000 )  
               a(2) = (   0.000000  14.141645   0.000000 )  
               a(3) = (   0.000000   0.000000  23.501605 )  

     reciprocal axes: (cart. coord. in units 2 pi/alat)
               b(1) = (  0.069465  0.000000  0.000000 )  
               b(2) = (  0.000000  0.070713  0.000000 )  
               b(3) = (  0.000000  0.000000  0.042550 )  


     PseudoPot. # 1 for N  read from file:
     /storage/coda1/p-amedford6/0/shared/rich_project_chbe-medford/medford-share/data/pseudos_module/espresso/nninc/pbe/van/N.UPF
     MD5 check sum: 90d10febe142ad51ac9d5be1deb811c4
     Pseudo is Ultrasoft, Zval =  5.0
     Generated by new atomic code, or converted to UPF format
     Using radial grid of  729 points,  4 beta functions with: 
                l(1) =   0
                l(2) =   0
                l(3) =   1
                l(4) =   1
     Q(r) pseudized with  8 coefficients,  rinner =    0.800   0.800   0.800


     PseudoPot. # 2 for C  read from file:
     /storage/coda1/p-amedford6/0/shared/rich_project_chbe-medford/medford-share/data/pseudos_module/espresso/nninc/pbe/van/C.UPF
     MD5 check sum: 1a69bf6b8db32088f5b2163dbdb77a27
     Pseudo is Ultrasoft, Zval =  4.0
     Generated by new atomic code, or converted to UPF format
     Using radial grid of  721 points,  4 beta functions with: 
                l(1) =   0
                l(2) =   0
                l(3) =   1
                l(4) =   1
     Q(r) pseudized with  8 coefficients,  rinner =    0.800   0.800   0.800


     PseudoPot. # 3 for H  read from file:
     /storage/coda1/p-amedford6/0/shared/rich_project_chbe-medford/medford-share/data/pseudos_module/espresso/nninc/pbe/van/H.UPF
     MD5 check sum: b5ee9d7bfd3a09ee7748110bda690ff7
     Pseudo is Ultrasoft, Zval =  1.0
     Generated by new atomic code, or converted to UPF format
     Using radial grid of  615 points,  1 beta functions with: 
                l(1) =   0
     Q(r) pseudized with  8 coefficients,  rinner =    0.800

     atomic species   valence    mass     pseudopotential
        N1             5.00    14.00700     N ( 1.00)
        C1             4.00    12.01100     C ( 1.00)
        H1             1.00     1.00800     H ( 1.00)

     Starting magnetic structure 
     atomic species   magnetization
        N1           0.120
        C1           0.150
        H1           0.000

     No symmetry found



   Cartesian axes

     site n.     atom                  positions (alat units)
         1           N1  tau(   1) = (   6.7511123   7.9556906  11.5580743  )
         2           C1  tau(   2) = (   7.6069274   6.8105383  11.8831450  )
         3           H1  tau(   3) = (   8.2039306   6.5521124  11.0085873  )
         4           H1  tau(   4) = (   8.2994094   7.0949983  12.6745064  )
         5           H1  tau(   5) = (   7.0721505   5.9187306  12.2051506  )
         6           H1  tau(   6) = (   6.0913834   7.7073417  10.8307834  )
         7           H1  tau(   7) = (   6.2003135   8.2288288  12.3635786  )

     number of k points=    10  Fermi-Dirac smearing, width (Ry)=  0.0073
                       cart. coord. in units 2pi/alat
        k(    1) = (   0.0000000   0.0000000   0.0000000), wk =   0.0625000
        k(    2) = (   0.0000000   0.0176783   0.0000000), wk =   0.1250000
        k(    3) = (   0.0000000  -0.0353566   0.0000000), wk =   0.0625000
        k(    4) = (   0.0173663   0.0000000   0.0000000), wk =   0.1250000
        k(    5) = (   0.0173663   0.0176783   0.0000000), wk =   0.1250000
        k(    6) = (   0.0173663  -0.0353566   0.0000000), wk =   0.1250000
        k(    7) = (   0.0173663  -0.0176783   0.0000000), wk =   0.1250000
        k(    8) = (  -0.0347325   0.0000000   0.0000000), wk =   0.0625000
        k(    9) = (  -0.0347325   0.0176783   0.0000000), wk =   0.1250000
        k(   10) = (  -0.0347325  -0.0353566   0.0000000), wk =   0.0625000

     Dense  grid:  2748395 G-vectors     FFT dimensions: ( 150, 150, 243)

     Smooth grid:   695069 G-vectors     FFT dimensions: (  96,  96, 160)

     Estimated max dynamical RAM per process >     353.72 MB

     Estimated total dynamical RAM >       5.53 GB
     Generating pointlists ...
     new r_m :   0.4178 (alat units)  0.7895 (a.u.) for type    1
     new r_m :   0.4490 (alat units)  0.8486 (a.u.) for type    2
     new r_m :   0.4178 (alat units)  0.7895 (a.u.) for type    3
     Cannot read rho : file not found

     Initial potential from superposition of free atoms

     starting charge   13.99991, renormalised to   14.00000

     negative rho (up, down):  6.387E-03 4.979E-03


     %%%%%%%%%%%%%%%%%%%%%%%%%%%%%%%%%%%%%%%%%%%%%%%%%%%%%%%%%%%%%%%%%%%%%%%%
     %                                                                      %
     % You are using vdW-DF, which was implemented by the Thonhauser group. %
     % Please cite the following two papers that made this development      %
     % possible and the two reviews that describe the various versions:     %
     %                                                                      %
     %   T. Thonhauser et al., PRL 115, 136402 (2015).                      %
     %   T. Thonhauser et al., PRB 76, 125112 (2007).                       %
     %   K. Berland et al., Rep. Prog. Phys. 78, 066501 (2015).             %
     %   D.C. Langreth et al., J. Phys.: Condens. Matter 21, 084203 (2009). %
     %                                                                      %
     %                                                                      %
     % If you are calculating the stress with vdW-DF, please also cite:     %
     %                                                                      %
     %   R. Sabatini et al., J. Phys.: Condens. Matter 24, 424209 (2012).   %
     %                                                                      %
     %%%%%%%%%%%%%%%%%%%%%%%%%%%%%%%%%%%%%%%%%%%%%%%%%%%%%%%%%%%%%%%%%%%%%%%%


 
     Adding external electric field

     Computed dipole along edir(3) : 
        Dipole                0.0000 Ry au,          0.0000 Debye
        Dipole field          0.0000 Ry au, 
 
        Potential amp.       -0.0000 Ry
        Total length         43.3013 bohr
 
 
     Adding external electric field

     Computed dipole along edir(3) : 
        Dipole                0.0000 Ry au,          0.0000 Debye
        Dipole field          0.0000 Ry au, 
 
        Potential amp.       -0.0000 Ry
        Total length         43.3013 bohr
 
     Starting wfcs are   13 atomic +    4 random wfcs
  @ DRIVER MODE: Message from server: STATUS
  @ DRIVER MODE: Message from server: POSDATA
  @ DRIVER MODE: Reading and sharing cell 
  @ DRIVER MODE: Reading and sharing positions 
  @ DRIVER MODE: Received positions 

     total cpu time spent up to now is       24.6 secs

     Self-consistent Calculation

     iteration #  1     ecut=    29.40 Ry     beta= 0.05
     Davidson diagonalization with overlap
     c_bands:  5 eigenvalues not converged
     c_bands:  5 eigenvalues not converged
     c_bands:  5 eigenvalues not converged
     c_bands:  1 eigenvalues not converged
     c_bands:  1 eigenvalues not converged
     c_bands:  5 eigenvalues not converged
     c_bands:  4 eigenvalues not converged
     c_bands:  3 eigenvalues not converged
     c_bands:  4 eigenvalues not converged
     c_bands:  3 eigenvalues not converged
     c_bands:  1 eigenvalues not converged
     c_bands:  3 eigenvalues not converged
     c_bands:  1 eigenvalues not converged
     c_bands:  4 eigenvalues not converged
     c_bands:  1 eigenvalues not converged
     c_bands:  4 eigenvalues not converged
     c_bands:  1 eigenvalues not converged
     c_bands:  5 eigenvalues not converged
     c_bands:  4 eigenvalues not converged
     c_bands:  2 eigenvalues not converged
     ethr =  1.00E-05,  avg # of iterations = 37.0

     negative rho (up, down):  5.352E-03 4.058E-03
 
     Adding external electric field

     Computed dipole along edir(3) : 
        Dipole                0.0126 Ry au,          0.0319 Debye
        Dipole field          0.0000 Ry au, 
 
        Potential amp.       -0.0004 Ry
        Total length         43.3013 bohr
 
 
     Adding external electric field

     Computed dipole along edir(3) : 
        Dipole                0.0126 Ry au,          0.0319 Debye
        Dipole field          0.0000 Ry au, 
 
        Potential amp.       -0.0004 Ry
        Total length         43.3013 bohr
 

     total cpu time spent up to now is      176.8 secs

     total energy              =     -37.97348917 Ry
     estimated scf accuracy    <       1.01832169 Ry

     total magnetization       =     0.00 Bohr mag/cell
     absolute magnetization    =     0.22 Bohr mag/cell

     iteration #  2     ecut=    29.40 Ry     beta= 0.05
     Davidson diagonalization with overlap
     ethr =  7.27E-03,  avg # of iterations =  1.0

     negative rho (up, down):  8.243E-03 6.991E-03
 
     Adding external electric field

     Computed dipole along edir(3) : 
        Dipole                0.1161 Ry au,          0.2952 Debye
        Dipole field          0.0000 Ry au, 
 
        Potential amp.       -0.0039 Ry
        Total length         43.3013 bohr
 
 
     Adding external electric field

     Computed dipole along edir(3) : 
        Dipole                0.1161 Ry au,          0.2952 Debye
        Dipole field          0.0000 Ry au, 
 
        Potential amp.       -0.0039 Ry
        Total length         43.3013 bohr
 

     total cpu time spent up to now is      207.3 secs

     total energy              =     -37.56220289 Ry
     estimated scf accuracy    <       0.82715285 Ry

     total magnetization       =    -0.00 Bohr mag/cell
     absolute magnetization    =     0.21 Bohr mag/cell

     iteration #  3     ecut=    29.40 Ry     beta= 0.05
     Davidson diagonalization with overlap
     ethr =  5.91E-03,  avg # of iterations =  2.1

     negative rho (up, down):  6.900E-03 5.795E-03
 
     Adding external electric field

     Computed dipole along edir(3) : 
        Dipole                0.0950 Ry au,          0.2415 Debye
        Dipole field          0.0000 Ry au, 
 
        Potential amp.       -0.0032 Ry
        Total length         43.3013 bohr
 
 
     Adding external electric field

     Computed dipole along edir(3) : 
        Dipole                0.0950 Ry au,          0.2415 Debye
        Dipole field          0.0000 Ry au, 
 
        Potential amp.       -0.0032 Ry
        Total length         43.3013 bohr
 

     total cpu time spent up to now is      225.9 secs

     total energy              =     -37.71041288 Ry
     estimated scf accuracy    <       0.07745138 Ry

     total magnetization       =     0.00 Bohr mag/cell
     absolute magnetization    =     0.15 Bohr mag/cell

     iteration #  4     ecut=    29.40 Ry     beta= 0.05
     Davidson diagonalization with overlap
     ethr =  5.53E-04,  avg # of iterations =  3.8

     negative rho (up, down):  1.338E-02 1.166E-02
 
     Adding external electric field

     Computed dipole along edir(3) : 
        Dipole                0.1267 Ry au,          0.3221 Debye
        Dipole field          0.0000 Ry au, 
 
        Potential amp.       -0.0043 Ry
        Total length         43.3013 bohr
 
 
     Adding external electric field

     Computed dipole along edir(3) : 
        Dipole                0.1267 Ry au,          0.3221 Debye
        Dipole field          0.0000 Ry au, 
 
        Potential amp.       -0.0043 Ry
        Total length         43.3013 bohr
 

     total cpu time spent up to now is      252.1 secs

     total energy              =     -37.69238327 Ry
     estimated scf accuracy    <       0.08235926 Ry

     total magnetization       =     0.00 Bohr mag/cell
     absolute magnetization    =     0.15 Bohr mag/cell

     iteration #  5     ecut=    29.40 Ry     beta= 0.05
     Davidson diagonalization with overlap
     ethr =  5.53E-04,  avg # of iterations =  5.1

     negative rho (up, down):  1.093E-02 9.563E-03
 
     Adding external electric field

     Computed dipole along edir(3) : 
        Dipole                0.1325 Ry au,          0.3369 Debye
        Dipole field          0.0001 Ry au, 
 
        Potential amp.       -0.0045 Ry
        Total length         43.3013 bohr
 
 
     Adding external electric field

     Computed dipole along edir(3) : 
        Dipole                0.1325 Ry au,          0.3369 Debye
        Dipole field          0.0001 Ry au, 
 
        Potential amp.       -0.0045 Ry
        Total length         43.3013 bohr
 

     total cpu time spent up to now is      277.1 secs

     total energy              =     -37.69358855 Ry
     estimated scf accuracy    <       0.01868096 Ry

     total magnetization       =     0.00 Bohr mag/cell
     absolute magnetization    =     0.07 Bohr mag/cell

     iteration #  6     ecut=    29.40 Ry     beta= 0.05
     Davidson diagonalization with overlap
     ethr =  1.33E-04,  avg # of iterations =  6.8

     negative rho (up, down):  1.069E-02 9.446E-03
 
     Adding external electric field

     Computed dipole along edir(3) : 
        Dipole                0.1405 Ry au,          0.3572 Debye
        Dipole field          0.0001 Ry au, 
 
        Potential amp.       -0.0047 Ry
        Total length         43.3013 bohr
 
 
     Adding external electric field

     Computed dipole along edir(3) : 
        Dipole                0.1405 Ry au,          0.3572 Debye
        Dipole field          0.0001 Ry au, 
 
        Potential amp.       -0.0047 Ry
        Total length         43.3013 bohr
 

     total cpu time spent up to now is      313.2 secs

     total energy              =     -37.69670700 Ry
     estimated scf accuracy    <       0.00388255 Ry

     total magnetization       =     0.00 Bohr mag/cell
     absolute magnetization    =     0.08 Bohr mag/cell

     iteration #  7     ecut=    29.40 Ry     beta= 0.05
     Davidson diagonalization with overlap
     ethr =  2.77E-05,  avg # of iterations = 10.3

     negative rho (up, down):  1.134E-02 1.006E-02
 
     Adding external electric field

     Computed dipole along edir(3) : 
        Dipole                0.1451 Ry au,          0.3689 Debye
        Dipole field          0.0001 Ry au, 
 
        Potential amp.       -0.0049 Ry
        Total length         43.3013 bohr
 
 
     Adding external electric field

     Computed dipole along edir(3) : 
        Dipole                0.1451 Ry au,          0.3689 Debye
        Dipole field          0.0001 Ry au, 
 
        Potential amp.       -0.0049 Ry
        Total length         43.3013 bohr
 

     total cpu time spent up to now is      383.8 secs

     total energy              =     -37.69678688 Ry
     estimated scf accuracy    <       0.00214995 Ry

     total magnetization       =     0.00 Bohr mag/cell
     absolute magnetization    =     0.06 Bohr mag/cell

     iteration #  8     ecut=    29.40 Ry     beta= 0.05
     Davidson diagonalization with overlap
     ethr =  1.54E-05,  avg # of iterations =  3.5

     negative rho (up, down):  1.066E-02 9.536E-03
 
     Adding external electric field

     Computed dipole along edir(3) : 
        Dipole                0.1427 Ry au,          0.3627 Debye
        Dipole field          0.0001 Ry au, 
 
        Potential amp.       -0.0048 Ry
        Total length         43.3013 bohr
 
 
     Adding external electric field

     Computed dipole along edir(3) : 
        Dipole                0.1427 Ry au,          0.3627 Debye
        Dipole field          0.0001 Ry au, 
 
        Potential amp.       -0.0048 Ry
        Total length         43.3013 bohr
 

     total cpu time spent up to now is      402.7 secs

     total energy              =     -37.69705178 Ry
     estimated scf accuracy    <       0.00023997 Ry

     total magnetization       =     0.00 Bohr mag/cell
     absolute magnetization    =     0.05 Bohr mag/cell

     iteration #  9     ecut=    29.40 Ry     beta= 0.05
     Davidson diagonalization with overlap
     c_bands:  1 eigenvalues not converged
     c_bands:  1 eigenvalues not converged
     c_bands:  1 eigenvalues not converged
     c_bands:  2 eigenvalues not converged
     c_bands:  1 eigenvalues not converged
     c_bands:  1 eigenvalues not converged
     c_bands:  1 eigenvalues not converged
     c_bands:  1 eigenvalues not converged
     ethr =  1.71E-06,  avg # of iterations = 15.6

     negative rho (up, down):  1.075E-02 9.717E-03
 
     Adding external electric field

     Computed dipole along edir(3) : 
        Dipole                0.1492 Ry au,          0.3792 Debye
        Dipole field          0.0001 Ry au, 
 
        Potential amp.       -0.0050 Ry
        Total length         43.3013 bohr
 
 
     Adding external electric field

     Computed dipole along edir(3) : 
        Dipole                0.1492 Ry au,          0.3792 Debye
        Dipole field          0.0001 Ry au, 
 
        Potential amp.       -0.0050 Ry
        Total length         43.3013 bohr
 

     total cpu time spent up to now is      447.6 secs

     total energy              =     -37.69701889 Ry
     estimated scf accuracy    <       0.00067816 Ry

     total magnetization       =     0.00 Bohr mag/cell
     absolute magnetization    =     0.04 Bohr mag/cell

     iteration # 10     ecut=    29.40 Ry     beta= 0.05
     Davidson diagonalization with overlap
     c_bands:  1 eigenvalues not converged
     c_bands:  1 eigenvalues not converged
     c_bands:  1 eigenvalues not converged
     ethr =  1.71E-06,  avg # of iterations =  5.2

     negative rho (up, down):  1.024E-02 9.313E-03
 
     Adding external electric field

     Computed dipole along edir(3) : 
        Dipole                0.1496 Ry au,          0.3804 Debye
        Dipole field          0.0001 Ry au, 
 
        Potential amp.       -0.0050 Ry
        Total length         43.3013 bohr
 
 
     Adding external electric field

     Computed dipole along edir(3) : 
        Dipole                0.1496 Ry au,          0.3804 Debye
        Dipole field          0.0001 Ry au, 
 
        Potential amp.       -0.0050 Ry
        Total length         43.3013 bohr
 

     total cpu time spent up to now is      475.3 secs

     total energy              =     -37.69712810 Ry
     estimated scf accuracy    <       0.00004416 Ry

     total magnetization       =     0.00 Bohr mag/cell
     absolute magnetization    =     0.02 Bohr mag/cell

     iteration # 11     ecut=    29.40 Ry     beta= 0.05
     Davidson diagonalization with overlap
     ethr =  3.15E-07,  avg # of iterations =  2.9

     negative rho (up, down):  9.730E-03 9.002E-03
 
     Adding external electric field

     Computed dipole along edir(3) : 
        Dipole                0.1498 Ry au,          0.3809 Debye
        Dipole field          0.0001 Ry au, 
 
        Potential amp.       -0.0051 Ry
        Total length         43.3013 bohr
 
 
     Adding external electric field

     Computed dipole along edir(3) : 
        Dipole                0.1498 Ry au,          0.3809 Debye
        Dipole field          0.0001 Ry au, 
 
        Potential amp.       -0.0051 Ry
        Total length         43.3013 bohr
 

     total cpu time spent up to now is      521.0 secs

     total energy              =     -37.69714613 Ry
     estimated scf accuracy    <       0.00004920 Ry

     total magnetization       =     0.00 Bohr mag/cell
     absolute magnetization    =     0.02 Bohr mag/cell

     iteration # 12     ecut=    29.40 Ry     beta= 0.05
     Davidson diagonalization with overlap
     ethr =  3.15E-07,  avg # of iterations =  2.5

     negative rho (up, down):  9.357E-03 8.713E-03
 
     Adding external electric field

     Computed dipole along edir(3) : 
        Dipole                0.1493 Ry au,          0.3794 Debye
        Dipole field          0.0001 Ry au, 
 
        Potential amp.       -0.0050 Ry
        Total length         43.3013 bohr
 
 
     Adding external electric field

     Computed dipole along edir(3) : 
        Dipole                0.1493 Ry au,          0.3794 Debye
        Dipole field          0.0001 Ry au, 
 
        Potential amp.       -0.0050 Ry
        Total length         43.3013 bohr
 

     total cpu time spent up to now is      543.0 secs

     total energy              =     -37.69715187 Ry
     estimated scf accuracy    <       0.00004408 Ry

     total magnetization       =     0.00 Bohr mag/cell
     absolute magnetization    =     0.01 Bohr mag/cell

     iteration # 13     ecut=    29.40 Ry     beta= 0.05
     Davidson diagonalization with overlap
     ethr =  3.15E-07,  avg # of iterations =  2.0

     negative rho (up, down):  9.021E-03 8.466E-03
 
     Adding external electric field

     Computed dipole along edir(3) : 
        Dipole                0.1494 Ry au,          0.3798 Debye
        Dipole field          0.0001 Ry au, 
 
        Potential amp.       -0.0050 Ry
        Total length         43.3013 bohr
 
 
     Adding external electric field

     Computed dipole along edir(3) : 
        Dipole                0.1494 Ry au,          0.3798 Debye
        Dipole field          0.0001 Ry au, 
 
        Potential amp.       -0.0050 Ry
        Total length         43.3013 bohr
 

     total cpu time spent up to now is      562.1 secs

     total energy              =     -37.69716290 Ry
     estimated scf accuracy    <       0.00000189 Ry

     total magnetization       =     0.00 Bohr mag/cell
     absolute magnetization    =     0.01 Bohr mag/cell

     iteration # 14     ecut=    29.40 Ry     beta= 0.05
     Davidson diagonalization with overlap
     ethr =  1.35E-08,  avg # of iterations =  2.0

     negative rho (up, down):  8.716E-03 8.271E-03
 
     Adding external electric field

     Computed dipole along edir(3) : 
        Dipole                0.1488 Ry au,          0.3782 Debye
        Dipole field          0.0001 Ry au, 
 
        Potential amp.       -0.0050 Ry
        Total length         43.3013 bohr
 
 
     Adding external electric field

     Computed dipole along edir(3) : 
        Dipole                0.1488 Ry au,          0.3782 Debye
        Dipole field          0.0001 Ry au, 
 
        Potential amp.       -0.0050 Ry
        Total length         43.3013 bohr
 

     total cpu time spent up to now is      612.6 secs

     total energy              =     -37.69716627 Ry
     estimated scf accuracy    <       0.00000420 Ry

     total magnetization       =     0.00 Bohr mag/cell
     absolute magnetization    =     0.01 Bohr mag/cell

     iteration # 15     ecut=    29.40 Ry     beta= 0.05
     Davidson diagonalization with overlap
     ethr =  1.35E-08,  avg # of iterations =  2.5

     negative rho (up, down):  8.478E-03 8.133E-03
 
     Adding external electric field

     Computed dipole along edir(3) : 
        Dipole                0.1485 Ry au,          0.3774 Debye
        Dipole field          0.0001 Ry au, 
 
        Potential amp.       -0.0050 Ry
        Total length         43.3013 bohr
 
 
     Adding external electric field

     Computed dipole along edir(3) : 
        Dipole                0.1485 Ry au,          0.3774 Debye
        Dipole field          0.0001 Ry au, 
 
        Potential amp.       -0.0050 Ry
        Total length         43.3013 bohr
 

     total cpu time spent up to now is      626.4 secs

     total energy              =     -37.69717106 Ry
     estimated scf accuracy    <       0.00000058 Ry

     total magnetization       =     0.00 Bohr mag/cell
     absolute magnetization    =     0.00 Bohr mag/cell

     iteration # 16     ecut=    29.40 Ry     beta= 0.05
     Davidson diagonalization with overlap
     ethr =  4.14E-09,  avg # of iterations =  2.5

     negative rho (up, down):  8.309E-03 8.041E-03
 
     Adding external electric field

     Computed dipole along edir(3) : 
        Dipole                0.1484 Ry au,          0.3773 Debye
        Dipole field          0.0001 Ry au, 
 
        Potential amp.       -0.0050 Ry
        Total length         43.3013 bohr
 
 
     Adding external electric field

     Computed dipole along edir(3) : 
        Dipole                0.1484 Ry au,          0.3773 Debye
        Dipole field          0.0001 Ry au, 
 
        Potential amp.       -0.0050 Ry
        Total length         43.3013 bohr
 

     total cpu time spent up to now is      672.9 secs

     total energy              =     -37.69717502 Ry
     estimated scf accuracy    <       0.00000163 Ry

     total magnetization       =     0.00 Bohr mag/cell
     absolute magnetization    =     0.00 Bohr mag/cell

     iteration # 17     ecut=    29.40 Ry     beta= 0.05
     Davidson diagonalization with overlap
     ethr =  4.14E-09,  avg # of iterations =  1.0

     negative rho (up, down):  8.179E-03 7.983E-03
 
     Adding external electric field

     Computed dipole along edir(3) : 
        Dipole                0.1487 Ry au,          0.3781 Debye
        Dipole field          0.0001 Ry au, 
 
        Potential amp.       -0.0050 Ry
        Total length         43.3013 bohr
 
 
     Adding external electric field

     Computed dipole along edir(3) : 
        Dipole                0.1487 Ry au,          0.3781 Debye
        Dipole field          0.0001 Ry au, 
 
        Potential amp.       -0.0050 Ry
        Total length         43.3013 bohr
 

     total cpu time spent up to now is      696.9 secs

     total energy              =     -37.69718012 Ry
     estimated scf accuracy    <       0.00000173 Ry

     total magnetization       =    -0.00 Bohr mag/cell
     absolute magnetization    =     0.00 Bohr mag/cell

     iteration # 18     ecut=    29.40 Ry     beta= 0.05
     Davidson diagonalization with overlap
     ethr =  4.14E-09,  avg # of iterations =  2.0

     negative rho (up, down):  8.098E-03 7.968E-03
 
     Adding external electric field

     Computed dipole along edir(3) : 
        Dipole                0.1489 Ry au,          0.3784 Debye
        Dipole field          0.0001 Ry au, 
 
        Potential amp.       -0.0050 Ry
        Total length         43.3013 bohr
 
 
     Adding external electric field

     Computed dipole along edir(3) : 
        Dipole                0.1489 Ry au,          0.3784 Debye
        Dipole field          0.0001 Ry au, 
 
        Potential amp.       -0.0050 Ry
        Total length         43.3013 bohr
 

     total cpu time spent up to now is      723.9 secs

     total energy              =     -37.69718701 Ry
     estimated scf accuracy    <       0.00000029 Ry

     total magnetization       =     0.00 Bohr mag/cell
     absolute magnetization    =     0.00 Bohr mag/cell

     iteration # 19     ecut=    29.40 Ry     beta= 0.05
     Davidson diagonalization with overlap
     ethr =  2.09E-09,  avg # of iterations =  2.0

     negative rho (up, down):  1.249E-02 1.249E-02
 
     Adding external electric field

     Computed dipole along edir(3) : 
        Dipole                0.1490 Ry au,          0.3788 Debye
        Dipole field          0.0001 Ry au, 
 
        Potential amp.       -0.0050 Ry
        Total length         43.3013 bohr
 
 
     Adding external electric field

     Computed dipole along edir(3) : 
        Dipole                0.1490 Ry au,          0.3788 Debye
        Dipole field          0.0001 Ry au, 
 
        Potential amp.       -0.0050 Ry
        Total length         43.3013 bohr
 
 
     Magnetic moment per site  (integrated on atomic sphere of radius R)
     atom   1 (R=0.418)  charge=  1.3244  magn=  0.0000
     atom   2 (R=0.449)  charge=  0.8465  magn=  0.0000
     atom   3 (R=0.418)  charge=  0.4435  magn= -0.0000
     atom   4 (R=0.418)  charge=  0.4432  magn= -0.0000
     atom   5 (R=0.418)  charge=  0.4474  magn= -0.0000
     atom   6 (R=0.418)  charge=  0.4570  magn= -0.0000
     atom   7 (R=0.418)  charge=  0.4562  magn= -0.0000

     total cpu time spent up to now is      753.5 secs

     End of self-consistent calculation

 ------ SPIN UP ------------


          k = 0.0000 0.0000 0.0000 ( 86913 PWs)   bands (ev):

   -22.0472 -16.5481 -12.2635 -10.9959 -10.0472  -9.1709  -5.6889  -1.0514
    -0.3991  -0.2997  -0.2935  -0.0046   0.0587   0.2020   0.2557   0.3976
     0.4270

          k = 0.0000 0.0177 0.0000 ( 86920 PWs)   bands (ev):

   -22.0472 -16.5481 -12.2635 -10.9959 -10.0472  -9.1710  -5.6889  -1.0428
    -0.4152  -0.2869  -0.2513  -0.0772   0.1002   0.1242   0.1712   0.3693
     0.3977

          k = 0.0000-0.0354 0.0000 ( 86898 PWs)   bands (ev):

   -22.0472 -16.5481 -12.2635 -10.9959 -10.0472  -9.1709  -5.6889  -1.0336
    -0.4427  -0.2495  -0.1657  -0.1228  -0.0048   0.0176   0.2173   0.3415
     0.3739

          k = 0.0174 0.0000 0.0000 ( 86911 PWs)   bands (ev):

   -22.0472 -16.5481 -12.2635 -10.9959 -10.0472  -9.1709  -5.6889  -1.0430
    -0.4312  -0.2760  -0.2532  -0.0513   0.0844   0.1176   0.1679   0.3504
     0.3982

          k = 0.0174 0.0177 0.0000 ( 86907 PWs)   bands (ev):

   -22.0472 -16.5481 -12.2635 -10.9959 -10.0472  -9.1709  -5.6889  -1.0349
    -0.4199  -0.2811  -0.2321  -0.0999   0.1060   0.1383   0.1591   0.2496
     0.2826

          k = 0.0174-0.0354 0.0000 ( 86970 PWs)   bands (ev):

   -22.0472 -16.5481 -12.2635 -10.9959 -10.0472  -9.1710  -5.6889  -1.0265
    -0.4423  -0.2423  -0.1659  -0.0783  -0.0063   0.0616   0.1212   0.2452
     0.2783

          k = 0.0174-0.0177 0.0000 ( 86907 PWs)   bands (ev):

   -22.0472 -16.5481 -12.2635 -10.9959 -10.0472  -9.1710  -5.6889  -1.0351
    -0.4418  -0.2485  -0.2025  -0.1049   0.0726   0.1151   0.2008   0.2187
     0.2665

          k =-0.0347 0.0000 0.0000 ( 86830 PWs)   bands (ev):

   -22.0472 -16.5480 -12.2635 -10.9959 -10.0472  -9.1709  -5.6889  -1.0340
    -0.4672  -0.2193  -0.1645  -0.1284  -0.0026   0.0111   0.2303   0.3218
     0.3899

          k =-0.0347 0.0177 0.0000 ( 86940 PWs)   bands (ev):

   -22.0472 -16.5481 -12.2635 -10.9959 -10.0472  -9.1710  -5.6889  -1.0267
    -0.4566  -0.2082  -0.1781  -0.0840  -0.0098   0.0446   0.1220   0.2694
     0.2890

          k =-0.0347-0.0354 0.0000 ( 86924 PWs)   bands (ev):

   -22.0472 -16.5481 -12.2635 -10.9959 -10.0472  -9.1710  -5.6889  -1.0190
    -0.4511  -0.2128  -0.1356  -0.0722   0.0435   0.0665   0.1232   0.1579
     0.1868

 ------ SPIN DOWN ----------


          k = 0.0000 0.0000 0.0000 ( 86913 PWs)   bands (ev):

   -22.0474 -16.5480 -12.2635 -10.9961 -10.0473  -9.1710  -5.6892  -1.0509
    -0.3987  -0.2991  -0.2929  -0.0041   0.0592   0.2026   0.2565   0.3979
     0.4264

          k = 0.0000 0.0177 0.0000 ( 86920 PWs)   bands (ev):

   -22.0474 -16.5481 -12.2635 -10.9961 -10.0473  -9.1710  -5.6892  -1.0423
    -0.4148  -0.2863  -0.2506  -0.0767   0.1007   0.1248   0.1717   0.3701
     0.3990

          k = 0.0000-0.0354 0.0000 ( 86898 PWs)   bands (ev):

   -22.0474 -16.5481 -12.2635 -10.9961 -10.0473  -9.1710  -5.6892  -1.0331
    -0.4423  -0.2489  -0.1651  -0.1222  -0.0042   0.0182   0.2179   0.3414
     0.3756

          k = 0.0174 0.0000 0.0000 ( 86911 PWs)   bands (ev):

   -22.0474 -16.5480 -12.2635 -10.9961 -10.0473  -9.1710  -5.6892  -1.0425
    -0.4308  -0.2753  -0.2526  -0.0507   0.0850   0.1182   0.1684   0.3511
     0.3991

          k = 0.0174 0.0177 0.0000 ( 86907 PWs)   bands (ev):

   -22.0474 -16.5481 -12.2635 -10.9961 -10.0473  -9.1710  -5.6892  -1.0345
    -0.4196  -0.2805  -0.2315  -0.0993   0.1066   0.1389   0.1597   0.2500
     0.2831

          k = 0.0174-0.0354 0.0000 ( 86970 PWs)   bands (ev):

   -22.0474 -16.5481 -12.2635 -10.9961 -10.0473  -9.1710  -5.6893  -1.0260
    -0.4420  -0.2417  -0.1653  -0.0778  -0.0058   0.0623   0.1217   0.2461
     0.2791

          k = 0.0174-0.0177 0.0000 ( 86907 PWs)   bands (ev):

   -22.0474 -16.5481 -12.2635 -10.9961 -10.0473  -9.1710  -5.6892  -1.0346
    -0.4414  -0.2478  -0.2019  -0.1044   0.0732   0.1158   0.2016   0.2197
     0.2675

          k =-0.0347 0.0000 0.0000 ( 86830 PWs)   bands (ev):

   -22.0474 -16.5480 -12.2635 -10.9961 -10.0473  -9.1709  -5.6892  -1.0335
    -0.4668  -0.2186  -0.1639  -0.1278  -0.0020   0.0116   0.2309   0.3225
     0.3913

          k =-0.0347 0.0177 0.0000 ( 86940 PWs)   bands (ev):

   -22.0474 -16.5481 -12.2636 -10.9961 -10.0473  -9.1710  -5.6892  -1.0262
    -0.4563  -0.2076  -0.1775  -0.0834  -0.0092   0.0453   0.1226   0.2704
     0.2895

          k =-0.0347-0.0354 0.0000 ( 86924 PWs)   bands (ev):

   -22.0474 -16.5481 -12.2636 -10.9961 -10.0473  -9.1710  -5.6892  -1.0185
    -0.4508  -0.2122  -0.1349  -0.0714   0.0446   0.0674   0.1231   0.1580
     0.1861

     the Fermi energy is    -3.3532 ev

!    total energy              =     -37.69721263 Ry
     estimated scf accuracy    <       0.00000007 Ry
     smearing contrib. (-TS)   =      -0.00000000 Ry
     internal energy E=F+TS    =     -37.69721263 Ry

     The total energy is F=E-TS. E is the sum of the following terms:
     one-electron contribution =    -128.37116834 Ry
     hartree contribution      =      66.01364671 Ry
     xc contribution           =     -12.74653926 Ry
     ewald contribution        =      37.40683962 Ry
     electric field correction =       0.00000864 Ry

     total magnetization       =     0.00 Bohr mag/cell
     absolute magnetization    =     0.00 Bohr mag/cell

     convergence has been achieved in  19 iterations

     Forces acting on atoms (cartesian axes, Ry/au):

     atom    1 type  1   force =     0.00079348    0.00174089   -0.00017447
     atom    2 type  2   force =     0.00436160    0.00714392   -0.00282066
     atom    3 type  3   force =    -0.00030632   -0.00015789   -0.00020817
     atom    4 type  3   force =     0.00023502    0.00045278    0.00061292
     atom    5 type  3   force =    -0.00403489   -0.00932713    0.00326246
     atom    6 type  3   force =    -0.00090190    0.00014007   -0.00141487
     atom    7 type  3   force =    -0.00014700    0.00000736    0.00074278

     Total force =     0.014136     Total SCF correction =     0.000289
  @ DRIVER MODE: Message from server: STATUS
  @ DRIVER MODE: Message from server: GETFORCE
  @ DRIVER MODE: Returning v,forces,stress,ensemble 

     Writing output data file ./calc.save/
  @ DRIVER MODE: Message from server: EXIT
  @ DRIVE MODE: Exiting  
 
     init_run     :     22.80s CPU     24.31s WALL (       1 calls)
     electrons    :    670.26s CPU    728.99s WALL (       1 calls)
     forces       :      1.85s CPU      1.92s WALL (       1 calls)

     Called by init_run:
     wfcinit      :     13.32s CPU     14.45s WALL (       1 calls)
     potinit      :      7.51s CPU      7.66s WALL (       1 calls)
     hinit0       :      0.50s CPU      0.52s WALL (       1 calls)

     Called by electrons:
     c_bands      :    540.72s CPU    586.78s WALL (      19 calls)
     sum_band     :     39.20s CPU     41.95s WALL (      19 calls)
     v_of_rho     :     80.01s CPU     87.02s WALL (      20 calls)
     newd         :      7.33s CPU      9.40s WALL (      20 calls)
     mix_rho      :      7.10s CPU      7.85s WALL (      19 calls)
     vdW_kernel   :      3.07s CPU      3.08s WALL (       1 calls)

     Called by c_bands:
     init_us_2    :      0.99s CPU      1.01s WALL (     800 calls)
     cegterg      :    537.98s CPU    583.69s WALL (     397 calls)

     Called by *egterg:
     cdiaghg      :    215.59s CPU    233.28s WALL (    2573 calls)
     h_psi        :    136.19s CPU    143.26s WALL (    2610 calls)
     s_psi        :      1.18s CPU      1.20s WALL (    2610 calls)
     g_psi        :      0.35s CPU      0.35s WALL (    2193 calls)

     Called by h_psi:
     h_psi:calbec :     10.32s CPU     11.65s WALL (    2610 calls)
     vloc_psi     :    123.55s CPU    129.27s WALL (    2610 calls)
     add_vuspsi   :      1.81s CPU      1.83s WALL (    2610 calls)

     General routines
     calbec       :     13.07s CPU     14.71s WALL (    3070 calls)
     fft          :     60.80s CPU     64.24s WALL (    1777 calls)
     ffts         :      0.57s CPU      0.57s WALL (      78 calls)
     fftw         :    136.06s CPU    142.90s WALL (   53590 calls)
     interpolate  :      1.73s CPU      1.81s WALL (      40 calls)
     davcio       :      0.00s CPU      0.10s WALL (      20 calls)
 
     Parallel routines
 
     PWSCF        :  11m36.05s CPU  12m36.68s WALL

 
   This run was terminated on:  21: 8:53   5Aug2021            

=------------------------------------------------------------------------------=
   JOB DONE.
=------------------------------------------------------------------------------=
