
     Program PWSCF v.6.7GPU starts on 17Jul2021 at  9:32:42 

     This program is part of the open-source Quantum ESPRESSO suite
     for quantum simulation of materials; please cite
         "P. Giannozzi et al., J. Phys.:Condens. Matter 21 395502 (2009);
         "P. Giannozzi et al., J. Phys.:Condens. Matter 29 465901 (2017);
         "P. Giannozzi et al., J. Chem. Phys. 152 154105 (2020);
          URL http://www.quantum-espresso.org", 
     in publications or presentations arising from this work. More details at
     http://www.quantum-espresso.org/quote

     Parallel version (MPI), running on    16 processors

     MPI processes distributed on     1 nodes
     R & G space division:  proc/nbgrp/npool/nimage =      16
     Reading input from /storage/home/hcoda1/3/ntian30/research/carbon/15Jul_vib/ads_slab/CH3NNHHH_a/out_0050/pw.inp
Warning: card &CELL ignored
Warning: card   CELL_DYNAMICS='IPI', ignored
Warning: card / ignored

     Current dimensions of program PWSCF are:
     Max number of different atomic species (ntypx) = 10
     Max number of k-points (npk) =  40000
     Max angular momentum in pseudopotentials (lmaxx) =  3
     Presently no symmetry can be used with electric field

     Message from routine cell_base_init:
     DEPRECATED: use true lattice parameter, not A to a.u. conversion factor

     **************************************************************************
     Initializing libbeef V0.1.2 with the BEEF-vdW functional.
     Citation: Wellendorff et al., PRB 85, 235149 (2012).
     **************************************************************************


     IMPORTANT: XC functional enforced from input :
     Exchange-correlation= BEEF-VDW
                           (   1   4  43  14   2   0   0)
     Any further DFT definition will be discarded
     Please, verify this is what you really want


     Subspace diagonalization in iterative solution of the eigenvalue problem:
     one sub-group per band group will be used
     scalapack distributed-memory algorithm (size of sub-group:  4*  4 procs)

  @ DRIVER MODE: Connecting to 
 qe_1139763_2351652.sched-torque.pace.gatech.eduk05wf3lp_scratch
  using UNIX socket
  @ DRIVER MODE: Message from server: STATUS
  @ DRIVER MODE: Message from server: INIT
  @ DRIVER MODE: Receiving replica           0          -1
  @ DRIVER MODE: Receiving encoded integer          25
  @ DRIVER MODE:  SCF:  T  FORCE:  T  STRESS:  F  VC:  F  ENSEMBLE:  F
  @ DRIVER MODE:  SCF:  T  FORCE:  T  STRESS:  F  VC:  F  ENSEMBLE:  F
 
     Parallelization info
     --------------------
     sticks:   dense  smooth     PW     G-vecs:    dense   smooth      PW
     Min         204      82     23                35422     8962    1367
     Max         205      84     24                35435     8968    1382
     Sum        3275    1317    379               566857   143421   21985
 
     Using Slab Decomposition
 


     bravais-lattice index     =            0
     lattice parameter (alat)  =       1.8897  a.u.
     unit-cell volume          =    6658.9804 (a.u.)^3
     number of atoms/cell      =           56
     number of atomic types    =            5
     number of electrons       =       398.00
     number of Kohn-Sham states=          209
     kinetic-energy cutoff     =      29.3995  Ry
     charge density cutoff     =     293.9946  Ry
     scf convergence threshold =      7.3E-08
     mixing beta               =       0.0500
     number of iterations used =            8  plain     mixing
     Exchange-correlation= BEEF-VDW
                           (   1   4  43  14   2   0   0)

     celldm(1)=   1.889726  celldm(2)=   0.000000  celldm(3)=   0.000000
     celldm(4)=   0.000000  celldm(5)=   0.000000  celldm(6)=   0.000000

     crystal axes: (cart. coord. in units of alat)
               a(1) = (   6.579727   0.000000   0.000000 )  
               a(2) = (  -0.000775   5.961596   0.000000 )  
               a(3) = (   0.000000   0.000000  25.155947 )  

     reciprocal axes: (cart. coord. in units 2 pi/alat)
               b(1) = (  0.151982  0.000020  0.000000 )  
               b(2) = (  0.000000  0.167740  0.000000 )  
               b(3) = (  0.000000  0.000000  0.039752 )  


     PseudoPot. # 1 for Ti read from file:
     /storage/coda1/p-amedford6/0/shared/rich_project_chbe-medford/medford-share/data/pseudos_module/espresso/nninc/pbe/van/Ti.UPF
     MD5 check sum: 8e4df49b7f0d34bbd5052bf3f5ea0213
     Pseudo is Ultrasoft, Zval = 12.0
     Generated by new atomic code, or converted to UPF format
     Using radial grid of  851 points,  6 beta functions with: 
                l(1) =   0
                l(2) =   0
                l(3) =   1
                l(4) =   1
                l(5) =   2
                l(6) =   2
     Q(r) pseudized with  8 coefficients,  rinner =    1.000   1.000   1.000
                                                       1.000   1.000

     PseudoPot. # 2 for O  read from file:
     /storage/coda1/p-amedford6/0/shared/rich_project_chbe-medford/medford-share/data/pseudos_module/espresso/nninc/pbe/van/O.UPF
     MD5 check sum: 78c19812648e8988a0fe644b0f25305e
     Pseudo is Ultrasoft, Zval =  6.0
     Generated by new atomic code, or converted to UPF format
     Using radial grid of  737 points,  4 beta functions with: 
                l(1) =   0
                l(2) =   0
                l(3) =   1
                l(4) =   1
     Q(r) pseudized with  8 coefficients,  rinner =    0.800   0.800   0.800


     PseudoPot. # 3 for N  read from file:
     /storage/coda1/p-amedford6/0/shared/rich_project_chbe-medford/medford-share/data/pseudos_module/espresso/nninc/pbe/van/N.UPF
     MD5 check sum: 90d10febe142ad51ac9d5be1deb811c4
     Pseudo is Ultrasoft, Zval =  5.0
     Generated by new atomic code, or converted to UPF format
     Using radial grid of  729 points,  4 beta functions with: 
                l(1) =   0
                l(2) =   0
                l(3) =   1
                l(4) =   1
     Q(r) pseudized with  8 coefficients,  rinner =    0.800   0.800   0.800


     PseudoPot. # 4 for C  read from file:
     /storage/coda1/p-amedford6/0/shared/rich_project_chbe-medford/medford-share/data/pseudos_module/espresso/nninc/pbe/van/C.UPF
     MD5 check sum: 1a69bf6b8db32088f5b2163dbdb77a27
     Pseudo is Ultrasoft, Zval =  4.0
     Generated by new atomic code, or converted to UPF format
     Using radial grid of  721 points,  4 beta functions with: 
                l(1) =   0
                l(2) =   0
                l(3) =   1
                l(4) =   1
     Q(r) pseudized with  8 coefficients,  rinner =    0.800   0.800   0.800


     PseudoPot. # 5 for H  read from file:
     /storage/coda1/p-amedford6/0/shared/rich_project_chbe-medford/medford-share/data/pseudos_module/espresso/nninc/pbe/van/H.UPF
     MD5 check sum: b5ee9d7bfd3a09ee7748110bda690ff7
     Pseudo is Ultrasoft, Zval =  1.0
     Generated by new atomic code, or converted to UPF format
     Using radial grid of  615 points,  1 beta functions with: 
                l(1) =   0
     Q(r) pseudized with  8 coefficients,  rinner =    0.800

     atomic species   valence    mass     pseudopotential
        Ti1           12.00    47.86700     Ti( 1.00)
        O1             6.00    15.99900     O ( 1.00)
        N1             5.00    14.00700     N ( 1.00)
        C1             4.00    12.01100     C ( 1.00)
        H1             1.00     1.00800     H ( 1.00)

     Starting magnetic structure 
     atomic species   magnetization
        Ti1          0.000
        O1           0.000
        N1           0.000
        C1           0.025
        H1           0.000

     No symmetry found



   Cartesian axes

     site n.     atom                  positions (alat units)
         1           Ti1 tau(   1) = (   0.0004258   2.9801865   6.0000000  )
         2           Ti1 tau(   2) = (   3.2906075   1.4906267   6.0002472  )
         3           O1  tau(   3) = (   0.0006271   0.0005054   7.9858123  )
         4           O1  tau(   4) = (   3.2906025   0.0005020   7.3038282  )
         5           O1  tau(   5) = (   4.5942328   1.4918067   9.2879030  )
         6           O1  tau(   6) = (   1.9868534   1.4903216   9.2879459  )
         7           Ti1 tau(   7) = (   3.2907910   2.8959150   9.1758416  )
         8           Ti1 tau(   8) = (   0.0015273   1.4827037   9.2680791  )
         9           O1  tau(   9) = (   3.2969863   5.9453513  11.3493076  )
        10           O1  tau(  10) = (   0.0116148   5.9584955  10.6183126  )
        11           O1  tau(  11) = (   1.3059050   1.4736943  12.6642453  )
        12           O1  tau(  12) = (   5.3003793   1.4775083  12.6459419  )
        13           Ti1 tau(  13) = (   0.0167275   2.9625105  12.5508078  )
        14           Ti1 tau(  14) = (   3.3131340   1.4712512  12.4909780  )
        15           O1  tau(  15) = (   6.5517612   5.9325698  14.7566896  )
        16           O1  tau(  16) = (   3.3302114   5.9429442  13.9823395  )
        17           O1  tau(  17) = (   4.5243935   1.5056208  16.2316672  )
        18           O1  tau(  18) = (   2.0170937   1.4633510  16.1378485  )
        19           Ti1 tau(  19) = (   3.2500237   2.9242626  15.6920970  )
        20           Ti1 tau(  20) = (   6.5441017   1.2779805  16.1516014  )
        21           O1  tau(  21) = (   3.2904802   0.0005063   4.7018136  )
        22           O1  tau(  22) = (   6.5540411   5.9581837  17.3465722  )
        23           O1  tau(  23) = (   1.3043587   1.4918075   6.0039043  )
        24           O1  tau(  24) = (   5.2767064   1.4903225   6.0039473  )
        25           Ti1 tau(  25) = (   0.0000382   5.9609847   6.0000000  )
        26           Ti1 tau(  26) = (   3.2902200   4.4714249   6.0002472  )
        27           O1  tau(  27) = (   0.0002396   2.9813036   7.9858123  )
        28           O1  tau(  28) = (   3.2902150   2.9813002   7.3038282  )
        29           O1  tau(  29) = (   4.5938453   4.4726049   9.2879030  )
        30           O1  tau(  30) = (   1.9864658   4.4711199   9.2879459  )
        31           Ti1 tau(  31) = (   3.2891106   5.8743827   9.1763621  )
        32           Ti1 tau(  32) = (   0.0006254   4.4649316   9.2693709  )
        33           O1  tau(  33) = (   3.2962403   2.9651072  11.3429128  )
        34           O1  tau(  34) = (   0.0092240   2.9805883  10.6323155  )
        35           O1  tau(  35) = (   1.3076126   4.4641214  12.6643835  )
        36           O1  tau(  36) = (   5.2981430   4.4591552  12.6429889  )
        37           Ti1 tau(  37) = (   0.0194730   5.9489450  12.5196332  )
        38           Ti1 tau(  38) = (   3.3150505   4.4522436  12.4946186  )
        39           O1  tau(  39) = (   6.5702761   2.9869041  14.8038460  )
        40           O1  tau(  40) = (   3.3119818   2.9576719  13.9204832  )
        41           O1  tau(  41) = (   4.5223198   4.3950437  16.2490866  )
        42           O1  tau(  42) = (   2.0356696   4.4339808  16.1311045  )
        43           Ti1 tau(  43) = (   3.3057863   5.9493229  15.7677403  )
        44           Ti1 tau(  44) = (   0.0958844   4.4293496  15.8701971  )
        45           O1  tau(  45) = (   3.2900926   2.9813045   4.7018136  )
        46           O1  tau(  46) = (   1.3039711   4.4726057   6.0039043  )
        47           O1  tau(  47) = (   5.2763189   4.4711207   6.0039473  )
        48           N1  tau(  48) = (   0.0620580   3.0375546  17.6897758  )
        49           C1  tau(  49) = (   1.1116374   2.9693208  18.6984743  )
        50           H1  tau(  50) = (   1.2951007   3.9532040  19.1583453  )
        51           H1  tau(  51) = (   0.8627774   2.2426413  19.4871689  )
        52           H1  tau(  52) = (   2.0263963   2.6228967  18.2308865  )
        53           N1  tau(  53) = (   5.4279256   3.3744730  18.4033390  )
        54           H1  tau(  54) = (   5.6103604   4.1199394  19.0852601  )
        55           H1  tau(  55) = (   4.7934260   3.8076565  17.6395878  )
        56           H1  tau(  56) = (   5.0190149   2.5598412  18.8678436  )

     number of k points=    10  Fermi-Dirac smearing, width (Ry)=  0.0073
                       cart. coord. in units 2pi/alat
        k(    1) = (   0.0000000   0.0000000   0.0000000), wk =   0.0625000
        k(    2) = (   0.0000000   0.0419351   0.0000000), wk =   0.1250000
        k(    3) = (   0.0000000  -0.0838702   0.0000000), wk =   0.0625000
        k(    4) = (   0.0379955   0.0000049   0.0000000), wk =   0.1250000
        k(    5) = (   0.0379955   0.0419400   0.0000000), wk =   0.1250000
        k(    6) = (   0.0379955  -0.0838652   0.0000000), wk =   0.1250000
        k(    7) = (   0.0379955  -0.0419301   0.0000000), wk =   0.1250000
        k(    8) = (  -0.0759910  -0.0000099   0.0000000), wk =   0.0625000
        k(    9) = (  -0.0759910   0.0419252   0.0000000), wk =   0.1250000
        k(   10) = (  -0.0759910  -0.0838800   0.0000000), wk =   0.0625000

     Dense  grid:   566857 G-vectors     FFT dimensions: (  72,  64, 270)

     Smooth grid:   143421 G-vectors     FFT dimensions: (  45,  40, 180)

     Estimated max dynamical RAM per process >     280.16 MB

     Estimated total dynamical RAM >       4.38 GB
     Generating pointlists ...
     new r_m :   0.7228 (alat units)  1.3658 (a.u.) for type    1
     new r_m :   0.6326 (alat units)  1.1955 (a.u.) for type    2
     new r_m :   0.4220 (alat units)  0.7975 (a.u.) for type    3
     new r_m :   0.4472 (alat units)  0.8451 (a.u.) for type    4
     new r_m :   0.4220 (alat units)  0.7975 (a.u.) for type    5
     Cannot read rho : file not found

     Initial potential from superposition of free atoms

     starting charge  381.99914, renormalised to  398.00000

     negative rho (up, down):  8.082E-03 8.085E-03


     %%%%%%%%%%%%%%%%%%%%%%%%%%%%%%%%%%%%%%%%%%%%%%%%%%%%%%%%%%%%%%%%%%%%%%%%
     %                                                                      %
     % You are using vdW-DF, which was implemented by the Thonhauser group. %
     % Please cite the following two papers that made this development      %
     % possible and the two reviews that describe the various versions:     %
     %                                                                      %
     %   T. Thonhauser et al., PRL 115, 136402 (2015).                      %
     %   T. Thonhauser et al., PRB 76, 125112 (2007).                       %
     %   K. Berland et al., Rep. Prog. Phys. 78, 066501 (2015).             %
     %   D.C. Langreth et al., J. Phys.: Condens. Matter 21, 084203 (2009). %
     %                                                                      %
     %                                                                      %
     % If you are calculating the stress with vdW-DF, please also cite:     %
     %                                                                      %
     %   R. Sabatini et al., J. Phys.: Condens. Matter 24, 424209 (2012).   %
     %                                                                      %
     %%%%%%%%%%%%%%%%%%%%%%%%%%%%%%%%%%%%%%%%%%%%%%%%%%%%%%%%%%%%%%%%%%%%%%%%


 
     Adding external electric field

     Computed dipole along edir(3) : 
        Dipole              -10.5729 Ry au,        -26.8736 Debye
        Dipole field         -0.0200 Ry au, 
 
        Potential amp.        1.8496 Ry
        Total length         46.3494 bohr
 
 
     Adding external electric field

     Computed dipole along edir(3) : 
        Dipole              -10.5729 Ry au,        -26.8736 Debye
        Dipole field         -0.0200 Ry au, 
 
        Potential amp.        1.8496 Ry
        Total length         46.3494 bohr
 
     Starting wfcs are  302 atomic wfcs
  @ DRIVER MODE: Message from server: STATUS
  @ DRIVER MODE: Message from server: POSDATA
  @ DRIVER MODE: Reading and sharing cell 
  @ DRIVER MODE: Reading and sharing positions 
  @ DRIVER MODE: Received positions 

     total cpu time spent up to now is       25.0 secs

     Self-consistent Calculation

     iteration #  1     ecut=    29.40 Ry     beta= 0.05
     Davidson diagonalization with overlap
     c_bands:  4 eigenvalues not converged
     c_bands:  2 eigenvalues not converged
     c_bands:  1 eigenvalues not converged
     c_bands:  4 eigenvalues not converged
     c_bands:  5 eigenvalues not converged
     c_bands:  5 eigenvalues not converged
     c_bands:  1 eigenvalues not converged
     c_bands:  5 eigenvalues not converged
     c_bands:  3 eigenvalues not converged
     c_bands:  4 eigenvalues not converged
     c_bands:  2 eigenvalues not converged
     c_bands:  1 eigenvalues not converged
     c_bands:  4 eigenvalues not converged
     c_bands:  5 eigenvalues not converged
     c_bands:  5 eigenvalues not converged
     c_bands:  5 eigenvalues not converged
     c_bands:  3 eigenvalues not converged
     ethr =  1.00E-05,  avg # of iterations = 20.0

     negative rho (up, down):  5.786E-03 5.789E-03
 
     Adding external electric field

     Computed dipole along edir(3) : 
        Dipole               47.8854 Ry au,        121.7125 Debye
        Dipole field          0.0904 Ry au, 
 
        Potential amp.       -8.3768 Ry
        Total length         46.3494 bohr
 
 
     Adding external electric field

     Computed dipole along edir(3) : 
        Dipole               47.8854 Ry au,        121.7125 Debye
        Dipole field          0.0904 Ry au, 
 
        Potential amp.       -8.3768 Ry
        Total length         46.3494 bohr
 

     total cpu time spent up to now is       86.6 secs

     total energy              =   -2443.27084181 Ry
     estimated scf accuracy    <    5586.04872454 Ry

     total magnetization       =     0.00 Bohr mag/cell
     absolute magnetization    =     0.01 Bohr mag/cell

     iteration #  2     ecut=    29.40 Ry     beta= 0.05
     Davidson diagonalization with overlap
     ethr =  1.00E-02,  avg # of iterations = 23.4

     negative rho (up, down):  1.328E-03 1.329E-03
 
     Adding external electric field

     Computed dipole along edir(3) : 
        Dipole               -1.2956 Ry au,         -3.2931 Debye
        Dipole field         -0.0024 Ry au, 
 
        Potential amp.        0.2266 Ry
        Total length         46.3494 bohr
 
 
     Adding external electric field

     Computed dipole along edir(3) : 
        Dipole               -1.2956 Ry au,         -3.2931 Debye
        Dipole field         -0.0024 Ry au, 
 
        Potential amp.        0.2266 Ry
        Total length         46.3494 bohr
 

     total cpu time spent up to now is      204.7 secs

     total energy              =   -2439.60306212 Ry
     estimated scf accuracy    <   70294.99268038 Ry

     total magnetization       =     0.14 Bohr mag/cell
     absolute magnetization    =     0.79 Bohr mag/cell

     iteration #  3     ecut=    29.40 Ry     beta= 0.05
     Davidson diagonalization with overlap
     ethr =  1.00E-02,  avg # of iterations = 15.4

     negative rho (up, down):  1.363E-03 1.363E-03
 
     Adding external electric field

     Computed dipole along edir(3) : 
        Dipole               -4.0302 Ry au,        -10.2437 Debye
        Dipole field         -0.0076 Ry au, 
 
        Potential amp.        0.7050 Ry
        Total length         46.3494 bohr
 
 
     Adding external electric field

     Computed dipole along edir(3) : 
        Dipole               -4.0302 Ry au,        -10.2437 Debye
        Dipole field         -0.0076 Ry au, 
 
        Potential amp.        0.7050 Ry
        Total length         46.3494 bohr
 

     total cpu time spent up to now is      275.7 secs

     total energy              =   -2927.75005357 Ry
     estimated scf accuracy    <    4990.85715214 Ry

     total magnetization       =     0.28 Bohr mag/cell
     absolute magnetization    =     0.65 Bohr mag/cell

     iteration #  4     ecut=    29.40 Ry     beta= 0.05
     Davidson diagonalization with overlap
     ethr =  1.00E-02,  avg # of iterations = 11.9

     negative rho (up, down):  1.385E-03 1.385E-03
 
     Adding external electric field

     Computed dipole along edir(3) : 
        Dipole               -5.7563 Ry au,        -14.6311 Debye
        Dipole field         -0.0109 Ry au, 
 
        Potential amp.        1.0070 Ry
        Total length         46.3494 bohr
 
 
     Adding external electric field

     Computed dipole along edir(3) : 
        Dipole               -5.7563 Ry au,        -14.6311 Debye
        Dipole field         -0.0109 Ry au, 
 
        Potential amp.        1.0070 Ry
        Total length         46.3494 bohr
 

     total cpu time spent up to now is      304.2 secs

     total energy              =   -2927.70124312 Ry
     estimated scf accuracy    <    1947.23745025 Ry

     total magnetization       =    -0.50 Bohr mag/cell
     absolute magnetization    =     0.65 Bohr mag/cell

     iteration #  5     ecut=    29.40 Ry     beta= 0.05
     Davidson diagonalization with overlap
     c_bands:  3 eigenvalues not converged
     c_bands:  1 eigenvalues not converged
     c_bands:  4 eigenvalues not converged
     ethr =  1.00E-02,  avg # of iterations =  6.8

     negative rho (up, down):  1.438E-03 1.441E-03
 
     Adding external electric field

     Computed dipole along edir(3) : 
        Dipole               -7.6271 Ry au,        -19.3862 Debye
        Dipole field         -0.0144 Ry au, 
 
        Potential amp.        1.3342 Ry
        Total length         46.3494 bohr
 
 
     Adding external electric field

     Computed dipole along edir(3) : 
        Dipole               -7.6271 Ry au,        -19.3862 Debye
        Dipole field         -0.0144 Ry au, 
 
        Potential amp.        1.3342 Ry
        Total length         46.3494 bohr
 

     total cpu time spent up to now is      328.8 secs

     total energy              =   -2915.13241983 Ry
     estimated scf accuracy    <    1258.73790855 Ry

     total magnetization       =     0.60 Bohr mag/cell
     absolute magnetization    =     1.23 Bohr mag/cell

     iteration #  6     ecut=    29.40 Ry     beta= 0.05
     Davidson diagonalization with overlap
     ethr =  1.00E-02,  avg # of iterations = 11.8

     negative rho (up, down):  1.318E-03 1.313E-03
 
     Adding external electric field

     Computed dipole along edir(3) : 
        Dipole               -6.3034 Ry au,        -16.0215 Debye
        Dipole field         -0.0119 Ry au, 
 
        Potential amp.        1.1027 Ry
        Total length         46.3494 bohr
 
 
     Adding external electric field

     Computed dipole along edir(3) : 
        Dipole               -6.3034 Ry au,        -16.0215 Debye
        Dipole field         -0.0119 Ry au, 
 
        Potential amp.        1.1027 Ry
        Total length         46.3494 bohr
 

     total cpu time spent up to now is      363.3 secs

     total energy              =   -2946.58991947 Ry
     estimated scf accuracy    <      52.01033636 Ry

     total magnetization       =    -0.32 Bohr mag/cell
     absolute magnetization    =     0.66 Bohr mag/cell

     iteration #  7     ecut=    29.40 Ry     beta= 0.05
     Davidson diagonalization with overlap
     ethr =  1.00E-02,  avg # of iterations =  1.5

     negative rho (up, down):  1.357E-03 1.355E-03
 
     Adding external electric field

     Computed dipole along edir(3) : 
        Dipole               -5.2074 Ry au,        -13.2358 Debye
        Dipole field         -0.0098 Ry au, 
 
        Potential amp.        0.9110 Ry
        Total length         46.3494 bohr
 
 
     Adding external electric field

     Computed dipole along edir(3) : 
        Dipole               -5.2074 Ry au,        -13.2358 Debye
        Dipole field         -0.0098 Ry au, 
 
        Potential amp.        0.9110 Ry
        Total length         46.3494 bohr
 

     total cpu time spent up to now is      377.5 secs

     total energy              =   -2945.70102578 Ry
     estimated scf accuracy    <      20.29647302 Ry

     total magnetization       =    -0.36 Bohr mag/cell
     absolute magnetization    =     0.43 Bohr mag/cell

     iteration #  8     ecut=    29.40 Ry     beta= 0.05
     Davidson diagonalization with overlap
     ethr =  5.10E-03,  avg # of iterations =  3.5

     negative rho (up, down):  1.330E-03 1.327E-03
 
     Adding external electric field

     Computed dipole along edir(3) : 
        Dipole               -5.3996 Ry au,        -13.7245 Debye
        Dipole field         -0.0102 Ry au, 
 
        Potential amp.        0.9446 Ry
        Total length         46.3494 bohr
 
 
     Adding external electric field

     Computed dipole along edir(3) : 
        Dipole               -5.3996 Ry au,        -13.7245 Debye
        Dipole field         -0.0102 Ry au, 
 
        Potential amp.        0.9446 Ry
        Total length         46.3494 bohr
 

     total cpu time spent up to now is      398.5 secs

     total energy              =   -2946.28247182 Ry
     estimated scf accuracy    <      14.29361573 Ry

     total magnetization       =    -0.15 Bohr mag/cell
     absolute magnetization    =     0.31 Bohr mag/cell

     iteration #  9     ecut=    29.40 Ry     beta= 0.05
     Davidson diagonalization with overlap
     ethr =  3.59E-03,  avg # of iterations =  1.4

     negative rho (up, down):  1.775E-03 1.800E-03
 
     Adding external electric field

     Computed dipole along edir(3) : 
        Dipole               -2.7286 Ry au,         -6.9354 Debye
        Dipole field         -0.0051 Ry au, 
 
        Potential amp.        0.4773 Ry
        Total length         46.3494 bohr
 
 
     Adding external electric field

     Computed dipole along edir(3) : 
        Dipole               -2.7286 Ry au,         -6.9354 Debye
        Dipole field         -0.0051 Ry au, 
 
        Potential amp.        0.4773 Ry
        Total length         46.3494 bohr
 

     total cpu time spent up to now is      419.0 secs

     total energy              =   -2943.99704207 Ry
     estimated scf accuracy    <      14.78876855 Ry

     total magnetization       =    -0.04 Bohr mag/cell
     absolute magnetization    =     0.16 Bohr mag/cell

     iteration # 10     ecut=    29.40 Ry     beta= 0.05
     Davidson diagonalization with overlap
     ethr =  3.59E-03,  avg # of iterations = 14.4

     negative rho (up, down):  9.041E-03 1.054E-02
 
     Adding external electric field

     Computed dipole along edir(3) : 
        Dipole                1.1932 Ry au,          3.0329 Debye
        Dipole field          0.0023 Ry au, 
 
        Potential amp.       -0.2087 Ry
        Total length         46.3494 bohr
 
 
     Adding external electric field

     Computed dipole along edir(3) : 
        Dipole                1.1932 Ry au,          3.0329 Debye
        Dipole field          0.0023 Ry au, 
 
        Potential amp.       -0.2087 Ry
        Total length         46.3494 bohr
 

     total cpu time spent up to now is      451.7 secs

     total energy              =   -2968.50789924 Ry
     estimated scf accuracy    <     652.03759392 Ry

     total magnetization       =    -0.32 Bohr mag/cell
     absolute magnetization    =     0.76 Bohr mag/cell

     iteration # 11     ecut=    29.40 Ry     beta= 0.05
     Davidson diagonalization with overlap
     ethr =  3.59E-03,  avg # of iterations = 11.5

     negative rho (up, down):  1.046E-02 1.203E-02
 
     Adding external electric field

     Computed dipole along edir(3) : 
        Dipole                1.7346 Ry au,          4.4088 Debye
        Dipole field          0.0033 Ry au, 
 
        Potential amp.       -0.3034 Ry
        Total length         46.3494 bohr
 
 
     Adding external electric field

     Computed dipole along edir(3) : 
        Dipole                1.7346 Ry au,          4.4088 Debye
        Dipole field          0.0033 Ry au, 
 
        Potential amp.       -0.3034 Ry
        Total length         46.3494 bohr
 

     total cpu time spent up to now is      480.4 secs

     total energy              =   -2984.21323119 Ry
     estimated scf accuracy    <    3866.25352376 Ry

     total magnetization       =    -0.30 Bohr mag/cell
     absolute magnetization    =     0.79 Bohr mag/cell

     iteration # 12     ecut=    29.40 Ry     beta= 0.05
     Davidson diagonalization with overlap
     ethr =  3.59E-03,  avg # of iterations =  1.4

     negative rho (up, down):  5.034E-03 5.604E-03
 
     Adding external electric field

     Computed dipole along edir(3) : 
        Dipole                0.9486 Ry au,          2.4110 Debye
        Dipole field          0.0018 Ry au, 
 
        Potential amp.       -0.1659 Ry
        Total length         46.3494 bohr
 
 
     Adding external electric field

     Computed dipole along edir(3) : 
        Dipole                0.9486 Ry au,          2.4110 Debye
        Dipole field          0.0018 Ry au, 
 
        Potential amp.       -0.1659 Ry
        Total length         46.3494 bohr
 

     total cpu time spent up to now is      500.3 secs

     total energy              =   -2968.07992879 Ry
     estimated scf accuracy    <    3593.89334302 Ry

     total magnetization       =    -0.31 Bohr mag/cell
     absolute magnetization    =     0.64 Bohr mag/cell

     iteration # 13     ecut=    29.40 Ry     beta= 0.05
     Davidson diagonalization with overlap
     ethr =  3.59E-03,  avg # of iterations =  2.1

     negative rho (up, down):  4.834E-03 5.330E-03
 
     Adding external electric field

     Computed dipole along edir(3) : 
        Dipole                1.1417 Ry au,          2.9019 Debye
        Dipole field          0.0022 Ry au, 
 
        Potential amp.       -0.1997 Ry
        Total length         46.3494 bohr
 
 
     Adding external electric field

     Computed dipole along edir(3) : 
        Dipole                1.1417 Ry au,          2.9019 Debye
        Dipole field          0.0022 Ry au, 
 
        Potential amp.       -0.1997 Ry
        Total length         46.3494 bohr
 

     total cpu time spent up to now is      515.3 secs

     total energy              =   -2970.79526980 Ry
     estimated scf accuracy    <    2687.94089222 Ry

     total magnetization       =    -0.04 Bohr mag/cell
     absolute magnetization    =     0.55 Bohr mag/cell

     iteration # 14     ecut=    29.40 Ry     beta= 0.05
     Davidson diagonalization with overlap
     ethr =  3.59E-03,  avg # of iterations =  1.3

     negative rho (up, down):  2.444E-03 2.490E-03
 
     Adding external electric field

     Computed dipole along edir(3) : 
        Dipole               -1.1717 Ry au,         -2.9781 Debye
        Dipole field         -0.0022 Ry au, 
 
        Potential amp.        0.2050 Ry
        Total length         46.3494 bohr
 
 
     Adding external electric field

     Computed dipole along edir(3) : 
        Dipole               -1.1717 Ry au,         -2.9781 Debye
        Dipole field         -0.0022 Ry au, 
 
        Potential amp.        0.2050 Ry
        Total length         46.3494 bohr
 

     total cpu time spent up to now is      529.3 secs

     total energy              =   -2942.49171759 Ry
     estimated scf accuracy    <    2796.61276916 Ry

     total magnetization       =    -0.19 Bohr mag/cell
     absolute magnetization    =     0.59 Bohr mag/cell

     iteration # 15     ecut=    29.40 Ry     beta= 0.05
     Davidson diagonalization with overlap
     c_bands:  1 eigenvalues not converged
     c_bands:  1 eigenvalues not converged
     c_bands:  1 eigenvalues not converged
     c_bands:  5 eigenvalues not converged
     c_bands:  3 eigenvalues not converged
     c_bands:  1 eigenvalues not converged
     c_bands:  3 eigenvalues not converged
     ethr =  3.59E-03,  avg # of iterations = 18.1

     negative rho (up, down):  2.282E-03 2.293E-03
 
     Adding external electric field

     Computed dipole along edir(3) : 
        Dipole               -1.2511 Ry au,         -3.1799 Debye
        Dipole field         -0.0024 Ry au, 
 
        Potential amp.        0.2189 Ry
        Total length         46.3494 bohr
 
 
     Adding external electric field

     Computed dipole along edir(3) : 
        Dipole               -1.2511 Ry au,         -3.1799 Debye
        Dipole field         -0.0024 Ry au, 
 
        Potential amp.        0.2189 Ry
        Total length         46.3494 bohr
 

     total cpu time spent up to now is      563.7 secs

     total energy              =   -2942.06361717 Ry
     estimated scf accuracy    <     922.70462160 Ry

     total magnetization       =     0.81 Bohr mag/cell
     absolute magnetization    =     0.92 Bohr mag/cell

     iteration # 16     ecut=    29.40 Ry     beta= 0.05
     Davidson diagonalization with overlap
     ethr =  3.59E-03,  avg # of iterations = 10.6

     negative rho (up, down):  2.528E-03 2.554E-03
 
     Adding external electric field

     Computed dipole along edir(3) : 
        Dipole               -0.9357 Ry au,         -2.3783 Debye
        Dipole field         -0.0018 Ry au, 
 
        Potential amp.        0.1637 Ry
        Total length         46.3494 bohr
 
 
     Adding external electric field

     Computed dipole along edir(3) : 
        Dipole               -0.9357 Ry au,         -2.3783 Debye
        Dipole field         -0.0018 Ry au, 
 
        Potential amp.        0.1637 Ry
        Total length         46.3494 bohr
 

     total cpu time spent up to now is      584.8 secs

     total energy              =   -2942.56252652 Ry
     estimated scf accuracy    <     478.85599142 Ry

     total magnetization       =    -0.04 Bohr mag/cell
     absolute magnetization    =     0.57 Bohr mag/cell

     iteration # 17     ecut=    29.40 Ry     beta= 0.05
     Davidson diagonalization with overlap
     ethr =  3.59E-03,  avg # of iterations =  3.6

     negative rho (up, down):  1.941E-03 1.928E-03
 
     Adding external electric field

     Computed dipole along edir(3) : 
        Dipole               -2.4502 Ry au,         -6.2277 Debye
        Dipole field         -0.0046 Ry au, 
 
        Potential amp.        0.4286 Ry
        Total length         46.3494 bohr
 
 
     Adding external electric field

     Computed dipole along edir(3) : 
        Dipole               -2.4502 Ry au,         -6.2277 Debye
        Dipole field         -0.0046 Ry au, 
 
        Potential amp.        0.4286 Ry
        Total length         46.3494 bohr
 

     total cpu time spent up to now is      600.2 secs

     total energy              =   -2932.96792391 Ry
     estimated scf accuracy    <     398.55153180 Ry

     total magnetization       =    -1.13 Bohr mag/cell
     absolute magnetization    =     1.54 Bohr mag/cell

     iteration # 18     ecut=    29.40 Ry     beta= 0.05
     Davidson diagonalization with overlap
     ethr =  3.59E-03,  avg # of iterations = 15.8

     negative rho (up, down):  1.555E-03 1.546E-03
 
     Adding external electric field

     Computed dipole along edir(3) : 
        Dipole               -3.3126 Ry au,         -8.4198 Debye
        Dipole field         -0.0063 Ry au, 
 
        Potential amp.        0.5795 Ry
        Total length         46.3494 bohr
 
 
     Adding external electric field

     Computed dipole along edir(3) : 
        Dipole               -3.3126 Ry au,         -8.4198 Debye
        Dipole field         -0.0063 Ry au, 
 
        Potential amp.        0.5795 Ry
        Total length         46.3494 bohr
 

     total cpu time spent up to now is      649.0 secs

     total energy              =   -2937.07918859 Ry
     estimated scf accuracy    <     353.02724809 Ry

     total magnetization       =    -0.20 Bohr mag/cell
     absolute magnetization    =     0.51 Bohr mag/cell

     iteration # 19     ecut=    29.40 Ry     beta= 0.05
     Davidson diagonalization with overlap
     ethr =  3.59E-03,  avg # of iterations =  6.0

     negative rho (up, down):  1.652E-03 1.643E-03
 
     Adding external electric field

     Computed dipole along edir(3) : 
        Dipole               -2.2524 Ry au,         -5.7250 Debye
        Dipole field         -0.0043 Ry au, 
 
        Potential amp.        0.3940 Ry
        Total length         46.3494 bohr
 
 
     Adding external electric field

     Computed dipole along edir(3) : 
        Dipole               -2.2524 Ry au,         -5.7250 Debye
        Dipole field         -0.0043 Ry au, 
 
        Potential amp.        0.3940 Ry
        Total length         46.3494 bohr
 

     total cpu time spent up to now is      667.2 secs

     total energy              =   -2943.11437940 Ry
     estimated scf accuracy    <      19.25669703 Ry

     total magnetization       =     0.24 Bohr mag/cell
     absolute magnetization    =     0.46 Bohr mag/cell

     iteration # 20     ecut=    29.40 Ry     beta= 0.05
     Davidson diagonalization with overlap
     ethr =  3.59E-03,  avg # of iterations =  1.9

     negative rho (up, down):  2.279E-03 2.261E-03
 
     Adding external electric field

     Computed dipole along edir(3) : 
        Dipole                1.2753 Ry au,          3.2415 Debye
        Dipole field          0.0024 Ry au, 
 
        Potential amp.       -0.2231 Ry
        Total length         46.3494 bohr
 
 
     Adding external electric field

     Computed dipole along edir(3) : 
        Dipole                1.2753 Ry au,          3.2415 Debye
        Dipole field          0.0024 Ry au, 
 
        Potential amp.       -0.2231 Ry
        Total length         46.3494 bohr
 

     total cpu time spent up to now is      681.4 secs

     total energy              =   -2941.86958804 Ry
     estimated scf accuracy    <      15.51051088 Ry

     total magnetization       =     0.26 Bohr mag/cell
     absolute magnetization    =     0.42 Bohr mag/cell

     iteration # 21     ecut=    29.40 Ry     beta= 0.05
     Davidson diagonalization with overlap
     ethr =  3.59E-03,  avg # of iterations =  4.7

     negative rho (up, down):  2.385E-03 2.368E-03
 
     Adding external electric field

     Computed dipole along edir(3) : 
        Dipole                1.7899 Ry au,          4.5495 Debye
        Dipole field          0.0034 Ry au, 
 
        Potential amp.       -0.3131 Ry
        Total length         46.3494 bohr
 
 
     Adding external electric field

     Computed dipole along edir(3) : 
        Dipole                1.7899 Ry au,          4.5495 Debye
        Dipole field          0.0034 Ry au, 
 
        Potential amp.       -0.3131 Ry
        Total length         46.3494 bohr
 

     total cpu time spent up to now is      698.2 secs

     total energy              =   -2942.82254354 Ry
     estimated scf accuracy    <      15.89734539 Ry

     total magnetization       =     0.20 Bohr mag/cell
     absolute magnetization    =     0.50 Bohr mag/cell

     iteration # 22     ecut=    29.40 Ry     beta= 0.05
     Davidson diagonalization with overlap
     ethr =  3.59E-03,  avg # of iterations =  1.7

     negative rho (up, down):  2.137E-03 2.126E-03
 
     Adding external electric field

     Computed dipole along edir(3) : 
        Dipole                0.8986 Ry au,          2.2840 Debye
        Dipole field          0.0017 Ry au, 
 
        Potential amp.       -0.1572 Ry
        Total length         46.3494 bohr
 
 
     Adding external electric field

     Computed dipole along edir(3) : 
        Dipole                0.8986 Ry au,          2.2840 Debye
        Dipole field          0.0017 Ry au, 
 
        Potential amp.       -0.1572 Ry
        Total length         46.3494 bohr
 

     total cpu time spent up to now is      712.4 secs

     total energy              =   -2942.22242204 Ry
     estimated scf accuracy    <      12.76151222 Ry

     total magnetization       =     0.12 Bohr mag/cell
     absolute magnetization    =     0.43 Bohr mag/cell

     iteration # 23     ecut=    29.40 Ry     beta= 0.05
     Davidson diagonalization with overlap
     ethr =  3.21E-03,  avg # of iterations =  5.2

     negative rho (up, down):  2.137E-03 2.128E-03
 
     Adding external electric field

     Computed dipole along edir(3) : 
        Dipole                0.3429 Ry au,          0.8715 Debye
        Dipole field          0.0006 Ry au, 
 
        Potential amp.       -0.0600 Ry
        Total length         46.3494 bohr
 
 
     Adding external electric field

     Computed dipole along edir(3) : 
        Dipole                0.3429 Ry au,          0.8715 Debye
        Dipole field          0.0006 Ry au, 
 
        Potential amp.       -0.0600 Ry
        Total length         46.3494 bohr
 

     total cpu time spent up to now is      728.9 secs

     total energy              =   -2942.86673032 Ry
     estimated scf accuracy    <       3.12382590 Ry

     total magnetization       =     0.24 Bohr mag/cell
     absolute magnetization    =     0.45 Bohr mag/cell

     iteration # 24     ecut=    29.40 Ry     beta= 0.05
     Davidson diagonalization with overlap
     c_bands:  3 eigenvalues not converged
     c_bands:  3 eigenvalues not converged
     c_bands:  1 eigenvalues not converged
     c_bands:  4 eigenvalues not converged
     ethr =  7.85E-04,  avg # of iterations =  7.3

     negative rho (up, down):  2.143E-03 2.136E-03
 
     Adding external electric field

     Computed dipole along edir(3) : 
        Dipole               -0.3663 Ry au,         -0.9310 Debye
        Dipole field         -0.0007 Ry au, 
 
        Potential amp.        0.0641 Ry
        Total length         46.3494 bohr
 
 
     Adding external electric field

     Computed dipole along edir(3) : 
        Dipole               -0.3663 Ry au,         -0.9310 Debye
        Dipole field         -0.0007 Ry au, 
 
        Potential amp.        0.0641 Ry
        Total length         46.3494 bohr
 

     total cpu time spent up to now is      747.2 secs

     total energy              =   -2942.91213823 Ry
     estimated scf accuracy    <       2.16843418 Ry

     total magnetization       =     0.26 Bohr mag/cell
     absolute magnetization    =     0.37 Bohr mag/cell

     iteration # 25     ecut=    29.40 Ry     beta= 0.05
     Davidson diagonalization with overlap
     ethr =  5.45E-04,  avg # of iterations =  3.9

     negative rho (up, down):  2.116E-03 2.114E-03
 
     Adding external electric field

     Computed dipole along edir(3) : 
        Dipole               -0.9503 Ry au,         -2.4153 Debye
        Dipole field         -0.0018 Ry au, 
 
        Potential amp.        0.1662 Ry
        Total length         46.3494 bohr
 
 
     Adding external electric field

     Computed dipole along edir(3) : 
        Dipole               -0.9503 Ry au,         -2.4153 Debye
        Dipole field         -0.0018 Ry au, 
 
        Potential amp.        0.1662 Ry
        Total length         46.3494 bohr
 

     total cpu time spent up to now is      763.4 secs

     total energy              =   -2942.84367338 Ry
     estimated scf accuracy    <       3.81625839 Ry

     total magnetization       =     0.00 Bohr mag/cell
     absolute magnetization    =     0.14 Bohr mag/cell

     iteration # 26     ecut=    29.40 Ry     beta= 0.05
     Davidson diagonalization with overlap
     c_bands:  2 eigenvalues not converged
     c_bands:  4 eigenvalues not converged
     c_bands:  4 eigenvalues not converged
     c_bands:  1 eigenvalues not converged
     ethr =  5.45E-04,  avg # of iterations =  8.8

     negative rho (up, down):  2.576E-03 2.585E-03
 
     Adding external electric field

     Computed dipole along edir(3) : 
        Dipole                0.2369 Ry au,          0.6020 Debye
        Dipole field          0.0004 Ry au, 
 
        Potential amp.       -0.0414 Ry
        Total length         46.3494 bohr
 
 
     Adding external electric field

     Computed dipole along edir(3) : 
        Dipole                0.2369 Ry au,          0.6020 Debye
        Dipole field          0.0004 Ry au, 
 
        Potential amp.       -0.0414 Ry
        Total length         46.3494 bohr
 

     total cpu time spent up to now is      782.7 secs

     total energy              =   -2942.78859007 Ry
     estimated scf accuracy    <       1.13531373 Ry

     total magnetization       =    -0.12 Bohr mag/cell
     absolute magnetization    =     0.30 Bohr mag/cell

     iteration # 27     ecut=    29.40 Ry     beta= 0.05
     Davidson diagonalization with overlap
     c_bands:  1 eigenvalues not converged
     c_bands:  5 eigenvalues not converged
     c_bands:  3 eigenvalues not converged
     c_bands:  5 eigenvalues not converged
     c_bands:  2 eigenvalues not converged
     c_bands:  2 eigenvalues not converged
     c_bands:  2 eigenvalues not converged
     c_bands:  4 eigenvalues not converged
     c_bands:  1 eigenvalues not converged
     c_bands:  5 eigenvalues not converged
     c_bands:  3 eigenvalues not converged
     c_bands:  2 eigenvalues not converged
     c_bands:  4 eigenvalues not converged
     c_bands:  1 eigenvalues not converged
     c_bands:  1 eigenvalues not converged
     c_bands:  2 eigenvalues not converged
     c_bands:  3 eigenvalues not converged
     ethr =  2.85E-04,  avg # of iterations = 21.1

     negative rho (up, down):  2.466E-03 2.462E-03
 
     Adding external electric field

     Computed dipole along edir(3) : 
        Dipole                0.8425 Ry au,          2.1414 Debye
        Dipole field          0.0016 Ry au, 
 
        Potential amp.       -0.1474 Ry
        Total length         46.3494 bohr
 
 
     Adding external electric field

     Computed dipole along edir(3) : 
        Dipole                0.8425 Ry au,          2.1414 Debye
        Dipole field          0.0016 Ry au, 
 
        Potential amp.       -0.1474 Ry
        Total length         46.3494 bohr
 

     total cpu time spent up to now is      817.3 secs

     total energy              =   -2942.91414300 Ry
     estimated scf accuracy    <       6.09515506 Ry

     total magnetization       =    -0.09 Bohr mag/cell
     absolute magnetization    =     0.25 Bohr mag/cell

     iteration # 28     ecut=    29.40 Ry     beta= 0.05
     Davidson diagonalization with overlap
     ethr =  2.85E-04,  avg # of iterations =  6.8

     negative rho (up, down):  2.259E-03 2.258E-03
 
     Adding external electric field

     Computed dipole along edir(3) : 
        Dipole               -0.1032 Ry au,         -0.2624 Debye
        Dipole field         -0.0002 Ry au, 
 
        Potential amp.        0.0181 Ry
        Total length         46.3494 bohr
 
 
     Adding external electric field

     Computed dipole along edir(3) : 
        Dipole               -0.1032 Ry au,         -0.2624 Debye
        Dipole field         -0.0002 Ry au, 
 
        Potential amp.        0.0181 Ry
        Total length         46.3494 bohr
 

     total cpu time spent up to now is      842.2 secs

     total energy              =   -2942.79619148 Ry
     estimated scf accuracy    <       5.71946270 Ry

     total magnetization       =    -0.12 Bohr mag/cell
     absolute magnetization    =     0.32 Bohr mag/cell

     iteration # 29     ecut=    29.40 Ry     beta= 0.05
     Davidson diagonalization with overlap
     c_bands:  1 eigenvalues not converged
     c_bands:  1 eigenvalues not converged
     ethr =  2.85E-04,  avg # of iterations = 10.1

     negative rho (up, down):  2.250E-03 2.243E-03
 
     Adding external electric field

     Computed dipole along edir(3) : 
        Dipole                0.7387 Ry au,          1.8777 Debye
        Dipole field          0.0014 Ry au, 
 
        Potential amp.       -0.1292 Ry
        Total length         46.3494 bohr
 
 
     Adding external electric field

     Computed dipole along edir(3) : 
        Dipole                0.7387 Ry au,          1.8777 Debye
        Dipole field          0.0014 Ry au, 
 
        Potential amp.       -0.1292 Ry
        Total length         46.3494 bohr
 

     total cpu time spent up to now is      862.7 secs

     total energy              =   -2942.89864699 Ry
     estimated scf accuracy    <       1.79887633 Ry

     total magnetization       =     0.05 Bohr mag/cell
     absolute magnetization    =     0.14 Bohr mag/cell

     iteration # 30     ecut=    29.40 Ry     beta= 0.05
     Davidson diagonalization with overlap
     ethr =  2.85E-04,  avg # of iterations =  8.2

     negative rho (up, down):  2.275E-03 2.267E-03
 
     Adding external electric field

     Computed dipole along edir(3) : 
        Dipole                1.0052 Ry au,          2.5551 Debye
        Dipole field          0.0019 Ry au, 
 
        Potential amp.       -0.1759 Ry
        Total length         46.3494 bohr
 
 
     Adding external electric field

     Computed dipole along edir(3) : 
        Dipole                1.0052 Ry au,          2.5551 Debye
        Dipole field          0.0019 Ry au, 
 
        Potential amp.       -0.1759 Ry
        Total length         46.3494 bohr
 

     total cpu time spent up to now is      881.2 secs

     total energy              =   -2942.95846613 Ry
     estimated scf accuracy    <       1.63293242 Ry

     total magnetization       =    -0.02 Bohr mag/cell
     absolute magnetization    =     0.15 Bohr mag/cell

     iteration # 31     ecut=    29.40 Ry     beta= 0.05
     Davidson diagonalization with overlap
     ethr =  2.85E-04,  avg # of iterations =  3.4

     negative rho (up, down):  2.366E-03 2.361E-03
 
     Adding external electric field

     Computed dipole along edir(3) : 
        Dipole                0.4682 Ry au,          1.1900 Debye
        Dipole field          0.0009 Ry au, 
 
        Potential amp.       -0.0819 Ry
        Total length         46.3494 bohr
 
 
     Adding external electric field

     Computed dipole along edir(3) : 
        Dipole                0.4682 Ry au,          1.1900 Debye
        Dipole field          0.0009 Ry au, 
 
        Potential amp.       -0.0819 Ry
        Total length         46.3494 bohr
 

     total cpu time spent up to now is      896.6 secs

     total energy              =   -2942.85172717 Ry
     estimated scf accuracy    <       1.59033124 Ry

     total magnetization       =    -0.05 Bohr mag/cell
     absolute magnetization    =     0.15 Bohr mag/cell

     iteration # 32     ecut=    29.40 Ry     beta= 0.05
     Davidson diagonalization with overlap
     ethr =  2.85E-04,  avg # of iterations =  2.4

     negative rho (up, down):  2.650E-03 2.642E-03
 
     Adding external electric field

     Computed dipole along edir(3) : 
        Dipole                0.9277 Ry au,          2.3580 Debye
        Dipole field          0.0018 Ry au, 
 
        Potential amp.       -0.1623 Ry
        Total length         46.3494 bohr
 
 
     Adding external electric field

     Computed dipole along edir(3) : 
        Dipole                0.9277 Ry au,          2.3580 Debye
        Dipole field          0.0018 Ry au, 
 
        Potential amp.       -0.1623 Ry
        Total length         46.3494 bohr
 

     total cpu time spent up to now is      911.9 secs

     total energy              =   -2942.80720489 Ry
     estimated scf accuracy    <       1.24493956 Ry

     total magnetization       =     0.01 Bohr mag/cell
     absolute magnetization    =     0.13 Bohr mag/cell

     iteration # 33     ecut=    29.40 Ry     beta= 0.05
     Davidson diagonalization with overlap
     c_bands:  1 eigenvalues not converged
     ethr =  2.85E-04,  avg # of iterations = 12.1

     negative rho (up, down):  2.472E-03 2.464E-03
 
     Adding external electric field

     Computed dipole along edir(3) : 
        Dipole                0.6029 Ry au,          1.5323 Debye
        Dipole field          0.0011 Ry au, 
 
        Potential amp.       -0.1055 Ry
        Total length         46.3494 bohr
 
 
     Adding external electric field

     Computed dipole along edir(3) : 
        Dipole                0.6029 Ry au,          1.5323 Debye
        Dipole field          0.0011 Ry au, 
 
        Potential amp.       -0.1055 Ry
        Total length         46.3494 bohr
 

     total cpu time spent up to now is      933.5 secs

     total energy              =   -2942.80816720 Ry
     estimated scf accuracy    <       0.71581856 Ry

     total magnetization       =     0.00 Bohr mag/cell
     absolute magnetization    =     0.12 Bohr mag/cell

     iteration # 34     ecut=    29.40 Ry     beta= 0.05
     Davidson diagonalization with overlap
     ethr =  1.80E-04,  avg # of iterations =  6.7

     negative rho (up, down):  2.693E-03 2.682E-03
 
     Adding external electric field

     Computed dipole along edir(3) : 
        Dipole                0.8758 Ry au,          2.2261 Debye
        Dipole field          0.0017 Ry au, 
 
        Potential amp.       -0.1532 Ry
        Total length         46.3494 bohr
 
 
     Adding external electric field

     Computed dipole along edir(3) : 
        Dipole                0.8758 Ry au,          2.2261 Debye
        Dipole field          0.0017 Ry au, 
 
        Potential amp.       -0.1532 Ry
        Total length         46.3494 bohr
 

     total cpu time spent up to now is      951.0 secs

     total energy              =   -2942.78775071 Ry
     estimated scf accuracy    <       0.22111291 Ry

     total magnetization       =     0.01 Bohr mag/cell
     absolute magnetization    =     0.12 Bohr mag/cell

     iteration # 35     ecut=    29.40 Ry     beta= 0.05
     Davidson diagonalization with overlap
     c_bands:  4 eigenvalues not converged
     c_bands:  3 eigenvalues not converged
     c_bands:  4 eigenvalues not converged
     c_bands:  1 eigenvalues not converged
     c_bands:  2 eigenvalues not converged
     c_bands:  3 eigenvalues not converged
     c_bands:  3 eigenvalues not converged
     c_bands:  5 eigenvalues not converged
     c_bands:  1 eigenvalues not converged
     c_bands:  5 eigenvalues not converged
     c_bands:  5 eigenvalues not converged
     c_bands:  2 eigenvalues not converged
     ethr =  5.56E-05,  avg # of iterations = 21.8

     negative rho (up, down):  2.623E-03 2.614E-03
 
     Adding external electric field

     Computed dipole along edir(3) : 
        Dipole                0.8862 Ry au,          2.2525 Debye
        Dipole field          0.0017 Ry au, 
 
        Potential amp.       -0.1550 Ry
        Total length         46.3494 bohr
 
 
     Adding external electric field

     Computed dipole along edir(3) : 
        Dipole                0.8862 Ry au,          2.2525 Debye
        Dipole field          0.0017 Ry au, 
 
        Potential amp.       -0.1550 Ry
        Total length         46.3494 bohr
 

     total cpu time spent up to now is      996.3 secs

     total energy              =   -2942.77577828 Ry
     estimated scf accuracy    <       3.13594749 Ry

     total magnetization       =    -0.01 Bohr mag/cell
     absolute magnetization    =     0.10 Bohr mag/cell

     iteration # 36     ecut=    29.40 Ry     beta= 0.05
     Davidson diagonalization with overlap
     c_bands:  3 eigenvalues not converged
     c_bands:  1 eigenvalues not converged
     c_bands:  1 eigenvalues not converged
     c_bands:  3 eigenvalues not converged
     c_bands:  3 eigenvalues not converged
     c_bands:  4 eigenvalues not converged
     c_bands:  1 eigenvalues not converged
     c_bands:  4 eigenvalues not converged
     c_bands:  3 eigenvalues not converged
     c_bands:  1 eigenvalues not converged
     ethr =  5.56E-05,  avg # of iterations = 17.4

     negative rho (up, down):  2.682E-03 2.674E-03
 
     Adding external electric field

     Computed dipole along edir(3) : 
        Dipole                0.9120 Ry au,          2.3180 Debye
        Dipole field          0.0017 Ry au, 
 
        Potential amp.       -0.1595 Ry
        Total length         46.3494 bohr
 
 
     Adding external electric field

     Computed dipole along edir(3) : 
        Dipole                0.9120 Ry au,          2.3180 Debye
        Dipole field          0.0017 Ry au, 
 
        Potential amp.       -0.1595 Ry
        Total length         46.3494 bohr
 

     total cpu time spent up to now is     1049.9 secs

     total energy              =   -2942.81691866 Ry
     estimated scf accuracy    <       0.32754933 Ry

     total magnetization       =    -0.01 Bohr mag/cell
     absolute magnetization    =     0.11 Bohr mag/cell

     iteration # 37     ecut=    29.40 Ry     beta= 0.05
     Davidson diagonalization with overlap
     c_bands:  2 eigenvalues not converged
     c_bands:  1 eigenvalues not converged
     c_bands:  3 eigenvalues not converged
     ethr =  5.56E-05,  avg # of iterations = 11.3

     negative rho (up, down):  3.332E-03 3.327E-03
 
     Adding external electric field

     Computed dipole along edir(3) : 
        Dipole                1.5392 Ry au,          3.9124 Debye
        Dipole field          0.0029 Ry au, 
 
        Potential amp.       -0.2693 Ry
        Total length         46.3494 bohr
 
 
     Adding external electric field

     Computed dipole along edir(3) : 
        Dipole                1.5392 Ry au,          3.9124 Debye
        Dipole field          0.0029 Ry au, 
 
        Potential amp.       -0.2693 Ry
        Total length         46.3494 bohr
 

     total cpu time spent up to now is     1071.1 secs

     total energy              =   -2942.82010159 Ry
     estimated scf accuracy    <       0.11834102 Ry

     total magnetization       =    -0.00 Bohr mag/cell
     absolute magnetization    =     0.12 Bohr mag/cell

     iteration # 38     ecut=    29.40 Ry     beta= 0.05
     Davidson diagonalization with overlap
     c_bands:  1 eigenvalues not converged
     c_bands:  2 eigenvalues not converged
     c_bands:  2 eigenvalues not converged
     c_bands:  2 eigenvalues not converged
     c_bands:  3 eigenvalues not converged
     c_bands:  2 eigenvalues not converged
     c_bands:  1 eigenvalues not converged
     c_bands:  2 eigenvalues not converged
     c_bands:  2 eigenvalues not converged
     c_bands:  2 eigenvalues not converged
     c_bands:  1 eigenvalues not converged
     ethr =  2.97E-05,  avg # of iterations = 17.9

     negative rho (up, down):  3.205E-03 3.201E-03
 
     Adding external electric field

     Computed dipole along edir(3) : 
        Dipole                1.4271 Ry au,          3.6273 Debye
        Dipole field          0.0027 Ry au, 
 
        Potential amp.       -0.2496 Ry
        Total length         46.3494 bohr
 
 
     Adding external electric field

     Computed dipole along edir(3) : 
        Dipole                1.4271 Ry au,          3.6273 Debye
        Dipole field          0.0027 Ry au, 
 
        Potential amp.       -0.2496 Ry
        Total length         46.3494 bohr
 

     total cpu time spent up to now is     1113.7 secs

     total energy              =   -2942.83378845 Ry
     estimated scf accuracy    <       0.25706791 Ry

     total magnetization       =    -0.01 Bohr mag/cell
     absolute magnetization    =     0.11 Bohr mag/cell

     iteration # 39     ecut=    29.40 Ry     beta= 0.05
     Davidson diagonalization with overlap
     ethr =  2.97E-05,  avg # of iterations =  3.7

     negative rho (up, down):  3.198E-03 3.194E-03
 
     Adding external electric field

     Computed dipole along edir(3) : 
        Dipole                1.4093 Ry au,          3.5820 Debye
        Dipole field          0.0027 Ry au, 
 
        Potential amp.       -0.2465 Ry
        Total length         46.3494 bohr
 
 
     Adding external electric field

     Computed dipole along edir(3) : 
        Dipole                1.4093 Ry au,          3.5820 Debye
        Dipole field          0.0027 Ry au, 
 
        Potential amp.       -0.2465 Ry
        Total length         46.3494 bohr
 

     total cpu time spent up to now is     1130.8 secs

     total energy              =   -2942.83594233 Ry
     estimated scf accuracy    <       0.18926630 Ry

     total magnetization       =    -0.01 Bohr mag/cell
     absolute magnetization    =     0.11 Bohr mag/cell

     iteration # 40     ecut=    29.40 Ry     beta= 0.05
     Davidson diagonalization with overlap
     ethr =  2.97E-05,  avg # of iterations =  1.1

     negative rho (up, down):  3.088E-03 3.084E-03
 
     Adding external electric field

     Computed dipole along edir(3) : 
        Dipole                1.2328 Ry au,          3.1334 Debye
        Dipole field          0.0023 Ry au, 
 
        Potential amp.       -0.2157 Ry
        Total length         46.3494 bohr
 
 
     Adding external electric field

     Computed dipole along edir(3) : 
        Dipole                1.2328 Ry au,          3.1334 Debye
        Dipole field          0.0023 Ry au, 
 
        Potential amp.       -0.2157 Ry
        Total length         46.3494 bohr
 

     total cpu time spent up to now is     1144.4 secs

     total energy              =   -2942.83284957 Ry
     estimated scf accuracy    <       0.18869274 Ry

     total magnetization       =    -0.01 Bohr mag/cell
     absolute magnetization    =     0.11 Bohr mag/cell

     iteration # 41     ecut=    29.40 Ry     beta= 0.05
     Davidson diagonalization with overlap
     c_bands:  2 eigenvalues not converged
     c_bands:  1 eigenvalues not converged
     c_bands:  4 eigenvalues not converged
     c_bands:  2 eigenvalues not converged
     ethr =  2.97E-05,  avg # of iterations =  7.2

     negative rho (up, down):  3.149E-03 3.145E-03
 
     Adding external electric field

     Computed dipole along edir(3) : 
        Dipole                1.3102 Ry au,          3.3301 Debye
        Dipole field          0.0025 Ry au, 
 
        Potential amp.       -0.2292 Ry
        Total length         46.3494 bohr
 
 
     Adding external electric field

     Computed dipole along edir(3) : 
        Dipole                1.3102 Ry au,          3.3301 Debye
        Dipole field          0.0025 Ry au, 
 
        Potential amp.       -0.2292 Ry
        Total length         46.3494 bohr
 

     total cpu time spent up to now is     1161.8 secs

     total energy              =   -2942.82770078 Ry
     estimated scf accuracy    <       0.19355626 Ry

     total magnetization       =    -0.01 Bohr mag/cell
     absolute magnetization    =     0.12 Bohr mag/cell

     iteration # 42     ecut=    29.40 Ry     beta= 0.05
     Davidson diagonalization with overlap
     c_bands:  1 eigenvalues not converged
     c_bands:  1 eigenvalues not converged
     ethr =  2.97E-05,  avg # of iterations =  6.8

     negative rho (up, down):  3.376E-03 3.375E-03
 
     Adding external electric field

     Computed dipole along edir(3) : 
        Dipole                1.4217 Ry au,          3.6135 Debye
        Dipole field          0.0027 Ry au, 
 
        Potential amp.       -0.2487 Ry
        Total length         46.3494 bohr
 
 
     Adding external electric field

     Computed dipole along edir(3) : 
        Dipole                1.4217 Ry au,          3.6135 Debye
        Dipole field          0.0027 Ry au, 
 
        Potential amp.       -0.2487 Ry
        Total length         46.3494 bohr
 

     total cpu time spent up to now is     1179.1 secs

     total energy              =   -2942.81137666 Ry
     estimated scf accuracy    <       0.13798605 Ry

     total magnetization       =    -0.00 Bohr mag/cell
     absolute magnetization    =     0.12 Bohr mag/cell

     iteration # 43     ecut=    29.40 Ry     beta= 0.05
     Davidson diagonalization with overlap
     c_bands:  1 eigenvalues not converged
     c_bands:  2 eigenvalues not converged
     c_bands:  2 eigenvalues not converged
     ethr =  2.97E-05,  avg # of iterations = 12.8

     negative rho (up, down):  3.419E-03 3.418E-03
 
     Adding external electric field

     Computed dipole along edir(3) : 
        Dipole                1.3712 Ry au,          3.4851 Debye
        Dipole field          0.0026 Ry au, 
 
        Potential amp.       -0.2399 Ry
        Total length         46.3494 bohr
 
 
     Adding external electric field

     Computed dipole along edir(3) : 
        Dipole                1.3712 Ry au,          3.4851 Debye
        Dipole field          0.0026 Ry au, 
 
        Potential amp.       -0.2399 Ry
        Total length         46.3494 bohr
 

     total cpu time spent up to now is     1201.9 secs

     total energy              =   -2942.82093639 Ry
     estimated scf accuracy    <       0.06889501 Ry

     total magnetization       =     0.01 Bohr mag/cell
     absolute magnetization    =     0.13 Bohr mag/cell

     iteration # 44     ecut=    29.40 Ry     beta= 0.05
     Davidson diagonalization with overlap
     c_bands:  3 eigenvalues not converged
     c_bands:  1 eigenvalues not converged
     c_bands:  4 eigenvalues not converged
     c_bands:  2 eigenvalues not converged
     c_bands:  3 eigenvalues not converged
     ethr =  1.73E-05,  avg # of iterations = 13.2

     negative rho (up, down):  3.719E-03 3.721E-03
 
     Adding external electric field

     Computed dipole along edir(3) : 
        Dipole                1.4747 Ry au,          3.7483 Debye
        Dipole field          0.0028 Ry au, 
 
        Potential amp.       -0.2580 Ry
        Total length         46.3494 bohr
 
 
     Adding external electric field

     Computed dipole along edir(3) : 
        Dipole                1.4747 Ry au,          3.7483 Debye
        Dipole field          0.0028 Ry au, 
 
        Potential amp.       -0.2580 Ry
        Total length         46.3494 bohr
 

     total cpu time spent up to now is     1226.6 secs

     total energy              =   -2942.82109850 Ry
     estimated scf accuracy    <       0.04088164 Ry

     total magnetization       =    -0.00 Bohr mag/cell
     absolute magnetization    =     0.11 Bohr mag/cell

     iteration # 45     ecut=    29.40 Ry     beta= 0.05
     Davidson diagonalization with overlap
     c_bands:  3 eigenvalues not converged
     c_bands:  2 eigenvalues not converged
     c_bands:  2 eigenvalues not converged
     c_bands:  2 eigenvalues not converged
     c_bands:  1 eigenvalues not converged
     c_bands:  2 eigenvalues not converged
     c_bands:  3 eigenvalues not converged
     c_bands:  1 eigenvalues not converged
     c_bands:  1 eigenvalues not converged
     c_bands:  1 eigenvalues not converged
     c_bands:  1 eigenvalues not converged
     ethr =  1.03E-05,  avg # of iterations = 17.1

     negative rho (up, down):  3.696E-03 3.698E-03
 
     Adding external electric field

     Computed dipole along edir(3) : 
        Dipole                1.2857 Ry au,          3.2679 Debye
        Dipole field          0.0024 Ry au, 
 
        Potential amp.       -0.2249 Ry
        Total length         46.3494 bohr
 
 
     Adding external electric field

     Computed dipole along edir(3) : 
        Dipole                1.2857 Ry au,          3.2679 Debye
        Dipole field          0.0024 Ry au, 
 
        Potential amp.       -0.2249 Ry
        Total length         46.3494 bohr
 

     total cpu time spent up to now is     1252.8 secs

     total energy              =   -2942.81562519 Ry
     estimated scf accuracy    <       0.03206371 Ry

     total magnetization       =     0.01 Bohr mag/cell
     absolute magnetization    =     0.11 Bohr mag/cell

     iteration # 46     ecut=    29.40 Ry     beta= 0.05
     Davidson diagonalization with overlap
     c_bands:  2 eigenvalues not converged
     c_bands:  1 eigenvalues not converged
     c_bands:  1 eigenvalues not converged
     c_bands:  1 eigenvalues not converged
     c_bands:  1 eigenvalues not converged
     c_bands:  2 eigenvalues not converged
     c_bands:  4 eigenvalues not converged
     c_bands:  1 eigenvalues not converged
     c_bands:  3 eigenvalues not converged
     ethr =  8.06E-06,  avg # of iterations = 16.9

     negative rho (up, down):  4.841E-03 4.849E-03
 
     Adding external electric field

     Computed dipole along edir(3) : 
        Dipole                1.5120 Ry au,          3.8431 Debye
        Dipole field          0.0029 Ry au, 
 
        Potential amp.       -0.2645 Ry
        Total length         46.3494 bohr
 
 
     Adding external electric field

     Computed dipole along edir(3) : 
        Dipole                1.5120 Ry au,          3.8431 Debye
        Dipole field          0.0029 Ry au, 
 
        Potential amp.       -0.2645 Ry
        Total length         46.3494 bohr
 

     total cpu time spent up to now is     1284.3 secs

     total energy              =   -2942.81842954 Ry
     estimated scf accuracy    <       0.05486377 Ry

     total magnetization       =    -0.00 Bohr mag/cell
     absolute magnetization    =     0.10 Bohr mag/cell

     iteration # 47     ecut=    29.40 Ry     beta= 0.05
     Davidson diagonalization with overlap
     c_bands:  2 eigenvalues not converged
     c_bands:  1 eigenvalues not converged
     c_bands:  1 eigenvalues not converged
     c_bands:  1 eigenvalues not converged
     c_bands:  1 eigenvalues not converged
     c_bands:  1 eigenvalues not converged
     ethr =  8.06E-06,  avg # of iterations = 15.4

     negative rho (up, down):  4.827E-03 4.835E-03
 
     Adding external electric field

     Computed dipole along edir(3) : 
        Dipole                1.5369 Ry au,          3.9065 Debye
        Dipole field          0.0029 Ry au, 
 
        Potential amp.       -0.2689 Ry
        Total length         46.3494 bohr
 
 
     Adding external electric field

     Computed dipole along edir(3) : 
        Dipole                1.5369 Ry au,          3.9065 Debye
        Dipole field          0.0029 Ry au, 
 
        Potential amp.       -0.2689 Ry
        Total length         46.3494 bohr
 

     total cpu time spent up to now is     1312.7 secs

     total energy              =   -2942.82384596 Ry
     estimated scf accuracy    <       0.01598654 Ry

     total magnetization       =     0.00 Bohr mag/cell
     absolute magnetization    =     0.10 Bohr mag/cell

     iteration # 48     ecut=    29.40 Ry     beta= 0.05
     Davidson diagonalization with overlap
     c_bands:  2 eigenvalues not converged
     c_bands:  1 eigenvalues not converged
     c_bands:  1 eigenvalues not converged
     c_bands:  1 eigenvalues not converged
     c_bands:  2 eigenvalues not converged
     ethr =  4.02E-06,  avg # of iterations = 12.2

     negative rho (up, down):  5.333E-03 5.343E-03
 
     Adding external electric field

     Computed dipole along edir(3) : 
        Dipole                1.5708 Ry au,          3.9926 Debye
        Dipole field          0.0030 Ry au, 
 
        Potential amp.       -0.2748 Ry
        Total length         46.3494 bohr
 
 
     Adding external electric field

     Computed dipole along edir(3) : 
        Dipole                1.5708 Ry au,          3.9926 Debye
        Dipole field          0.0030 Ry au, 
 
        Potential amp.       -0.2748 Ry
        Total length         46.3494 bohr
 

     total cpu time spent up to now is     1345.0 secs

     total energy              =   -2942.82492064 Ry
     estimated scf accuracy    <       0.01983485 Ry

     total magnetization       =     0.01 Bohr mag/cell
     absolute magnetization    =     0.10 Bohr mag/cell

     iteration # 49     ecut=    29.40 Ry     beta= 0.05
     Davidson diagonalization with overlap
     c_bands:  1 eigenvalues not converged
     ethr =  4.02E-06,  avg # of iterations =  6.9

     negative rho (up, down):  5.574E-03 5.586E-03
 
     Adding external electric field

     Computed dipole along edir(3) : 
        Dipole                1.5286 Ry au,          3.8853 Debye
        Dipole field          0.0029 Ry au, 
 
        Potential amp.       -0.2674 Ry
        Total length         46.3494 bohr
 
 
     Adding external electric field

     Computed dipole along edir(3) : 
        Dipole                1.5286 Ry au,          3.8853 Debye
        Dipole field          0.0029 Ry au, 
 
        Potential amp.       -0.2674 Ry
        Total length         46.3494 bohr
 

     total cpu time spent up to now is     1362.2 secs

     total energy              =   -2942.82386482 Ry
     estimated scf accuracy    <       0.00768297 Ry

     total magnetization       =     0.01 Bohr mag/cell
     absolute magnetization    =     0.10 Bohr mag/cell

     iteration # 50     ecut=    29.40 Ry     beta= 0.05
     Davidson diagonalization with overlap
     c_bands:  2 eigenvalues not converged
     c_bands:  1 eigenvalues not converged
     c_bands:  3 eigenvalues not converged
     c_bands:  1 eigenvalues not converged
     c_bands:  2 eigenvalues not converged
     c_bands:  2 eigenvalues not converged
     c_bands:  1 eigenvalues not converged
     c_bands:  1 eigenvalues not converged
     c_bands:  2 eigenvalues not converged
     ethr =  1.93E-06,  avg # of iterations = 18.4

     negative rho (up, down):  5.551E-03 5.563E-03
 
     Adding external electric field

     Computed dipole along edir(3) : 
        Dipole                1.5393 Ry au,          3.9125 Debye
        Dipole field          0.0029 Ry au, 
 
        Potential amp.       -0.2693 Ry
        Total length         46.3494 bohr
 
 
     Adding external electric field

     Computed dipole along edir(3) : 
        Dipole                1.5393 Ry au,          3.9125 Debye
        Dipole field          0.0029 Ry au, 
 
        Potential amp.       -0.2693 Ry
        Total length         46.3494 bohr
 

     total cpu time spent up to now is     1391.6 secs

     total energy              =   -2942.82477768 Ry
     estimated scf accuracy    <       0.00906385 Ry

     total magnetization       =     0.01 Bohr mag/cell
     absolute magnetization    =     0.09 Bohr mag/cell

     iteration # 51     ecut=    29.40 Ry     beta= 0.05
     Davidson diagonalization with overlap
     c_bands:  1 eigenvalues not converged
     c_bands:  2 eigenvalues not converged
     c_bands:  1 eigenvalues not converged
     c_bands:  1 eigenvalues not converged
     ethr =  1.93E-06,  avg # of iterations =  7.9

     negative rho (up, down):  6.002E-03 6.014E-03
 
     Adding external electric field

     Computed dipole along edir(3) : 
        Dipole                1.5978 Ry au,          4.0613 Debye
        Dipole field          0.0030 Ry au, 
 
        Potential amp.       -0.2795 Ry
        Total length         46.3494 bohr
 
 
     Adding external electric field

     Computed dipole along edir(3) : 
        Dipole                1.5978 Ry au,          4.0613 Debye
        Dipole field          0.0030 Ry au, 
 
        Potential amp.       -0.2795 Ry
        Total length         46.3494 bohr
 

     total cpu time spent up to now is     1409.7 secs

     total energy              =   -2942.82497562 Ry
     estimated scf accuracy    <       0.00123813 Ry

     total magnetization       =     0.01 Bohr mag/cell
     absolute magnetization    =     0.09 Bohr mag/cell

     iteration # 52     ecut=    29.40 Ry     beta= 0.05
     Davidson diagonalization with overlap
     c_bands:  1 eigenvalues not converged
     c_bands:  4 eigenvalues not converged
     c_bands:  2 eigenvalues not converged
     c_bands:  1 eigenvalues not converged
     c_bands:  1 eigenvalues not converged
     c_bands:  1 eigenvalues not converged
     c_bands:  3 eigenvalues not converged
     c_bands:  1 eigenvalues not converged
     c_bands:  1 eigenvalues not converged
     c_bands:  2 eigenvalues not converged
     ethr =  3.11E-07,  avg # of iterations = 18.8

     negative rho (up, down):  6.167E-03 6.179E-03
 
     Adding external electric field

     Computed dipole along edir(3) : 
        Dipole                1.5652 Ry au,          3.9784 Debye
        Dipole field          0.0030 Ry au, 
 
        Potential amp.       -0.2738 Ry
        Total length         46.3494 bohr
 
 
     Adding external electric field

     Computed dipole along edir(3) : 
        Dipole                1.5652 Ry au,          3.9784 Debye
        Dipole field          0.0030 Ry au, 
 
        Potential amp.       -0.2738 Ry
        Total length         46.3494 bohr
 

     total cpu time spent up to now is     1443.4 secs

     total energy              =   -2942.82483168 Ry
     estimated scf accuracy    <       0.00549054 Ry

     total magnetization       =     0.01 Bohr mag/cell
     absolute magnetization    =     0.09 Bohr mag/cell

     iteration # 53     ecut=    29.40 Ry     beta= 0.05
     Davidson diagonalization with overlap
     c_bands:  3 eigenvalues not converged
     c_bands:  2 eigenvalues not converged
     c_bands:  3 eigenvalues not converged
     c_bands:  3 eigenvalues not converged
     c_bands:  1 eigenvalues not converged
     ethr =  3.11E-07,  avg # of iterations = 16.0

     negative rho (up, down):  6.622E-03 6.634E-03
 
     Adding external electric field

     Computed dipole along edir(3) : 
        Dipole                1.5923 Ry au,          4.0473 Debye
        Dipole field          0.0030 Ry au, 
 
        Potential amp.       -0.2786 Ry
        Total length         46.3494 bohr
 
 
     Adding external electric field

     Computed dipole along edir(3) : 
        Dipole                1.5923 Ry au,          4.0473 Debye
        Dipole field          0.0030 Ry au, 
 
        Potential amp.       -0.2786 Ry
        Total length         46.3494 bohr
 

     total cpu time spent up to now is     1481.8 secs

     total energy              =   -2942.82529348 Ry
     estimated scf accuracy    <       0.00086395 Ry

     total magnetization       =     0.01 Bohr mag/cell
     absolute magnetization    =     0.09 Bohr mag/cell

     iteration # 54     ecut=    29.40 Ry     beta= 0.05
     Davidson diagonalization with overlap
     c_bands:  1 eigenvalues not converged
     c_bands:  2 eigenvalues not converged
     c_bands:  2 eigenvalues not converged
     ethr =  2.17E-07,  avg # of iterations = 12.6

     negative rho (up, down):  6.697E-03 6.710E-03
 
     Adding external electric field

     Computed dipole along edir(3) : 
        Dipole                1.5849 Ry au,          4.0284 Debye
        Dipole field          0.0030 Ry au, 
 
        Potential amp.       -0.2773 Ry
        Total length         46.3494 bohr
 
 
     Adding external electric field

     Computed dipole along edir(3) : 
        Dipole                1.5849 Ry au,          4.0284 Debye
        Dipole field          0.0030 Ry au, 
 
        Potential amp.       -0.2773 Ry
        Total length         46.3494 bohr
 

     total cpu time spent up to now is     1518.4 secs

     total energy              =   -2942.82534821 Ry
     estimated scf accuracy    <       0.00027338 Ry

     total magnetization       =     0.02 Bohr mag/cell
     absolute magnetization    =     0.09 Bohr mag/cell

     iteration # 55     ecut=    29.40 Ry     beta= 0.05
     Davidson diagonalization with overlap
     c_bands:  2 eigenvalues not converged
     c_bands:  1 eigenvalues not converged
     c_bands:  2 eigenvalues not converged
     c_bands:  2 eigenvalues not converged
     ethr =  6.87E-08,  avg # of iterations = 14.5

     negative rho (up, down):  6.842E-03 6.853E-03
 
     Adding external electric field

     Computed dipole along edir(3) : 
        Dipole                1.5954 Ry au,          4.0550 Debye
        Dipole field          0.0030 Ry au, 
 
        Potential amp.       -0.2791 Ry
        Total length         46.3494 bohr
 
 
     Adding external electric field

     Computed dipole along edir(3) : 
        Dipole                1.5954 Ry au,          4.0550 Debye
        Dipole field          0.0030 Ry au, 
 
        Potential amp.       -0.2791 Ry
        Total length         46.3494 bohr
 

     total cpu time spent up to now is     1554.6 secs

     total energy              =   -2942.82538046 Ry
     estimated scf accuracy    <       0.00034790 Ry

     total magnetization       =     0.02 Bohr mag/cell
[...]
     4.1674   4.2640   4.2905   4.3663   4.4030   4.4071   4.4389   4.4571
     4.4711

          k = 0.0380 0.0419 0.0000 ( 17878 PWs)   bands (ev):

   -55.1304 -55.1043 -55.0908 -55.0667 -55.0134 -54.9983 -54.9839 -54.9297
   -54.9194 -54.9155 -54.9050 -54.8958 -54.8536 -54.7871 -54.1019 -54.0779
   -31.6570 -31.5317 -31.4582 -31.4556 -31.4019 -31.3867 -31.3863 -31.3808
   -31.3770 -31.3693 -31.3533 -31.3337 -31.3333 -31.3194 -31.3143 -31.2712
   -31.2633 -31.2465 -31.2319 -31.2102 -31.2075 -31.2067 -31.2054 -31.1754
   -31.1665 -31.1618 -31.1564 -31.1417 -31.1375 -31.1290 -31.1227 -31.1195
   -31.1123 -31.0972 -31.0909 -31.0895 -31.0862 -31.0807 -31.0638 -31.0365
   -31.0207 -31.0096 -30.4608 -30.4227 -30.4032 -30.3191 -30.2579 -30.1912
   -18.9488 -15.8086 -15.5617 -15.4417 -15.2900 -15.2392 -15.1444 -15.1241
   -15.0851 -15.0440 -14.9881 -14.9358 -14.9035 -14.8470 -14.8305 -14.8118
   -14.7904 -14.7761 -14.6537 -14.6283 -14.5679 -14.5460 -14.5173 -14.4833
   -14.4814 -14.4478 -14.4092 -14.3891 -14.3577 -14.0493 -13.6180 -12.6113
   -12.5323  -9.7359  -7.7490  -7.1941  -5.4595  -3.8314  -3.3533  -3.0843
    -2.8114  -2.7624  -2.7281  -2.6061  -2.5877  -2.5591  -2.5136  -2.4172
    -2.3656  -2.2906  -2.2599  -2.2137  -2.1947  -2.1746  -2.1121  -2.0945
    -2.0458  -2.0191  -1.9742  -1.9513  -1.9345  -1.8838  -1.8414  -1.8160
    -1.8031  -1.7414  -1.6953  -1.6508  -1.6353  -1.5883  -1.5150  -1.4541
    -1.3638  -1.3247  -1.2449  -1.1927  -1.1424  -1.1208  -0.9708  -0.9322
    -0.8895  -0.8452  -0.7625  -0.7062  -0.6478  -0.6215  -0.5862  -0.5553
    -0.5231  -0.4800  -0.4298  -0.3628  -0.3245  -0.3049  -0.2329  -0.2080
    -0.1644  -0.0937  -0.0731  -0.0319  -0.0230   0.0516   0.1196   0.1548
     0.1613   0.2008   0.2259   0.2515   0.2952   0.3300   0.4005   0.4219
     0.4917   0.5265   0.5911   0.6148   0.6722   0.7685   0.8269   0.8610
     0.9187   0.9748   1.0292   1.0372   1.1589   1.2233   1.2942   1.2979
     1.4741   1.6787   2.1111   2.1830   2.3664   2.4290   4.1216   4.1740
     4.1973   4.3086   4.3435   4.3807   4.3905   4.4529   4.5357   4.5513
     4.5831

          k = 0.0380-0.0839 0.0000 ( 17916 PWs)   bands (ev):

   -55.1202 -55.1146 -55.0788 -55.0787 -55.0072 -54.9966 -54.9902 -54.9193
   -54.9173 -54.9155 -54.9083 -54.9069 -54.8517 -54.7891 -54.0900 -54.0899
   -31.5179 -31.5151 -31.4375 -31.4161 -31.3992 -31.3992 -31.3713 -31.3712
   -31.3407 -31.3384 -31.3370 -31.3297 -31.3021 -31.2805 -31.2782 -31.2638
   -31.2511 -31.2489 -31.2444 -31.2417 -31.2112 -31.2076 -31.2052 -31.1995
   -31.1994 -31.1904 -31.1857 -31.1722 -31.1684 -31.1662 -31.1536 -31.1489
   -31.1347 -31.1193 -31.0990 -31.0969 -31.0897 -31.0891 -31.0836 -31.0650
   -31.0389 -31.0170 -30.4130 -30.4128 -30.3281 -30.3279 -30.2886 -30.2885
   -18.9474 -15.5452 -15.4725 -15.3571 -15.2745 -15.2020 -15.1703 -15.0980
   -15.0564 -15.0461 -15.0067 -14.9667 -14.8941 -14.8548 -14.8421 -14.8009
   -14.7477 -14.7447 -14.6787 -14.6454 -14.5968 -14.5755 -14.5530 -14.5453
   -14.4879 -14.4813 -14.4676 -14.4645 -14.3884 -14.1796 -13.6247 -12.5946
   -12.5944  -9.7358  -7.7482  -7.1904  -5.4573  -3.8377  -3.3596  -2.7547
    -2.6425  -2.4971  -2.4796  -2.4266  -2.4167  -2.3980  -2.3429  -2.3289
    -2.2942  -2.2382  -2.2179  -2.2099  -2.2067  -2.1861  -2.1741  -2.1120
    -2.0839  -2.0750  -2.0348  -2.0094  -2.0006  -1.9834  -1.9313  -1.8888
    -1.8673  -1.8295  -1.8212  -1.7427  -1.7002  -1.6744  -1.4255  -1.3536
    -1.3304  -1.2032  -1.1773  -1.1262  -1.0626  -1.0589  -1.0304  -0.9824
    -0.9751  -0.8930  -0.8720  -0.8027  -0.7984  -0.7067  -0.6758  -0.6290
    -0.5728  -0.5453  -0.4831  -0.4445  -0.3695  -0.3334  -0.2775  -0.2146
    -0.1849  -0.1039  -0.0613  -0.0376   0.0393   0.0574   0.0736   0.0886
     0.1182   0.2089   0.2447   0.2552   0.2928   0.3349   0.3431   0.3567
     0.3896   0.4669   0.5710   0.6031   0.6096   0.7569   0.7946   0.8836
     0.9424   0.9487   0.9588   1.0711   1.0994   1.1651   1.2024   1.2302
     1.4447   1.4671   2.2564   2.2573   2.3701   2.3708   4.1011   4.1903
     4.2519   4.2858   4.3578   4.4245   4.4382   4.5609   4.5726   4.6151
     4.6261

          k = 0.0380-0.0419 0.0000 ( 17876 PWs)   bands (ev):

   -55.1304 -55.1043 -55.0908 -55.0667 -55.0134 -54.9983 -54.9839 -54.9297
   -54.9194 -54.9155 -54.9050 -54.8958 -54.8536 -54.7871 -54.1019 -54.0779
   -31.6570 -31.5317 -31.4582 -31.4556 -31.4018 -31.3868 -31.3863 -31.3808
   -31.3770 -31.3694 -31.3532 -31.3337 -31.3333 -31.3194 -31.3142 -31.2712
   -31.2632 -31.2465 -31.2319 -31.2111 -31.2075 -31.2067 -31.2053 -31.1756
   -31.1665 -31.1618 -31.1564 -31.1417 -31.1375 -31.1275 -31.1201 -31.1190
   -31.1117 -31.0979 -31.0970 -31.0896 -31.0861 -31.0783 -31.0638 -31.0362
   -31.0208 -31.0100 -30.4608 -30.4227 -30.4032 -30.3191 -30.2579 -30.1912
   -18.9487 -15.8099 -15.5666 -15.4429 -15.2865 -15.2393 -15.1390 -15.1225
   -15.0873 -15.0424 -14.9975 -14.9304 -14.9031 -14.8431 -14.8317 -14.8108
   -14.7888 -14.7763 -14.6538 -14.6284 -14.5682 -14.5456 -14.5171 -14.4846
   -14.4801 -14.4471 -14.4092 -14.3895 -14.3580 -14.0496 -13.6227 -12.6113
   -12.5323  -9.7362  -7.7492  -7.1896  -5.4561  -3.8300  -3.3843  -3.0839
    -2.8110  -2.7625  -2.7280  -2.6236  -2.5926  -2.5570  -2.5143  -2.4264
    -2.3369  -2.2848  -2.2699  -2.2178  -2.1931  -2.1594  -2.1149  -2.0944
    -2.0432  -2.0186  -1.9807  -1.9475  -1.9380  -1.8841  -1.8533  -1.8144
    -1.8003  -1.7463  -1.6907  -1.6510  -1.6414  -1.5437  -1.5105  -1.4581
    -1.3586  -1.3129  -1.2175  -1.1920  -1.1346  -1.1142  -0.9555  -0.9326
    -0.8910  -0.8460  -0.7772  -0.6911  -0.6621  -0.6379  -0.5784  -0.5608
    -0.5147  -0.4819  -0.4397  -0.3803  -0.3315  -0.3095  -0.2311  -0.2099
    -0.1805  -0.0901  -0.0745  -0.0381  -0.0267   0.0404   0.0983   0.1291
     0.1677   0.2020   0.2357   0.2498   0.2974   0.3417   0.3843   0.4308
     0.4902   0.5222   0.5846   0.6172   0.6673   0.7656   0.8277   0.8694
     0.9242   0.9866   1.0292   1.0477   1.1605   1.2434   1.2910   1.2970
     1.4744   1.6783   2.1112   2.1830   2.3662   2.4296   4.1410   4.1753
     4.1976   4.3087   4.3426   4.3651   4.3935   4.4442   4.5368   4.5531
     4.5879

          k =-0.0760-0.0000 0.0000 ( 17886 PWs)   bands (ev):

   -55.1356 -55.0991 -55.0958 -55.0617 -55.0178 -55.0000 -54.9796 -54.9341
   -54.9248 -54.9138 -54.8999 -54.8910 -54.8555 -54.7852 -54.1069 -54.0729
   -31.7148 -31.5866 -31.5142 -31.4715 -31.4336 -31.4274 -31.4269 -31.3930
   -31.3911 -31.3856 -31.3592 -31.3409 -31.3133 -31.3011 -31.2943 -31.2588
   -31.2528 -31.2423 -31.2397 -31.2066 -31.2061 -31.2016 -31.1774 -31.1672
   -31.1551 -31.1532 -31.1467 -31.1377 -31.1326 -31.1209 -31.1195 -31.1172
   -31.1121 -31.0907 -31.0879 -31.0539 -31.0471 -31.0364 -31.0355 -31.0272
   -31.0213 -30.9751 -30.5145 -30.4302 -30.3978 -30.3317 -30.2450 -30.1341
   -18.9489 -15.8514 -15.5454 -15.5229 -15.3134 -15.2840 -15.2121 -15.1726
   -15.0837 -15.0100 -14.9749 -14.9228 -14.9159 -14.8876 -14.8860 -14.8622
   -14.8379 -14.8243 -14.7863 -14.5826 -14.5284 -14.5244 -14.5229 -14.4761
   -14.4266 -14.3818 -14.3739 -14.2750 -14.2680 -13.9651 -13.6311 -12.6034
   -12.4921  -9.7218  -7.7504  -7.1647  -5.4575  -3.8291  -3.4838  -3.2289
    -2.9216  -2.7900  -2.7864  -2.6282  -2.6119  -2.6021  -2.5663  -2.4885
    -2.4663  -2.4148  -2.3786  -2.3640  -2.2261  -2.1540  -1.9679  -1.9626
    -1.9410  -1.8377  -1.7590  -1.7520  -1.7481  -1.7161  -1.6662  -1.6249
    -1.6082  -1.5657  -1.5378  -1.5010  -1.4784  -1.4524  -1.4309  -1.4164
    -1.3885  -1.3498  -1.3400  -1.3129  -1.2304  -1.1903  -1.0324  -0.9653
    -0.8480  -0.8242  -0.7935  -0.7521  -0.7411  -0.6985  -0.6771  -0.6417
    -0.6054  -0.5758  -0.5564  -0.5006  -0.4465  -0.4122  -0.3980  -0.3193
    -0.2601  -0.2086  -0.1683  -0.1416   0.0465   0.0789   0.1150   0.1404
     0.1687   0.2398   0.2683   0.3433   0.3906   0.4152   0.4361   0.4937
     0.5236   0.5382   0.5730   0.6188   0.6709   0.7064   0.7340   0.7506
     0.7726   0.8712   1.0228   1.1469   1.1759   1.3678   1.4387   1.4458
     1.5625   1.8387   1.9485   2.0456   2.2473   2.3989   3.9957   4.0263
     4.0996   4.2315   4.2554   4.3483   4.4017   4.4552   4.4886   4.5155
     4.5202

          k =-0.0760 0.0419 0.0000 ( 17914 PWs)   bands (ev):

   -55.1304 -55.1043 -55.0908 -55.0667 -55.0135 -54.9983 -54.9839 -54.9292
   -54.9199 -54.9155 -54.9049 -54.8960 -54.8537 -54.7871 -54.1019 -54.0779
   -31.6574 -31.5327 -31.4616 -31.4584 -31.4023 -31.3870 -31.3869 -31.3813
   -31.3809 -31.3712 -31.3540 -31.3337 -31.3336 -31.3146 -31.3005 -31.2635
   -31.2619 -31.2464 -31.2297 -31.2270 -31.2071 -31.1985 -31.1748 -31.1664
   -31.1657 -31.1652 -31.1597 -31.1572 -31.1416 -31.1286 -31.1215 -31.1209
   -31.1123 -31.1010 -31.0982 -31.0950 -31.0888 -31.0804 -31.0639 -31.0362
   -31.0243 -31.0101 -30.4606 -30.4256 -30.4025 -30.3192 -30.2579 -30.1913
   -18.9477 -15.7360 -15.4562 -15.4112 -15.2556 -15.2376 -15.1526 -15.1375
   -15.0905 -15.0269 -14.9290 -14.9182 -14.9088 -14.8965 -14.8696 -14.8571
   -14.8392 -14.8177 -14.7486 -14.6341 -14.5830 -14.5444 -14.5441 -14.5009
   -14.4660 -14.4527 -14.4159 -14.3743 -14.3635 -14.0484 -13.6335 -12.6091
   -12.5327  -9.7212  -7.7490  -7.1658  -5.4590  -3.8347  -3.4568  -3.0668
    -2.7580  -2.6058  -2.5273  -2.4619  -2.4309  -2.4233  -2.3850  -2.3235
    -2.2897  -2.2678  -2.2323  -2.1829  -2.1636  -2.1238  -2.0766  -2.0726
    -2.0131  -1.9465  -1.9373  -1.8756  -1.8634  -1.8218  -1.7846  -1.7295
    -1.7156  -1.7031  -1.6673  -1.6472  -1.6059  -1.5935  -1.5182  -1.4352
    -1.3600  -1.3035  -1.2883  -1.2109  -1.1613  -1.0995  -0.9252  -0.9038
    -0.8685  -0.8591  -0.7653  -0.7486  -0.7284  -0.6919  -0.6357  -0.6216
    -0.5798  -0.5556  -0.5252  -0.4864  -0.4477  -0.3897  -0.3522  -0.3416
    -0.3386  -0.2930  -0.2663  -0.1885  -0.1817  -0.0721  -0.0402   0.0497
     0.0714   0.0934   0.1621   0.1786   0.2246   0.2774   0.3054   0.3890
     0.4386   0.4777   0.5823   0.6398   0.6775   0.6951   0.8177   0.8386
     0.8837   1.0526   1.0658   1.1626   1.2435   1.2686   1.3207   1.3727
     1.4028   1.5495   2.1263   2.1853   2.2888   2.4183   4.1369   4.1832
     4.1920   4.1960   4.2858   4.3489   4.3697   4.4306   4.4577   4.5823
     4.6508

          k =-0.0760-0.0839 0.0000 ( 17948 PWs)   bands (ev):

   -55.1202 -55.1146 -55.0788 -55.0788 -55.0073 -54.9966 -54.9902 -54.9191
   -54.9173 -54.9150 -54.9087 -54.9073 -54.8518 -54.7891 -54.0901 -54.0899
   -31.5182 -31.5154 -31.4377 -31.4163 -31.4000 -31.4000 -31.3714 -31.3713
   -31.3463 -31.3409 -31.3374 -31.3371 -31.3025 -31.2658 -31.2620 -31.2576
   -31.2543 -31.2503 -31.2496 -31.2434 -31.2104 -31.2085 -31.2061 -31.2037
   -31.1981 -31.1981 -31.1831 -31.1825 -31.1537 -31.1490 -31.1336 -31.1296
   -31.1278 -31.1271 -31.1263 -31.1171 -31.0931 -31.0898 -31.0870 -31.0644
   -31.0395 -31.0219 -30.4139 -30.4138 -30.3280 -30.3279 -30.2886 -30.2886
   -18.9465 -15.5049 -15.3951 -15.2881 -15.2218 -15.1791 -15.1278 -15.1101
   -15.0993 -15.0548 -15.0252 -14.9560 -14.8910 -14.8381 -14.8371 -14.8027
   -14.7238 -14.7100 -14.7030 -14.6925 -14.6359 -14.6292 -14.5977 -14.5768
   -14.5737 -14.5438 -14.4702 -14.4677 -14.3819 -14.1761 -13.6352 -12.5944
   -12.5942  -9.7206  -7.7478  -7.1670  -5.4604  -3.8418  -3.4335  -2.7536
    -2.6424  -2.4321  -2.4061  -2.3459  -2.3266  -2.2439  -2.1809  -2.1585
    -2.1351  -2.1012  -2.0981  -2.0749  -2.0524  -1.9994  -1.9700  -1.9581
    -1.9524  -1.9376  -1.9248  -1.9052  -1.8486  -1.8382  -1.8308  -1.7882
    -1.7773  -1.7455  -1.7393  -1.7003  -1.6837  -1.6092  -1.5150  -1.4907
    -1.4322  -1.3309  -1.3160  -1.3104  -1.2182  -1.2090  -1.1795  -1.1485
    -1.0942  -0.9951  -0.9402  -0.8633  -0.8600  -0.8310  -0.7434  -0.6797
    -0.6461  -0.6366  -0.5977  -0.5403  -0.5179  -0.4830  -0.4004  -0.3589
    -0.3319  -0.2984  -0.2032  -0.1420  -0.1183  -0.0865  -0.0830   0.0057
     0.0391   0.0760   0.0968   0.1349   0.1617   0.2245   0.2483   0.3587
     0.4265   0.4584   0.5775   0.6018   0.6654   0.7978   0.8697   0.9101
     0.9620   1.0205   1.0481   1.1788   1.1859   1.2060   1.3047   1.3450
     1.3518   1.3650   2.2742   2.2752   2.3567   2.3568   4.1024   4.1891
     4.2307   4.2682   4.3765   4.4868   4.5052   4.5485   4.5490   4.6235
     4.6295

     the Fermi energy is     4.0233 ev

!    total energy              =   -2942.82551429 Ry
     estimated scf accuracy    <       0.00000007 Ry
     smearing contrib. (-TS)   =      -0.03684262 Ry
     internal energy E=F+TS    =   -2942.78867167 Ry

     The total energy is F=E-TS. E is the sum of the following terms:
     one-electron contribution =  -23972.34088252 Ry
     hartree contribution      =   12081.75680196 Ry
     xc contribution           =    -487.77681865 Ry
     ewald contribution        =    9435.56727597 Ry
     electric field correction =       0.00495157 Ry

     total magnetization       =    -0.02 Bohr mag/cell
     absolute magnetization    =     0.03 Bohr mag/cell

     convergence has been achieved in 118 iterations

     Forces acting on atoms (cartesian axes, Ry/au):

     atom    1 type  1   force =     0.00015149   -0.00022495    0.09431650
     atom    2 type  1   force =    -0.00009462   -0.00033126   -0.17740274
     atom    3 type  2   force =     0.00005520   -0.00016670   -0.02137075
     atom    4 type  2   force =    -0.00001505   -0.00172621    0.05658221
     atom    5 type  2   force =    -0.01054682   -0.00127659    0.00624241
     atom    6 type  2   force =     0.01221460   -0.00074296    0.00571417
     atom    7 type  1   force =    -0.00032840    0.00172150   -0.01617345
     atom    8 type  1   force =    -0.00011132    0.00438450    0.00561272
     atom    9 type  2   force =     0.00001005   -0.00004330   -0.00003983
     atom   10 type  2   force =    -0.00074249   -0.00022156   -0.00044157
     atom   11 type  2   force =     0.00034142    0.00012412   -0.00019251
     atom   12 type  2   force =    -0.00051403    0.00000189   -0.00012954
     atom   13 type  1   force =     0.00004278   -0.00035141    0.00012885
     atom   14 type  1   force =     0.00055851    0.00011801   -0.00033199
     atom   15 type  2   force =    -0.00040103    0.00025291   -0.00015784
     atom   16 type  2   force =    -0.00032898    0.00019143   -0.00002493
     atom   17 type  2   force =    -0.00017056    0.00008928    0.00044687
     atom   18 type  2   force =     0.00010262    0.00033155   -0.00005837
     atom   19 type  1   force =     0.00013834    0.00002161    0.00002570
     atom   20 type  1   force =     0.00009358    0.00055522   -0.00054812
     atom   21 type  2   force =     0.00003756    0.00004149    0.10363201
     atom   22 type  2   force =    -0.00006319   -0.00083910   -0.00022213
     atom   23 type  2   force =    -0.07083066   -0.00010230   -0.02720018
     atom   24 type  2   force =     0.07069393    0.00033988   -0.02722919
     atom   25 type  1   force =    -0.00009510   -0.00019440    0.09373790
     atom   26 type  1   force =    -0.00015217   -0.00032223   -0.17733355
     atom   27 type  2   force =     0.00008748   -0.00034882   -0.02047002
     atom   28 type  2   force =     0.00003136   -0.00144111    0.05589160
     atom   29 type  2   force =    -0.01090950   -0.00073444    0.00609154
     atom   30 type  2   force =     0.01246117   -0.00029032    0.00557013
     atom   31 type  1   force =    -0.00017420    0.00462563   -0.01720196
     atom   32 type  1   force =    -0.00003827   -0.00480184    0.00559510
     atom   33 type  2   force =     0.00005701    0.00012124    0.00027506
     atom   34 type  2   force =     0.00005742   -0.00085305   -0.00297168
     atom   35 type  2   force =     0.00022527    0.00003295    0.00007988
     atom   36 type  2   force =    -0.00042010    0.00015806   -0.00006543
     atom   37 type  1   force =    -0.00012786   -0.00011045   -0.00018058
     atom   38 type  1   force =     0.00043204   -0.00028563    0.00036700
     atom   39 type  2   force =    -0.00045451    0.00011325    0.00074849
     atom   40 type  2   force =    -0.00011644    0.00018936   -0.00019429
     atom   41 type  2   force =     0.00019416    0.00024537    0.00045611
     atom   42 type  2   force =    -0.00004006    0.00023422   -0.00004488
     atom   43 type  1   force =    -0.00045666    0.00060484   -0.00009275
     atom   44 type  1   force =    -0.00011655    0.00026222   -0.00021044
     atom   45 type  2   force =     0.00002688    0.00001123    0.10363011
     atom   46 type  2   force =    -0.07083184   -0.00003262   -0.02719175
     atom   47 type  2   force =     0.07069939    0.00037966   -0.02719811
     atom   48 type  3   force =     0.00113345   -0.00020896   -0.00054725
     atom   49 type  4   force =    -0.00039352    0.00024238   -0.00072321
     atom   50 type  5   force =     0.00004031    0.00003129    0.00005875
     atom   51 type  5   force =    -0.00025366   -0.00035042    0.00008964
     atom   52 type  5   force =    -0.00036720   -0.00002814    0.00013891
     atom   53 type  3   force =     0.00376700    0.00441737   -0.00038059
     atom   54 type  5   force =     0.00024641    0.00032460   -0.00033403
     atom   55 type  5   force =    -0.00064819   -0.00029719   -0.00093212
     atom   56 type  5   force =    -0.00415642   -0.00384104    0.00216414

     Total force =     0.365696     Total SCF correction =     0.000449
  @ DRIVER MODE: Message from server: STATUS
  @ DRIVER MODE: Message from server: GETFORCE
  @ DRIVER MODE: Returning v,forces,stress,ensemble 

     Writing output data file ./calc.save/
  @ DRIVER MODE: Message from server: EXIT
  @ DRIVE MODE: Exiting  
 
     init_run     :     11.72s CPU     11.90s WALL (       1 calls)
     electrons    :   2865.21s CPU   2902.39s WALL (       1 calls)
     forces       :      3.54s CPU      3.62s WALL (       1 calls)

     Called by init_run:
     wfcinit      :      6.70s CPU      6.79s WALL (       1 calls)
     potinit      :      3.87s CPU      3.92s WALL (       1 calls)
     hinit0       :      0.41s CPU      0.42s WALL (       1 calls)

     Called by electrons:
     c_bands      :   2469.28s CPU   2493.57s WALL (     118 calls)
     sum_band     :    299.77s CPU    306.18s WALL (     118 calls)
     v_of_rho     :     63.52s CPU     64.96s WALL (     119 calls)
     newd         :     23.14s CPU     27.47s WALL (     119 calls)
     mix_rho      :     10.30s CPU     10.71s WALL (     118 calls)
     vdW_kernel   :      3.18s CPU      3.19s WALL (       1 calls)

     Called by c_bands:
     init_us_2    :     15.68s CPU     15.75s WALL (    4760 calls)
     cegterg      :   2425.27s CPU   2448.43s WALL (    2391 calls)

     Called by *egterg:
     cdiaghg      :    593.38s CPU    598.12s WALL (   23541 calls)
     h_psi        :   1161.35s CPU   1176.40s WALL (   23561 calls)
     s_psi        :    139.32s CPU    139.79s WALL (   23561 calls)
     g_psi        :      3.31s CPU      3.33s WALL (   21150 calls)

     Called by h_psi:
     h_psi:calbec :    141.91s CPU    142.45s WALL (   23561 calls)
     vloc_psi     :    871.62s CPU    885.64s WALL (   23561 calls)
     add_vuspsi   :    141.28s CPU    141.75s WALL (   23561 calls)

     General routines
     calbec       :    191.54s CPU    192.24s WALL (   26001 calls)
     fft          :     39.50s CPU     39.84s WALL (   10588 calls)
     ffts         :      0.48s CPU      0.49s WALL (     474 calls)
     fftw         :   1021.68s CPU   1038.39s WALL ( 3024622 calls)
     interpolate  :      1.20s CPU      1.24s WALL (     238 calls)
     davcio       :      0.00s CPU      0.65s WALL (      20 calls)
 
     Parallel routines
 
     PWSCF        :  48m14.62s CPU  48m53.01s WALL

 
   This run was terminated on:  10:21:35  17Jul2021            

=------------------------------------------------------------------------------=
   JOB DONE.
=------------------------------------------------------------------------------=
