
     Program PWSCF v.6.7GPU starts on 10Sep2021 at 22:26: 8 

     This program is part of the open-source Quantum ESPRESSO suite
     for quantum simulation of materials; please cite
         "P. Giannozzi et al., J. Phys.:Condens. Matter 21 395502 (2009);
         "P. Giannozzi et al., J. Phys.:Condens. Matter 29 465901 (2017);
         "P. Giannozzi et al., J. Chem. Phys. 152 154105 (2020);
          URL http://www.quantum-espresso.org", 
     in publications or presentations arising from this work. More details at
     http://www.quantum-espresso.org/quote

     Parallel version (MPI), running on    10 processors

     MPI processes distributed on     1 nodes
     R & G space division:  proc/nbgrp/npool/nimage =      10
     Reading input from /storage/home/hcoda1/3/ntian30/research/carbon/CxH_vib/CH2_calc/ads_slab/CH2N2H_e/out_0015/pw.inp
Warning: card &CELL ignored
Warning: card   CELL_DYNAMICS='IPI', ignored
Warning: card / ignored

     Current dimensions of program PWSCF are:
     Max number of different atomic species (ntypx) = 10
     Max number of k-points (npk) =  40000
     Max angular momentum in pseudopotentials (lmaxx) =  3
     Presently no symmetry can be used with electric field

     Message from routine cell_base_init:
     DEPRECATED: use true lattice parameter, not A to a.u. conversion factor

     **************************************************************************
     Initializing libbeef V0.1.2 with the BEEF-vdW functional.
     Citation: Wellendorff et al., PRB 85, 235149 (2012).
     **************************************************************************


     IMPORTANT: XC functional enforced from input :
     Exchange-correlation= BEEF-VDW
                           (   1   4  43  14   2   0   0)
     Any further DFT definition will be discarded
     Please, verify this is what you really want


     Subspace diagonalization in iterative solution of the eigenvalue problem:
     one sub-group per band group will be used
     scalapack distributed-memory algorithm (size of sub-group:  3*  3 procs)

  @ DRIVER MODE: Connecting to 
 qe_1139763_2792041.sched-torque.pace.gatech.edugqibejld_scratch
  using UNIX socket
  @ DRIVER MODE: Message from server: STATUS
  @ DRIVER MODE: Message from server: INIT
  @ DRIVER MODE: Receiving replica           0          -1
  @ DRIVER MODE: Receiving encoded integer          25
  @ DRIVER MODE:  SCF:  T  FORCE:  T  STRESS:  F  VC:  F  ENSEMBLE:  F
  @ DRIVER MODE:  SCF:  T  FORCE:  T  STRESS:  F  VC:  F  ENSEMBLE:  F
 
     Parallelization info
     --------------------
     sticks:   dense  smooth     PW     G-vecs:    dense   smooth      PW
     Min         327     131     37                56683    14340    2191
     Max         328     133     38                56694    14346    2206
     Sum        3275    1317    379               566857   143421   21985
 
     Using Slab Decomposition
 


     bravais-lattice index     =            0
     lattice parameter (alat)  =       1.8897  a.u.
     unit-cell volume          =    6658.9804 (a.u.)^3
     number of atoms/cell      =           53
     number of atomic types    =            5
     number of electrons       =       395.00
     number of Kohn-Sham states=          207
     kinetic-energy cutoff     =      29.3995  Ry
     charge density cutoff     =     293.9946  Ry
     scf convergence threshold =      7.3E-08
     mixing beta               =       0.0500
     number of iterations used =            8  plain     mixing
     Exchange-correlation= BEEF-VDW
                           (   1   4  43  14   2   0   0)

     celldm(1)=   1.889726  celldm(2)=   0.000000  celldm(3)=   0.000000
     celldm(4)=   0.000000  celldm(5)=   0.000000  celldm(6)=   0.000000

     crystal axes: (cart. coord. in units of alat)
               a(1) = (   6.579727   0.000000   0.000000 )  
               a(2) = (  -0.000775   5.961596   0.000000 )  
               a(3) = (   0.000000   0.000000  25.155947 )  

     reciprocal axes: (cart. coord. in units 2 pi/alat)
               b(1) = (  0.151982  0.000020  0.000000 )  
               b(2) = (  0.000000  0.167740  0.000000 )  
               b(3) = (  0.000000  0.000000  0.039752 )  


     PseudoPot. # 1 for Ti read from file:
     /storage/coda1/p-amedford6/0/shared/rich_project_chbe-medford/medford-share/data/pseudos_module/espresso/nninc/pbe/van/Ti.UPF
     MD5 check sum: 8e4df49b7f0d34bbd5052bf3f5ea0213
     Pseudo is Ultrasoft, Zval = 12.0
     Generated by new atomic code, or converted to UPF format
     Using radial grid of  851 points,  6 beta functions with: 
                l(1) =   0
                l(2) =   0
                l(3) =   1
                l(4) =   1
                l(5) =   2
                l(6) =   2
     Q(r) pseudized with  8 coefficients,  rinner =    1.000   1.000   1.000
                                                       1.000   1.000

     PseudoPot. # 2 for O  read from file:
     /storage/coda1/p-amedford6/0/shared/rich_project_chbe-medford/medford-share/data/pseudos_module/espresso/nninc/pbe/van/O.UPF
     MD5 check sum: 78c19812648e8988a0fe644b0f25305e
     Pseudo is Ultrasoft, Zval =  6.0
     Generated by new atomic code, or converted to UPF format
     Using radial grid of  737 points,  4 beta functions with: 
                l(1) =   0
                l(2) =   0
                l(3) =   1
                l(4) =   1
     Q(r) pseudized with  8 coefficients,  rinner =    0.800   0.800   0.800


     PseudoPot. # 3 for N  read from file:
     /storage/coda1/p-amedford6/0/shared/rich_project_chbe-medford/medford-share/data/pseudos_module/espresso/nninc/pbe/van/N.UPF
     MD5 check sum: 90d10febe142ad51ac9d5be1deb811c4
     Pseudo is Ultrasoft, Zval =  5.0
     Generated by new atomic code, or converted to UPF format
     Using radial grid of  729 points,  4 beta functions with: 
                l(1) =   0
                l(2) =   0
                l(3) =   1
                l(4) =   1
     Q(r) pseudized with  8 coefficients,  rinner =    0.800   0.800   0.800


     PseudoPot. # 4 for C  read from file:
     /storage/coda1/p-amedford6/0/shared/rich_project_chbe-medford/medford-share/data/pseudos_module/espresso/nninc/pbe/van/C.UPF
     MD5 check sum: 1a69bf6b8db32088f5b2163dbdb77a27
     Pseudo is Ultrasoft, Zval =  4.0
     Generated by new atomic code, or converted to UPF format
     Using radial grid of  721 points,  4 beta functions with: 
                l(1) =   0
                l(2) =   0
                l(3) =   1
                l(4) =   1
     Q(r) pseudized with  8 coefficients,  rinner =    0.800   0.800   0.800


     PseudoPot. # 5 for H  read from file:
     /storage/coda1/p-amedford6/0/shared/rich_project_chbe-medford/medford-share/data/pseudos_module/espresso/nninc/pbe/van/H.UPF
     MD5 check sum: b5ee9d7bfd3a09ee7748110bda690ff7
     Pseudo is Ultrasoft, Zval =  1.0
     Generated by new atomic code, or converted to UPF format
     Using radial grid of  615 points,  1 beta functions with: 
                l(1) =   0
     Q(r) pseudized with  8 coefficients,  rinner =    0.800

     atomic species   valence    mass     pseudopotential
        Ti1           12.00    47.86700     Ti( 1.00)
        O1             6.00    15.99900     O ( 1.00)
        N1             5.00    14.00700     N ( 1.00)
        C1             4.00    12.01100     C ( 1.00)
        H1             1.00     1.00800     H ( 1.00)

     No symmetry found



   Cartesian axes

     site n.     atom                  positions (alat units)
         1           Ti1 tau(   1) = (   0.0004258   2.9801865   6.0000000  )
         2           Ti1 tau(   2) = (   3.2906075   1.4906267   6.0002472  )
         3           O1  tau(   3) = (   0.0006271   0.0005054   7.9858123  )
         4           O1  tau(   4) = (   3.2906025   0.0005020   7.3038282  )
         5           O1  tau(   5) = (   4.5942328   1.4918067   9.2879030  )
         6           O1  tau(   6) = (   1.9868534   1.4903216   9.2879459  )
         7           Ti1 tau(   7) = (   3.2907910   2.8959150   9.1758416  )
         8           Ti1 tau(   8) = (   0.0015273   1.4827037   9.2680791  )
         9           O1  tau(   9) = (   3.2922140   0.0036562  11.3253104  )
        10           O1  tau(  10) = (   0.0116148   5.9584955  10.6183126  )
        11           O1  tau(  11) = (   1.2860832   1.4889729  12.6258215  )
        12           O1  tau(  12) = (   5.2729595   1.4828594  12.6177116  )
        13           Ti1 tau(  13) = (   0.0641184   3.0073180  12.5883652  )
        14           Ti1 tau(  14) = (   3.3767723   1.4911129  12.4765728  )
        15           O1  tau(  15) = (   6.5781935   5.9569561  14.6821271  )
        16           O1  tau(  16) = (   3.2819581   0.0025077  13.9050320  )
        17           O1  tau(  17) = (   4.5172158   1.5234625  16.0337941  )
        18           O1  tau(  18) = (   2.0475084   1.5263597  16.0453316  )
        19           Ti1 tau(  19) = (   3.2743797   3.0127756  15.6984511  )
        20           Ti1 tau(  20) = (   6.5512008   1.5842238  15.7855373  )
        21           O1  tau(  21) = (   3.2904802   0.0005063   4.7018136  )
        22           O1  tau(  22) = (   6.5742344   0.0609322  17.2932839  )
        23           O1  tau(  23) = (   1.3043587   1.4918075   6.0039043  )
        24           O1  tau(  24) = (   5.2767064   1.4903225   6.0039473  )
        25           Ti1 tau(  25) = (   0.0000382   5.9609847   6.0000000  )
        26           Ti1 tau(  26) = (   3.2902200   4.4714249   6.0002472  )
        27           O1  tau(  27) = (   0.0002396   2.9813036   7.9858123  )
        28           O1  tau(  28) = (   3.2902150   2.9813002   7.3038282  )
        29           O1  tau(  29) = (   4.5938453   4.4726049   9.2879030  )
        30           O1  tau(  30) = (   1.9864658   4.4711199   9.2879459  )
        31           Ti1 tau(  31) = (   3.2891106   5.8743827   9.1763621  )
        32           Ti1 tau(  32) = (   0.0006254   4.4649316   9.2693709  )
        33           O1  tau(  33) = (   3.2917412   2.9831059  11.3263362  )
        34           O1  tau(  34) = (   0.0092240   2.9805883  10.6323155  )
        35           O1  tau(  35) = (   1.2859270   4.4784489  12.6216084  )
        36           O1  tau(  36) = (   5.2779610   4.4756213  12.6128944  )
        37           Ti1 tau(  37) = (   0.0616295   0.0157230  12.5710002  )
        38           Ti1 tau(  38) = (   3.3796684   4.4726909  12.4790056  )
        39           O1  tau(  39) = (   6.5693437   2.9756239  14.6354252  )
        40           O1  tau(  40) = (   3.2842310   3.0020566  13.9003041  )
        41           O1  tau(  41) = (   4.5171552   4.5052370  16.0986928  )
        42           O1  tau(  42) = (   2.0408908   4.5012300  16.0971631  )
        43           Ti1 tau(  43) = (   3.2680294   0.0293594  15.7040856  )
        44           Ti1 tau(  44) = (   6.5592110   4.6908586  16.1766550  )
        45           O1  tau(  45) = (   3.2900926   2.9813045   4.7018136  )
        46           O1  tau(  46) = (   1.3039711   4.4726057   6.0039043  )
        47           O1  tau(  47) = (   5.2763189   4.4711207   6.0039473  )
        48           N1  tau(  48) = (   0.0931655   2.5901963  18.5587852  )
        49           N1  tau(  49) = (   6.5755498   2.9338716  17.3126873  )
        50           C1  tau(  50) = (   0.1889803   3.3362807  19.6294495  )
        51           H1  tau(  51) = (   0.2540540   2.8541835  20.5836859  )
        52           H1  tau(  52) = (   0.1890997   4.4171571  19.5098884  )
        53           H1  tau(  53) = (   0.0969130   1.5623892  18.6894177  )

     number of k points=    10  Fermi-Dirac smearing, width (Ry)=  0.0073
                       cart. coord. in units 2pi/alat
        k(    1) = (   0.0000000   0.0000000   0.0000000), wk =   0.1250000
        k(    2) = (   0.0000000   0.0419351   0.0000000), wk =   0.2500000
        k(    3) = (   0.0000000  -0.0838702   0.0000000), wk =   0.1250000
        k(    4) = (   0.0379955   0.0000049   0.0000000), wk =   0.2500000
        k(    5) = (   0.0379955   0.0419400   0.0000000), wk =   0.2500000
        k(    6) = (   0.0379955  -0.0838652   0.0000000), wk =   0.2500000
        k(    7) = (   0.0379955  -0.0419301   0.0000000), wk =   0.2500000
        k(    8) = (  -0.0759910  -0.0000099   0.0000000), wk =   0.1250000
        k(    9) = (  -0.0759910   0.0419252   0.0000000), wk =   0.2500000
        k(   10) = (  -0.0759910  -0.0838800   0.0000000), wk =   0.1250000

     Dense  grid:   566857 G-vectors     FFT dimensions: (  72,  64, 270)

     Smooth grid:   143421 G-vectors     FFT dimensions: (  45,  40, 180)

     Estimated max dynamical RAM per process >     363.40 MB

     Estimated total dynamical RAM >       3.55 GB
     Cannot read rho : file not found

     Initial potential from superposition of free atoms

     starting charge  378.99916, renormalised to  395.00000

     negative rho (up, down):  1.523E-02 0.000E+00


     %%%%%%%%%%%%%%%%%%%%%%%%%%%%%%%%%%%%%%%%%%%%%%%%%%%%%%%%%%%%%%%%%%%%%%%%
     %                                                                      %
     % You are using vdW-DF, which was implemented by the Thonhauser group. %
     % Please cite the following two papers that made this development      %
     % possible and the two reviews that describe the various versions:     %
     %                                                                      %
     %   T. Thonhauser et al., PRL 115, 136402 (2015).                      %
     %   T. Thonhauser et al., PRB 76, 125112 (2007).                       %
     %   K. Berland et al., Rep. Prog. Phys. 78, 066501 (2015).             %
     %   D.C. Langreth et al., J. Phys.: Condens. Matter 21, 084203 (2009). %
     %                                                                      %
     %                                                                      %
     % If you are calculating the stress with vdW-DF, please also cite:     %
     %                                                                      %
     %   R. Sabatini et al., J. Phys.: Condens. Matter 24, 424209 (2012).   %
     %                                                                      %
     %%%%%%%%%%%%%%%%%%%%%%%%%%%%%%%%%%%%%%%%%%%%%%%%%%%%%%%%%%%%%%%%%%%%%%%%


 
     Adding external electric field

     Computed dipole along edir(3) : 
        Dipole               -8.7485 Ry au,        -22.2364 Debye
        Dipole field         -0.0165 Ry au, 
 
        Potential amp.        1.5304 Ry
        Total length         46.3494 bohr
 
     Starting wfcs are  299 atomic wfcs
  @ DRIVER MODE: Message from server: STATUS
  @ DRIVER MODE: Message from server: POSDATA
  @ DRIVER MODE: Reading and sharing cell 
  @ DRIVER MODE: Reading and sharing positions 
  @ DRIVER MODE: Received positions 

     total cpu time spent up to now is       39.0 secs

     Self-consistent Calculation

     iteration #  1     ecut=    29.40 Ry     beta= 0.05
     Davidson diagonalization with overlap
     c_bands:  2 eigenvalues not converged
     c_bands:  1 eigenvalues not converged
     c_bands:  1 eigenvalues not converged
     c_bands:  3 eigenvalues not converged
     c_bands:  2 eigenvalues not converged
     c_bands:  1 eigenvalues not converged
     c_bands:  1 eigenvalues not converged
     ethr =  1.00E-05,  avg # of iterations = 19.1

     negative rho (up, down):  1.371E-02 0.000E+00
 
     Adding external electric field

     Computed dipole along edir(3) : 
        Dipole               38.0348 Ry au,         96.6749 Debye
        Dipole field          0.0718 Ry au, 
 
        Potential amp.       -6.6536 Ry
        Total length         46.3494 bohr
 

     total cpu time spent up to now is       78.1 secs

     total energy              =   -2617.08869114 Ry
     estimated scf accuracy    <    3576.58524880 Ry

     iteration #  2     ecut=    29.40 Ry     beta= 0.05
     Davidson diagonalization with overlap
     ethr =  1.00E-02,  avg # of iterations = 22.2

     negative rho (up, down):  4.067E-03 0.000E+00
 
     Adding external electric field

     Computed dipole along edir(3) : 
        Dipole               -3.4731 Ry au,         -8.8278 Debye
        Dipole field         -0.0066 Ry au, 
 
        Potential amp.        0.6076 Ry
        Total length         46.3494 bohr
 

     total cpu time spent up to now is      148.8 secs

     total energy              =   -2442.17546202 Ry
     estimated scf accuracy    <   65935.07594195 Ry

     iteration #  3     ecut=    29.40 Ry     beta= 0.05
     Davidson diagonalization with overlap
     ethr =  1.00E-02,  avg # of iterations = 14.0

     negative rho (up, down):  4.136E-03 0.000E+00
 
     Adding external electric field

     Computed dipole along edir(3) : 
        Dipole               -5.1769 Ry au,        -13.1584 Debye
        Dipole field         -0.0098 Ry au, 
 
        Potential amp.        0.9056 Ry
        Total length         46.3494 bohr
 

     total cpu time spent up to now is      193.1 secs

     total energy              =   -2916.38475130 Ry
     estimated scf accuracy    <    3862.23411672 Ry

     iteration #  4     ecut=    29.40 Ry     beta= 0.05
     Davidson diagonalization with overlap
     c_bands:  2 eigenvalues not converged
     c_bands:  5 eigenvalues not converged
     ethr =  1.00E-02,  avg # of iterations = 15.5

     negative rho (up, down):  4.177E-03 0.000E+00
 
     Adding external electric field

     Computed dipole along edir(3) : 
        Dipole               -6.1970 Ry au,        -15.7513 Debye
        Dipole field         -0.0117 Ry au, 
 
        Potential amp.        1.0841 Ry
        Total length         46.3494 bohr
 

     total cpu time spent up to now is      213.0 secs

     total energy              =   -2932.28055975 Ry
     estimated scf accuracy    <     560.37423264 Ry

     iteration #  5     ecut=    29.40 Ry     beta= 0.05
     Davidson diagonalization with overlap
     ethr =  1.00E-02,  avg # of iterations =  9.9

     negative rho (up, down):  4.175E-03 0.000E+00
 
     Adding external electric field

     Computed dipole along edir(3) : 
        Dipole               -6.1425 Ry au,        -15.6127 Debye
        Dipole field         -0.0116 Ry au, 
 
        Potential amp.        1.0745 Ry
        Total length         46.3494 bohr
 

     total cpu time spent up to now is      226.9 secs

     total energy              =   -2938.30613276 Ry
     estimated scf accuracy    <      87.27728327 Ry

     iteration #  6     ecut=    29.40 Ry     beta= 0.05
     Davidson diagonalization with overlap
     ethr =  1.00E-02,  avg # of iterations =  2.7

     negative rho (up, down):  4.212E-03 0.000E+00
 
     Adding external electric field

     Computed dipole along edir(3) : 
        Dipole               -5.6648 Ry au,        -14.3985 Debye
        Dipole field         -0.0107 Ry au, 
 
        Potential amp.        0.9910 Ry
        Total length         46.3494 bohr
 

     total cpu time spent up to now is      237.3 secs

     total energy              =   -2938.11588839 Ry
     estimated scf accuracy    <      62.15792403 Ry

     iteration #  7     ecut=    29.40 Ry     beta= 0.05
     Davidson diagonalization with overlap
     ethr =  1.00E-02,  avg # of iterations =  2.2

     negative rho (up, down):  4.336E-03 0.000E+00
 
     Adding external electric field

     Computed dipole along edir(3) : 
        Dipole               -4.8900 Ry au,        -12.4292 Debye
        Dipole field         -0.0092 Ry au, 
 
        Potential amp.        0.8554 Ry
        Total length         46.3494 bohr
 

     total cpu time spent up to now is      247.5 secs

     total energy              =   -2936.83046337 Ry
     estimated scf accuracy    <      44.17271219 Ry

     iteration #  8     ecut=    29.40 Ry     beta= 0.05
     Davidson diagonalization with overlap
     ethr =  1.00E-02,  avg # of iterations =  1.3

     negative rho (up, down):  4.586E-03 0.000E+00
 
     Adding external electric field

     Computed dipole along edir(3) : 
        Dipole               -4.1914 Ry au,        -10.6535 Debye
        Dipole field         -0.0079 Ry au, 
 
        Potential amp.        0.7332 Ry
        Total length         46.3494 bohr
 

     total cpu time spent up to now is      257.5 secs

     total energy              =   -2935.89392091 Ry
     estimated scf accuracy    <      36.96796125 Ry

     iteration #  9     ecut=    29.40 Ry     beta= 0.05
     Davidson diagonalization with overlap
     ethr =  9.36E-03,  avg # of iterations =  2.3

     negative rho (up, down):  4.670E-03 0.000E+00
 
     Adding external electric field

     Computed dipole along edir(3) : 
        Dipole               -4.1012 Ry au,        -10.4242 Debye
        Dipole field         -0.0077 Ry au, 
 
        Potential amp.        0.7174 Ry
        Total length         46.3494 bohr
 

     total cpu time spent up to now is      267.6 secs

     total energy              =   -2936.39993105 Ry
     estimated scf accuracy    <      22.75941624 Ry

     iteration # 10     ecut=    29.40 Ry     beta= 0.05
     Davidson diagonalization with overlap
     ethr =  5.76E-03,  avg # of iterations =  5.9

     negative rho (up, down):  4.674E-03 0.000E+00
 
     Adding external electric field

     Computed dipole along edir(3) : 
        Dipole               -3.9178 Ry au,         -9.9580 Debye
        Dipole field         -0.0074 Ry au, 
 
        Potential amp.        0.6854 Ry
        Total length         46.3494 bohr
 

     total cpu time spent up to now is      280.7 secs

     total energy              =   -2940.15918071 Ry
     estimated scf accuracy    <      55.52086427 Ry

     iteration # 11     ecut=    29.40 Ry     beta= 0.05
     Davidson diagonalization with overlap
     ethr =  5.76E-03,  avg # of iterations =  1.4

     negative rho (up, down):  4.743E-03 0.000E+00
 
     Adding external electric field

     Computed dipole along edir(3) : 
        Dipole               -3.8407 Ry au,         -9.7621 Debye
        Dipole field         -0.0072 Ry au, 
 
        Potential amp.        0.6719 Ry
        Total length         46.3494 bohr
 

     total cpu time spent up to now is      290.7 secs

     total energy              =   -2940.87112940 Ry
     estimated scf accuracy    <      68.12159456 Ry

     iteration # 12     ecut=    29.40 Ry     beta= 0.05
     Davidson diagonalization with overlap
     ethr =  5.76E-03,  avg # of iterations =  1.4

     negative rho (up, down):  4.575E-03 0.000E+00
 
     Adding external electric field

     Computed dipole along edir(3) : 
        Dipole               -4.2450 Ry au,        -10.7898 Debye
        Dipole field         -0.0080 Ry au, 
 
        Potential amp.        0.7426 Ry
        Total length         46.3494 bohr
 

     total cpu time spent up to now is      300.6 secs

     total energy              =   -2940.56416076 Ry
     estimated scf accuracy    <      89.46278744 Ry

     iteration # 13     ecut=    29.40 Ry     beta= 0.05
     Davidson diagonalization with overlap
     ethr =  5.76E-03,  avg # of iterations =  1.1

     negative rho (up, down):  4.557E-03 0.000E+00
 
     Adding external electric field

     Computed dipole along edir(3) : 
        Dipole               -3.9312 Ry au,         -9.9920 Debye
        Dipole field         -0.0074 Ry au, 
 
        Potential amp.        0.6877 Ry
        Total length         46.3494 bohr
 

     total cpu time spent up to now is      310.5 secs

     total energy              =   -2940.28888661 Ry
     estimated scf accuracy    <      84.84155414 Ry

     iteration # 14     ecut=    29.40 Ry     beta= 0.05
     Davidson diagonalization with overlap
     ethr =  5.76E-03,  avg # of iterations =  1.5

     negative rho (up, down):  4.603E-03 0.000E+00
 
     Adding external electric field

     Computed dipole along edir(3) : 
        Dipole               -3.6306 Ry au,         -9.2279 Debye
        Dipole field         -0.0069 Ry au, 
 
        Potential amp.        0.6351 Ry
        Total length         46.3494 bohr
 

     total cpu time spent up to now is      320.5 secs

     total energy              =   -2940.27624322 Ry
     estimated scf accuracy    <      69.02953174 Ry

     iteration # 15     ecut=    29.40 Ry     beta= 0.05
     Davidson diagonalization with overlap
     ethr =  5.76E-03,  avg # of iterations =  1.1

     negative rho (up, down):  5.147E-03 0.000E+00
 
     Adding external electric field

     Computed dipole along edir(3) : 
        Dipole               -2.1243 Ry au,         -5.3995 Debye
        Dipole field         -0.0040 Ry au, 
 
        Potential amp.        0.3716 Ry
        Total length         46.3494 bohr
 

     total cpu time spent up to now is      330.3 secs

     total energy              =   -2940.14598581 Ry
     estimated scf accuracy    <      63.52817534 Ry

     iteration # 16     ecut=    29.40 Ry     beta= 0.05
     Davidson diagonalization with overlap
     ethr =  5.76E-03,  avg # of iterations =  1.4

     negative rho (up, down):  5.305E-03 0.000E+00
 
     Adding external electric field

     Computed dipole along edir(3) : 
        Dipole               -1.8804 Ry au,         -4.7796 Debye
        Dipole field         -0.0035 Ry au, 
 
        Potential amp.        0.3290 Ry
        Total length         46.3494 bohr
 

     total cpu time spent up to now is      340.2 secs

     total energy              =   -2941.17138515 Ry
     estimated scf accuracy    <      47.81065432 Ry

     iteration # 17     ecut=    29.40 Ry     beta= 0.05
     Davidson diagonalization with overlap
     ethr =  5.76E-03,  avg # of iterations =  1.1

     negative rho (up, down):  4.943E-03 0.000E+00
 
     Adding external electric field

     Computed dipole along edir(3) : 
        Dipole               -2.4190 Ry au,         -6.1485 Debye
        Dipole field         -0.0046 Ry au, 
 
        Potential amp.        0.4232 Ry
        Total length         46.3494 bohr
 

     total cpu time spent up to now is      350.1 secs

     total energy              =   -2940.21972277 Ry
     estimated scf accuracy    <      72.36486261 Ry

     iteration # 18     ecut=    29.40 Ry     beta= 0.05
     Davidson diagonalization with overlap
     ethr =  5.76E-03,  avg # of iterations =  1.0

     negative rho (up, down):  5.329E-03 0.000E+00
 
     Adding external electric field

     Computed dipole along edir(3) : 
        Dipole               -1.2951 Ry au,         -3.2918 Debye
        Dipole field         -0.0024 Ry au, 
 
        Potential amp.        0.2266 Ry
        Total length         46.3494 bohr
 

     total cpu time spent up to now is      359.8 secs

     total energy              =   -2939.67215850 Ry
     estimated scf accuracy    <      40.06600796 Ry

     iteration # 19     ecut=    29.40 Ry     beta= 0.05
     Davidson diagonalization with overlap
     ethr =  5.76E-03,  avg # of iterations =  3.9

     negative rho (up, down):  4.786E-03 0.000E+00
 
     Adding external electric field

     Computed dipole along edir(3) : 
        Dipole               -1.8815 Ry au,         -4.7824 Debye
        Dipole field         -0.0036 Ry au, 
 
        Potential amp.        0.3291 Ry
        Total length         46.3494 bohr
 

     total cpu time spent up to now is      370.9 secs

     total energy              =   -2938.89757960 Ry
     estimated scf accuracy    <      39.54098524 Ry

     iteration # 20     ecut=    29.40 Ry     beta= 0.05
     Davidson diagonalization with overlap
     ethr =  5.76E-03,  avg # of iterations =  2.4

     negative rho (up, down):  4.905E-03 0.000E+00
 
     Adding external electric field

     Computed dipole along edir(3) : 
        Dipole               -1.6903 Ry au,         -4.2962 Debye
        Dipole field         -0.0032 Ry au, 
 
        Potential amp.        0.2957 Ry
        Total length         46.3494 bohr
 

     total cpu time spent up to now is      381.5 secs

     total energy              =   -2939.43489308 Ry
     estimated scf accuracy    <       6.18875827 Ry

     iteration # 21     ecut=    29.40 Ry     beta= 0.05
     Davidson diagonalization with overlap
     ethr =  1.57E-03,  avg # of iterations =  3.5

     negative rho (up, down):  5.619E-03 0.000E+00
 
     Adding external electric field

     Computed dipole along edir(3) : 
        Dipole               -0.7916 Ry au,         -2.0120 Debye
        Dipole field         -0.0015 Ry au, 
 
        Potential amp.        0.1385 Ry
        Total length         46.3494 bohr
 

     total cpu time spent up to now is      392.3 secs

     total energy              =   -2939.33141450 Ry
     estimated scf accuracy    <       4.50720888 Ry

     iteration # 22     ecut=    29.40 Ry     beta= 0.05
     Davidson diagonalization with overlap
     ethr =  1.14E-03,  avg # of iterations =  2.5

     negative rho (up, down):  6.545E-03 0.000E+00
 
     Adding external electric field

     Computed dipole along edir(3) : 
        Dipole               -0.0569 Ry au,         -0.1447 Debye
        Dipole field         -0.0001 Ry au, 
 
        Potential amp.        0.0100 Ry
        Total length         46.3494 bohr
 

     total cpu time spent up to now is      402.7 secs

     total energy              =   -2939.30379653 Ry
     estimated scf accuracy    <       3.61510550 Ry

     iteration # 23     ecut=    29.40 Ry     beta= 0.05
     Davidson diagonalization with overlap
     ethr =  9.15E-04,  avg # of iterations =  2.6

     negative rho (up, down):  6.651E-03 0.000E+00
 
     Adding external electric field

     Computed dipole along edir(3) : 
        Dipole               -0.0047 Ry au,         -0.0120 Debye
        Dipole field         -0.0000 Ry au, 
 
        Potential amp.        0.0008 Ry
        Total length         46.3494 bohr
 

     total cpu time spent up to now is      413.4 secs

     total energy              =   -2939.36070449 Ry
     estimated scf accuracy    <       3.31442451 Ry

     iteration # 24     ecut=    29.40 Ry     beta= 0.05
     Davidson diagonalization with overlap
     ethr =  8.39E-04,  avg # of iterations =  1.9

     negative rho (up, down):  5.892E-03 0.000E+00
 
     Adding external electric field

     Computed dipole along edir(3) : 
        Dipole               -0.6053 Ry au,         -1.5385 Debye
        Dipole field         -0.0011 Ry au, 
 
        Potential amp.        0.1059 Ry
        Total length         46.3494 bohr
 

     total cpu time spent up to now is      423.8 secs

     total energy              =   -2939.15595600 Ry
     estimated scf accuracy    <       2.97866596 Ry

     iteration # 25     ecut=    29.40 Ry     beta= 0.05
     Davidson diagonalization with overlap
     ethr =  7.54E-04,  avg # of iterations =  3.6

     negative rho (up, down):  5.608E-03 0.000E+00
 
     Adding external electric field

     Computed dipole along edir(3) : 
        Dipole               -1.0600 Ry au,         -2.6942 Debye
        Dipole field         -0.0020 Ry au, 
 
        Potential amp.        0.1854 Ry
        Total length         46.3494 bohr
 

     total cpu time spent up to now is      434.8 secs

     total energy              =   -2938.93061359 Ry
     estimated scf accuracy    <       1.52045390 Ry

     iteration # 26     ecut=    29.40 Ry     beta= 0.05
     Davidson diagonalization with overlap
     c_bands:  1 eigenvalues not converged
     ethr =  3.85E-04,  avg # of iterations = 12.9

     negative rho (up, down):  5.757E-03 0.000E+00
 
     Adding external electric field

     Computed dipole along edir(3) : 
        Dipole               -0.8471 Ry au,         -2.1532 Debye
        Dipole field         -0.0016 Ry au, 
 
        Potential amp.        0.1482 Ry
        Total length         46.3494 bohr
 

     total cpu time spent up to now is      453.0 secs

     total energy              =   -2939.20452608 Ry
     estimated scf accuracy    <       1.20465872 Ry

     iteration # 27     ecut=    29.40 Ry     beta= 0.05
     Davidson diagonalization with overlap
     ethr =  3.05E-04,  avg # of iterations =  3.5

     negative rho (up, down):  6.719E-03 0.000E+00
 
     Adding external electric field

     Computed dipole along edir(3) : 
        Dipole                0.0898 Ry au,          0.2282 Debye
        Dipole field          0.0002 Ry au, 
 
        Potential amp.       -0.0157 Ry
        Total length         46.3494 bohr
 

     total cpu time spent up to now is      463.7 secs

     total energy              =   -2939.04982528 Ry
     estimated scf accuracy    <       0.66178359 Ry

     iteration # 28     ecut=    29.40 Ry     beta= 0.05
     Davidson diagonalization with overlap
     c_bands:  1 eigenvalues not converged
     c_bands:  1 eigenvalues not converged
     c_bands:  1 eigenvalues not converged
     c_bands:  1 eigenvalues not converged
     ethr =  1.68E-04,  avg # of iterations = 17.6

     negative rho (up, down):  6.939E-03 0.000E+00
 
     Adding external electric field

     Computed dipole along edir(3) : 
        Dipole                0.2585 Ry au,          0.6570 Debye
        Dipole field          0.0005 Ry au, 
 
        Potential amp.       -0.0452 Ry
        Total length         46.3494 bohr
 

     total cpu time spent up to now is      484.0 secs

     total energy              =   -2939.51726047 Ry
     estimated scf accuracy    <       3.75110464 Ry

     iteration # 29     ecut=    29.40 Ry     beta= 0.05
     Davidson diagonalization with overlap
     ethr =  1.68E-04,  avg # of iterations = 10.0

     negative rho (up, down):  6.634E-03 0.000E+00
 
     Adding external electric field

     Computed dipole along edir(3) : 
        Dipole                0.1182 Ry au,          0.3004 Debye
        Dipole field          0.0002 Ry au, 
 
        Potential amp.       -0.0207 Ry
        Total length         46.3494 bohr
 

     total cpu time spent up to now is      496.7 secs

     total energy              =   -2939.18934320 Ry
     estimated scf accuracy    <      12.70209731 Ry

     iteration # 30     ecut=    29.40 Ry     beta= 0.05
     Davidson diagonalization with overlap
     ethr =  1.68E-04,  avg # of iterations =  4.9

     negative rho (up, down):  6.045E-03 0.000E+00
 
     Adding external electric field

     Computed dipole along edir(3) : 
        Dipole               -0.3296 Ry au,         -0.8377 Debye
        Dipole field         -0.0006 Ry au, 
 
        Potential amp.        0.0577 Ry
        Total length         46.3494 bohr
 

     total cpu time spent up to now is      508.1 secs

     total energy              =   -2939.15135855 Ry
     estimated scf accuracy    <       2.69236169 Ry

     iteration # 31     ecut=    29.40 Ry     beta= 0.05
     Davidson diagonalization with overlap
     ethr =  1.68E-04,  avg # of iterations =  6.1

     negative rho (up, down):  5.972E-03 0.000E+00
 
     Adding external electric field

     Computed dipole along edir(3) : 
        Dipole               -0.3490 Ry au,         -0.8871 Debye
        Dipole field         -0.0007 Ry au, 
 
        Potential amp.        0.0611 Ry
        Total length         46.3494 bohr
 

     total cpu time spent up to now is      520.1 secs

     total energy              =   -2939.16653270 Ry
     estimated scf accuracy    <       0.79666449 Ry

     iteration # 32     ecut=    29.40 Ry     beta= 0.05
     Davidson diagonalization with overlap
     c_bands:  1 eigenvalues not converged
     ethr =  1.68E-04,  avg # of iterations = 12.1

     negative rho (up, down):  5.871E-03 0.000E+00
 
     Adding external electric field

     Computed dipole along edir(3) : 
        Dipole               -0.2901 Ry au,         -0.7375 Debye
        Dipole field         -0.0005 Ry au, 
 
        Potential amp.        0.0508 Ry
        Total length         46.3494 bohr
 

     total cpu time spent up to now is      533.4 secs

     total energy              =   -2939.17384907 Ry
     estimated scf accuracy    <       0.61442062 Ry

     iteration # 33     ecut=    29.40 Ry     beta= 0.05
     Davidson diagonalization with overlap
     ethr =  1.56E-04,  avg # of iterations =  2.0

     negative rho (up, down):  5.565E-03 0.000E+00
 
     Adding external electric field

     Computed dipole along edir(3) : 
        Dipole               -0.3668 Ry au,         -0.9323 Debye
        Dipole field         -0.0007 Ry au, 
 
        Potential amp.        0.0642 Ry
        Total length         46.3494 bohr
 

     total cpu time spent up to now is      544.0 secs

     total energy              =   -2939.12633939 Ry
     estimated scf accuracy    <       0.49415828 Ry

     iteration # 34     ecut=    29.40 Ry     beta= 0.05
     Davidson diagonalization with overlap
     c_bands:  3 eigenvalues not converged
     c_bands:  1 eigenvalues not converged
     ethr =  1.25E-04,  avg # of iterations = 13.1

     negative rho (up, down):  5.576E-03 0.000E+00
 
     Adding external electric field

     Computed dipole along edir(3) : 
        Dipole               -0.3817 Ry au,         -0.9703 Debye
        Dipole field         -0.0007 Ry au, 
 
        Potential amp.        0.0668 Ry
        Total length         46.3494 bohr
 

     total cpu time spent up to now is      559.9 secs

     total energy              =   -2939.18200889 Ry
     estimated scf accuracy    <       0.39556990 Ry

     iteration # 35     ecut=    29.40 Ry     beta= 0.05
     Davidson diagonalization with overlap
     ethr =  1.00E-04,  avg # of iterations =  1.2

     negative rho (up, down):  5.393E-03 0.000E+00
 
     Adding external electric field

     Computed dipole along edir(3) : 
        Dipole               -0.3469 Ry au,         -0.8818 Debye
        Dipole field         -0.0007 Ry au, 
 
        Potential amp.        0.0607 Ry
        Total length         46.3494 bohr
 

     total cpu time spent up to now is      569.8 secs

     total energy              =   -2939.20012581 Ry
     estimated scf accuracy    <       0.42019415 Ry

     iteration # 36     ecut=    29.40 Ry     beta= 0.05
     Davidson diagonalization with overlap
     ethr =  1.00E-04,  avg # of iterations =  4.8

     negative rho (up, down):  5.285E-03 0.000E+00
 
     Adding external electric field

     Computed dipole along edir(3) : 
        Dipole               -0.3372 Ry au,         -0.8570 Debye
        Dipole field         -0.0006 Ry au, 
 
        Potential amp.        0.0590 Ry
        Total length         46.3494 bohr
 

     total cpu time spent up to now is      580.9 secs

     total energy              =   -2939.21627822 Ry
     estimated scf accuracy    <       0.54980677 Ry

     iteration # 37     ecut=    29.40 Ry     beta= 0.05
     Davidson diagonalization with overlap
     ethr =  1.00E-04,  avg # of iterations =  3.6

     negative rho (up, down):  5.387E-03 0.000E+00
 
     Adding external electric field

     Computed dipole along edir(3) : 
        Dipole               -0.0387 Ry au,         -0.0984 Debye
        Dipole field         -0.0001 Ry au, 
 
        Potential amp.        0.0068 Ry
        Total length         46.3494 bohr
 

     total cpu time spent up to now is      591.8 secs

     total energy              =   -2939.14419393 Ry
     estimated scf accuracy    <       0.64391653 Ry

     iteration # 38     ecut=    29.40 Ry     beta= 0.05
     Davidson diagonalization with overlap
     ethr =  1.00E-04,  avg # of iterations =  6.5

     negative rho (up, down):  5.757E-03 0.000E+00
 
     Adding external electric field

     Computed dipole along edir(3) : 
        Dipole                0.8124 Ry au,          2.0648 Debye
        Dipole field          0.0015 Ry au, 
 
        Potential amp.       -0.1421 Ry
        Total length         46.3494 bohr
 

     total cpu time spent up to now is      603.5 secs

     total energy              =   -2939.11934205 Ry
     estimated scf accuracy    <       0.16231228 Ry

     iteration # 39     ecut=    29.40 Ry     beta= 0.05
     Davidson diagonalization with overlap
     c_bands:  2 eigenvalues not converged
     c_bands:  4 eigenvalues not converged
     c_bands:  5 eigenvalues not converged
     c_bands:  4 eigenvalues not converged
     c_bands:  5 eigenvalues not converged
     c_bands:  5 eigenvalues not converged
     c_bands:  4 eigenvalues not converged
     c_bands:  5 eigenvalues not converged
     ethr =  4.11E-05,  avg # of iterations = 21.3

     negative rho (up, down):  5.699E-03 0.000E+00
 
     Adding external electric field

     Computed dipole along edir(3) : 
        Dipole                0.6103 Ry au,          1.5513 Debye
        Dipole field          0.0012 Ry au, 
 
        Potential amp.       -0.1068 Ry
        Total length         46.3494 bohr
 

     total cpu time spent up to now is      627.5 secs

     total energy              =   -2939.16706153 Ry
     estimated scf accuracy    <       0.80642611 Ry

     iteration # 40     ecut=    29.40 Ry     beta= 0.05
     Davidson diagonalization with overlap
     ethr =  4.11E-05,  avg # of iterations =  7.1

     negative rho (up, down):  5.439E-03 0.000E+00
 
     Adding external electric field

     Computed dipole along edir(3) : 
        Dipole                0.2981 Ry au,          0.7576 Debye
        Dipole field          0.0006 Ry au, 
 
        Potential amp.       -0.0521 Ry
        Total length         46.3494 bohr
 

     total cpu time spent up to now is      639.3 secs

     total energy              =   -2939.11539498 Ry
     estimated scf accuracy    <       0.46789750 Ry

     iteration # 41     ecut=    29.40 Ry     beta= 0.05
     Davidson diagonalization with overlap
     c_bands:  1 eigenvalues not converged
     c_bands:  1 eigenvalues not converged
     c_bands:  1 eigenvalues not converged
     c_bands:  1 eigenvalues not converged
     c_bands:  1 eigenvalues not converged
     c_bands:  1 eigenvalues not converged
     c_bands:  1 eigenvalues not converged
     ethr =  4.11E-05,  avg # of iterations = 19.7

     negative rho (up, down):  5.545E-03 0.000E+00
 
     Adding external electric field

     Computed dipole along edir(3) : 
        Dipole                0.4420 Ry au,          1.1234 Debye
        Dipole field          0.0008 Ry au, 
 
        Potential amp.       -0.0773 Ry
        Total length         46.3494 bohr
 

     total cpu time spent up to now is      661.0 secs

     total energy              =   -2939.15348330 Ry
     estimated scf accuracy    <       0.13611514 Ry

     iteration # 42     ecut=    29.40 Ry     beta= 0.05
     Davidson diagonalization with overlap
     ethr =  3.45E-05,  avg # of iterations =  1.9

     negative rho (up, down):  5.886E-03 0.000E+00
 
     Adding external electric field

     Computed dipole along edir(3) : 
        Dipole                0.6200 Ry au,          1.5758 Debye
        Dipole field          0.0012 Ry au, 
 
        Potential amp.       -0.1085 Ry
        Total length         46.3494 bohr
 

     total cpu time spent up to now is      671.2 secs

     total energy              =   -2939.15163009 Ry
     estimated scf accuracy    <       0.04860369 Ry

     iteration # 43     ecut=    29.40 Ry     beta= 0.05
     Davidson diagonalization with overlap
     ethr =  1.23E-05,  avg # of iterations = 14.0

     negative rho (up, down):  6.391E-03 0.000E+00
 
     Adding external electric field

     Computed dipole along edir(3) : 
        Dipole                0.9387 Ry au,          2.3861 Debye
        Dipole field          0.0018 Ry au, 
 
        Potential amp.       -0.1642 Ry
        Total length         46.3494 bohr
 

     total cpu time spent up to now is      687.2 secs

     total energy              =   -2939.15038828 Ry
     estimated scf accuracy    <       0.04107199 Ry

     iteration # 44     ecut=    29.40 Ry     beta= 0.05
     Davidson diagonalization with overlap
     c_bands:  1 eigenvalues not converged
     c_bands:  1 eigenvalues not converged
     c_bands:  2 eigenvalues not converged
     c_bands:  1 eigenvalues not converged
     c_bands:  2 eigenvalues not converged
     c_bands:  1 eigenvalues not converged
     ethr =  1.04E-05,  avg # of iterations = 18.5

     negative rho (up, down):  6.402E-03 0.000E+00
 
     Adding external electric field

     Computed dipole along edir(3) : 
        Dipole                0.8877 Ry au,          2.2563 Debye
        Dipole field          0.0017 Ry au, 
 
        Potential amp.       -0.1553 Ry
        Total length         46.3494 bohr
 

     total cpu time spent up to now is      708.2 secs

     total energy              =   -2939.15461568 Ry
     estimated scf accuracy    <       0.14181956 Ry

     iteration # 45     ecut=    29.40 Ry     beta= 0.05
     Davidson diagonalization with overlap
     ethr =  1.04E-05,  avg # of iterations =  5.0

     negative rho (up, down):  6.591E-03 0.000E+00
 
     Adding external electric field

     Computed dipole along edir(3) : 
        Dipole                0.8903 Ry au,          2.2629 Debye
        Dipole field          0.0017 Ry au, 
 
        Potential amp.       -0.1557 Ry
        Total length         46.3494 bohr
 

     total cpu time spent up to now is      719.5 secs

     total energy              =   -2939.15085060 Ry
     estimated scf accuracy    <       0.05808574 Ry

     iteration # 46     ecut=    29.40 Ry     beta= 0.05
     Davidson diagonalization with overlap
     ethr =  1.04E-05,  avg # of iterations = 11.4

     negative rho (up, down):  6.810E-03 0.000E+00
 
     Adding external electric field

     Computed dipole along edir(3) : 
        Dipole                0.9401 Ry au,          2.3895 Debye
        Dipole field          0.0018 Ry au, 
 
        Potential amp.       -0.1645 Ry
        Total length         46.3494 bohr
 

     total cpu time spent up to now is      734.3 secs

     total energy              =   -2939.15436461 Ry
     estimated scf accuracy    <       0.00945099 Ry

     iteration # 47     ecut=    29.40 Ry     beta= 0.05
     Davidson diagonalization with overlap
     c_bands:  1 eigenvalues not converged
     c_bands:  3 eigenvalues not converged
     c_bands:  1 eigenvalues not converged
     c_bands:  1 eigenvalues not converged
     ethr =  2.39E-06,  avg # of iterations = 15.5

     negative rho (up, down):  8.548E-03 0.000E+00
 
     Adding external electric field

     Computed dipole along edir(3) : 
        Dipole                1.0035 Ry au,          2.5507 Debye
        Dipole field          0.0019 Ry au, 
 
        Potential amp.       -0.1756 Ry
        Total length         46.3494 bohr
 

     total cpu time spent up to now is      750.1 secs

     total energy              =   -2939.15460338 Ry
     estimated scf accuracy    <       0.00891899 Ry

     iteration # 48     ecut=    29.40 Ry     beta= 0.05
     Davidson diagonalization with overlap
     c_bands:  1 eigenvalues not converged
     c_bands:  1 eigenvalues not converged
     c_bands:  2 eigenvalues not converged
     c_bands:  3 eigenvalues not converged
     c_bands:  1 eigenvalues not converged
     ethr =  2.26E-06,  avg # of iterations = 16.7

     negative rho (up, down):  1.102E-02 0.000E+00
 
     Adding external electric field

     Computed dipole along edir(3) : 
        Dipole                1.0607 Ry au,          2.6961 Debye
        Dipole field          0.0020 Ry au, 
 
        Potential amp.       -0.1856 Ry
        Total length         46.3494 bohr
 

     total cpu time spent up to now is      765.4 secs

     total energy              =   -2939.15502410 Ry
     estimated scf accuracy    <       0.00384168 Ry

     iteration # 49     ecut=    29.40 Ry     beta= 0.05
     Davidson diagonalization with overlap
     ethr =  9.73E-07,  avg # of iterations = 10.9

     negative rho (up, down):  1.126E-02 0.000E+00
 
     Adding external electric field

     Computed dipole along edir(3) : 
        Dipole                1.0580 Ry au,          2.6892 Debye
        Dipole field          0.0020 Ry au, 
 
        Potential amp.       -0.1851 Ry
        Total length         46.3494 bohr
 

     total cpu time spent up to now is      779.9 secs

     total energy              =   -2939.15541107 Ry
     estimated scf accuracy    <       0.00222419 Ry

     iteration # 50     ecut=    29.40 Ry     beta= 0.05
     Davidson diagonalization with overlap
     ethr =  5.63E-07,  avg # of iterations = 10.6

     negative rho (up, down):  1.197E-02 0.000E+00
 
     Adding external electric field

     Computed dipole along edir(3) : 
        Dipole                1.0885 Ry au,          2.7668 Debye
        Dipole field          0.0021 Ry au, 
 
        Potential amp.       -0.1904 Ry
        Total length         46.3494 bohr
 

     total cpu time spent up to now is      793.7 secs

     total energy              =   -2939.15525571 Ry
     estimated scf accuracy    <       0.00221741 Ry

     iteration # 51     ecut=    29.40 Ry     beta= 0.05
     Davidson diagonalization with overlap
     ethr =  5.61E-07,  avg # of iterations =  9.0

     negative rho (up, down):  1.430E-02 0.000E+00
 
     Adding external electric field

     Computed dipole along edir(3) : 
        Dipole                1.1140 Ry au,          2.8314 Debye
        Dipole field          0.0021 Ry au, 
 
        Potential amp.       -0.1949 Ry
        Total length         46.3494 bohr
 

     total cpu time spent up to now is      806.8 secs

     total energy              =   -2939.15522921 Ry
     estimated scf accuracy    <       0.00148219 Ry

     iteration # 52     ecut=    29.40 Ry     beta= 0.05
     Davidson diagonalization with overlap
     ethr =  3.75E-07,  avg # of iterations =  7.8

     negative rho (up, down):  1.427E-02 0.000E+00
 
     Adding external electric field

     Computed dipole along edir(3) : 
        Dipole                1.1172 Ry au,          2.8396 Debye
        Dipole field          0.0021 Ry au, 
 
        Potential amp.       -0.1954 Ry
        Total length         46.3494 bohr
 

     total cpu time spent up to now is      822.1 secs

     total energy              =   -2939.15547740 Ry
     estimated scf accuracy    <       0.00067684 Ry

     iteration # 53     ecut=    29.40 Ry     beta= 0.05
     Davidson diagonalization with overlap
     ethr =  1.71E-07,  avg # of iterations =  2.8

     negative rho (up, down):  1.424E-02 0.000E+00
 
     Adding external electric field

     Computed dipole along edir(3) : 
        Dipole                1.1183 Ry au,          2.8424 Debye
        Dipole field          0.0021 Ry au, 
 
        Potential amp.       -0.1956 Ry
        Total length         46.3494 bohr
 

     total cpu time spent up to now is      832.9 secs

     total energy              =   -2939.15546512 Ry
     estimated scf accuracy    <       0.00054487 Ry

     iteration # 54     ecut=    29.40 Ry     beta= 0.05
     Davidson diagonalization with overlap
     ethr =  1.38E-07,  avg # of iterations =  6.1

     negative rho (up, down):  1.480E-02 0.000E+00
 
     Adding external electric field

     Computed dipole along edir(3) : 
        Dipole                1.1234 Ry au,          2.8554 Debye
        Dipole field          0.0021 Ry au, 
 
        Potential amp.       -0.1965 Ry
        Total length         46.3494 bohr
 

     total cpu time spent up to now is      844.9 secs

     total energy              =   -2939.15546630 Ry
     estimated scf accuracy    <       0.00037183 Ry

     iteration # 55     ecut=    29.40 Ry     beta= 0.05
     Davidson diagonalization with overlap
     ethr =  9.41E-08,  avg # of iterations = 11.8

     negative rho (up, down):  1.481E-02 0.000E+00
 
     Adding external electric field

     Computed dipole along edir(3) : 
        Dipole                1.1249 Ry au,          2.8593 Debye
        Dipole field          0.0021 Ry au, 
 
        Potential amp.       -0.1968 Ry
        Total length         46.3494 bohr
 

     total cpu time spent up to now is      862.9 secs

     total energy              =   -2939.15547914 Ry
     estimated scf accuracy    <       0.00039980 Ry

     iteration # 56     ecut=    29.40 Ry     beta= 0.05
     Davidson diagonalization with overlap
     ethr =  9.41E-08,  avg # of iterations =  6.4

     negative rho (up, down):  1.501E-02 0.000E+00
 
     Adding external electric field

     Computed dipole along edir(3) : 
        Dipole                1.1166 Ry au,          2.8382 Debye
        Dipole field          0.0021 Ry au, 
 
        Potential amp.       -0.1953 Ry
        Total length         46.3494 bohr
 

     total cpu time spent up to now is      875.3 secs

     total energy              =   -2939.15549975 Ry
     estimated scf accuracy    <       0.00015382 Ry

     iteration # 57     ecut=    29.40 Ry     beta= 0.05
     Davidson diagonalization with overlap
     ethr =  3.89E-08,  avg # of iterations = 10.4

     negative rho (up, down):  1.521E-02 0.000E+00
 
     Adding external electric field

     Computed dipole along edir(3) : 
        Dipole                1.1228 Ry au,          2.8537 Debye
        Dipole field          0.0021 Ry au, 
 
        Potential amp.       -0.1964 Ry
        Total length         46.3494 bohr
 

     total cpu time spent up to now is      892.9 secs

     total energy              =   -2939.15554280 Ry
     estimated scf accuracy    <       0.00019489 Ry

     iteration # 58     ecut=    29.40 Ry     beta= 0.05
     Davidson diagonalization with overlap
     ethr =  3.89E-08,  avg # of iterations =  4.8

     negative rho (up, down):  1.562E-02 0.000E+00
 
     Adding external electric field

     Computed dipole along edir(3) : 
        Dipole                1.1317 Ry au,          2.8765 Debye
        Dipole field          0.0021 Ry au, 
 
        Potential amp.       -0.1980 Ry
        Total length         46.3494 bohr
 

     total cpu time spent up to now is      904.2 secs

     total energy              =   -2939.15554904 Ry
     estimated scf accuracy    <       0.00009542 Ry

     iteration # 59     ecut=    29.40 Ry     beta= 0.05
     Davidson diagonalization with overlap
     ethr =  2.42E-08,  avg # of iterations =  9.3

     negative rho (up, down):  1.585E-02 0.000E+00
 
     Adding external electric field

     Computed dipole along edir(3) : 
        Dipole                1.1327 Ry au,          2.8791 Debye
        Dipole field          0.0021 Ry au, 
 
        Potential amp.       -0.1982 Ry
        Total length         46.3494 bohr
 

     total cpu time spent up to now is      921.8 secs

     total energy              =   -2939.15559569 Ry
     estimated scf accuracy    <       0.00012723 Ry

     iteration # 60     ecut=    29.40 Ry     beta= 0.05
     Davidson diagonalization with overlap
     ethr =  2.42E-08,  avg # of iterations =  1.0

     negative rho (up, down):  1.613E-02 0.000E+00
 
     Adding external electric field

     Computed dipole along edir(3) : 
        Dipole                1.1301 Ry au,          2.8723 Debye
        Dipole field          0.0021 Ry au, 
 
        Potential amp.       -0.1977 Ry
        Total length         46.3494 bohr
 

     total cpu time spent up to now is      931.5 secs

     total energy              =   -2939.15557225 Ry
     estimated scf accuracy    <       0.00012528 Ry

     iteration # 61     ecut=    29.40 Ry     beta= 0.05
     Davidson diagonalization with overlap
     ethr =  2.42E-08,  avg # of iterations =  7.2

     negative rho (up, down):  1.615E-02 0.000E+00
 
     Adding external electric field

     Computed dipole along edir(3) : 
        Dipole                1.1333 Ry au,          2.8806 Debye
        Dipole field          0.0021 Ry au, 
 
        Potential amp.       -0.1983 Ry
        Total length         46.3494 bohr
 

     total cpu time spent up to now is      946.1 secs

     total energy              =   -2939.15559451 Ry
     estimated scf accuracy    <       0.00001996 Ry

     iteration # 62     ecut=    29.40 Ry     beta= 0.05
     Davidson diagonalization with overlap
     ethr =  5.05E-09,  avg # of iterations =  6.4

     negative rho (up, down):  1.610E-02 0.000E+00
 
     Adding external electric field

     Computed dipole along edir(3) : 
        Dipole                1.1319 Ry au,          2.8771 Debye
        Dipole field          0.0021 Ry au, 
 
        Potential amp.       -0.1980 Ry
        Total length         46.3494 bohr
 

     total cpu time spent up to now is      959.4 secs

     total energy              =   -2939.15560234 Ry
     estimated scf accuracy    <       0.00002949 Ry

     iteration # 63     ecut=    29.40 Ry     beta= 0.05
     Davidson diagonalization with overlap
     ethr =  5.05E-09,  avg # of iterations =  5.2

     negative rho (up, down):  1.594E-02 0.000E+00
 
     Adding external electric field

     Computed dipole along edir(3) : 
        Dipole                1.1299 Ry au,          2.8720 Debye
        Dipole field          0.0021 Ry au, 
 
        Potential amp.       -0.1977 Ry
        Total length         46.3494 bohr
 

     total cpu time spent up to now is      971.0 secs

     total energy              =   -2939.15560145 Ry
     estimated scf accuracy    <       0.00003006 Ry

     iteration # 64     ecut=    29.40 Ry     beta= 0.05
     Davidson diagonalization with overlap
     ethr =  5.05E-09,  avg # of iterations =  7.7

     negative rho (up, down):  1.594E-02 0.000E+00
 
     Adding external electric field

     Computed dipole along edir(3) : 
        Dipole                1.1299 Ry au,          2.8718 Debye
        Dipole field          0.0021 Ry au, 
 
        Potential amp.       -0.1977 Ry
        Total length         46.3494 bohr
 

     total cpu time spent up to now is      984.1 secs

     total energy              =   -2939.15560632 Ry
     estimated scf accuracy    <       0.00001045 Ry

     iteration # 65     ecut=    29.40 Ry     beta= 0.05
     Davidson diagonalization with overlap
     ethr =  2.65E-09,  avg # of iterations =  6.6

     negative rho (up, down):  1.599E-02 0.000E+00
 
     Adding external electric field

     Computed dipole along edir(3) : 
        Dipole                1.1295 Ry au,          2.8710 Debye
        Dipole field          0.0021 Ry au, 
 
        Potential amp.       -0.1976 Ry
        Total length         46.3494 bohr
 

     total cpu time spent up to now is      995.9 secs

     total energy              =   -2939.15560835 Ry
     estimated scf accuracy    <       0.00000727 Ry

     iteration # 66     ecut=    29.40 Ry     beta= 0.05
     Davidson diagonalization with overlap
     ethr =  1.84E-09,  avg # of iterations =  8.7

     negative rho (up, down):  1.594E-02 0.000E+00
 
     Adding external electric field

     Computed dipole along edir(3) : 
        Dipole                1.1297 Ry au,          2.8713 Debye
        Dipole field          0.0021 Ry au, 
 
        Potential amp.       -0.1976 Ry
        Total length         46.3494 bohr
 

     total cpu time spent up to now is     1012.7 secs

     total energy              =   -2939.15561235 Ry
     estimated scf accuracy    <       0.00000449 Ry

     iteration # 67     ecut=    29.40 Ry     beta= 0.05
     Davidson diagonalization with overlap
     ethr =  1.14E-09,  avg # of iterations =  4.7

     negative rho (up, down):  1.584E-02 0.000E+00
 
     Adding external electric field

     Computed dipole along edir(3) : 
        Dipole                1.1295 Ry au,          2.8708 Debye
        Dipole field          0.0021 Ry au, 
 
        Potential amp.       -0.1976 Ry
        Total length         46.3494 bohr
 

     total cpu time spent up to now is     1024.1 secs

     total energy              =   -2939.15561474 Ry
     estimated scf accuracy    <       0.00000216 Ry

     iteration # 68     ecut=    29.40 Ry     beta= 0.05
     Davidson diagonalization with overlap
     c_bands:  1 eigenvalues not converged
     c_bands:  1 eigenvalues not converged
     ethr =  5.46E-10,  avg # of iterations = 15.3

     negative rho (up, down):  1.585E-02 0.000E+00
 
     Adding external electric field

     Computed dipole along edir(3) : 
        Dipole                1.1287 Ry au,          2.8688 Debye
        Dipole field          0.0021 Ry au, 
 
        Potential amp.       -0.1974 Ry
        Total length         46.3494 bohr
 

     total cpu time spent up to now is     1046.8 secs

     total energy              =   -2939.15561934 Ry
     estimated scf accuracy    <       0.00000691 Ry

     iteration # 69     ecut=    29.40 Ry     beta= 0.05
     Davidson diagonalization with overlap
     ethr =  5.46E-10,  avg # of iterations =  8.5

     negative rho (up, down):  1.582E-02 0.000E+00
 
     Adding external electric field

     Computed dipole along edir(3) : 
        Dipole                1.1282 Ry au,          2.8677 Debye
        Dipole field          0.0021 Ry au, 
 
        Potential amp.       -0.1974 Ry
        Total length         46.3494 bohr
 

     total cpu time spent up to now is     1061.7 secs

     total energy              =   -2939.15562179 Ry
     estimated scf accuracy    <       0.00000199 Ry

     iteration # 70     ecut=    29.40 Ry     beta= 0.05
     Davidson diagonalization with overlap
     ethr =  5.03E-10,  avg # of iterations =  9.6

     negative rho (up, down):  1.580E-02 0.000E+00
 
     Adding external electric field

     Computed dipole along edir(3) : 
        Dipole                1.1282 Ry au,          2.8675 Debye
        Dipole field          0.0021 Ry au, 
 
        Potential amp.       -0.1974 Ry
        Total length         46.3494 bohr
 

     total cpu time spent up to now is     1079.3 secs

     total energy              =   -2939.15562393 Ry
     estimated scf accuracy    <       0.00000091 Ry

     iteration # 71     ecut=    29.40 Ry     beta= 0.05
     Davidson diagonalization with overlap
     ethr =  2.31E-10,  avg # of iterations =  7.3

     negative rho (up, down):  1.577E-02 0.000E+00
 
     Adding external electric field

     Computed dipole along edir(3) : 
        Dipole                1.1274 Ry au,          2.8656 Debye
        Dipole field          0.0021 Ry au, 
 
        Potential amp.       -0.1972 Ry
        Total length         46.3494 bohr
 

     total cpu time spent up to now is     1093.8 secs

     total energy              =   -2939.15562567 Ry
     estimated scf accuracy    <       0.00000054 Ry

     iteration # 72     ecut=    29.40 Ry     beta= 0.05
     Davidson diagonalization with overlap
     ethr =  1.37E-10,  avg # of iterations =  7.6

     negative rho (up, down):  1.575E-02 0.000E+00
 
     Adding external electric field

     Computed dipole along edir(3) : 
        Dipole                1.1268 Ry au,          2.8641 Debye
        Dipole field          0.0021 Ry au, 
 
        Potential amp.       -0.1971 Ry
        Total length         46.3494 bohr
 

     total cpu time spent up to now is     1106.2 secs

     total energy              =   -2939.15562709 Ry
     estimated scf accuracy    <       0.00000041 Ry

     iteration # 73     ecut=    29.40 Ry     beta= 0.05
     Davidson diagonalization with overlap
     c_bands:  1 eigenvalues not converged
     ethr =  1.05E-10,  avg # of iterations = 11.1

     negative rho (up, down):  1.574E-02 0.000E+00
 
     Adding external electric field

     Computed dipole along edir(3) : 
        Dipole                1.1274 Ry au,          2.8655 Debye
        Dipole field          0.0021 Ry au, 
 
        Potential amp.       -0.1972 Ry
        Total length         46.3494 bohr
 

     total cpu time spent up to now is     1124.2 secs

     total energy              =   -2939.15562836 Ry
     estimated scf accuracy    <       0.00000059 Ry

     iteration # 74     ecut=    29.40 Ry     beta= 0.05
     Davidson diagonalization with overlap
     ethr =  1.05E-10,  avg # of iterations = 12.3

     negative rho (up, down):  1.572E-02 0.000E+00
 
     Adding external electric field

     Computed dipole along edir(3) : 
        Dipole                1.1269 Ry au,          2.8642 Debye
        Dipole field          0.0021 Ry au, 
 
        Potential amp.       -0.1971 Ry
        Total length         46.3494 bohr
 

     total cpu time spent up to now is     1144.3 secs

     total energy              =   -2939.15562968 Ry
     estimated scf accuracy    <       0.00000046 Ry

     iteration # 75     ecut=    29.40 Ry     beta= 0.05
     Davidson diagonalization with overlap
     ethr =  1.05E-10,  avg # of iterations =  6.0

     negative rho (up, down):  1.569E-02 0.000E+00
 
     Adding external electric field

     Computed dipole along edir(3) : 
        Dipole                1.1264 Ry au,          2.8629 Debye
        Dipole field          0.0021 Ry au, 
 
        Potential amp.       -0.1970 Ry
        Total length         46.3494 bohr
 

     total cpu time spent up to now is     1157.0 secs

     total energy              =   -2939.15563081 Ry
     estimated scf accuracy    <       0.00000009 Ry

     iteration # 76     ecut=    29.40 Ry     beta= 0.05
     Davidson diagonalization with overlap
     ethr =  2.30E-11,  avg # of iterations = 11.5

     negative rho (up, down):  1.569E-02 0.000E+00
 
     Adding external electric field

     Computed dipole along edir(3) : 
        Dipole                1.1265 Ry au,          2.8632 Debye
        Dipole field          0.0021 Ry au, 
 
        Potential amp.       -0.1971 Ry
        Total length         46.3494 bohr
 

     total cpu time spent up to now is     1176.7 secs

     total energy              =   -2939.15563181 Ry
     estimated scf accuracy    <       0.00000010 Ry

     iteration # 77     ecut=    29.40 Ry     beta= 0.05
     Davidson diagonalization with overlap
     ethr =  2.30E-11,  avg # of iterations =  1.2

     negative rho (up, down):  1.570E-02 0.000E+00
 
     Adding external electric field

     Computed dipole along edir(3) : 
        Dipole                1.1266 Ry au,          2.8634 Debye
        Dipole field          0.0021 Ry au, 
 
        Potential amp.       -0.1971 Ry
        Total length         46.3494 bohr
 

     total cpu time spent up to now is     1186.7 secs

     total energy              =   -2939.15563266 Ry
     estimated scf accuracy    <       0.00000007 Ry

     iteration # 78     ecut=    29.40 Ry     beta= 0.05
     Davidson diagonalization with overlap
     ethr =  1.87E-11,  avg # of iterations =  6.6

     negative rho (up, down):  1.570E-02 0.000E+00
 
     Adding external electric field

     Computed dipole along edir(3) : 
        Dipole                1.1260 Ry au,          2.8619 Debye
        Dipole field          0.0021 Ry au, 
 
        Potential amp.       -0.1970 Ry
        Total length         46.3494 bohr
 

     total cpu time spent up to now is     1200.0 secs

     End of self-consistent calculation

          k = 0.0000 0.0000 0.0000 ( 18029 PWs)   bands (ev):

   -55.5831 -55.5799 -55.5491 -55.5439 -55.4510 -55.4319 -55.4147 -55.3968
   -55.3967 -55.3629 -55.3579 -55.3242 -54.9534 -54.8649 -54.5612 -54.5272
   -32.1346 -32.0660 -31.9519 -31.8952 -31.8927 -31.8842 -31.8759 -31.8491
   -31.8269 -31.8072 -31.7754 -31.7658 -31.7591 -31.7353 -31.7328 -31.7198
   -31.6879 -31.6774 -31.6680 -31.6545 -31.6515 -31.6402 -31.6056 -31.5993
   -31.5894 -31.5858 -31.5815 -31.5733 -31.5624 -31.5599 -31.5355 -31.5256
   -31.5117 -31.5065 -31.4988 -31.4708 -31.4600 -31.1926 -31.1845 -31.1456
   -31.0976 -31.0440 -30.9682 -30.8801 -30.8577 -30.7851 -30.6986 -30.5874
   -18.9624 -16.3382 -16.0615 -15.8141 -15.7337 -15.7171 -15.6012 -15.4287
   -15.3123 -15.2611 -15.1581 -15.1572 -15.1205 -15.0863 -15.0384 -15.0350
   -15.0302 -15.0032 -14.9946 -14.9740 -14.9437 -14.9254 -14.8863 -14.7871
   -14.7686 -14.7189 -14.6903 -14.6641 -14.6438 -14.2604 -13.0634 -12.9470
   -12.7456  -8.8595  -6.3705  -4.8455  -3.7135  -3.6719  -3.5557  -3.4908
    -3.4516  -3.4115  -3.2220  -3.1830  -3.1384  -2.8322  -2.7717  -2.7532
    -2.7431  -2.7134  -2.4887  -2.4501  -2.3987  -2.3680  -2.3565  -2.3539
    -2.3523  -2.3227  -2.3042  -2.1634  -2.1286  -2.0387  -1.9993  -1.9925
    -1.9840  -1.8964  -1.8646  -1.8378  -1.8278  -1.8180  -1.7900  -1.7810
    -1.7724  -1.6385  -1.5594  -1.4076  -1.3871  -1.3468  -1.2157  -1.1914
    -1.0597  -1.0426  -1.0135  -0.9767  -0.9573  -0.8880  -0.7682  -0.7464
    -0.7108  -0.6963  -0.6050  -0.5669  -0.4993  -0.4652  -0.4406  -0.3943
    -0.3542  -0.3451  -0.3232  -0.1961  -0.0670  -0.0096  -0.0002   0.0269
     0.0954   0.1332   0.1939   0.2437   0.2534   0.2901   0.3415   0.3861
     0.3980   0.4004   0.4157   0.4536   0.5949   0.6114   0.6768   0.7221
     0.7654   0.8803   0.9322   1.0685   1.1601   1.3185   1.3883   1.4611
     1.5335   1.6533   2.0315   2.0427   2.0776   3.5472   3.6359   3.6800
     3.6853   3.7912   3.8862   3.9984   4.0182   4.0392   4.0941

          k = 0.0000 0.0419 0.0000 ( 17933 PWs)   bands (ev):

   -55.5781 -55.5746 -55.5540 -55.5491 -55.4462 -55.4269 -55.4194 -55.4016
   -55.3918 -55.3678 -55.3529 -55.3291 -54.9520 -54.8661 -54.5562 -54.5321
   -32.0771 -32.0121 -31.8969 -31.8718 -31.8712 -31.8652 -31.8371 -31.8088
   -31.8010 -31.7999 -31.7928 -31.7877 -31.7543 -31.7496 -31.7446 -31.7420
   -31.7214 -31.6642 -31.6547 -31.6541 -31.6493 -31.6448 -31.6195 -31.6126
   -31.6030 -31.5994 -31.5869 -31.5849 -31.5777 -31.5635 -31.5578 -31.5566
   -31.5347 -31.5317 -31.5270 -31.5147 -31.4214 -31.1917 -31.1833 -31.1667
   -31.0978 -31.0656 -30.9141 -30.8766 -30.8607 -30.7725 -30.7112 -30.6445
   -18.9605 -16.2018 -15.9413 -15.7062 -15.6238 -15.6144 -15.5655 -15.4576
   -15.3666 -15.3446 -15.1825 -15.1306 -15.1072 -15.1013 -15.0968 -15.0614
   -15.0505 -15.0413 -14.9855 -14.9745 -14.9477 -14.9285 -14.8692 -14.8246
   -14.8146 -14.7772 -14.7163 -14.7005 -14.6969 -14.3204 -13.0675 -12.9865
   -12.7489  -8.8595  -6.3682  -4.8261  -3.6778  -3.5218  -3.3900  -3.3538
    -3.3137  -3.2842  -3.1074  -3.0387  -2.9088  -2.8175  -2.7639  -2.6658
    -2.6426  -2.6271  -2.5689  -2.5479  -2.5373  -2.4729  -2.4535  -2.4027
    -2.3446  -2.3416  -2.3091  -2.2756  -2.2539  -2.2447  -2.1702  -2.0999
    -2.0751  -2.0554  -2.0039  -1.9397  -1.8888  -1.8400  -1.8217  -1.7283
    -1.6229  -1.5291  -1.4814  -1.3465  -1.2752  -1.2454  -1.2338  -1.1681
    -1.0351  -0.9429  -0.9263  -0.8715  -0.8272  -0.7998  -0.7122  -0.6097
    -0.5790  -0.5413  -0.5323  -0.5140  -0.4857  -0.4561  -0.4324  -0.4029
    -0.3533  -0.2967  -0.2183  -0.1926  -0.1637  -0.1083  -0.0871  -0.0633
    -0.0417   0.0581   0.1505   0.1653   0.1704   0.1965   0.2339   0.2566
     0.2854   0.3654   0.4422   0.4705   0.5252   0.5447   0.6152   0.6815
     0.7373   0.7472   0.7744   0.8912   1.0766   1.0908   1.1435   1.4046
     1.6499   1.7348   1.9446   1.9863   1.9895   3.7429   3.7884   3.7940
     3.8735   3.9050   3.9504   4.0119   4.0451   4.0668   4.1034

          k = 0.0000-0.0839 0.0000 ( 17884 PWs)   bands (ev):

   -55.5662 -55.5658 -55.5622 -55.5614 -55.4384 -55.4272 -55.4175 -55.4109
   -55.3799 -55.3795 -55.3416 -55.3404 -54.9506 -54.8675 -54.5442 -54.5440
   -31.9374 -31.9357 -31.8800 -31.8796 -31.8615 -31.8608 -31.8341 -31.8337
   -31.7720 -31.7700 -31.7668 -31.7612 -31.7560 -31.7529 -31.6984 -31.6952
   -31.6939 -31.6902 -31.6879 -31.6877 -31.6636 -31.6608 -31.6333 -31.6320
   -31.6311 -31.6274 -31.6257 -31.6246 -31.6160 -31.6141 -31.5741 -31.5726
   -31.5566 -31.5545 -31.5231 -31.5224 -31.3633 -31.2290 -31.1909 -31.1600
   -31.0980 -31.0879 -30.8686 -30.8684 -30.7812 -30.7810 -30.7419 -30.7418
   -18.9587 -15.8591 -15.8500 -15.6585 -15.6561 -15.4934 -15.4767 -15.3758
   -15.3713 -15.3590 -15.3433 -15.3032 -15.2920 -15.1483 -15.1442 -14.9793
   -14.9762 -14.9668 -14.9482 -14.9338 -14.9200 -14.9181 -14.8841 -14.8806
   -14.8448 -14.8316 -14.8242 -14.8146 -14.6921 -14.3975 -13.0492 -13.0492
   -12.7523  -8.8596  -6.3659  -4.8081  -3.6844  -3.3090  -3.0627  -3.0555
    -2.9943  -2.9839  -2.9610  -2.9585  -2.8751  -2.8749  -2.7819  -2.7118
    -2.7083  -2.7017  -2.6949  -2.6722  -2.6393  -2.6109  -2.5379  -2.5348
    -2.4370  -2.4102  -2.3582  -2.3420  -2.2638  -2.2600  -2.1895  -2.1723
    -2.1555  -2.0673  -2.0278  -1.9500  -1.9413  -1.9158  -1.6681  -1.5682
    -1.4683  -1.4468  -1.3931  -1.2826  -1.2586  -1.2184  -1.1118  -1.0438
    -1.0154  -0.9992  -0.9702  -0.9502  -0.9185  -0.8286  -0.7915  -0.7558
    -0.7128  -0.6857  -0.6292  -0.4702  -0.3968  -0.2881  -0.2445  -0.2307
    -0.2105  -0.2048  -0.1813  -0.1630  -0.1026  -0.0781  -0.0458  -0.0311
    -0.0269   0.0242   0.0491   0.0961   0.1147   0.1274   0.1510   0.2064
     0.2138   0.2248   0.2707   0.3043   0.3280   0.3664   0.4990   0.6469
     0.6550   0.6619   0.6935   0.9260   1.0103   1.0646   1.1096   1.1417
     1.7937   1.7941   1.8357   1.9232   1.9233   3.8574   3.8791   3.8989
     3.9217   3.9848   3.9923   4.0780   4.0995   4.1377   4.1471

          k = 0.0380 0.0000 0.0000 ( 17913 PWs)   bands (ev):

   -55.5830 -55.5797 -55.5490 -55.5438 -55.4509 -55.4318 -55.4147 -55.3966
   -55.3965 -55.3628 -55.3580 -55.3242 -54.9534 -54.8648 -54.5611 -54.5271
   -32.1347 -32.0669 -31.9575 -31.8954 -31.8936 -31.8843 -31.8757 -31.8539
   -31.8269 -31.7907 -31.7746 -31.7657 -31.7590 -31.7324 -31.7261 -31.7193
   -31.6876 -31.6702 -31.6642 -31.6570 -31.6532 -31.6400 -31.6049 -31.5993
   -31.5885 -31.5821 -31.5788 -31.5737 -31.5622 -31.5598 -31.5565 -31.5255
   -31.5118 -31.5055 -31.4985 -31.4710 -31.4586 -31.1943 -31.1845 -31.1455
   -31.0975 -31.0438 -30.9678 -30.8834 -30.8557 -30.7849 -30.6985 -30.5872
   -18.9622 -16.2662 -15.9782 -15.7420 -15.7255 -15.6334 -15.6004 -15.4723
   -15.3099 -15.3043 -15.2755 -15.2582 -15.2074 -15.1526 -15.1449 -15.1336
   -15.0571 -14.9453 -14.8924 -14.8739 -14.8638 -14.8487 -14.8288 -14.8072
   -14.7759 -14.7672 -14.7241 -14.7101 -14.6658 -14.2571 -13.0602 -12.9467
   -12.7446  -8.8591  -6.3691  -4.8318  -3.7133  -3.6348  -3.3536  -3.3159
    -3.2809  -3.2121  -3.1304  -3.1269  -3.0635  -3.0556  -2.8335  -2.8299
    -2.6954  -2.6629  -2.5982  -2.5697  -2.4326  -2.3859  -2.3555  -2.3128
    -2.2980  -2.2363  -2.1907  -2.1598  -2.0786  -2.0657  -2.0064  -1.9768
    -1.9494  -1.9381  -1.8563  -1.8068  -1.7730  -1.7583  -1.6231  -1.6021
    -1.5588  -1.5214  -1.4562  -1.4427  -1.4052  -1.3439  -1.2366  -1.1881
    -1.1342  -1.1034  -1.0234  -1.0182  -1.0032  -0.9275  -0.8706  -0.8652
    -0.8507  -0.7451  -0.7060  -0.6194  -0.5130  -0.4784  -0.4278  -0.4037
    -0.3760  -0.3195  -0.3003  -0.1830  -0.0940  -0.0430  -0.0329  -0.0110
     0.0594   0.1080   0.1281   0.1566   0.2064   0.2376   0.2464   0.2634
     0.2896   0.3002   0.3484   0.4850   0.5199   0.5540   0.5964   0.6596
     0.7326   0.7541   0.7791   1.0442   1.1048   1.3205   1.3868   1.4041
     1.4730   1.6228   1.9116   1.9215   1.9949   3.5783   3.6081   3.8909
     3.9189   3.9280   3.9708   3.9969   4.0099   4.0392   4.0736

          k = 0.0380 0.0419 0.0000 ( 17878 PWs)   bands (ev):

   -55.5780 -55.5744 -55.5540 -55.5491 -55.4462 -55.4268 -55.4194 -55.4016
   -55.3915 -55.3677 -55.3530 -55.3291 -54.9520 -54.8661 -54.5561 -54.5321
   -32.0772 -32.0129 -31.9036 -31.8716 -31.8709 -31.8653 -31.8382 -31.8091
   -31.8037 -31.7991 -31.7896 -31.7806 -31.7542 -31.7493 -31.7447 -31.7325
   -31.7189 -31.6646 -31.6538 -31.6515 -31.6470 -31.6447 -31.6182 -31.6149
   -31.6031 -31.5882 -31.5867 -31.5840 -31.5783 -31.5635 -31.5587 -31.5569
   -31.5525 -31.5348 -31.5227 -31.5192 -31.4207 -31.1932 -31.1833 -31.1666
   -31.0982 -31.0654 -30.9138 -30.8793 -30.8597 -30.7724 -30.7112 -30.6444
   -18.9604 -16.1364 -15.8646 -15.6400 -15.6193 -15.5635 -15.5291 -15.4596
   -15.4024 -15.3456 -15.2408 -15.2102 -15.1806 -15.1760 -15.1391 -15.0800
   -15.0219 -15.0090 -14.9693 -14.9483 -14.9102 -14.8995 -14.8733 -14.8484
   -14.8244 -14.8162 -14.7710 -14.7424 -14.6809 -14.3173 -13.0652 -12.9868
   -12.7483  -8.8591  -6.3674  -4.8187  -3.6977  -3.4570  -3.3189  -3.1632
    -3.1222  -3.0389  -2.9758  -2.9206  -2.9031  -2.8864  -2.7400  -2.6866
    -2.6189  -2.5912  -2.5714  -2.4843  -2.4758  -2.4411  -2.4006  -2.3725
    -2.3307  -2.3127  -2.3002  -2.2715  -2.2389  -2.2155  -2.1697  -2.1268
    -2.0767  -2.0455  -1.9353  -1.8961  -1.8529  -1.7837  -1.7353  -1.6206
    -1.5864  -1.5482  -1.4862  -1.3424  -1.3139  -1.2804  -1.1744  -1.0896
    -1.0361  -1.0182  -0.9957  -0.9237  -0.9043  -0.8509  -0.8233  -0.7608
    -0.7258  -0.6643  -0.6292  -0.5764  -0.5303  -0.5161  -0.4549  -0.4205
    -0.3910  -0.3430  -0.3062  -0.2696  -0.2318  -0.2160  -0.1845  -0.1662
    -0.0908  -0.0478  -0.0234   0.0426   0.0974   0.1118   0.1413   0.1877
     0.2534   0.3372   0.3681   0.5011   0.5162   0.5870   0.6279   0.6781
     0.7260   0.7763   0.7977   0.8516   1.0032   1.0659   1.1854   1.3425
     1.6607   1.7388   1.8961   1.9087   1.9703   3.7313   3.7890   3.8673
     3.9290   3.9511   3.9964   4.0713   4.1034   4.1313   4.1435

          k = 0.0380-0.0839 0.0000 ( 17916 PWs)   bands (ev):

   -55.5662 -55.5658 -55.5622 -55.5614 -55.4384 -55.4272 -55.4175 -55.4110
   -55.3798 -55.3795 -55.3417 -55.3405 -54.9507 -54.8675 -54.5442 -54.5440
   -31.9377 -31.9360 -31.8808 -31.8803 -31.8615 -31.8609 -31.8342 -31.8338
   -31.7917 -31.7805 -31.7627 -31.7568 -31.7401 -31.7311 -31.6990 -31.6961
   -31.6946 -31.6912 -31.6868 -31.6865 -31.6749 -31.6722 -31.6407 -31.6338
   -31.6262 -31.6245 -31.6164 -31.6126 -31.6093 -31.6079 -31.5739 -31.5724
   -31.5568 -31.5546 -31.5348 -31.5341 -31.3631 -31.2288 -31.1922 -31.1600
   -31.0989 -31.0879 -30.8695 -30.8694 -30.7811 -30.7809 -30.7419 -30.7418
   -18.9587 -15.8173 -15.8073 -15.6086 -15.6066 -15.4664 -15.4538 -15.3793
   -15.3620 -15.3168 -15.2880 -15.2792 -15.2668 -15.1603 -15.1571 -15.0518
   -15.0333 -15.0010 -14.9983 -14.9708 -14.9515 -14.9432 -14.9161 -14.8969
   -14.8884 -14.8784 -14.8487 -14.7960 -14.6796 -14.3924 -13.0490 -13.0490
   -12.7519  -8.8595  -6.3655  -4.8072  -3.6856  -3.3037  -3.0550  -3.0449
    -2.8314  -2.8232  -2.7787  -2.7668  -2.7216  -2.6967  -2.6649  -2.6604
    -2.6155  -2.5978  -2.5716  -2.5480  -2.5426  -2.4814  -2.4283  -2.4234
    -2.4193  -2.4096  -2.3570  -2.3054  -2.2864  -2.2455  -2.2213  -2.1968
    -2.1348  -2.0921  -2.0435  -1.9912  -1.7058  -1.6956  -1.6883  -1.5295
    -1.4940  -1.4718  -1.4277  -1.4049  -1.3569  -1.3458  -1.2971  -1.2430
    -1.2231  -1.2033  -1.1319  -1.0531  -1.0173  -0.8842  -0.8307  -0.7422
    -0.7078  -0.6834  -0.6193  -0.6066  -0.5208  -0.4932  -0.4139  -0.3730
    -0.3542  -0.3436  -0.3174  -0.2890  -0.2592  -0.2151  -0.1876  -0.1630
    -0.1385  -0.1260  -0.1221  -0.0334   0.0000   0.0213   0.1423   0.1804
     0.2493   0.2950   0.4213   0.4821   0.5101   0.5310   0.5589   0.5860
     0.6378   0.7540   0.7710   0.9026   0.9366   1.0647   1.1062   1.1573
     1.8068   1.8073   1.8677   1.9122   1.9129   3.8274   3.8629   3.9075
     3.9365   3.9712   3.9811   4.1300   4.1501   4.1751   4.1799

          k = 0.0380-0.0419 0.0000 ( 17876 PWs)   bands (ev):

   -55.5780 -55.5744 -55.5540 -55.5491 -55.4462 -55.4268 -55.4194 -55.4016
   -55.3915 -55.3677 -55.3530 -55.3291 -54.9520 -54.8661 -54.5561 -54.5321
   -32.0772 -32.0129 -31.9036 -31.8716 -31.8709 -31.8653 -31.8381 -31.8091
   -31.8037 -31.7993 -31.7896 -31.7806 -31.7541 -31.7492 -31.7446 -31.7326
   -31.7190 -31.6642 -31.6537 -31.6515 -31.6469 -31.6448 -31.6184 -31.6148
   -31.6032 -31.5882 -31.5867 -31.5840 -31.5783 -31.5635 -31.5585 -31.5569
   -31.5529 -31.5348 -31.5225 -31.5192 -31.4207 -31.1932 -31.1832 -31.1666
   -31.0982 -31.0654 -30.9137 -30.8793 -30.8597 -30.7724 -30.7112 -30.6444
   -18.9604 -16.1363 -15.8645 -15.6399 -15.6190 -15.5635 -15.5289 -15.4604
   -15.4022 -15.3460 -15.2413 -15.2101 -15.1812 -15.1760 -15.1413 -15.0799
   -15.0194 -15.0079 -14.9688 -14.9481 -14.9097 -14.8997 -14.8734 -14.8478
   -14.8245 -14.8167 -14.7710 -14.7431 -14.6807 -14.3175 -13.0652 -12.9868
   -12.7482  -8.8592  -6.3673  -4.8188  -3.6984  -3.4575  -3.3193  -3.1607
    -3.1228  -3.0383  -2.9751  -2.9246  -2.8994  -2.8868  -2.7402  -2.6861
    -2.6146  -2.5901  -2.5706  -2.4823  -2.4751  -2.4507  -2.4009  -2.3738
    -2.3324  -2.3153  -2.3016  -2.2709  -2.2408  -2.2184  -2.1652  -2.1275
    -2.0769  -2.0461  -1.9355  -1.8993  -1.8461  -1.7816  -1.7309  -1.6176
    -1.5830  -1.5523  -1.4860  -1.3367  -1.3022  -1.2816  -1.1760  -1.1036
    -1.0403  -1.0125  -0.9939  -0.9253  -0.8980  -0.8415  -0.8278  -0.7672
    -0.7191  -0.6708  -0.6357  -0.5832  -0.5223  -0.5106  -0.4685  -0.4186
    -0.3931  -0.3528  -0.3010  -0.2785  -0.2453  -0.2160  -0.1861  -0.1651
    -0.0864  -0.0453  -0.0318   0.0534   0.1005   0.1178   0.1315   0.1853
     0.2611   0.3472   0.3755   0.4761   0.5249   0.6011   0.6193   0.6832
     0.7286   0.7738   0.8066   0.8497   1.0041   1.0648   1.1843   1.3423
     1.6608   1.7390   1.8956   1.9085   1.9709   3.7285   3.7883   3.8641
     3.9189   3.9614   3.9894   4.0742   4.1110   4.1265   4.1353

          k =-0.0760-0.0000 0.0000 ( 17886 PWs)   bands (ev):

   -55.5830 -55.5796 -55.5490 -55.5438 -55.4509 -55.4317 -55.4147 -55.3966
   -55.3963 -55.3627 -55.3581 -55.3242 -54.9533 -54.8648 -54.5611 -54.5271
   -32.1349 -32.0678 -31.9628 -31.8956 -31.8945 -31.8842 -31.8755 -31.8585
   -31.8270 -31.7774 -31.7657 -31.7632 -31.7590 -31.7295 -31.7204 -31.7192
   -31.6952 -31.6876 -31.6606 -31.6531 -31.6404 -31.6129 -31.6048 -31.6018
   -31.5994 -31.5870 -31.5830 -31.5746 -31.5726 -31.5624 -31.5597 -31.5254
   -31.5127 -31.5048 -31.4984 -31.4716 -31.4575 -31.1965 -31.1844 -31.1454
   -31.0977 -31.0438 -30.9674 -30.8867 -30.8544 -30.7849 -30.6984 -30.5873
   -18.9621 -16.1719 -15.8993 -15.6869 -15.6818 -15.5997 -15.5443 -15.4448
   -15.3846 -15.3586 -15.3073 -15.2900 -15.2649 -15.2550 -15.2108 -15.1576
   -15.1280 -14.9477 -14.9331 -14.8952 -14.8723 -14.8314 -14.8174 -14.7792
   -14.7649 -14.7393 -14.7219 -14.6793 -14.6675 -14.2546 -13.0571 -12.9464
   -12.7436  -8.8587  -6.3678  -4.8191  -3.7403  -3.6138  -3.3158  -3.2439
    -3.1914  -3.1102  -2.9946  -2.9920  -2.8447  -2.8366  -2.8333  -2.8317
    -2.8129  -2.6412  -2.6103  -2.4414  -2.3860  -2.3710  -2.3318  -2.3219
    -2.2235  -2.1596  -2.1423  -2.0845  -2.0652  -2.0018  -1.9790  -1.9264
    -1.9064  -1.8679  -1.8233  -1.8133  -1.7752  -1.7608  -1.7272  -1.7165
    -1.6658  -1.5554  -1.3987  -1.3602  -1.3409  -1.2306  -1.1923  -1.1816
    -1.1677  -1.1487  -1.1359  -1.0483  -1.0167  -0.9716  -0.9546  -0.8931
    -0.8680  -0.8262  -0.7613  -0.7446  -0.7362  -0.6293  -0.5206  -0.4199
    -0.3715  -0.2985  -0.2630  -0.2369  -0.2297  -0.1630  -0.1089  -0.0577
    -0.0388   0.0158   0.0669   0.0957   0.1323   0.1555   0.2154   0.2285
     0.2661   0.3208   0.3806   0.4233   0.4461   0.5022   0.6079   0.6535
     0.6838   0.8612   0.8822   0.9928   1.1084   1.1195   1.3203   1.4021
     1.4941   1.5984   1.7914   1.7989   1.9393   3.5832   3.5863   3.7111
     3.8305   3.8865   3.9673   3.9970   4.0615   4.0833   4.0886

          k =-0.0760 0.0419 0.0000 ( 17914 PWs)   bands (ev):

   -55.5780 -55.5744 -55.5540 -55.5491 -55.4462 -55.4268 -55.4194 -55.4016
   -55.3914 -55.3677 -55.3531 -55.3291 -54.9520 -54.8661 -54.5561 -54.5321
   -32.0776 -32.0139 -31.9100 -31.8716 -31.8710 -31.8656 -31.8394 -31.8092
   -31.8083 -31.7987 -31.7905 -31.7631 -31.7543 -31.7492 -31.7449 -31.7233
   -31.7168 -31.6837 -31.6537 -31.6487 -31.6448 -31.6180 -31.6174 -31.6143
   -31.6032 -31.5917 -31.5868 -31.5827 -31.5777 -31.5760 -31.5634 -31.5573
   -31.5552 -31.5348 -31.5257 -31.5224 -31.4200 -31.1950 -31.1833 -31.1666
   -31.0988 -31.0655 -30.9135 -30.8821 -30.8590 -30.7724 -30.7113 -30.6445
   -18.9604 -16.0523 -15.7848 -15.6012 -15.5761 -15.5611 -15.4649 -15.4447
   -15.3461 -15.3407 -15.3209 -15.2431 -15.2348 -15.2326 -15.1801 -15.1364
   -15.1056 -15.0057 -14.9869 -14.9676 -14.9259 -14.9238 -14.8691 -14.8516
   -14.8275 -14.7915 -14.7698 -14.7523 -14.6773 -14.3151 -13.0631 -12.9871
   -12.7476  -8.8589  -6.3665  -4.8122  -3.7121  -3.4426  -3.3054  -3.0936
    -2.9332  -2.8945  -2.8118  -2.7106  -2.7000  -2.6748  -2.6408  -2.6309
    -2.5988  -2.5799  -2.5448  -2.5321  -2.4582  -2.4067  -2.3711  -2.3626
    -2.3337  -2.2984  -2.2737  -2.2611  -2.1981  -2.1634  -2.0959  -2.0749
    -2.0621  -1.9900  -1.9175  -1.8070  -1.7837  -1.7067  -1.6969  -1.6468
    -1.5831  -1.5440  -1.5114  -1.3700  -1.2656  -1.2047  -1.1951  -1.1442
    -1.1299  -1.0739  -1.0537  -1.0027  -0.9635  -0.8985  -0.8775  -0.8640
    -0.8096  -0.8024  -0.7585  -0.7420  -0.7080  -0.6503  -0.6245  -0.5861
    -0.5478  -0.5361  -0.4242  -0.3732  -0.3346  -0.3254  -0.2923  -0.2515
    -0.2102  -0.1749  -0.1123  -0.0342  -0.0086   0.0887   0.1202   0.2448
     0.2607   0.3403   0.4508   0.4715   0.5580   0.6544   0.6799   0.7424
     0.7824   0.8348   0.8649   0.9310   0.9718   1.0033   1.1778   1.2159
     1.6754   1.7417   1.8319   1.8565   1.9596   3.7146   3.7775   3.7866
     3.8743   3.9031   3.9136   4.0371   4.1204   4.1426   4.1952

          k =-0.0760-0.0839 0.0000 ( 17948 PWs)   bands (ev):

   -55.5662 -55.5658 -55.5622 -55.5614 -55.4384 -55.4273 -55.4175 -55.4110
   -55.3798 -55.3794 -55.3418 -55.3406 -54.9507 -54.8675 -54.5442 -54.5440
   -31.9380 -31.9363 -31.8815 -31.8811 -31.8616 -31.8609 -31.8343 -31.8340
   -31.7994 -31.7870 -31.7630 -31.7568 -31.7221 -31.7140 -31.6990 -31.6970
   -31.6946 -31.6921 -31.6857 -31.6854 -31.6820 -31.6794 -31.6518 -31.6440
   -31.6258 -31.6234 -31.6165 -31.6111 -31.5803 -31.5789 -31.5735 -31.5720
   -31.5573 -31.5568 -31.5565 -31.5546 -31.3629 -31.2287 -31.1934 -31.1601
   -31.0998 -31.0879 -30.8705 -30.8703 -30.7811 -30.7809 -30.7420 -30.7419
   -18.9586 -15.7684 -15.7537 -15.5273 -15.5119 -15.5010 -15.4920 -15.3447
   -15.3177 -15.2795 -15.2765 -15.2050 -15.1593 -15.1429 -15.1272 -15.1246
   -15.1061 -15.0981 -15.0494 -15.0427 -15.0413 -15.0233 -15.0168 -14.9024
   -14.8984 -14.8905 -14.8381 -14.7893 -14.6723 -14.3881 -13.0488 -13.0487
   -12.7516  -8.8594  -6.3652  -4.8065  -3.6862  -3.3009  -3.0561  -3.0447
    -2.7548  -2.7437  -2.7415  -2.6983  -2.5059  -2.5011  -2.4871  -2.4550
    -2.4215  -2.4102  -2.4004  -2.3862  -2.3806  -2.3322  -2.3102  -2.2651
    -2.2524  -2.2487  -2.2474  -2.2119  -2.2015  -2.1599  -2.1493  -2.1257
    -2.1134  -2.0823  -2.0507  -1.9039  -1.8174  -1.7984  -1.7245  -1.7176
    -1.6854  -1.6482  -1.6346  -1.5902  -1.5552  -1.4390  -1.3266  -1.2844
    -1.2699  -1.1700  -1.1337  -1.0956  -1.0429  -0.9686  -0.9606  -0.9313
    -0.8661  -0.7933  -0.7766  -0.7543  -0.6900  -0.6649  -0.5923  -0.5714
    -0.5460  -0.5411  -0.4848  -0.4203  -0.4033  -0.3514  -0.3434  -0.3023
    -0.2678  -0.2386  -0.2193  -0.0799  -0.0785  -0.0387   0.0963   0.1522
     0.3846   0.4342   0.4542   0.5256   0.6255   0.6739   0.6874   0.7292
     0.7384   0.7537   0.8135   0.9438   0.9493   1.0179   1.0588   1.1597
     1.8251   1.8255   1.8974   1.8976   1.9015   3.8433   3.8695   3.8825
     3.9061   4.0542   4.0640   4.0837   4.0844   4.2053   4.2265

     the Fermi energy is     3.5487 ev

!    total energy              =   -2939.15564075 Ry
     estimated scf accuracy    <       0.00000003 Ry
     smearing contrib. (-TS)   =      -0.02147411 Ry
     internal energy E=F+TS    =   -2939.13416664 Ry

     The total energy is F=E-TS. E is the sum of the following terms:
     one-electron contribution =  -24213.01037907 Ry
     hartree contribution      =   12196.38455875 Ry
     xc contribution           =    -485.25798052 Ry
     ewald contribution        =    9562.74724171 Ry
     electric field correction =       0.00239249 Ry

     convergence has been achieved in  78 iterations

     Forces acting on atoms (cartesian axes, Ry/au):

     atom    1 type  1   force =     0.00008065   -0.00017990    0.09641381
     atom    2 type  1   force =    -0.00018387   -0.00072939   -0.17540713
     atom    3 type  2   force =     0.00004592   -0.00013547   -0.02409180
     atom    4 type  2   force =     0.00007613   -0.00141192    0.05268142
     atom    5 type  2   force =    -0.01131112   -0.00007266    0.00339780
     atom    6 type  2   force =     0.01296343    0.00064086    0.00224206
     atom    7 type  1   force =    -0.00119707    0.00046508   -0.01223724
     atom    8 type  1   force =     0.00043106    0.00233037    0.02520016
     atom    9 type  2   force =    -0.00025113    0.00019312    0.00003055
     atom   10 type  2   force =    -0.00120424    0.00198553   -0.01303505
     atom   11 type  2   force =     0.00057828    0.00016034    0.00025361
     atom   12 type  2   force =    -0.00049540    0.00006417    0.00013056
     atom   13 type  1   force =    -0.00050414    0.00027528    0.00015485
     atom   14 type  1   force =     0.00060409   -0.00037139   -0.00030587
     atom   15 type  2   force =    -0.00006660    0.00032154    0.00005892
     atom   16 type  2   force =    -0.00002331    0.00017970    0.00059592
     atom   17 type  2   force =    -0.00056107   -0.00005412   -0.00005093
     atom   18 type  2   force =     0.00020927   -0.00013878   -0.00028557
     atom   19 type  1   force =     0.00011952    0.00078605    0.00041680
     atom   20 type  1   force =     0.00000486    0.00036809   -0.00004026
     atom   21 type  2   force =     0.00009995   -0.00012436    0.10316866
     atom   22 type  2   force =    -0.00024690    0.00015760    0.00004736
     atom   23 type  2   force =    -0.07149951   -0.00021631   -0.02773805
     atom   24 type  2   force =     0.07150258    0.00024818   -0.02774692
     atom   25 type  1   force =     0.00012395   -0.00025176    0.09594214
     atom   26 type  1   force =    -0.00011284   -0.00043904   -0.17555511
     atom   27 type  2   force =     0.00009690   -0.00012840   -0.02333422
     atom   28 type  2   force =     0.00011000   -0.00121604    0.05264702
     atom   29 type  2   force =    -0.01155831   -0.00030076    0.00347713
     atom   30 type  2   force =     0.01314338    0.00016283    0.00228166
     atom   31 type  1   force =    -0.00120683    0.00345454   -0.01235626
     atom   32 type  1   force =     0.00054515   -0.00378510    0.02549007
     atom   33 type  2   force =     0.00002368   -0.00017647   -0.00002502
     atom   34 type  2   force =    -0.00098477    0.00046583   -0.02166885
     atom   35 type  2   force =     0.00014159    0.00001388    0.00019587
     atom   36 type  2   force =    -0.00014155    0.00002313    0.00008171
     atom   37 type  1   force =    -0.00044741   -0.00032110    0.00012877
     atom   38 type  1   force =     0.00043551    0.00028336   -0.00029343
     atom   39 type  2   force =    -0.00002011   -0.00046239    0.00034499
     atom   40 type  2   force =    -0.00013167   -0.00008206    0.00015112
     atom   41 type  2   force =    -0.00085884   -0.00014270   -0.00026604
     atom   42 type  2   force =     0.00093630    0.00004898   -0.00003216
     atom   43 type  1   force =    -0.00001130   -0.00079684    0.00002467
     atom   44 type  1   force =    -0.00003751   -0.00004946    0.00034067
     atom   45 type  2   force =     0.00010390   -0.00010890    0.10318214
     atom   46 type  2   force =    -0.07149938   -0.00014978   -0.02772379
     atom   47 type  2   force =     0.07150668    0.00029731   -0.02773213
     atom   48 type  3   force =    -0.00017055   -0.01139521   -0.00600076
     atom   49 type  3   force =     0.00017207    0.00090873   -0.00049391
     atom   50 type  4   force =     0.00011214    0.02739244    0.00147990
     atom   51 type  5   force =     0.00052050   -0.00524418    0.00470948
     atom   52 type  5   force =     0.00022542   -0.01291066    0.00202386
     atom   53 type  5   force =    -0.00018746    0.00016823   -0.00087318

     Total force =     0.368287     Total SCF correction =     0.000370
  @ DRIVER MODE: Message from server: STATUS
  @ DRIVER MODE: Message from server: GETFORCE
  @ DRIVER MODE: Returning v,forces,stress,ensemble 

     Writing output data file ./calc.save/
  @ DRIVER MODE: Message from server: EXIT
  @ DRIVE MODE: Exiting  
 
     init_run     :     10.84s CPU     11.30s WALL (       1 calls)
     electrons    :   1142.50s CPU   1161.01s WALL (       1 calls)
     forces       :      2.39s CPU      2.47s WALL (       1 calls)

     Called by init_run:
     wfcinit      :      4.81s CPU      4.93s WALL (       1 calls)
     potinit      :      5.36s CPU      5.52s WALL (       1 calls)
     hinit0       :      0.31s CPU      0.35s WALL (       1 calls)

     Called by electrons:
     c_bands      :    959.37s CPU    966.91s WALL (      78 calls)
     sum_band     :    123.49s CPU    127.65s WALL (      78 calls)
     v_of_rho     :     43.87s CPU     46.38s WALL (      79 calls)
     newd         :     17.81s CPU     21.91s WALL (      79 calls)
     mix_rho      :      2.06s CPU      2.19s WALL (      78 calls)
     vdW_kernel   :      4.54s CPU      4.58s WALL (       1 calls)

     Called by c_bands:
     init_us_2    :      7.19s CPU      7.26s WALL (    1580 calls)
     cegterg      :    938.52s CPU    945.66s WALL (     792 calls)

     Called by *egterg:
     cdiaghg      :    144.77s CPU    145.80s WALL (    6685 calls)
     h_psi        :    515.11s CPU    519.91s WALL (    6695 calls)
     s_psi        :     66.11s CPU     66.32s WALL (    6695 calls)
     g_psi        :      1.84s CPU      1.86s WALL (    5893 calls)

     Called by h_psi:
     h_psi:calbec :     63.42s CPU     63.79s WALL (    6695 calls)
     vloc_psi     :    382.00s CPU    385.75s WALL (    6695 calls)
     add_vuspsi   :     66.28s CPU     66.71s WALL (    6695 calls)

     General routines
     calbec       :     85.12s CPU     85.56s WALL (    7515 calls)
     fft          :     23.01s CPU     23.28s WALL (    4977 calls)
     ffts         :      0.19s CPU      0.20s WALL (     157 calls)
     fftw         :    431.05s CPU    435.23s WALL ( 1025636 calls)
     interpolate  :      0.57s CPU      0.59s WALL (      79 calls)
     davcio       :      0.00s CPU      0.17s WALL (      10 calls)
 
     Parallel routines
 
     PWSCF        :  19m16.11s CPU  20m23.52s WALL

 
   This run was terminated on:  22:46:31  10Sep2021            

=------------------------------------------------------------------------------=
   JOB DONE.
=------------------------------------------------------------------------------=
