
     Program PWSCF v.6.7GPU starts on 16Sep2021 at  1: 5:51 

     This program is part of the open-source Quantum ESPRESSO suite
     for quantum simulation of materials; please cite
         "P. Giannozzi et al., J. Phys.:Condens. Matter 21 395502 (2009);
         "P. Giannozzi et al., J. Phys.:Condens. Matter 29 465901 (2017);
         "P. Giannozzi et al., J. Chem. Phys. 152 154105 (2020);
          URL http://www.quantum-espresso.org", 
     in publications or presentations arising from this work. More details at
     http://www.quantum-espresso.org/quote

     Parallel version (MPI), running on    10 processors

     MPI processes distributed on     1 nodes
     R & G space division:  proc/nbgrp/npool/nimage =      10
     Reading input from /storage/home/hcoda1/3/ntian30/research/carbon/CxH_vib/H2O_calc/ads_slab/CH2NHHH2O_a/out_0028/pw.inp
Warning: card &CELL ignored
Warning: card   CELL_DYNAMICS='IPI', ignored
Warning: card / ignored

     Current dimensions of program PWSCF are:
     Max number of different atomic species (ntypx) = 10
     Max number of k-points (npk) =  40000
     Max angular momentum in pseudopotentials (lmaxx) =  3
     Presently no symmetry can be used with electric field

     Message from routine cell_base_init:
     DEPRECATED: use true lattice parameter, not A to a.u. conversion factor

     **************************************************************************
     Initializing libbeef V0.1.2 with the BEEF-vdW functional.
     Citation: Wellendorff et al., PRB 85, 235149 (2012).
     **************************************************************************


     IMPORTANT: XC functional enforced from input :
     Exchange-correlation= BEEF-VDW
                           (   1   4  43  14   2   0   0)
     Any further DFT definition will be discarded
     Please, verify this is what you really want


     Subspace diagonalization in iterative solution of the eigenvalue problem:
     one sub-group per band group will be used
     scalapack distributed-memory algorithm (size of sub-group:  3*  3 procs)

  @ DRIVER MODE: Connecting to 
 qe_1139763_2852609.sched-torque.pace.gatech.edubk2uqu99_scratch
  using UNIX socket
  @ DRIVER MODE: Message from server: STATUS
  @ DRIVER MODE: Message from server: INIT
  @ DRIVER MODE: Receiving replica           0          -1
  @ DRIVER MODE: Receiving encoded integer          25
  @ DRIVER MODE:  SCF:  T  FORCE:  T  STRESS:  F  VC:  F  ENSEMBLE:  F
  @ DRIVER MODE:  SCF:  T  FORCE:  T  STRESS:  F  VC:  F  ENSEMBLE:  F
 
     Parallelization info
     --------------------
     sticks:   dense  smooth     PW     G-vecs:    dense   smooth      PW
     Min         327     131     37                56683    14340    2191
     Max         328     133     38                56694    14346    2206
     Sum        3275    1317    379               566857   143421   21985
 
     Using Slab Decomposition
 


     bravais-lattice index     =            0
     lattice parameter (alat)  =       1.8897  a.u.
     unit-cell volume          =    6658.9804 (a.u.)^3
     number of atoms/cell      =           56
     number of atomic types    =            5
     number of electrons       =       399.00
     number of Kohn-Sham states=          209
     kinetic-energy cutoff     =      29.3995  Ry
     charge density cutoff     =     293.9946  Ry
     scf convergence threshold =      7.3E-08
     mixing beta               =       0.0500
     number of iterations used =            8  plain     mixing
     Exchange-correlation= BEEF-VDW
                           (   1   4  43  14   2   0   0)

     celldm(1)=   1.889726  celldm(2)=   0.000000  celldm(3)=   0.000000
     celldm(4)=   0.000000  celldm(5)=   0.000000  celldm(6)=   0.000000

     crystal axes: (cart. coord. in units of alat)
               a(1) = (   6.579727   0.000000   0.000000 )  
               a(2) = (  -0.000775   5.961596   0.000000 )  
               a(3) = (   0.000000   0.000000  25.155947 )  

     reciprocal axes: (cart. coord. in units 2 pi/alat)
               b(1) = (  0.151982  0.000020  0.000000 )  
               b(2) = (  0.000000  0.167740  0.000000 )  
               b(3) = (  0.000000  0.000000  0.039752 )  


     PseudoPot. # 1 for Ti read from file:
     /storage/coda1/p-amedford6/0/shared/rich_project_chbe-medford/medford-share/data/pseudos_module/espresso/nninc/pbe/van/Ti.UPF
     MD5 check sum: 8e4df49b7f0d34bbd5052bf3f5ea0213
     Pseudo is Ultrasoft, Zval = 12.0
     Generated by new atomic code, or converted to UPF format
     Using radial grid of  851 points,  6 beta functions with: 
                l(1) =   0
                l(2) =   0
                l(3) =   1
                l(4) =   1
                l(5) =   2
                l(6) =   2
     Q(r) pseudized with  8 coefficients,  rinner =    1.000   1.000   1.000
                                                       1.000   1.000

     PseudoPot. # 2 for O  read from file:
     /storage/coda1/p-amedford6/0/shared/rich_project_chbe-medford/medford-share/data/pseudos_module/espresso/nninc/pbe/van/O.UPF
     MD5 check sum: 78c19812648e8988a0fe644b0f25305e
     Pseudo is Ultrasoft, Zval =  6.0
     Generated by new atomic code, or converted to UPF format
     Using radial grid of  737 points,  4 beta functions with: 
                l(1) =   0
                l(2) =   0
                l(3) =   1
                l(4) =   1
     Q(r) pseudized with  8 coefficients,  rinner =    0.800   0.800   0.800


     PseudoPot. # 3 for N  read from file:
     /storage/coda1/p-amedford6/0/shared/rich_project_chbe-medford/medford-share/data/pseudos_module/espresso/nninc/pbe/van/N.UPF
     MD5 check sum: 90d10febe142ad51ac9d5be1deb811c4
     Pseudo is Ultrasoft, Zval =  5.0
     Generated by new atomic code, or converted to UPF format
     Using radial grid of  729 points,  4 beta functions with: 
                l(1) =   0
                l(2) =   0
                l(3) =   1
                l(4) =   1
     Q(r) pseudized with  8 coefficients,  rinner =    0.800   0.800   0.800


     PseudoPot. # 4 for C  read from file:
     /storage/coda1/p-amedford6/0/shared/rich_project_chbe-medford/medford-share/data/pseudos_module/espresso/nninc/pbe/van/C.UPF
     MD5 check sum: 1a69bf6b8db32088f5b2163dbdb77a27
     Pseudo is Ultrasoft, Zval =  4.0
     Generated by new atomic code, or converted to UPF format
     Using radial grid of  721 points,  4 beta functions with: 
                l(1) =   0
                l(2) =   0
                l(3) =   1
                l(4) =   1
     Q(r) pseudized with  8 coefficients,  rinner =    0.800   0.800   0.800


     PseudoPot. # 5 for H  read from file:
     /storage/coda1/p-amedford6/0/shared/rich_project_chbe-medford/medford-share/data/pseudos_module/espresso/nninc/pbe/van/H.UPF
     MD5 check sum: b5ee9d7bfd3a09ee7748110bda690ff7
     Pseudo is Ultrasoft, Zval =  1.0
     Generated by new atomic code, or converted to UPF format
     Using radial grid of  615 points,  1 beta functions with: 
                l(1) =   0
     Q(r) pseudized with  8 coefficients,  rinner =    0.800

     atomic species   valence    mass     pseudopotential
        Ti1           12.00    47.86700     Ti( 1.00)
        O1             6.00    15.99900     O ( 1.00)
        N1             5.00    14.00700     N ( 1.00)
        C1             4.00    12.01100     C ( 1.00)
        H1             1.00     1.00800     H ( 1.00)

     No symmetry found



   Cartesian axes

     site n.     atom                  positions (alat units)
         1           Ti1 tau(   1) = (   0.0004258   2.9801865   6.0000000  )
         2           Ti1 tau(   2) = (   3.2906075   1.4906267   6.0002472  )
         3           O1  tau(   3) = (   0.0006271   0.0005054   7.9858123  )
         4           O1  tau(   4) = (   3.2906025   0.0005020   7.3038282  )
         5           O1  tau(   5) = (   4.5942328   1.4918067   9.2879030  )
         6           O1  tau(   6) = (   1.9868534   1.4903216   9.2879459  )
         7           Ti1 tau(   7) = (   3.2907910   2.8959150   9.1758416  )
         8           Ti1 tau(   8) = (   0.0015273   1.4827037   9.2680791  )
         9           O1  tau(   9) = (   3.2861202   0.0128588  11.3777969  )
        10           O1  tau(  10) = (   0.0116148   5.9584955  10.6183126  )
        11           O1  tau(  11) = (   1.2831632   1.4993340  12.6921085  )
        12           O1  tau(  12) = (   5.2921761   1.5015178  12.6679780  )
        13           Ti1 tau(  13) = (   0.0111066   2.9912061  12.5123142  )
        14           Ti1 tau(  14) = (   3.3187119   1.4875497  12.5412637  )
        15           O1  tau(  15) = (   6.5416963   5.9006142  14.6662030  )
        16           O1  tau(  16) = (   3.3066524   0.0016155  14.0179881  )
        17           O1  tau(  17) = (   4.5377470   1.5714702  16.1207712  )
        18           O1  tau(  18) = (   1.9925948   1.5577299  16.0387284  )
        19           Ti1 tau(  19) = (   3.2598466   3.0207798  15.7337896  )
        20           Ti1 tau(  20) = (   0.0086319   1.3133152  15.8444473  )
        21           O1  tau(  21) = (   3.2904802   0.0005063   4.7018136  )
        22           O1  tau(  22) = (   6.5660721   0.1678205  17.2271563  )
        23           O1  tau(  23) = (   1.3043587   1.4918075   6.0039043  )
        24           O1  tau(  24) = (   5.2767064   1.4903225   6.0039473  )
        25           Ti1 tau(  25) = (   0.0000382   5.9609847   6.0000000  )
        26           Ti1 tau(  26) = (   3.2902200   4.4714249   6.0002472  )
        27           O1  tau(  27) = (   0.0002396   2.9813036   7.9858123  )
        28           O1  tau(  28) = (   3.2902150   2.9813002   7.3038282  )
        29           O1  tau(  29) = (   4.5938453   4.4726049   9.2879030  )
        30           O1  tau(  30) = (   1.9864658   4.4711199   9.2879459  )
        31           Ti1 tau(  31) = (   3.2891106   5.8743827   9.1763621  )
        32           Ti1 tau(  32) = (   0.0006254   4.4649316   9.2693709  )
        33           O1  tau(  33) = (   3.2870289   2.9785969  11.3746142  )
        34           O1  tau(  34) = (   0.0092240   2.9805883  10.6323155  )
        35           O1  tau(  35) = (   1.2865429   4.4729593  12.6568099  )
        36           O1  tau(  36) = (   5.2907978   4.4713399  12.6331247  )
        37           Ti1 tau(  37) = (   0.0245089   0.0029545  12.5000319  )
        38           Ti1 tau(  38) = (   3.3192338   4.4773935  12.5310228  )
        39           O1  tau(  39) = (   6.5398775   3.0461246  14.9162120  )
        40           O1  tau(  40) = (   3.2968145   3.0151409  13.9465962  )
        41           O1  tau(  41) = (   4.5189833   4.4812017  16.2068643  )
        42           O1  tau(  42) = (   1.9905864   4.4756957  16.1679402  )
        43           Ti1 tau(  43) = (   3.3140030   0.0507474  15.8534526  )
        44           Ti1 tau(  44) = (   0.0184218   4.5194176  15.9927436  )
        45           O1  tau(  45) = (   3.2900926   2.9813045   4.7018136  )
        46           O1  tau(  46) = (   1.3039711   4.4726057   6.0039043  )
        47           O1  tau(  47) = (   5.2763189   4.4711207   6.0039473  )
        48           N1  tau(  48) = (   6.2908993   3.4294391  18.1752670  )
        49           C1  tau(  49) = (   0.7550536   3.1452864  19.0745941  )
        50           H1  tau(  50) = (   1.1396299   3.9643166  19.6610198  )
        51           H1  tau(  51) = (   1.3301158   2.2513941  18.9084762  )
        52           H1  tau(  52) = (   5.7550451   4.2550011  18.4501662  )
        53           H1  tau(  53) = (   5.6463078   2.6497838  18.0429669  )
        54           O1  tau(  54) = (   3.1180431   0.1968263  18.2683150  )
        55           H1  tau(  55) = (   3.8687171   5.7182160  18.6922429  )
        56           H1  tau(  56) = (   2.3371514   5.6040609  18.4451484  )

     number of k points=    10  Fermi-Dirac smearing, width (Ry)=  0.0073
                       cart. coord. in units 2pi/alat
        k(    1) = (   0.0000000   0.0000000   0.0000000), wk =   0.1250000
        k(    2) = (   0.0000000   0.0419351   0.0000000), wk =   0.2500000
        k(    3) = (   0.0000000  -0.0838702   0.0000000), wk =   0.1250000
        k(    4) = (   0.0379955   0.0000049   0.0000000), wk =   0.2500000
        k(    5) = (   0.0379955   0.0419400   0.0000000), wk =   0.2500000
        k(    6) = (   0.0379955  -0.0838652   0.0000000), wk =   0.2500000
        k(    7) = (   0.0379955  -0.0419301   0.0000000), wk =   0.2500000
        k(    8) = (  -0.0759910  -0.0000099   0.0000000), wk =   0.1250000
        k(    9) = (  -0.0759910   0.0419252   0.0000000), wk =   0.2500000
        k(   10) = (  -0.0759910  -0.0838800   0.0000000), wk =   0.1250000

     Dense  grid:   566857 G-vectors     FFT dimensions: (  72,  64, 270)

     Smooth grid:   143421 G-vectors     FFT dimensions: (  45,  40, 180)

     Estimated max dynamical RAM per process >     366.69 MB

     Estimated total dynamical RAM >       3.58 GB
     Cannot read rho : file not found

     Initial potential from superposition of free atoms

     starting charge  382.99914, renormalised to  399.00000

     negative rho (up, down):  1.613E-02 0.000E+00


     %%%%%%%%%%%%%%%%%%%%%%%%%%%%%%%%%%%%%%%%%%%%%%%%%%%%%%%%%%%%%%%%%%%%%%%%
     %                                                                      %
     % You are using vdW-DF, which was implemented by the Thonhauser group. %
     % Please cite the following two papers that made this development      %
     % possible and the two reviews that describe the various versions:     %
     %                                                                      %
     %   T. Thonhauser et al., PRL 115, 136402 (2015).                      %
     %   T. Thonhauser et al., PRB 76, 125112 (2007).                       %
     %   K. Berland et al., Rep. Prog. Phys. 78, 066501 (2015).             %
     %   D.C. Langreth et al., J. Phys.: Condens. Matter 21, 084203 (2009). %
     %                                                                      %
     %                                                                      %
     % If you are calculating the stress with vdW-DF, please also cite:     %
     %                                                                      %
     %   R. Sabatini et al., J. Phys.: Condens. Matter 24, 424209 (2012).   %
     %                                                                      %
     %%%%%%%%%%%%%%%%%%%%%%%%%%%%%%%%%%%%%%%%%%%%%%%%%%%%%%%%%%%%%%%%%%%%%%%%


 
     Adding external electric field

     Computed dipole along edir(3) : 
        Dipole              -11.3169 Ry au,        -28.7647 Debye
        Dipole field         -0.0214 Ry au, 
 
        Potential amp.        1.9797 Ry
        Total length         46.3494 bohr
 
     Starting wfcs are  302 atomic wfcs
  @ DRIVER MODE: Message from server: STATUS
  @ DRIVER MODE: Message from server: POSDATA
  @ DRIVER MODE: Reading and sharing cell 
  @ DRIVER MODE: Reading and sharing positions 
  @ DRIVER MODE: Received positions 

     total cpu time spent up to now is       11.3 secs

     Self-consistent Calculation

     iteration #  1     ecut=    29.40 Ry     beta= 0.05
     Davidson diagonalization with overlap
     c_bands:  3 eigenvalues not converged
     c_bands:  2 eigenvalues not converged
     c_bands:  1 eigenvalues not converged
     c_bands:  5 eigenvalues not converged
     c_bands:  1 eigenvalues not converged
     c_bands:  1 eigenvalues not converged
     c_bands:  1 eigenvalues not converged
     c_bands:  2 eigenvalues not converged
     c_bands:  3 eigenvalues not converged
     ethr =  1.00E-05,  avg # of iterations = 24.0

     negative rho (up, down):  1.095E-02 0.000E+00
 
     Adding external electric field

     Computed dipole along edir(3) : 
        Dipole               48.4804 Ry au,        123.2250 Debye
        Dipole field          0.0915 Ry au, 
 
        Potential amp.       -8.4809 Ry
        Total length         46.3494 bohr
 

     total cpu time spent up to now is       55.2 secs

     total energy              =   -2437.57764340 Ry
     estimated scf accuracy    <    5825.88291185 Ry

     iteration #  2     ecut=    29.40 Ry     beta= 0.05
     Davidson diagonalization with overlap
     ethr =  1.00E-02,  avg # of iterations = 28.1

     negative rho (up, down):  1.922E-03 0.000E+00
 
     Adding external electric field

     Computed dipole along edir(3) : 
        Dipole               -1.5328 Ry au,         -3.8959 Debye
        Dipole field         -0.0029 Ry au, 
 
        Potential amp.        0.2681 Ry
        Total length         46.3494 bohr
 

     total cpu time spent up to now is      132.0 secs

     total energy              =   -2442.85846857 Ry
     estimated scf accuracy    <   69933.55795923 Ry

     iteration #  3     ecut=    29.40 Ry     beta= 0.05
     Davidson diagonalization with overlap
     ethr =  1.00E-02,  avg # of iterations = 16.1

     negative rho (up, down):  1.994E-03 0.000E+00
 
     Adding external electric field

     Computed dipole along edir(3) : 
        Dipole               -4.2119 Ry au,        -10.7056 Debye
        Dipole field         -0.0079 Ry au, 
 
        Potential amp.        0.7368 Ry
        Total length         46.3494 bohr
 

     total cpu time spent up to now is      180.0 secs

     total energy              =   -2942.35480773 Ry
     estimated scf accuracy    <    5009.40301967 Ry

     iteration #  4     ecut=    29.40 Ry     beta= 0.05
     Davidson diagonalization with overlap
     ethr =  1.00E-02,  avg # of iterations = 11.7

     negative rho (up, down):  2.043E-03 0.000E+00
 
     Adding external electric field

     Computed dipole along edir(3) : 
        Dipole               -6.0122 Ry au,        -15.2815 Debye
        Dipole field         -0.0113 Ry au, 
 
        Potential amp.        1.0517 Ry
        Total length         46.3494 bohr
 

     total cpu time spent up to now is      198.9 secs

     total energy              =   -2940.47981934 Ry
     estimated scf accuracy    <    2024.55800256 Ry

     iteration #  5     ecut=    29.40 Ry     beta= 0.05
     Davidson diagonalization with overlap
     c_bands:  5 eigenvalues not converged
     ethr =  1.00E-02,  avg # of iterations =  5.8

     negative rho (up, down):  2.152E-03 0.000E+00
 
     Adding external electric field

     Computed dipole along edir(3) : 
        Dipole               -7.7024 Ry au,        -19.5776 Debye
        Dipole field         -0.0145 Ry au, 
 
        Potential amp.        1.3474 Ry
        Total length         46.3494 bohr
 

     total cpu time spent up to now is      211.9 secs

     total energy              =   -2930.42768522 Ry
     estimated scf accuracy    <    1149.43920229 Ry

     iteration #  6     ecut=    29.40 Ry     beta= 0.05
     Davidson diagonalization with overlap
     c_bands:  2 eigenvalues not converged
     ethr =  1.00E-02,  avg # of iterations = 14.1

     negative rho (up, down):  2.005E-03 0.000E+00
 
     Adding external electric field

     Computed dipole along edir(3) : 
        Dipole               -6.4228 Ry au,        -16.3251 Debye
        Dipole field         -0.0121 Ry au, 
 
        Potential amp.        1.1236 Ry
        Total length         46.3494 bohr
 

     total cpu time spent up to now is      234.6 secs

     total energy              =   -2958.90159112 Ry
     estimated scf accuracy    <      66.54716326 Ry

     iteration #  7     ecut=    29.40 Ry     beta= 0.05
     Davidson diagonalization with overlap
     ethr =  1.00E-02,  avg # of iterations =  1.6

     negative rho (up, down):  2.000E-03 0.000E+00
 
     Adding external electric field

     Computed dipole along edir(3) : 
        Dipole               -5.4751 Ry au,        -13.9164 Debye
        Dipole field         -0.0103 Ry au, 
 
        Potential amp.        0.9578 Ry
        Total length         46.3494 bohr
 

     total cpu time spent up to now is      244.9 secs

     total energy              =   -2958.40683280 Ry
     estimated scf accuracy    <      26.73485246 Ry

     iteration #  8     ecut=    29.40 Ry     beta= 0.05
     Davidson diagonalization with overlap
     ethr =  6.70E-03,  avg # of iterations =  1.4

     negative rho (up, down):  1.987E-03 0.000E+00
 
     Adding external electric field

     Computed dipole along edir(3) : 
        Dipole               -5.5081 Ry au,        -14.0002 Debye
        Dipole field         -0.0104 Ry au, 
 
        Potential amp.        0.9636 Ry
        Total length         46.3494 bohr
 

     total cpu time spent up to now is      254.8 secs

     total energy              =   -2958.96088175 Ry
     estimated scf accuracy    <      18.00182981 Ry

     iteration #  9     ecut=    29.40 Ry     beta= 0.05
     Davidson diagonalization with overlap
     ethr =  4.51E-03,  avg # of iterations =  1.0

     negative rho (up, down):  2.419E-03 0.000E+00
 
     Adding external electric field

     Computed dipole along edir(3) : 
        Dipole               -4.3613 Ry au,        -11.0853 Debye
        Dipole field         -0.0082 Ry au, 
 
        Potential amp.        0.7629 Ry
        Total length         46.3494 bohr
 

     total cpu time spent up to now is      264.5 secs

     total energy              =   -2957.37503383 Ry
     estimated scf accuracy    <      18.15447774 Ry

     iteration # 10     ecut=    29.40 Ry     beta= 0.05
     Davidson diagonalization with overlap
     ethr =  4.51E-03,  avg # of iterations =  1.9

     negative rho (up, down):  6.161E-02 0.000E+00
 
     Adding external electric field

     Computed dipole along edir(3) : 
        Dipole                2.4179 Ry au,          6.1457 Debye
        Dipole field          0.0046 Ry au, 
 
        Potential amp.       -0.4230 Ry
        Total length         46.3494 bohr
 

     total cpu time spent up to now is      274.9 secs

     total energy              =   -2955.08471641 Ry
     estimated scf accuracy    <      12.57508493 Ry

     iteration # 11     ecut=    29.40 Ry     beta= 0.05
     Davidson diagonalization with overlap
     ethr =  3.15E-03,  avg # of iterations = 12.1

     negative rho (up, down):  4.555E-02 0.000E+00
 
     Adding external electric field

     Computed dipole along edir(3) : 
        Dipole                1.6989 Ry au,          4.3182 Debye
        Dipole field          0.0032 Ry au, 
 
        Potential amp.       -0.2972 Ry
        Total length         46.3494 bohr
 

     total cpu time spent up to now is      297.4 secs

     total energy              =   -2996.56080297 Ry
     estimated scf accuracy    <    4125.56822216 Ry

     iteration # 12     ecut=    29.40 Ry     beta= 0.05
     Davidson diagonalization with overlap
     ethr =  3.15E-03,  avg # of iterations =  1.1

     negative rho (up, down):  4.910E-02 0.000E+00
 
     Adding external electric field

     Computed dipole along edir(3) : 
        Dipole                2.4208 Ry au,          6.1530 Debye
        Dipole field          0.0046 Ry au, 
 
        Potential amp.       -0.4235 Ry
        Total length         46.3494 bohr
 

     total cpu time spent up to now is      307.3 secs

     total energy              =   -3007.75087192 Ry
     estimated scf accuracy    <    3802.30229798 Ry

     iteration # 13     ecut=    29.40 Ry     beta= 0.05
     Davidson diagonalization with overlap
     ethr =  3.15E-03,  avg # of iterations =  1.0

     negative rho (up, down):  3.082E-03 0.000E+00
 
     Adding external electric field

     Computed dipole along edir(3) : 
        Dipole                1.1434 Ry au,          2.9061 Debye
        Dipole field          0.0022 Ry au, 
 
        Potential amp.       -0.2000 Ry
        Total length         46.3494 bohr
 

     total cpu time spent up to now is      317.0 secs

     total energy              =   -2952.72370221 Ry
     estimated scf accuracy    <    4010.56387411 Ry

     iteration # 14     ecut=    29.40 Ry     beta= 0.05
     Davidson diagonalization with overlap
     ethr =  3.15E-03,  avg # of iterations = 12.0

     negative rho (up, down):  2.566E-03 0.000E+00
 
     Adding external electric field

     Computed dipole along edir(3) : 
        Dipole               -0.5416 Ry au,         -1.3767 Debye
        Dipole field         -0.0010 Ry au, 
 
        Potential amp.        0.0948 Ry
        Total length         46.3494 bohr
 

     total cpu time spent up to now is      338.1 secs

     total energy              =   -2951.94301681 Ry
     estimated scf accuracy    <    1239.03664989 Ry

     iteration # 15     ecut=    29.40 Ry     beta= 0.05
     Davidson diagonalization with overlap
     c_bands:  5 eigenvalues not converged
     c_bands:  1 eigenvalues not converged
     c_bands:  3 eigenvalues not converged
     c_bands:  1 eigenvalues not converged
     ethr =  3.15E-03,  avg # of iterations = 15.2

     negative rho (up, down):  2.494E-03 0.000E+00
 
     Adding external electric field

     Computed dipole along edir(3) : 
        Dipole               -2.0098 Ry au,         -5.1084 Debye
        Dipole field         -0.0038 Ry au, 
 
        Potential amp.        0.3516 Ry
        Total length         46.3494 bohr
 

     total cpu time spent up to now is      356.2 secs

     total energy              =   -2950.18366330 Ry
     estimated scf accuracy    <     288.34232319 Ry

     iteration # 16     ecut=    29.40 Ry     beta= 0.05
     Davidson diagonalization with overlap
     ethr =  3.15E-03,  avg # of iterations = 11.3

     negative rho (up, down):  2.735E-03 0.000E+00
 
     Adding external electric field

     Computed dipole along edir(3) : 
        Dipole               -1.9230 Ry au,         -4.8879 Debye
        Dipole field         -0.0036 Ry au, 
 
        Potential amp.        0.3364 Ry
        Total length         46.3494 bohr
 

     total cpu time spent up to now is      371.7 secs

     total energy              =   -2953.59014015 Ry
     estimated scf accuracy    <      27.95100395 Ry

     iteration # 17     ecut=    29.40 Ry     beta= 0.05
     Davidson diagonalization with overlap
     c_bands:  1 eigenvalues not converged
     ethr =  3.15E-03,  avg # of iterations = 11.1

     negative rho (up, down):  2.407E-03 0.000E+00
 
     Adding external electric field

     Computed dipole along edir(3) : 
        Dipole               -2.5392 Ry au,         -6.4540 Debye
        Dipole field         -0.0048 Ry au, 
 
        Potential amp.        0.4442 Ry
        Total length         46.3494 bohr
 

     total cpu time spent up to now is      386.2 secs

     total energy              =   -2956.03193413 Ry
     estimated scf accuracy    <       9.75798955 Ry

     iteration # 18     ecut=    29.40 Ry     beta= 0.05
     Davidson diagonalization with overlap
     c_bands:  2 eigenvalues not converged
     ethr =  2.45E-03,  avg # of iterations = 14.9

     negative rho (up, down):  2.641E-03 0.000E+00
 
     Adding external electric field

     Computed dipole along edir(3) : 
        Dipole               -1.7944 Ry au,         -4.5608 Debye
        Dipole field         -0.0034 Ry au, 
 
        Potential amp.        0.3139 Ry
        Total length         46.3494 bohr
 

     total cpu time spent up to now is      403.4 secs

     total energy              =   -2953.71288627 Ry
     estimated scf accuracy    <     302.18300662 Ry

     iteration # 19     ecut=    29.40 Ry     beta= 0.05
     Davidson diagonalization with overlap
     ethr =  2.45E-03,  avg # of iterations =  1.6

     negative rho (up, down):  2.617E-03 0.000E+00
 
     Adding external electric field

     Computed dipole along edir(3) : 
        Dipole               -1.4426 Ry au,         -3.6667 Debye
        Dipole field         -0.0027 Ry au, 
 
        Potential amp.        0.2524 Ry
        Total length         46.3494 bohr
 

     total cpu time spent up to now is      413.6 secs

     total energy              =   -2955.65488195 Ry
     estimated scf accuracy    <      13.01045494 Ry

     iteration # 20     ecut=    29.40 Ry     beta= 0.05
     Davidson diagonalization with overlap
     ethr =  2.45E-03,  avg # of iterations =  1.0

     negative rho (up, down):  2.935E-03 0.000E+00
 
     Adding external electric field

     Computed dipole along edir(3) : 
        Dipole                0.3442 Ry au,          0.8749 Debye
        Dipole field          0.0006 Ry au, 
 
        Potential amp.       -0.0602 Ry
        Total length         46.3494 bohr
 

     total cpu time spent up to now is      423.4 secs

     total energy              =   -2955.87196461 Ry
     estimated scf accuracy    <      12.10188970 Ry

     iteration # 21     ecut=    29.40 Ry     beta= 0.05
     Davidson diagonalization with overlap
     ethr =  2.45E-03,  avg # of iterations =  6.6

     negative rho (up, down):  2.936E-03 0.000E+00
 
     Adding external electric field

     Computed dipole along edir(3) : 
        Dipole                0.4822 Ry au,          1.2257 Debye
        Dipole field          0.0009 Ry au, 
 
        Potential amp.       -0.0844 Ry
        Total length         46.3494 bohr
 

     total cpu time spent up to now is      435.5 secs

     total energy              =   -2956.28241179 Ry
     estimated scf accuracy    <     323.18898204 Ry

     iteration # 22     ecut=    29.40 Ry     beta= 0.05
     Davidson diagonalization with overlap
     ethr =  2.45E-03,  avg # of iterations =  4.1

     negative rho (up, down):  2.912E-03 0.000E+00
 
     Adding external electric field

     Computed dipole along edir(3) : 
        Dipole                0.0877 Ry au,          0.2228 Debye
        Dipole field          0.0002 Ry au, 
 
        Potential amp.       -0.0153 Ry
        Total length         46.3494 bohr
 

     total cpu time spent up to now is      446.5 secs

     total energy              =   -2957.08556337 Ry
     estimated scf accuracy    <     125.40412545 Ry

     iteration # 23     ecut=    29.40 Ry     beta= 0.05
     Davidson diagonalization with overlap
     ethr =  2.45E-03,  avg # of iterations =  1.2

     negative rho (up, down):  2.981E-03 0.000E+00
 
     Adding external electric field

     Computed dipole along edir(3) : 
        Dipole                0.1656 Ry au,          0.4208 Debye
        Dipole field          0.0003 Ry au, 
 
        Potential amp.       -0.0290 Ry
        Total length         46.3494 bohr
 

     total cpu time spent up to now is      456.4 secs

     total energy              =   -2957.33855152 Ry
     estimated scf accuracy    <     412.70193038 Ry

     iteration # 24     ecut=    29.40 Ry     beta= 0.05
     Davidson diagonalization with overlap
     ethr =  2.45E-03,  avg # of iterations =  1.0

     negative rho (up, down):  3.044E-03 0.000E+00
 
     Adding external electric field

     Computed dipole along edir(3) : 
        Dipole               -0.2429 Ry au,         -0.6174 Debye
        Dipole field         -0.0005 Ry au, 
 
        Potential amp.        0.0425 Ry
        Total length         46.3494 bohr
 

     total cpu time spent up to now is      466.3 secs

     total energy              =   -2954.97469916 Ry
     estimated scf accuracy    <     387.93657328 Ry

     iteration # 25     ecut=    29.40 Ry     beta= 0.05
     Davidson diagonalization with overlap
     ethr =  2.45E-03,  avg # of iterations =  1.1

     negative rho (up, down):  3.063E-03 0.000E+00
 
     Adding external electric field

     Computed dipole along edir(3) : 
        Dipole               -0.3995 Ry au,         -1.0155 Debye
        Dipole field         -0.0008 Ry au, 
 
        Potential amp.        0.0699 Ry
        Total length         46.3494 bohr
 

     total cpu time spent up to now is      476.1 secs

     total energy              =   -2955.40088802 Ry
     estimated scf accuracy    <      57.64041411 Ry

     iteration # 26     ecut=    29.40 Ry     beta= 0.05
     Davidson diagonalization with overlap
     ethr =  2.45E-03,  avg # of iterations =  1.0

     negative rho (up, down):  3.193E-03 0.000E+00
 
     Adding external electric field

     Computed dipole along edir(3) : 
        Dipole               -1.0748 Ry au,         -2.7320 Debye
        Dipole field         -0.0020 Ry au, 
 
        Potential amp.        0.1880 Ry
        Total length         46.3494 bohr
 

     total cpu time spent up to now is      485.9 secs

     total energy              =   -2954.94532739 Ry
     estimated scf accuracy    <      21.21296131 Ry

     iteration # 27     ecut=    29.40 Ry     beta= 0.05
     Davidson diagonalization with overlap
     ethr =  2.45E-03,  avg # of iterations =  1.7

     negative rho (up, down):  3.677E-03 0.000E+00
 
     Adding external electric field

     Computed dipole along edir(3) : 
        Dipole                0.5658 Ry au,          1.4380 Debye
        Dipole field          0.0011 Ry au, 
 
        Potential amp.       -0.0990 Ry
        Total length         46.3494 bohr
 

     total cpu time spent up to now is      496.0 secs

     total energy              =   -2955.15059685 Ry
     estimated scf accuracy    <      19.27937297 Ry

     iteration # 28     ecut=    29.40 Ry     beta= 0.05
     Davidson diagonalization with overlap
     ethr =  2.45E-03,  avg # of iterations =  3.1

     negative rho (up, down):  3.816E-03 0.000E+00
 
     Adding external electric field

     Computed dipole along edir(3) : 
        Dipole               -0.1263 Ry au,         -0.3211 Debye
        Dipole field         -0.0002 Ry au, 
 
        Potential amp.        0.0221 Ry
        Total length         46.3494 bohr
 

     total cpu time spent up to now is      506.6 secs

     total energy              =   -2954.81103205 Ry
     estimated scf accuracy    <      16.09411543 Ry

     iteration # 29     ecut=    29.40 Ry     beta= 0.05
     Davidson diagonalization with overlap
     ethr =  2.45E-03,  avg # of iterations =  1.2

     negative rho (up, down):  3.855E-03 0.000E+00
 
     Adding external electric field

     Computed dipole along edir(3) : 
        Dipole               -0.2025 Ry au,         -0.5146 Debye
        Dipole field         -0.0004 Ry au, 
 
        Potential amp.        0.0354 Ry
        Total length         46.3494 bohr
 

     total cpu time spent up to now is      516.4 secs

     total energy              =   -2954.92713536 Ry
     estimated scf accuracy    <       7.45818016 Ry

     iteration # 30     ecut=    29.40 Ry     beta= 0.05
     Davidson diagonalization with overlap
     ethr =  1.87E-03,  avg # of iterations =  1.6

     negative rho (up, down):  4.066E-03 0.000E+00
 
     Adding external electric field

     Computed dipole along edir(3) : 
        Dipole               -0.6194 Ry au,         -1.5743 Debye
        Dipole field         -0.0012 Ry au, 
 
        Potential amp.        0.1084 Ry
        Total length         46.3494 bohr
 

     total cpu time spent up to now is      526.3 secs

     total energy              =   -2954.73854971 Ry
     estimated scf accuracy    <       6.70390697 Ry

     iteration # 31     ecut=    29.40 Ry     beta= 0.05
     Davidson diagonalization with overlap
     ethr =  1.68E-03,  avg # of iterations =  1.3

     negative rho (up, down):  4.220E-03 0.000E+00
 
     Adding external electric field

     Computed dipole along edir(3) : 
        Dipole               -0.4769 Ry au,         -1.2122 Debye
        Dipole field         -0.0009 Ry au, 
 
        Potential amp.        0.0834 Ry
        Total length         46.3494 bohr
 

     total cpu time spent up to now is      536.3 secs

     total energy              =   -2954.77070182 Ry
     estimated scf accuracy    <       8.90818535 Ry

     iteration # 32     ecut=    29.40 Ry     beta= 0.05
     Davidson diagonalization with overlap
     ethr =  1.68E-03,  avg # of iterations =  1.0

     negative rho (up, down):  4.867E-03 0.000E+00
 
     Adding external electric field

     Computed dipole along edir(3) : 
        Dipole               -0.2287 Ry au,         -0.5812 Debye
        Dipole field         -0.0004 Ry au, 
 
        Potential amp.        0.0400 Ry
        Total length         46.3494 bohr
 

     total cpu time spent up to now is      546.1 secs

     total energy              =   -2954.66535308 Ry
     estimated scf accuracy    <       7.32473245 Ry

     iteration # 33     ecut=    29.40 Ry     beta= 0.05
     Davidson diagonalization with overlap
     c_bands:  3 eigenvalues not converged
     ethr =  1.68E-03,  avg # of iterations =  3.4

     negative rho (up, down):  4.758E-03 0.000E+00
 
     Adding external electric field

     Computed dipole along edir(3) : 
        Dipole               -0.3307 Ry au,         -0.8405 Debye
        Dipole field         -0.0006 Ry au, 
 
        Potential amp.        0.0578 Ry
        Total length         46.3494 bohr
 

     total cpu time spent up to now is      557.1 secs

     total energy              =   -2954.89106862 Ry
     estimated scf accuracy    <       1.85588553 Ry

     iteration # 34     ecut=    29.40 Ry     beta= 0.05
     Davidson diagonalization with overlap
     c_bands:  3 eigenvalues not converged
     c_bands:  4 eigenvalues not converged
     c_bands:  5 eigenvalues not converged
     c_bands:  5 eigenvalues not converged
     c_bands:  1 eigenvalues not converged
     ethr =  4.65E-04,  avg # of iterations = 20.6

     negative rho (up, down):  5.391E-03 0.000E+00
 
     Adding external electric field

     Computed dipole along edir(3) : 
        Dipole               -0.1600 Ry au,         -0.4066 Debye
        Dipole field         -0.0003 Ry au, 
 
        Potential amp.        0.0280 Ry
        Total length         46.3494 bohr
 

     total cpu time spent up to now is      577.9 secs

     total energy              =   -2955.28134841 Ry
     estimated scf accuracy    <       2.25857801 Ry

     iteration # 35     ecut=    29.40 Ry     beta= 0.05
     Davidson diagonalization with overlap
     ethr =  4.65E-04,  avg # of iterations =  5.8

     negative rho (up, down):  4.882E-03 0.000E+00
 
     Adding external electric field

     Computed dipole along edir(3) : 
        Dipole                0.6076 Ry au,          1.5443 Debye
        Dipole field          0.0011 Ry au, 
 
        Potential amp.       -0.1063 Ry
        Total length         46.3494 bohr
 

     total cpu time spent up to now is      589.6 secs

     total energy              =   -2954.98243961 Ry
     estimated scf accuracy    <       2.94639288 Ry

     iteration # 36     ecut=    29.40 Ry     beta= 0.05
     Davidson diagonalization with overlap
     ethr =  4.65E-04,  avg # of iterations = 10.2

     negative rho (up, down):  5.313E-03 0.000E+00
 
     Adding external electric field

     Computed dipole along edir(3) : 
        Dipole                0.3605 Ry au,          0.9162 Debye
        Dipole field          0.0007 Ry au, 
 
        Potential amp.       -0.0631 Ry
        Total length         46.3494 bohr
 

     total cpu time spent up to now is      602.5 secs

     total energy              =   -2955.10408613 Ry
     estimated scf accuracy    <       0.87537491 Ry

     iteration # 37     ecut=    29.40 Ry     beta= 0.05
     Davidson diagonalization with overlap
     c_bands:  2 eigenvalues not converged
     ethr =  2.19E-04,  avg # of iterations =  4.9

     negative rho (up, down):  5.550E-03 0.000E+00
 
     Adding external electric field

     Computed dipole along edir(3) : 
        Dipole                1.0250 Ry au,          2.6053 Debye
        Dipole field          0.0019 Ry au, 
 
        Potential amp.       -0.1793 Ry
        Total length         46.3494 bohr
 

     total cpu time spent up to now is      614.1 secs

     total energy              =   -2955.06296659 Ry
     estimated scf accuracy    <       1.94635839 Ry

     iteration # 38     ecut=    29.40 Ry     beta= 0.05
     Davidson diagonalization with overlap
     c_bands:  1 eigenvalues not converged
     c_bands:  1 eigenvalues not converged
     ethr =  2.19E-04,  avg # of iterations = 14.8

     negative rho (up, down):  5.428E-03 0.000E+00
 
     Adding external electric field

     Computed dipole along edir(3) : 
        Dipole                0.9927 Ry au,          2.5233 Debye
        Dipole field          0.0019 Ry au, 
 
        Potential amp.       -0.1737 Ry
        Total length         46.3494 bohr
 

     total cpu time spent up to now is      628.5 secs

     total energy              =   -2955.12720324 Ry
     estimated scf accuracy    <       0.68290173 Ry

     iteration # 39     ecut=    29.40 Ry     beta= 0.05
     Davidson diagonalization with overlap
     c_bands:  2 eigenvalues not converged
     ethr =  1.71E-04,  avg # of iterations =  4.9

     negative rho (up, down):  5.722E-03 0.000E+00
 
     Adding external electric field

     Computed dipole along edir(3) : 
        Dipole                0.5597 Ry au,          1.4227 Debye
        Dipole field          0.0011 Ry au, 
 
        Potential amp.       -0.0979 Ry
        Total length         46.3494 bohr
 

     total cpu time spent up to now is      639.7 secs

     total energy              =   -2955.07110151 Ry
     estimated scf accuracy    <       0.54489134 Ry

     iteration # 40     ecut=    29.40 Ry     beta= 0.05
     Davidson diagonalization with overlap
     ethr =  1.37E-04,  avg # of iterations =  7.4

     negative rho (up, down):  5.929E-03 0.000E+00
 
     Adding external electric field

     Computed dipole along edir(3) : 
        Dipole                0.3743 Ry au,          0.9513 Debye
        Dipole field          0.0007 Ry au, 
 
        Potential amp.       -0.0655 Ry
        Total length         46.3494 bohr
 

     total cpu time spent up to now is      651.7 secs

     total energy              =   -2955.12794119 Ry
     estimated scf accuracy    <       1.36139885 Ry

     iteration # 41     ecut=    29.40 Ry     beta= 0.05
     Davidson diagonalization with overlap
     c_bands:  2 eigenvalues not converged
     ethr =  1.37E-04,  avg # of iterations = 11.1

     negative rho (up, down):  5.716E-03 0.000E+00
 
     Adding external electric field

     Computed dipole along edir(3) : 
        Dipole                0.4895 Ry au,          1.2441 Debye
        Dipole field          0.0009 Ry au, 
 
        Potential amp.       -0.0856 Ry
        Total length         46.3494 bohr
 

     total cpu time spent up to now is      665.1 secs

     total energy              =   -2955.09716543 Ry
     estimated scf accuracy    <       1.62255842 Ry

     iteration # 42     ecut=    29.40 Ry     beta= 0.05
     Davidson diagonalization with overlap
     ethr =  1.37E-04,  avg # of iterations =  1.7

     negative rho (up, down):  5.240E-03 0.000E+00
 
     Adding external electric field

     Computed dipole along edir(3) : 
        Dipole                0.5749 Ry au,          1.4613 Debye
        Dipole field          0.0011 Ry au, 
 
        Potential amp.       -0.1006 Ry
        Total length         46.3494 bohr
 

     total cpu time spent up to now is      675.4 secs

     total energy              =   -2955.02615645 Ry
     estimated scf accuracy    <       0.82678522 Ry

     iteration # 43     ecut=    29.40 Ry     beta= 0.05
     Davidson diagonalization with overlap
     c_bands:  3 eigenvalues not converged
     c_bands:  3 eigenvalues not converged
     c_bands:  4 eigenvalues not converged
     c_bands:  1 eigenvalues not converged
     c_bands:  1 eigenvalues not converged
     c_bands:  1 eigenvalues not converged
     c_bands:  3 eigenvalues not converged
     ethr =  1.37E-04,  avg # of iterations = 19.8

     negative rho (up, down):  5.756E-03 0.000E+00
 
     Adding external electric field

     Computed dipole along edir(3) : 
        Dipole                0.6605 Ry au,          1.6787 Debye
        Dipole field          0.0012 Ry au, 
 
        Potential amp.       -0.1155 Ry
        Total length         46.3494 bohr
 

     total cpu time spent up to now is      694.0 secs

     total energy              =   -2955.07720285 Ry
     estimated scf accuracy    <       0.30474690 Ry

     iteration # 44     ecut=    29.40 Ry     beta= 0.05
     Davidson diagonalization with overlap
     ethr =  7.64E-05,  avg # of iterations =  2.4

     negative rho (up, down):  6.230E-03 0.000E+00
 
     Adding external electric field

     Computed dipole along edir(3) : 
        Dipole                0.7089 Ry au,          1.8018 Debye
        Dipole field          0.0013 Ry au, 
 
        Potential amp.       -0.1240 Ry
        Total length         46.3494 bohr
 

     total cpu time spent up to now is      704.8 secs

     total energy              =   -2955.08262876 Ry
     estimated scf accuracy    <       0.10079682 Ry

     iteration # 45     ecut=    29.40 Ry     beta= 0.05
     Davidson diagonalization with overlap
     c_bands:  1 eigenvalues not converged
     c_bands:  3 eigenvalues not converged
     c_bands:  1 eigenvalues not converged
     c_bands:  4 eigenvalues not converged
     c_bands:  1 eigenvalues not converged
     c_bands:  1 eigenvalues not converged
     c_bands:  4 eigenvalues not converged
     c_bands:  1 eigenvalues not converged
     ethr =  2.53E-05,  avg # of iterations = 19.3

     negative rho (up, down):  6.937E-03 0.000E+00
 
     Adding external electric field

     Computed dipole along edir(3) : 
        Dipole                0.8096 Ry au,          2.0578 Debye
        Dipole field          0.0015 Ry au, 
 
        Potential amp.       -0.1416 Ry
        Total length         46.3494 bohr
 

     total cpu time spent up to now is      722.9 secs

     total energy              =   -2955.09037771 Ry
     estimated scf accuracy    <       0.15780509 Ry

     iteration # 46     ecut=    29.40 Ry     beta= 0.05
     Davidson diagonalization with overlap
     c_bands:  1 eigenvalues not converged
     c_bands:  3 eigenvalues not converged
     c_bands:  1 eigenvalues not converged
     ethr =  2.53E-05,  avg # of iterations = 12.7

     negative rho (up, down):  7.107E-03 0.000E+00
 
     Adding external electric field

     Computed dipole along edir(3) : 
        Dipole                0.8037 Ry au,          2.0428 Debye
        Dipole field          0.0015 Ry au, 
 
        Potential amp.       -0.1406 Ry
        Total length         46.3494 bohr
 

     total cpu time spent up to now is      736.8 secs

     total energy              =   -2955.07944013 Ry
     estimated scf accuracy    <       0.35163708 Ry

     iteration # 47     ecut=    29.40 Ry     beta= 0.05
     Davidson diagonalization with overlap
     c_bands:  1 eigenvalues not converged
     ethr =  2.53E-05,  avg # of iterations =  8.2

     negative rho (up, down):  7.598E-03 0.000E+00
 
     Adding external electric field

     Computed dipole along edir(3) : 
        Dipole                0.7863 Ry au,          1.9987 Debye
        Dipole field          0.0015 Ry au, 
 
        Potential amp.       -0.1376 Ry
        Total length         46.3494 bohr
 

     total cpu time spent up to now is      748.8 secs

     total energy              =   -2955.08589040 Ry
     estimated scf accuracy    <       0.04974691 Ry

     iteration # 48     ecut=    29.40 Ry     beta= 0.05
     Davidson diagonalization with overlap
     c_bands:  1 eigenvalues not converged
     c_bands:  1 eigenvalues not converged
     c_bands:  1 eigenvalues not converged
     ethr =  1.25E-05,  avg # of iterations = 13.1

     negative rho (up, down):  8.734E-03 0.000E+00
 
     Adding external electric field

     Computed dipole along edir(3) : 
        Dipole                0.8692 Ry au,          2.2092 Debye
        Dipole field          0.0016 Ry au, 
 
        Potential amp.       -0.1521 Ry
        Total length         46.3494 bohr
 

     total cpu time spent up to now is      762.9 secs

     total energy              =   -2955.08481262 Ry
     estimated scf accuracy    <       0.05796023 Ry

     iteration # 49     ecut=    29.40 Ry     beta= 0.05
     Davidson diagonalization with overlap
     c_bands:  1 eigenvalues not converged
     ethr =  1.25E-05,  avg # of iterations = 10.2

     negative rho (up, down):  1.017E-02 0.000E+00
 
     Adding external electric field

     Computed dipole along edir(3) : 
        Dipole                0.9152 Ry au,          2.3263 Debye
        Dipole field          0.0017 Ry au, 
 
        Potential amp.       -0.1601 Ry
        Total length         46.3494 bohr
 

     total cpu time spent up to now is      775.7 secs

     total energy              =   -2955.08486682 Ry
     estimated scf accuracy    <       0.02022605 Ry

     iteration # 50     ecut=    29.40 Ry     beta= 0.05
     Davidson diagonalization with overlap
     c_bands:  1 eigenvalues not converged
     c_bands:  1 eigenvalues not converged
     c_bands:  1 eigenvalues not converged
     c_bands:  1 eigenvalues not converged
     ethr =  5.07E-06,  avg # of iterations = 17.3

     negative rho (up, down):  1.016E-02 0.000E+00
 
     Adding external electric field

     Computed dipole along edir(3) : 
        Dipole                0.9149 Ry au,          2.3255 Debye
        Dipole field          0.0017 Ry au, 
 
        Potential amp.       -0.1600 Ry
        Total length         46.3494 bohr
 

     total cpu time spent up to now is      792.9 secs

     total energy              =   -2955.08655359 Ry
     estimated scf accuracy    <       0.02033372 Ry

     iteration # 51     ecut=    29.40 Ry     beta= 0.05
     Davidson diagonalization with overlap
     c_bands:  2 eigenvalues not converged
     c_bands:  1 eigenvalues not converged
     ethr =  5.07E-06,  avg # of iterations =  7.8

     negative rho (up, down):  1.072E-02 0.000E+00
 
     Adding external electric field

     Computed dipole along edir(3) : 
        Dipole                0.9441 Ry au,          2.3998 Debye
        Dipole field          0.0018 Ry au, 
 
        Potential amp.       -0.1652 Ry
        Total length         46.3494 bohr
 

     total cpu time spent up to now is      804.4 secs

     total energy              =   -2955.08743137 Ry
     estimated scf accuracy    <       0.01668960 Ry

     iteration # 52     ecut=    29.40 Ry     beta= 0.05
     Davidson diagonalization with overlap
     ethr =  4.18E-06,  avg # of iterations =  3.9

     negative rho (up, down):  9.930E-03 0.000E+00
 
     Adding external electric field

     Computed dipole along edir(3) : 
        Dipole                0.9152 Ry au,          2.3263 Debye
        Dipole field          0.0017 Ry au, 
 
        Potential amp.       -0.1601 Ry
        Total length         46.3494 bohr
 

     total cpu time spent up to now is      815.4 secs

     total energy              =   -2955.08652481 Ry
     estimated scf accuracy    <       0.02081820 Ry

     iteration # 53     ecut=    29.40 Ry     beta= 0.05
     Davidson diagonalization with overlap
     ethr =  4.18E-06,  avg # of iterations =  2.4

     negative rho (up, down):  9.796E-03 0.000E+00
 
     Adding external electric field

     Computed dipole along edir(3) : 
        Dipole                0.8972 Ry au,          2.2804 Debye
        Dipole field          0.0017 Ry au, 
 
        Potential amp.       -0.1569 Ry
        Total length         46.3494 bohr
 

     total cpu time spent up to now is      825.7 secs

     total energy              =   -2955.08631099 Ry
     estimated scf accuracy    <       0.01125406 Ry

     iteration # 54     ecut=    29.40 Ry     beta= 0.05
     Davidson diagonalization with overlap
     ethr =  2.82E-06,  avg # of iterations =  7.4

     negative rho (up, down):  9.092E-03 0.000E+00
 
     Adding external electric field

     Computed dipole along edir(3) : 
        Dipole                0.8287 Ry au,          2.1062 Debye
        Dipole field          0.0016 Ry au, 
 
        Potential amp.       -0.1450 Ry
        Total length         46.3494 bohr
 

     total cpu time spent up to now is      837.6 secs

     total energy              =   -2955.08501371 Ry
     estimated scf accuracy    <       0.00955118 Ry

     iteration # 55     ecut=    29.40 Ry     beta= 0.05
     Davidson diagonalization with overlap
     c_bands:  2 eigenvalues not converged
     c_bands:  2 eigenvalues not converged
     c_bands:  1 eigenvalues not converged
     c_bands:  3 eigenvalues not converged
     ethr =  2.39E-06,  avg # of iterations = 17.5

     negative rho (up, down):  1.029E-02 0.000E+00
 
     Adding external electric field

     Computed dipole along edir(3) : 
        Dipole                0.8921 Ry au,          2.2674 Debye
        Dipole field          0.0017 Ry au, 
 
        Potential amp.       -0.1561 Ry
        Total length         46.3494 bohr
 

     total cpu time spent up to now is      854.6 secs

     total energy              =   -2955.08594233 Ry
     estimated scf accuracy    <       0.00524918 Ry

     iteration # 56     ecut=    29.40 Ry     beta= 0.05
     Davidson diagonalization with overlap
     c_bands:  1 eigenvalues not converged
     ethr =  1.32E-06,  avg # of iterations =  8.4

     negative rho (up, down):  1.346E-02 0.000E+00
 
     Adding external electric field

     Computed dipole along edir(3) : 
        Dipole                0.9719 Ry au,          2.4704 Debye
        Dipole field          0.0018 Ry au, 
 
        Potential amp.       -0.1700 Ry
        Total length         46.3494 bohr
 

     total cpu time spent up to now is      866.8 secs

     total energy              =   -2955.08655260 Ry
     estimated scf accuracy    <       0.00234820 Ry

     iteration # 57     ecut=    29.40 Ry     beta= 0.05
     Davidson diagonalization with overlap
     c_bands:  1 eigenvalues not converged
     c_bands:  1 eigenvalues not converged
     ethr =  5.89E-07,  avg # of iterations = 15.6

     negative rho (up, down):  1.385E-02 0.000E+00
 
     Adding external electric field

     Computed dipole along edir(3) : 
        Dipole                0.9408 Ry au,          2.3914 Debye
        Dipole field          0.0018 Ry au, 
 
        Potential amp.       -0.1646 Ry
        Total length         46.3494 bohr
 

     total cpu time spent up to now is      884.8 secs

     total energy              =   -2955.08626982 Ry
     estimated scf accuracy    <       0.00290347 Ry

     iteration # 58     ecut=    29.40 Ry     beta= 0.05
     Davidson diagonalization with overlap
     ethr =  5.89E-07,  avg # of iterations = 12.1

     negative rho (up, down):  1.385E-02 0.000E+00
 
     Adding external electric field

     Computed dipole along edir(3) : 
        Dipole                0.9300 Ry au,          2.3639 Debye
        Dipole field          0.0018 Ry au, 
 
        Potential amp.       -0.1627 Ry
        Total length         46.3494 bohr
 

     total cpu time spent up to now is      899.9 secs

     total energy              =   -2955.08652399 Ry
     estimated scf accuracy    <       0.00038737 Ry

     iteration # 59     ecut=    29.40 Ry     beta= 0.05
     Davidson diagonalization with overlap
     c_bands:  1 eigenvalues not converged
     c_bands:  1 eigenvalues not converged
     ethr =  9.71E-08,  avg # of iterations = 16.3

     negative rho (up, down):  1.395E-02 0.000E+00
 
     Adding external electric field

     Computed dipole along edir(3) : 
        Dipole                0.9390 Ry au,          2.3867 Debye
        Dipole field          0.0018 Ry au, 
 
        Potential amp.       -0.1643 Ry
        Total length         46.3494 bohr
 

     total cpu time spent up to now is      922.5 secs

     total energy              =   -2955.08661786 Ry
     estimated scf accuracy    <       0.00071835 Ry

     iteration # 60     ecut=    29.40 Ry     beta= 0.05
     Davidson diagonalization with overlap
     ethr =  9.71E-08,  avg # of iterations =  2.4

     negative rho (up, down):  1.445E-02 0.000E+00
 
     Adding external electric field

     Computed dipole along edir(3) : 
        Dipole                0.9563 Ry au,          2.4308 Debye
        Dipole field          0.0018 Ry au, 
 
        Potential amp.       -0.1673 Ry
        Total length         46.3494 bohr
 

     total cpu time spent up to now is      933.2 secs

     total energy              =   -2955.08658713 Ry
     estimated scf accuracy    <       0.00046512 Ry

     iteration # 61     ecut=    29.40 Ry     beta= 0.05
     Davidson diagonalization with overlap
     ethr =  9.71E-08,  avg # of iterations = 13.9

     negative rho (up, down):  1.474E-02 0.000E+00
 
     Adding external electric field

     Computed dipole along edir(3) : 
        Dipole                0.9549 Ry au,          2.4271 Debye
        Dipole field          0.0018 Ry au, 
 
        Potential amp.       -0.1670 Ry
        Total length         46.3494 bohr
 

     total cpu time spent up to now is      950.9 secs

     total energy              =   -2955.08665642 Ry
     estimated scf accuracy    <       0.00019434 Ry

     iteration # 62     ecut=    29.40 Ry     beta= 0.05
     Davidson diagonalization with overlap
     ethr =  4.87E-08,  avg # of iterations =  8.2

     negative rho (up, down):  1.489E-02 0.000E+00
 
     Adding external electric field

     Computed dipole along edir(3) : 
        Dipole                0.9588 Ry au,          2.4370 Debye
        Dipole field          0.0018 Ry au, 
 
        Potential amp.       -0.1677 Ry
        Total length         46.3494 bohr
 

     total cpu time spent up to now is      963.5 secs

     total energy              =   -2955.08666743 Ry
     estimated scf accuracy    <       0.00008437 Ry

     iteration # 63     ecut=    29.40 Ry     beta= 0.05
     Davidson diagonalization with overlap
     ethr =  2.11E-08,  avg # of iterations = 12.4

     negative rho (up, down):  1.489E-02 0.000E+00
 
     Adding external electric field

     Computed dipole along edir(3) : 
        Dipole                0.9559 Ry au,          2.4297 Debye
        Dipole field          0.0018 Ry au, 
 
        Potential amp.       -0.1672 Ry
        Total length         46.3494 bohr
 

     total cpu time spent up to now is      981.7 secs

     total energy              =   -2955.08668077 Ry
     estimated scf accuracy    <       0.00007267 Ry

     iteration # 64     ecut=    29.40 Ry     beta= 0.05
     Davidson diagonalization with overlap
     ethr =  1.82E-08,  avg # of iterations =  7.5

     negative rho (up, down):  1.503E-02 0.000E+00
 
     Adding external electric field

     Computed dipole along edir(3) : 
        Dipole                0.9524 Ry au,          2.4206 Debye
        Dipole field          0.0018 Ry au, 
 
        Potential amp.       -0.1666 Ry
        Total length         46.3494 bohr
 

     total cpu time spent up to now is      994.0 secs

     total energy              =   -2955.08668514 Ry
     estimated scf accuracy    <       0.00004148 Ry

     iteration # 65     ecut=    29.40 Ry     beta= 0.05
     Davidson diagonalization with overlap
     c_bands:  1 eigenvalues not converged
     ethr =  1.04E-08,  avg # of iterations = 13.0

     negative rho (up, down):  1.513E-02 0.000E+00
 
     Adding external electric field

     Computed dipole along edir(3) : 
        Dipole                0.9561 Ry au,          2.4302 Debye
        Dipole field          0.0018 Ry au, 
 
        Potential amp.       -0.1673 Ry
        Total length         46.3494 bohr
 

     total cpu time spent up to now is     1013.3 secs

     total energy              =   -2955.08669890 Ry
     estimated scf accuracy    <       0.00004946 Ry

     iteration # 66     ecut=    29.40 Ry     beta= 0.05
     Davidson diagonalization with overlap
     ethr =  1.04E-08,  avg # of iterations =  5.8

     negative rho (up, down):  1.521E-02 0.000E+00
 
     Adding external electric field

     Computed dipole along edir(3) : 
        Dipole                0.9587 Ry au,          2.4368 Debye
        Dipole field          0.0018 Ry au, 
 
        Potential amp.       -0.1677 Ry
        Total length         46.3494 bohr
 

     total cpu time spent up to now is     1024.9 secs

     total energy              =   -2955.08670182 Ry
     estimated scf accuracy    <       0.00004627 Ry

     iteration # 67     ecut=    29.40 Ry     beta= 0.05
     Davidson diagonalization with overlap
     ethr =  1.04E-08,  avg # of iterations = 11.0

     negative rho (up, down):  1.517E-02 0.000E+00
 
     Adding external electric field

     Computed dipole along edir(3) : 
        Dipole                0.9582 Ry au,          2.4355 Debye
        Dipole field          0.0018 Ry au, 
 
        Potential amp.       -0.1676 Ry
        Total length         46.3494 bohr
 

     total cpu time spent up to now is     1039.9 secs

     total energy              =   -2955.08670917 Ry
     estimated scf accuracy    <       0.00001146 Ry

     iteration # 68     ecut=    29.40 Ry     beta= 0.05
     Davidson diagonalization with overlap
     ethr =  2.87E-09,  avg # of iterations =  7.9

     negative rho (up, down):  1.514E-02 0.000E+00
 
     Adding external electric field

     Computed dipole along edir(3) : 
        Dipole                0.9564 Ry au,          2.4308 Debye
        Dipole field          0.0018 Ry au, 
 
        Potential amp.       -0.1673 Ry
        Total length         46.3494 bohr
 

     total cpu time spent up to now is     1052.6 secs

     total energy              =   -2955.08671193 Ry
     estimated scf accuracy    <       0.00000816 Ry

     iteration # 69     ecut=    29.40 Ry     beta= 0.05
     Davidson diagonalization with overlap
     c_bands:  1 eigenvalues not converged
     ethr =  2.05E-09,  avg # of iterations = 12.0

     negative rho (up, down):  1.518E-02 0.000E+00
 
     Adding external electric field

     Computed dipole along edir(3) : 
        Dipole                0.9574 Ry au,          2.4335 Debye
        Dipole field          0.0018 Ry au, 
 
        Potential amp.       -0.1675 Ry
        Total length         46.3494 bohr
 

     total cpu time spent up to now is     1070.1 secs

     total energy              =   -2955.08671771 Ry
     estimated scf accuracy    <       0.00000328 Ry

     iteration # 70     ecut=    29.40 Ry     beta= 0.05
     Davidson diagonalization with overlap
     ethr =  8.21E-10,  avg # of iterations =  8.6

     negative rho (up, down):  1.521E-02 0.000E+00
 
     Adding external electric field

     Computed dipole along edir(3) : 
        Dipole                0.9579 Ry au,          2.4347 Debye
        Dipole field          0.0018 Ry au, 
 
        Potential amp.       -0.1676 Ry
        Total length         46.3494 bohr
 

     total cpu time spent up to now is     1082.9 secs

     total energy              =   -2955.08672155 Ry
     estimated scf accuracy    <       0.00000164 Ry

     iteration # 71     ecut=    29.40 Ry     beta= 0.05
     Davidson diagonalization with overlap
     ethr =  4.11E-10,  avg # of iterations =  8.2

     negative rho (up, down):  1.523E-02 0.000E+00
 
     Adding external electric field

     Computed dipole along edir(3) : 
        Dipole                0.9585 Ry au,          2.4362 Debye
        Dipole field          0.0018 Ry au, 
 
        Potential amp.       -0.1677 Ry
        Total length         46.3494 bohr
 

     total cpu time spent up to now is     1095.7 secs

     total energy              =   -2955.08672450 Ry
     estimated scf accuracy    <       0.00000090 Ry

     iteration # 72     ecut=    29.40 Ry     beta= 0.05
     Davidson diagonalization with overlap
     ethr =  2.25E-10,  avg # of iterations = 11.8

     negative rho (up, down):  1.526E-02 0.000E+00
 
     Adding external electric field

     Computed dipole along edir(3) : 
        Dipole                0.9587 Ry au,          2.4368 Debye
        Dipole field          0.0018 Ry au, 
 
        Potential amp.       -0.1677 Ry
        Total length         46.3494 bohr
 

     total cpu time spent up to now is     1110.5 secs

     total energy              =   -2955.08672709 Ry
     estimated scf accuracy    <       0.00000049 Ry

     iteration # 73     ecut=    29.40 Ry     beta= 0.05
     Davidson diagonalization with overlap
     c_bands:  2 eigenvalues not converged
     ethr =  1.22E-10,  avg # of iterations = 11.7

     negative rho (up, down):  1.526E-02 0.000E+00
 
     Adding external electric field

     Computed dipole along edir(3) : 
        Dipole                0.9587 Ry au,          2.4369 Debye
        Dipole field          0.0018 Ry au, 
 
        Potential amp.       -0.1677 Ry
        Total length         46.3494 bohr
 

     total cpu time spent up to now is     1126.0 secs

     total energy              =   -2955.08672941 Ry
     estimated scf accuracy    <       0.00000035 Ry

     iteration # 74     ecut=    29.40 Ry     beta= 0.05
     Davidson diagonalization with overlap
     ethr =  8.81E-11,  avg # of iterations =  5.0

     negative rho (up, down):  1.527E-02 0.000E+00
 
     Adding external electric field

     Computed dipole along edir(3) : 
        Dipole                0.9586 Ry au,          2.4365 Debye
        Dipole field          0.0018 Ry au, 
 
        Potential amp.       -0.1677 Ry
        Total length         46.3494 bohr
 

     total cpu time spent up to now is     1137.5 secs

     total energy              =   -2955.08673141 Ry
     estimated scf accuracy    <       0.00000019 Ry

     iteration # 75     ecut=    29.40 Ry     beta= 0.05
     Davidson diagonalization with overlap
     ethr =  4.78E-11,  avg # of iterations = 12.6

     negative rho (up, down):  1.527E-02 0.000E+00
 
     Adding external electric field

     Computed dipole along edir(3) : 
        Dipole                0.9586 Ry au,          2.4365 Debye
        Dipole field          0.0018 Ry au, 
 
        Potential amp.       -0.1677 Ry
        Total length         46.3494 bohr
 

     total cpu time spent up to now is     1153.5 secs

     total energy              =   -2955.08673324 Ry
     estimated scf accuracy    <       0.00000015 Ry

     iteration # 76     ecut=    29.40 Ry     beta= 0.05
     Davidson diagonalization with overlap
     ethr =  3.65E-11,  avg # of iterations =  5.6

     negative rho (up, down):  1.527E-02 0.000E+00
 
     Adding external electric field

     Computed dipole along edir(3) : 
        Dipole                0.9586 Ry au,          2.4366 Debye
        Dipole field          0.0018 Ry au, 
 
        Potential amp.       -0.1677 Ry
        Total length         46.3494 bohr
 

     total cpu time spent up to now is     1165.0 secs

     total energy              =   -2955.08673489 Ry
     estimated scf accuracy    <       0.00000010 Ry

     iteration # 77     ecut=    29.40 Ry     beta= 0.05
     Davidson diagonalization with overlap
     ethr =  2.60E-11,  avg # of iterations = 12.1

     negative rho (up, down):  1.530E-02 0.000E+00
 
     Adding external electric field

     Computed dipole along edir(3) : 
        Dipole                0.9575 Ry au,          2.4336 Debye
        Dipole field          0.0018 Ry au, 
 
        Potential amp.       -0.1675 Ry
        Total length         46.3494 bohr
 

     total cpu time spent up to now is     1182.7 secs

     End of self-consistent calculation

          k = 0.0000 0.0000 0.0000 ( 18029 PWs)   bands (ev):

   -55.5425 -55.5093 -55.5060 -55.4884 -55.4751 -55.4265 -55.3902 -55.3705
   -55.3539 -55.3411 -55.3357 -55.3076 -55.2963 -55.1145 -54.5350 -54.5010
   -32.0984 -32.0014 -31.9148 -31.8998 -31.8755 -31.8593 -31.8459 -31.8409
   -31.7983 -31.7629 -31.7572 -31.7541 -31.7441 -31.7199 -31.7142 -31.6935
   -31.6839 -31.6813 -31.6697 -31.6614 -31.6402 -31.6228 -31.6055 -31.5993
   -31.5702 -31.5663 -31.5622 -31.5592 -31.5568 -31.5445 -31.5352 -31.5282
   -31.5240 -31.5186 -31.5082 -31.4963 -31.4843 -31.4691 -31.4680 -31.4521
   -31.3398 -31.2954 -30.9442 -30.8504 -30.8283 -30.7606 -30.6739 -30.5630
   -19.2387 -16.3894 -16.2978 -16.0856 -15.9209 -15.8429 -15.7461 -15.6057
   -15.5340 -15.4234 -15.3873 -15.2284 -15.2043 -15.1977 -15.1625 -15.1455
   -15.1059 -15.0877 -15.0588 -15.0472 -15.0456 -15.0238 -14.9872 -14.9833
   -14.9408 -14.9278 -14.8689 -14.7725 -14.7045 -14.6405 -14.3299 -13.0374
   -12.9200  -9.2006  -7.0116  -6.5407  -4.5998  -3.7159  -3.5844  -3.5609
    -3.5023  -3.4474  -3.4064  -3.2990  -3.0691  -3.0235  -2.9778  -2.9311
    -2.8106  -2.7393  -2.7351  -2.6559  -2.5804  -2.5380  -2.4832  -2.4748
    -2.3970  -2.3627  -2.3450  -2.3218  -2.2784  -2.2508  -2.2092  -2.1177
    -2.0974  -2.0135  -1.9896  -1.9450  -1.9415  -1.8936  -1.8758  -1.8370
    -1.8359  -1.8261  -1.8051  -1.7677  -1.7252  -1.6700  -1.5787  -1.5512
    -1.3853  -1.2737  -1.2089  -1.1816  -1.1292  -1.0975  -1.0319  -0.9838
    -0.9704  -0.9335  -0.8664  -0.7641  -0.6982  -0.6860  -0.6258  -0.5343
    -0.4764  -0.4386  -0.3564  -0.3304  -0.3118  -0.3065  -0.2431  -0.1747
    -0.1282  -0.0544  -0.0381   0.0177   0.0403   0.0897   0.1213   0.1880
     0.2438   0.2838   0.3358   0.3900   0.3917   0.4067   0.4417   0.4433
     0.5431   0.5554   0.5775   0.6783   0.7774   0.9642   1.0635   1.0981
     1.3960   1.4115   1.4879   1.6724   2.0635   2.1115   3.5182   3.5486
     3.6325   3.6878   3.6968   3.7263   3.7832   4.0365   4.0479   4.0702
     4.0831

          k = 0.0000 0.0419 0.0000 ( 17933 PWs)   bands (ev):

   -55.5374 -55.5109 -55.5042 -55.4872 -55.4801 -55.4217 -55.3948 -55.3655
   -55.3548 -55.3406 -55.3361 -55.3124 -55.2954 -55.1153 -54.5300 -54.5059
   -32.0417 -31.9474 -31.8599 -31.8513 -31.8355 -31.8268 -31.8066 -31.8025
   -31.7933 -31.7726 -31.7686 -31.7491 -31.7456 -31.7242 -31.7129 -31.7090
   -31.6933 -31.6875 -31.6794 -31.6552 -31.6475 -31.6446 -31.5999 -31.5952
   -31.5859 -31.5805 -31.5774 -31.5734 -31.5682 -31.5663 -31.5583 -31.5426
   -31.5402 -31.5289 -31.5210 -31.5148 -31.5059 -31.4971 -31.4795 -31.4753
   -31.3407 -31.3331 -30.8900 -30.8470 -30.8313 -30.7480 -30.6865 -30.6201
   -19.2385 -16.3334 -16.2065 -15.9753 -15.8519 -15.7634 -15.6390 -15.5574
   -15.4921 -15.4189 -15.3712 -15.3444 -15.2472 -15.2181 -15.1569 -15.1505
   -15.1066 -15.0944 -15.0740 -15.0536 -15.0453 -15.0311 -15.0285 -14.9922
   -14.9865 -14.9183 -14.9144 -14.8290 -14.7601 -14.7001 -14.4339 -13.0410
   -12.9593  -9.1981  -7.0163  -6.5283  -4.6048  -3.5916  -3.4810  -3.3936
    -3.3509  -3.2718  -3.2645  -3.1561  -3.0208  -2.8770  -2.8466  -2.8226
    -2.7619  -2.6884  -2.6745  -2.6372  -2.5984  -2.5613  -2.5464  -2.5072
    -2.4804  -2.4563  -2.4360  -2.3678  -2.3425  -2.3135  -2.2866  -2.2690
    -2.2306  -2.1498  -2.1233  -2.1053  -2.0792  -2.0602  -1.9986  -1.9773
    -1.8583  -1.8414  -1.7799  -1.6936  -1.6286  -1.5336  -1.4475  -1.3556
    -1.3252  -1.2964  -1.2399  -1.1016  -1.0583  -0.9815  -0.8774  -0.8579
    -0.8516  -0.8362  -0.7640  -0.7211  -0.6507  -0.6126  -0.5381  -0.5247
    -0.4855  -0.4617  -0.4563  -0.3740  -0.3458  -0.3236  -0.2535  -0.1960
    -0.1312  -0.1112  -0.1001  -0.0561  -0.0378   0.0428   0.0616   0.1191
     0.1846   0.2109   0.2156   0.2575   0.2783   0.3043   0.4136   0.4487
     0.4928   0.5117   0.5836   0.6458   0.7459   0.7649   0.8181   0.9713
     1.0968   1.2891   1.6720   1.7489   2.0184   2.0220   3.5033   3.7567
     3.7744   3.7851   3.8518   3.9243   3.9573   3.9695   4.0001   4.0658
     4.1038

          k = 0.0000-0.0839 0.0000 ( 17884 PWs)   bands (ev):

   -55.5279 -55.5203 -55.4921 -55.4921 -55.4861 -55.4140 -55.4025 -55.3560
   -55.3559 -55.3500 -55.3245 -55.3240 -55.2944 -55.1162 -54.5180 -54.5178
   -31.9096 -31.8972 -31.8150 -31.8149 -31.7992 -31.7980 -31.7869 -31.7835
   -31.7834 -31.7639 -31.7311 -31.7307 -31.7207 -31.7193 -31.7181 -31.7131
   -31.7044 -31.6848 -31.6775 -31.6758 -31.6697 -31.6523 -31.6292 -31.6282
   -31.6207 -31.6170 -31.6138 -31.6133 -31.5880 -31.5871 -31.5797 -31.5796
   -31.5694 -31.5451 -31.5175 -31.5140 -31.5047 -31.5042 -31.5017 -31.4795
   -31.3795 -31.3378 -30.8390 -30.8388 -30.7569 -30.7568 -30.7173 -30.7172
   -19.2382 -16.3078 -15.9589 -15.8784 -15.7328 -15.6875 -15.5657 -15.5308
   -15.5095 -15.4466 -15.3762 -15.3601 -15.3483 -15.3167 -15.2003 -15.1486
   -15.1364 -15.1335 -15.1256 -15.0661 -15.0030 -14.9713 -14.9615 -14.9603
   -14.9572 -14.9477 -14.9013 -14.8897 -14.8464 -14.8404 -14.5826 -13.0220
   -13.0219  -9.1955  -7.0211  -6.5169  -4.6100  -3.5443  -3.1502  -3.0817
    -3.0481  -3.0042  -2.9721  -2.9629  -2.9221  -2.9096  -2.8813  -2.8304
    -2.8291  -2.7663  -2.7339  -2.7057  -2.6960  -2.6738  -2.6599  -2.5952
    -2.5572  -2.5184  -2.4531  -2.4224  -2.4056  -2.3995  -2.3804  -2.3561
    -2.2829  -2.2303  -2.1954  -2.1713  -2.1158  -2.0137  -1.9696  -1.9121
    -1.8634  -1.6892  -1.6617  -1.5932  -1.5204  -1.4660  -1.4458  -1.3146
    -1.3098  -1.2535  -1.1717  -1.0447  -1.0261  -1.0069  -1.0014  -0.9882
    -0.9464  -0.9344  -0.9096  -0.7929  -0.7262  -0.7013  -0.6269  -0.5793
    -0.4820  -0.3543  -0.2761  -0.2248  -0.2036  -0.1801  -0.1722  -0.1434
    -0.1318  -0.1110  -0.0904  -0.0393  -0.0296  -0.0202   0.0413   0.0620
     0.0878   0.1106   0.1678   0.1882   0.2115   0.2345   0.2355   0.2738
     0.2927   0.3068   0.6010   0.6553   0.6594   0.6649   0.8422   0.8720
     1.0248   1.0343   1.8137   1.8149   1.9541   1.9542   3.4852   3.8433
     3.8853   3.9047   3.9170   4.0236   4.0259   4.0798   4.1025   4.1253
     4.1517

          k = 0.0380 0.0000 0.0000 ( 17913 PWs)   bands (ev):

   -55.5423 -55.5092 -55.5058 -55.4883 -55.4750 -55.4264 -55.3901 -55.3702
   -55.3537 -55.3412 -55.3356 -55.3075 -55.2963 -55.1144 -54.5349 -54.5009
   -32.0985 -32.0023 -31.9201 -31.9018 -31.8758 -31.8635 -31.8462 -31.8407
   -31.7981 -31.7627 -31.7540 -31.7445 -31.7394 -31.7141 -31.7127 -31.6934
   -31.6815 -31.6768 -31.6592 -31.6490 -31.6401 -31.6233 -31.6226 -31.5990
   -31.5703 -31.5658 -31.5607 -31.5584 -31.5495 -31.5440 -31.5416 -31.5346
   -31.5280 -31.5204 -31.5085 -31.5019 -31.4828 -31.4690 -31.4682 -31.4526
   -31.3410 -31.2953 -30.9437 -30.8539 -30.8263 -30.7604 -30.6738 -30.5627
   -19.2384 -16.3490 -16.2473 -16.0077 -15.9271 -15.7902 -15.6480 -15.6201
   -15.5378 -15.4425 -15.3884 -15.3255 -15.3107 -15.2467 -15.2407 -15.2247
   -15.2190 -15.1465 -15.0622 -15.0308 -15.0224 -14.9846 -14.9447 -14.8990
   -14.8899 -14.8451 -14.8017 -14.7781 -14.7762 -14.7282 -14.3284 -13.0341
   -12.9197  -9.2010  -7.0167  -6.5339  -4.5913  -3.6365  -3.5059  -3.4441
    -3.3237  -3.2653  -3.1918  -3.1575  -3.0696  -3.0435  -3.0204  -2.9908
    -2.9411  -2.8728  -2.8187  -2.6807  -2.6282  -2.6008  -2.4999  -2.4135
    -2.3227  -2.3060  -2.2792  -2.2313  -2.2041  -2.1766  -2.1490  -2.1148
    -2.0796  -2.0236  -1.9526  -1.9282  -1.9009  -1.8762  -1.8491  -1.8285
    -1.7984  -1.7816  -1.7165  -1.6415  -1.6136  -1.5764  -1.5402  -1.4578
    -1.3579  -1.2937  -1.2459  -1.1877  -1.1652  -1.1060  -1.0481  -1.0344
    -0.9686  -0.9647  -0.9430  -0.8913  -0.8516  -0.8402  -0.6243  -0.5274
    -0.5106  -0.4398  -0.4267  -0.3843  -0.3611  -0.2851  -0.2247  -0.1691
    -0.1404  -0.1101  -0.0887  -0.0388   0.0065   0.0332   0.0913   0.1464
     0.1745   0.1909   0.2319   0.2577   0.2771   0.3216   0.4067   0.4270
     0.4357   0.4943   0.5283   0.5965   0.6564   0.7467   0.9351   1.1125
     1.2730   1.4015   1.4998   1.6413   1.9509   2.0288   3.5541   3.5635
     3.6492   3.8226   3.8704   3.8969   3.9407   3.9864   4.0160   4.0372
     4.0681

          k = 0.0380 0.0419 0.0000 ( 17878 PWs)   bands (ev):

   -55.5372 -55.5109 -55.5041 -55.4872 -55.4800 -55.4217 -55.3948 -55.3653
   -55.3548 -55.3405 -55.3362 -55.3124 -55.2953 -55.1153 -54.5299 -54.5059
   -32.0419 -31.9483 -31.8662 -31.8531 -31.8360 -31.8269 -31.8106 -31.8033
   -31.7931 -31.7726 -31.7687 -31.7494 -31.7321 -31.7237 -31.7094 -31.7063
   -31.6874 -31.6836 -31.6794 -31.6457 -31.6448 -31.6369 -31.6164 -31.5949
   -31.5836 -31.5801 -31.5734 -31.5719 -31.5687 -31.5653 -31.5532 -31.5511
   -31.5391 -31.5301 -31.5265 -31.5214 -31.5058 -31.5015 -31.4796 -31.4764
   -31.3424 -31.3331 -30.8897 -30.8497 -30.8303 -30.7478 -30.6865 -30.6200
   -19.2382 -16.3218 -16.1397 -15.9000 -15.8706 -15.6935 -15.5740 -15.5385
   -15.4924 -15.4222 -15.3913 -15.3465 -15.3048 -15.2820 -15.2136 -15.2017
   -15.1668 -15.1169 -15.1001 -15.0770 -15.0685 -15.0214 -14.9830 -14.9546
   -14.9279 -14.8982 -14.8740 -14.8425 -14.8261 -14.7821 -14.4326 -13.0387
   -12.9596  -9.1998  -7.0250  -6.5136  -4.5938  -3.5787  -3.3612  -3.2921
    -3.1651  -3.1479  -3.0361  -2.9862  -2.9646  -2.9069  -2.8702  -2.8256
    -2.7885  -2.7254  -2.6445  -2.6014  -2.5660  -2.5433  -2.5310  -2.4824
    -2.4274  -2.3972  -2.3724  -2.3442  -2.3308  -2.3041  -2.2518  -2.2431
    -2.2019  -2.1708  -2.1299  -2.0770  -2.0517  -1.9860  -1.9757  -1.9332
    -1.8481  -1.7661  -1.7241  -1.6313  -1.6010  -1.5499  -1.4210  -1.3662
    -1.3405  -1.2726  -1.2190  -1.1366  -1.0472  -1.0290  -0.9747  -0.9298
    -0.9083  -0.8844  -0.8477  -0.7992  -0.7875  -0.7154  -0.6274  -0.5828
    -0.5494  -0.5159  -0.4818  -0.4595  -0.4287  -0.3413  -0.2976  -0.2710
    -0.2451  -0.2168  -0.1795  -0.1571  -0.1112  -0.0991  -0.0525   0.0297
     0.0461   0.0995   0.1220   0.1826   0.2243   0.3379   0.3631   0.4455
     0.4851   0.5486   0.5948   0.6144   0.7119   0.7637   0.8675   0.9219
     1.0470   1.2379   1.6828   1.7523   1.9406   2.0036   3.5255   3.7456
     3.7544   3.8011   3.8954   3.9675   3.9812   4.0162   4.0767   4.1119
     4.1411

          k = 0.0380-0.0839 0.0000 ( 17916 PWs)   bands (ev):

   -55.5280 -55.5203 -55.4921 -55.4921 -55.4861 -55.4140 -55.4026 -55.3559
   -55.3559 -55.3499 -55.3246 -55.3241 -55.2945 -55.1162 -54.5180 -54.5178
   -31.9098 -31.8975 -31.8157 -31.8157 -31.7993 -31.7983 -31.7875 -31.7836
   -31.7835 -31.7656 -31.7479 -31.7411 -31.7311 -31.7135 -31.7001 -31.6920
   -31.6908 -31.6855 -31.6820 -31.6793 -31.6750 -31.6556 -31.6306 -31.6296
   -31.6130 -31.6130 -31.5998 -31.5968 -31.5952 -31.5882 -31.5879 -31.5795
   -31.5620 -31.5445 -31.5294 -31.5260 -31.5072 -31.5042 -31.5034 -31.4808
   -31.3793 -31.3403 -30.8400 -30.8399 -30.7568 -30.7567 -30.7173 -30.7172
   -19.2381 -16.3057 -15.9242 -15.8359 -15.6944 -15.6393 -15.5596 -15.4830
   -15.4545 -15.4260 -15.3724 -15.3684 -15.3160 -15.2863 -15.2036 -15.1670
   -15.1617 -15.1382 -15.1226 -15.1081 -15.0749 -15.0184 -15.0120 -14.9865
   -14.9803 -14.9292 -14.9197 -14.9088 -14.8963 -14.8945 -14.5770 -13.0218
   -13.0217  -9.1977  -7.0322  -6.4985  -4.5965  -3.5447  -3.1098  -3.0515
    -3.0013  -2.8730  -2.8325  -2.8049  -2.7941  -2.7426  -2.7230  -2.7040
    -2.6584  -2.6574  -2.6355  -2.6297  -2.6192  -2.5890  -2.5741  -2.5247
    -2.5204  -2.4735  -2.4521  -2.4322  -2.3899  -2.3708  -2.3356  -2.3058
    -2.2732  -2.2285  -2.1887  -2.1403  -2.1015  -2.0539  -1.9617  -1.8155
    -1.7444  -1.7040  -1.6228  -1.6026  -1.5266  -1.4852  -1.4707  -1.4462
    -1.4053  -1.3768  -1.3039  -1.2462  -1.2300  -1.2100  -1.1989  -1.0943
    -1.0323  -0.8932  -0.8570  -0.8506  -0.7932  -0.7702  -0.6608  -0.5956
    -0.5426  -0.5183  -0.4732  -0.3914  -0.3818  -0.3575  -0.3497  -0.3340
    -0.2938  -0.2077  -0.1941  -0.1860  -0.1352  -0.1010  -0.0628  -0.0483
    -0.0070   0.0078   0.1727   0.2008   0.2247   0.2961   0.3633   0.4410
     0.5157   0.5177   0.5489   0.6296   0.6766   0.7197   0.8040   0.8454
     1.0115   1.0219   1.8271   1.8283   1.9445   1.9452   3.5103   3.7990
     3.8242   3.8942   3.9130   3.9917   4.0044   4.0848   4.1119   4.1462
     4.1844

          k = 0.0380-0.0419 0.0000 ( 17876 PWs)   bands (ev):

   -55.5372 -55.5109 -55.5041 -55.4872 -55.4800 -55.4217 -55.3948 -55.3653
   -55.3548 -55.3405 -55.3362 -55.3124 -55.2953 -55.1153 -54.5299 -54.5059
   -32.0418 -31.9482 -31.8662 -31.8533 -31.8358 -31.8269 -31.8106 -31.8033
   -31.7931 -31.7726 -31.7687 -31.7494 -31.7320 -31.7239 -31.7094 -31.7064
   -31.6874 -31.6836 -31.6794 -31.6457 -31.6447 -31.6368 -31.6163 -31.5949
   -31.5836 -31.5801 -31.5734 -31.5688 -31.5661 -31.5652 -31.5565 -31.5514
   -31.5419 -31.5299 -31.5266 -31.5214 -31.5059 -31.5023 -31.4796 -31.4750
   -31.3418 -31.3336 -30.8896 -30.8497 -30.8303 -30.7478 -30.6865 -30.6200
   -19.2382 -16.3226 -16.1389 -15.8989 -15.8709 -15.6930 -15.5754 -15.5380
   -15.4925 -15.4212 -15.3909 -15.3483 -15.3004 -15.2837 -15.2138 -15.2028
   -15.1743 -15.1158 -15.0977 -15.0817 -15.0672 -15.0215 -14.9825 -14.9555
   -14.9214 -14.8981 -14.8733 -14.8424 -14.8264 -14.7824 -14.4329 -13.0387
   -12.9596  -9.1988  -7.0242  -6.5173  -4.5938  -3.5810  -3.3592  -3.2931
    -3.1566  -3.1132  -3.0382  -3.0180  -2.9834  -2.9029  -2.8650  -2.8245
    -2.7968  -2.7267  -2.6575  -2.6021  -2.5660  -2.5466  -2.5255  -2.4831
    -2.4306  -2.4058  -2.3742  -2.3464  -2.3349  -2.3028  -2.2491  -2.2411
    -2.1936  -2.1698  -2.1312  -2.0795  -2.0547  -2.0074  -1.9556  -1.9365
    -1.8397  -1.7544  -1.7147  -1.6142  -1.5971  -1.5442  -1.4186  -1.3629
    -1.3353  -1.2658  -1.2192  -1.1355  -1.0497  -1.0256  -0.9849  -0.9248
    -0.9088  -0.8896  -0.8517  -0.7985  -0.7765  -0.7151  -0.6380  -0.5867
    -0.5447  -0.5140  -0.4774  -0.4653  -0.4219  -0.3386  -0.2991  -0.2646
    -0.2460  -0.2153  -0.1811  -0.1592  -0.1110  -0.0968  -0.0529   0.0218
     0.0493   0.0825   0.1191   0.1831   0.2210   0.3440   0.3609   0.4503
     0.4722   0.5422   0.5916   0.6119   0.7155   0.7647   0.8672   0.9243
     1.0473   1.2382   1.6828   1.7523   1.9404   2.0042   3.5417   3.7463
     3.7552   3.7984   3.8978   3.9685   3.9835   4.0053   4.0854   4.1147
     4.1372

          k =-0.0760-0.0000 0.0000 ( 17886 PWs)   bands (ev):

   -55.5422 -55.5091 -55.5058 -55.4882 -55.4750 -55.4264 -55.3901 -55.3700
   -55.3537 -55.3413 -55.3356 -55.3075 -55.2962 -55.1144 -54.5349 -54.5009
   -32.0987 -32.0033 -31.9252 -31.9040 -31.8764 -31.8675 -31.8465 -31.8404
   -31.7979 -31.7626 -31.7540 -31.7442 -31.7145 -31.7139 -31.7053 -31.6928
   -31.6813 -31.6714 -31.6558 -31.6497 -31.6401 -31.6225 -31.6127 -31.5995
   -31.5802 -31.5705 -31.5659 -31.5593 -31.5582 -31.5420 -31.5383 -31.5322
   -31.5282 -31.5231 -31.5144 -31.5059 -31.4818 -31.4689 -31.4685 -31.4535
   -31.3424 -31.2954 -30.9433 -30.8574 -30.8249 -30.7604 -30.6737 -30.5628
   -19.2382 -16.3264 -16.1198 -16.0371 -15.8590 -15.7258 -15.6103 -15.5694
   -15.4859 -15.4538 -15.4108 -15.3887 -15.3788 -15.3229 -15.3216 -15.3082
   -15.2627 -15.2108 -15.0563 -15.0326 -14.9782 -14.9706 -14.9490 -14.9279
   -14.9123 -14.8758 -14.8092 -14.7987 -14.7109 -14.6886 -14.3273 -13.0310
   -12.9194  -9.2016  -7.0219  -6.5273  -4.5825  -3.6318  -3.4704  -3.4319
    -3.1701  -3.1228  -3.0536  -3.0490  -3.0268  -3.0006  -2.9798  -2.9328
    -2.8718  -2.8569  -2.8012  -2.7853  -2.5947  -2.4720  -2.4080  -2.3662
    -2.2718  -2.1995  -2.1945  -2.1747  -2.1411  -2.1088  -2.0758  -2.0372
    -2.0282  -2.0198  -2.0038  -1.9587  -1.9343  -1.9054  -1.8788  -1.8558
    -1.8339  -1.8021  -1.7597  -1.6954  -1.6338  -1.5147  -1.3845  -1.3564
    -1.2763  -1.2191  -1.1986  -1.1810  -1.1779  -1.1420  -1.1228  -1.0943
    -1.0236  -1.0155  -0.9942  -0.9500  -0.8655  -0.8604  -0.8206  -0.8047
    -0.7398  -0.5074  -0.4634  -0.4002  -0.3823  -0.3067  -0.2581  -0.2342
    -0.2245  -0.1674  -0.1305  -0.0633  -0.0435  -0.0381  -0.0066   0.0579
     0.0724   0.1303   0.1379   0.2146   0.2526   0.2924   0.3052   0.3837
     0.3924   0.4479   0.5090   0.5851   0.7228   0.7694   0.9519   0.9865
     1.1359   1.4062   1.5212   1.6163   1.8209   1.9737   3.5619   3.5861
     3.6120   3.7007   3.8237   3.9069   3.9282   3.9915   4.0356   4.0468
     4.1017

          k =-0.0760 0.0419 0.0000 ( 17914 PWs)   bands (ev):

   -55.5372 -55.5109 -55.5041 -55.4872 -55.4801 -55.4218 -55.3949 -55.3651
   -55.3548 -55.3405 -55.3364 -55.3125 -55.2954 -55.1153 -54.5299 -54.5059
   -32.0422 -31.9493 -31.8723 -31.8553 -31.8364 -31.8271 -31.8150 -31.8039
   -31.7931 -31.7727 -31.7686 -31.7496 -31.7245 -31.7134 -31.7093 -31.7004
   -31.6871 -31.6797 -31.6744 -31.6447 -31.6432 -31.6366 -31.6009 -31.5963
   -31.5853 -31.5829 -31.5801 -31.5733 -31.5715 -31.5709 -31.5515 -31.5457
   -31.5361 -31.5358 -31.5297 -31.5280 -31.5099 -31.5059 -31.4797 -31.4761
   -31.3438 -31.3337 -30.8894 -30.8527 -30.8296 -30.7479 -30.6866 -30.6201
   -19.2380 -16.3143 -16.0058 -15.9601 -15.7832 -15.6354 -15.5314 -15.4972
   -15.4390 -15.4262 -15.3871 -15.3451 -15.3410 -15.3349 -15.2775 -15.2717
   -15.2392 -15.1967 -15.1009 -15.0922 -15.0502 -15.0135 -14.9799 -14.9700
   -14.9468 -14.9234 -14.9026 -14.8422 -14.7990 -14.7956 -14.4321 -13.0365
   -12.9599  -9.2007  -7.0327  -6.5032  -4.5825  -3.5851  -3.3279  -3.2788
    -3.0699  -2.9405  -2.8934  -2.8795  -2.8069  -2.7767  -2.7674  -2.7309
    -2.7224  -2.6798  -2.6064  -2.5846  -2.5392  -2.5115  -2.4987  -2.4377
    -2.4346  -2.3701  -2.3559  -2.2965  -2.2639  -2.2557  -2.2154  -2.1542
    -2.1429  -2.1160  -2.1018  -2.0927  -2.0589  -2.0176  -2.0078  -1.8077
    -1.7360  -1.7267  -1.6816  -1.6407  -1.6034  -1.5092  -1.4406  -1.3357
    -1.3201  -1.2730  -1.2016  -1.1563  -1.1265  -1.1203  -1.0380  -1.0157
    -0.9979  -0.9294  -0.9124  -0.8847  -0.8533  -0.8118  -0.7841  -0.7761
    -0.7611  -0.6792  -0.6333  -0.6129  -0.5665  -0.5020  -0.4814  -0.3535
    -0.3365  -0.3237  -0.2880  -0.2471  -0.2345  -0.2183  -0.0895  -0.0469
    -0.0066   0.0511   0.1561   0.1903   0.2307   0.2673   0.4243   0.4392
     0.4623   0.5984   0.7216   0.7287   0.7561   0.8106   0.8703   0.9440
     0.9718   1.1057   1.6979   1.7544   1.8628   1.9928   3.5653   3.7343
     3.7530   3.7727   3.8146   3.8786   3.9476   3.9812   4.0397   4.0963
     4.1845

          k =-0.0760-0.0839 0.0000 ( 17948 PWs)   bands (ev):

   -55.5279 -55.5203 -55.4921 -55.4921 -55.4861 -55.4141 -55.4026 -55.3559
   -55.3558 -55.3498 -55.3247 -55.3242 -55.2945 -55.1163 -54.5180 -54.5179
   -31.9101 -31.8979 -31.8165 -31.8165 -31.7996 -31.7986 -31.7880 -31.7836
   -31.7835 -31.7671 -31.7558 -31.7487 -31.7312 -31.7136 -31.6945 -31.6883
   -31.6853 -31.6831 -31.6788 -31.6719 -31.6693 -31.6596 -31.6317 -31.6308
   -31.6117 -31.6116 -31.6086 -31.5993 -31.5879 -31.5796 -31.5692 -31.5634
   -31.5547 -31.5544 -31.5516 -31.5423 -31.5130 -31.5043 -31.5038 -31.4820
   -31.3792 -31.3428 -30.8410 -30.8409 -30.7568 -30.7567 -30.7173 -30.7173
   -19.2379 -16.3037 -15.8839 -15.7842 -15.6543 -15.5714 -15.5488 -15.4754
   -15.4173 -15.3837 -15.3275 -15.3045 -15.2906 -15.2752 -15.2403 -15.2147
   -15.1948 -15.1514 -15.1341 -15.1160 -15.0847 -15.0594 -15.0485 -15.0432
   -15.0375 -15.0031 -14.9986 -14.9137 -14.9039 -14.9004 -14.5723 -13.0216
   -13.0215  -9.1997  -7.0428  -6.4806  -4.5825  -3.5492  -3.0959  -3.0478
    -2.9944  -2.8538  -2.7940  -2.7282  -2.6922  -2.6495  -2.5990  -2.5649
    -2.5472  -2.4962  -2.4878  -2.4235  -2.4079  -2.3923  -2.3742  -2.3707
    -2.3624  -2.3251  -2.2902  -2.2765  -2.2696  -2.2602  -2.2461  -2.1995
    -2.1840  -2.1529  -2.1434  -2.1098  -2.0807  -2.0511  -1.9374  -1.9050
    -1.8809  -1.8160  -1.7523  -1.7465  -1.6653  -1.6434  -1.5873  -1.5835
    -1.5641  -1.5256  -1.3970  -1.2916  -1.2803  -1.2295  -1.1967  -1.1727
    -1.1100  -1.0594  -1.0047  -1.0020  -0.9121  -0.8646  -0.8387  -0.7364
    -0.7060  -0.6984  -0.5815  -0.5564  -0.5181  -0.5068  -0.5005  -0.4413
    -0.4338  -0.4094  -0.3273  -0.3085  -0.2814  -0.2698  -0.2075  -0.0470
    -0.0163   0.0279   0.1559   0.1944   0.3585   0.3895   0.4215   0.5278
     0.5728   0.6203   0.6249   0.7478   0.7577   0.8449   0.8554   0.8740
     0.9101   0.9218   1.8448   1.8461   1.9314   1.9317   3.5348   3.7774
     3.8431   3.8504   3.8877   4.0239   4.0676   4.1262   4.1296   4.1394
     4.1575

     the Fermi energy is     3.6048 ev

!    total energy              =   -2955.08674965 Ry
     estimated scf accuracy    <       0.00000005 Ry
     smearing contrib. (-TS)   =      -0.04073165 Ry
     internal energy E=F+TS    =   -2955.04601800 Ry

     The total energy is F=E-TS. E is the sum of the following terms:
     one-electron contribution =  -23873.25837402 Ry
     hartree contribution      =   12028.80970090 Ry
     xc contribution           =    -489.72637234 Ry
     ewald contribution        =    9379.12729744 Ry
     electric field correction =       0.00173003 Ry

     convergence has been achieved in  77 iterations

     Forces acting on atoms (cartesian axes, Ry/au):

     atom    1 type  1   force =    -0.00000440   -0.00025931    0.09339801
     atom    2 type  1   force =    -0.00015912   -0.00040829   -0.17805455
     atom    3 type  2   force =     0.00001343   -0.00034721   -0.02034442
     atom    4 type  2   force =    -0.00003583   -0.00190166    0.05857318
     atom    5 type  2   force =    -0.01019983   -0.00085002    0.00744833
     atom    6 type  2   force =     0.01153881   -0.00017670    0.00624917
     atom    7 type  1   force =    -0.00076418    0.00202715   -0.01055797
     atom    8 type  1   force =     0.00031736    0.00073743   -0.00334286
     atom    9 type  2   force =     0.00024554    0.00042514    0.00013576
     atom   10 type  2   force =    -0.00108453    0.00267846   -0.00406020
     atom   11 type  2   force =    -0.00026751    0.00006233    0.00001860
     atom   12 type  2   force =    -0.00004409   -0.00002089    0.00012058
     atom   13 type  1   force =     0.00074872    0.00071797    0.00038894
     atom   14 type  1   force =    -0.00093420   -0.00010316   -0.00008909
     atom   15 type  2   force =    -0.00012217   -0.00027105    0.00060512
     atom   16 type  2   force =     0.00031841    0.00055605    0.00001850
     atom   17 type  2   force =     0.00018750   -0.00028292    0.00031058
     atom   18 type  2   force =     0.00057608    0.00020451    0.00007459
     atom   19 type  1   force =    -0.00079042   -0.00061009    0.00006874
     atom   20 type  1   force =     0.00024151   -0.00041589   -0.00051617
     atom   21 type  2   force =     0.00002257   -0.00011387    0.10392509
     atom   22 type  2   force =    -0.00006744   -0.00136579    0.00075301
     atom   23 type  2   force =    -0.07055404   -0.00020972   -0.02694109
     atom   24 type  2   force =     0.07037491    0.00022809   -0.02698580
     atom   25 type  1   force =     0.00003557   -0.00021898    0.09300576
     atom   26 type  1   force =    -0.00023577   -0.00042944   -0.17802393
     atom   27 type  2   force =     0.00007016   -0.00024770   -0.01932922
     atom   28 type  2   force =     0.00002380   -0.00162706    0.05767118
     atom   29 type  2   force =    -0.01078428   -0.00046486    0.00807813
     atom   30 type  2   force =     0.01200314   -0.00007647    0.00683700
     atom   31 type  1   force =    -0.00063557    0.00609802   -0.01379554
     atom   32 type  1   force =     0.00028300   -0.00085247   -0.00339484
     atom   33 type  2   force =     0.00014268    0.00006679    0.00000414
     atom   34 type  2   force =    -0.00051025   -0.00107448   -0.00265765
     atom   35 type  2   force =    -0.00041051    0.00005405    0.00004475
     atom   36 type  2   force =     0.00004457    0.00000866    0.00026451
     atom   37 type  1   force =     0.00082634   -0.00082584    0.00021917
     atom   38 type  1   force =    -0.00088629    0.00033137   -0.00054318
     atom   39 type  2   force =    -0.00023430   -0.00016512   -0.00011857
     atom   40 type  2   force =     0.00033130    0.00014111    0.00041408
     atom   41 type  2   force =     0.00007354   -0.00025024   -0.00008524
     atom   42 type  2   force =     0.00050505   -0.00012140   -0.00044915
     atom   43 type  1   force =    -0.00106261    0.00002140    0.00035562
     atom   44 type  1   force =     0.00129290   -0.00059007   -0.00049491
     atom   45 type  2   force =     0.00000928   -0.00012420    0.10391999
     atom   46 type  2   force =    -0.07055051   -0.00017354   -0.02692109
     atom   47 type  2   force =     0.07037874    0.00026753   -0.02698949
     atom   48 type  3   force =    -0.00443895    0.01008359    0.00362535
     atom   49 type  4   force =     0.00056753    0.00157348   -0.00011943
     atom   50 type  5   force =    -0.00043735   -0.00096243   -0.00061373
     atom   51 type  5   force =     0.00017255   -0.00003836    0.00031467
     atom   52 type  5   force =     0.00629691   -0.01127886   -0.00369092
     atom   53 type  5   force =    -0.00104186    0.00046635    0.00096463
     atom   54 type  2   force =    -0.00001708    0.00023353    0.00026352
     atom   55 type  5   force =    -0.00071233   -0.00021141   -0.00008969
     atom   56 type  5   force =    -0.00065645    0.00008647    0.00013801

     Total force =     0.366242     Total SCF correction =     0.000737
  @ DRIVER MODE: Message from server: STATUS
  @ DRIVER MODE: Message from server: GETFORCE
  @ DRIVER MODE: Returning v,forces,stress,ensemble 

     Writing output data file ./calc.save/
  @ DRIVER MODE: Message from server: EXIT
  @ DRIVE MODE: Exiting  
 
     init_run     :     10.73s CPU     10.97s WALL (       1 calls)
     electrons    :   1154.49s CPU   1171.44s WALL (       1 calls)
     forces       :      2.31s CPU      2.40s WALL (       1 calls)

     Called by init_run:
     wfcinit      :      4.75s CPU      4.82s WALL (       1 calls)
     potinit      :      5.34s CPU      5.41s WALL (       1 calls)
     hinit0       :      0.29s CPU      0.31s WALL (       1 calls)

     Called by electrons:
     c_bands      :    975.69s CPU    982.52s WALL (      77 calls)
     sum_band     :    121.36s CPU    125.44s WALL (      77 calls)
     v_of_rho     :     42.68s CPU     44.81s WALL (      78 calls)
     newd         :     17.67s CPU     21.50s WALL (      78 calls)
     mix_rho      :      1.59s CPU      1.65s WALL (      77 calls)
     vdW_kernel   :      4.54s CPU      4.55s WALL (       1 calls)

     Called by c_bands:
     init_us_2    :      7.04s CPU      7.08s WALL (    1560 calls)
     cegterg      :    954.90s CPU    961.41s WALL (     788 calls)

     Called by *egterg:
     cdiaghg      :    153.11s CPU    153.82s WALL (    7394 calls)
     h_psi        :    518.92s CPU    523.47s WALL (    7406 calls)
     s_psi        :     67.93s CPU     68.14s WALL (    7406 calls)
     g_psi        :      1.84s CPU      1.85s WALL (    6608 calls)

     Called by h_psi:
     h_psi:calbec :     64.20s CPU     64.52s WALL (    7406 calls)
     vloc_psi     :    383.17s CPU    386.79s WALL (    7406 calls)
     add_vuspsi   :     68.18s CPU     68.53s WALL (    7406 calls)

     General routines
     calbec       :     85.53s CPU     85.92s WALL (    8216 calls)
     fft          :     21.91s CPU     22.10s WALL (    4914 calls)
     ffts         :      0.14s CPU      0.14s WALL (     155 calls)
     fftw         :    431.55s CPU    435.65s WALL ( 1026736 calls)
     interpolate  :      0.44s CPU      0.45s WALL (      78 calls)
     davcio       :      0.00s CPU      0.19s WALL (      10 calls)
 
     Parallel routines
 
     PWSCF        :  19m27.80s CPU  19m45.55s WALL

 
   This run was terminated on:   1:25:37  16Sep2021            

=------------------------------------------------------------------------------=
   JOB DONE.
=------------------------------------------------------------------------------=
