
     Program PWSCF v.6.7GPU starts on 26Sep2021 at  1: 4: 6 

     This program is part of the open-source Quantum ESPRESSO suite
     for quantum simulation of materials; please cite
         "P. Giannozzi et al., J. Phys.:Condens. Matter 21 395502 (2009);
         "P. Giannozzi et al., J. Phys.:Condens. Matter 29 465901 (2017);
         "P. Giannozzi et al., J. Chem. Phys. 152 154105 (2020);
          URL http://www.quantum-espresso.org", 
     in publications or presentations arising from this work. More details at
     http://www.quantum-espresso.org/quote

     Parallel version (MPI), running on     8 processors

     MPI processes distributed on     1 nodes
     R & G space division:  proc/nbgrp/npool/nimage =       8
     Reading input from /storage/home/hcoda1/3/ntian30/research/carbon/CxH_vib/H2O_calc/ads_slab/CH2OHN2HO_a/out_0019/pw.inp
Warning: card &CELL ignored
Warning: card   CELL_DYNAMICS='IPI', ignored
Warning: card / ignored

     Current dimensions of program PWSCF are:
     Max number of different atomic species (ntypx) = 10
     Max number of k-points (npk) =  40000
     Max angular momentum in pseudopotentials (lmaxx) =  3
     Presently no symmetry can be used with electric field

     Message from routine cell_base_init:
     DEPRECATED: use true lattice parameter, not A to a.u. conversion factor

     **************************************************************************
     Initializing libbeef V0.1.2 with the BEEF-vdW functional.
     Citation: Wellendorff et al., PRB 85, 235149 (2012).
     **************************************************************************


     IMPORTANT: XC functional enforced from input :
     Exchange-correlation= BEEF-VDW
                           (   1   4  43  14   2   0   0)
     Any further DFT definition will be discarded
     Please, verify this is what you really want


     Subspace diagonalization in iterative solution of the eigenvalue problem:
     one sub-group per band group will be used
     scalapack distributed-memory algorithm (size of sub-group:  2*  2 procs)

  @ DRIVER MODE: Connecting to 
 qe_1139763_2971670.sched-torque.pace.gatech.eduqx6cwacz_scratch
  using UNIX socket
  @ DRIVER MODE: Message from server: STATUS
  @ DRIVER MODE: Message from server: INIT
  @ DRIVER MODE: Receiving replica           0          -1
  @ DRIVER MODE: Receiving encoded integer          25
  @ DRIVER MODE:  SCF:  T  FORCE:  T  STRESS:  F  VC:  F  ENSEMBLE:  F
  @ DRIVER MODE:  SCF:  T  FORCE:  T  STRESS:  F  VC:  F  ENSEMBLE:  F
 
     Parallelization info
     --------------------
     sticks:   dense  smooth     PW     G-vecs:    dense   smooth      PW
     Min         409     164     47                70857    17926    2743
     Max         411     165     48                70858    17931    2751
     Sum        3275    1317    379               566857   143421   21985
 
     Using Slab Decomposition
 


     bravais-lattice index     =            0
     lattice parameter (alat)  =       1.8897  a.u.
     unit-cell volume          =    6658.9804 (a.u.)^3
     number of atoms/cell      =           56
     number of atomic types    =            5
     number of electrons       =       408.00
     number of Kohn-Sham states=          214
     kinetic-energy cutoff     =      29.3995  Ry
     charge density cutoff     =     293.9946  Ry
     scf convergence threshold =      7.3E-08
     mixing beta               =       0.0500
     number of iterations used =            8  plain     mixing
     Exchange-correlation= BEEF-VDW
                           (   1   4  43  14   2   0   0)

     celldm(1)=   1.889726  celldm(2)=   0.000000  celldm(3)=   0.000000
     celldm(4)=   0.000000  celldm(5)=   0.000000  celldm(6)=   0.000000

     crystal axes: (cart. coord. in units of alat)
               a(1) = (   6.579727   0.000000   0.000000 )  
               a(2) = (  -0.000775   5.961596   0.000000 )  
               a(3) = (   0.000000   0.000000  25.155947 )  

     reciprocal axes: (cart. coord. in units 2 pi/alat)
               b(1) = (  0.151982  0.000020  0.000000 )  
               b(2) = (  0.000000  0.167740  0.000000 )  
               b(3) = (  0.000000  0.000000  0.039752 )  


     PseudoPot. # 1 for C  read from file:
     /storage/coda1/p-amedford6/0/shared/rich_project_chbe-medford/medford-share/data/pseudos_module/espresso/nninc/pbe/van/C.UPF
     MD5 check sum: 1a69bf6b8db32088f5b2163dbdb77a27
     Pseudo is Ultrasoft, Zval =  4.0
     Generated by new atomic code, or converted to UPF format
     Using radial grid of  721 points,  4 beta functions with: 
                l(1) =   0
                l(2) =   0
                l(3) =   1
                l(4) =   1
     Q(r) pseudized with  8 coefficients,  rinner =    0.800   0.800   0.800


     PseudoPot. # 2 for H  read from file:
     /storage/coda1/p-amedford6/0/shared/rich_project_chbe-medford/medford-share/data/pseudos_module/espresso/nninc/pbe/van/H.UPF
     MD5 check sum: b5ee9d7bfd3a09ee7748110bda690ff7
     Pseudo is Ultrasoft, Zval =  1.0
     Generated by new atomic code, or converted to UPF format
     Using radial grid of  615 points,  1 beta functions with: 
                l(1) =   0
     Q(r) pseudized with  8 coefficients,  rinner =    0.800

     PseudoPot. # 3 for O  read from file:
     /storage/coda1/p-amedford6/0/shared/rich_project_chbe-medford/medford-share/data/pseudos_module/espresso/nninc/pbe/van/O.UPF
     MD5 check sum: 78c19812648e8988a0fe644b0f25305e
     Pseudo is Ultrasoft, Zval =  6.0
     Generated by new atomic code, or converted to UPF format
     Using radial grid of  737 points,  4 beta functions with: 
                l(1) =   0
                l(2) =   0
                l(3) =   1
                l(4) =   1
     Q(r) pseudized with  8 coefficients,  rinner =    0.800   0.800   0.800


     PseudoPot. # 4 for Ti read from file:
     /storage/coda1/p-amedford6/0/shared/rich_project_chbe-medford/medford-share/data/pseudos_module/espresso/nninc/pbe/van/Ti.UPF
     MD5 check sum: 8e4df49b7f0d34bbd5052bf3f5ea0213
     Pseudo is Ultrasoft, Zval = 12.0
     Generated by new atomic code, or converted to UPF format
     Using radial grid of  851 points,  6 beta functions with: 
                l(1) =   0
                l(2) =   0
                l(3) =   1
                l(4) =   1
                l(5) =   2
                l(6) =   2
     Q(r) pseudized with  8 coefficients,  rinner =    1.000   1.000   1.000
                                                       1.000   1.000

     PseudoPot. # 5 for N  read from file:
     /storage/coda1/p-amedford6/0/shared/rich_project_chbe-medford/medford-share/data/pseudos_module/espresso/nninc/pbe/van/N.UPF
     MD5 check sum: 90d10febe142ad51ac9d5be1deb811c4
     Pseudo is Ultrasoft, Zval =  5.0
     Generated by new atomic code, or converted to UPF format
     Using radial grid of  729 points,  4 beta functions with: 
                l(1) =   0
                l(2) =   0
                l(3) =   1
                l(4) =   1
     Q(r) pseudized with  8 coefficients,  rinner =    0.800   0.800   0.800


     atomic species   valence    mass     pseudopotential
        C1             4.00    12.01100     C ( 1.00)
        H1             1.00     1.00800     H ( 1.00)
        O1             6.00    15.99900     O ( 1.00)
        Ti1           12.00    47.86700     Ti( 1.00)
        N1             5.00    14.00700     N ( 1.00)

     No symmetry found



   Cartesian axes

     site n.     atom                  positions (alat units)
         1           C1  tau(   1) = (   4.4694424   3.1333252  19.5683752  )
         2           H1  tau(   2) = (   3.5225350   3.1610456  19.0510688  )
         3           H1  tau(   3) = (   5.8501665   2.9975095  17.9951248  )
         4           H1  tau(   4) = (   4.8161173   2.2403860  20.0673745  )
         5           O1  tau(   5) = (   0.0006271   0.0005054   7.9858123  )
         6           O1  tau(   6) = (   3.2906025   0.0005020   7.3038282  )
         7           O1  tau(   7) = (   4.5942328   1.4918067   9.2879030  )
         8           O1  tau(   8) = (   1.9868534   1.4903216   9.2879459  )
         9           O1  tau(   9) = (   3.2658522   0.0207364  11.3165592  )
        10           O1  tau(  10) = (   0.0022773   0.0111808  10.5833539  )
        11           O1  tau(  11) = (   1.2584498   1.5025451  12.6333345  )
        12           O1  tau(  12) = (   5.2827793   1.4879884  12.6049259  )
        13           O1  tau(  13) = (   6.5229081   0.0016576  14.6697044  )
        14           O1  tau(  14) = (   3.2671471   5.9223268  13.9212949  )
        15           O1  tau(  15) = (   4.5038562   1.5078053  16.0770842  )
        16           O1  tau(  16) = (   1.9713840   1.5400684  15.9915579  )
        17           O1  tau(  17) = (   3.2904802   0.0005063   4.7018136  )
        18           O1  tau(  18) = (   0.0083768   5.9574009  17.1899481  )
        19           O1  tau(  19) = (   1.3043587   1.4918075   6.0039043  )
        20           O1  tau(  20) = (   5.2767064   1.4903225   6.0039473  )
        21           O1  tau(  21) = (   0.0002396   2.9813036   7.9858123  )
        22           O1  tau(  22) = (   3.2902150   2.9813002   7.3038282  )
        23           O1  tau(  23) = (   4.5938453   4.4726049   9.2879030  )
        24           O1  tau(  24) = (   1.9864658   4.4711199   9.2879459  )
        25           O1  tau(  25) = (   3.2699439   2.9592623  11.2883102  )
        26           O1  tau(  26) = (   0.0014687   2.9942081  10.5424492  )
        27           O1  tau(  27) = (   1.2624719   4.4656417  12.6394791  )
        28           O1  tau(  28) = (   5.2897987   4.4902883  12.6063686  )
        29           O1  tau(  29) = (   6.5205774   2.9949485  14.6561412  )
        30           O1  tau(  30) = (   3.3050662   2.9767913  13.8748461  )
        31           O1  tau(  31) = (   4.4950179   4.4323158  16.0974573  )
        32           O1  tau(  32) = (   1.9671975   4.4064719  15.9829847  )
        33           O1  tau(  33) = (   3.2900926   2.9813045   4.7018136  )
        34           O1  tau(  34) = (   1.3039711   4.4726057   6.0039043  )
        35           O1  tau(  35) = (   5.2763189   4.4711207   6.0039473  )
        36           O1  tau(  36) = (   6.5424668   2.9800173  17.2949776  )
        37           Ti1 tau(  37) = (   0.0004258   2.9801865   6.0000000  )
        38           Ti1 tau(  38) = (   3.2906075   1.4906267   6.0002472  )
        39           Ti1 tau(  39) = (   3.3167600   3.1006338   9.2159236  )
        40           Ti1 tau(  40) = (   0.0391818   1.5627686   9.3440282  )
        41           Ti1 tau(  41) = (   6.5783755   3.0458713  12.7937554  )
        42           Ti1 tau(  42) = (   3.2318486   1.5634082  12.4209175  )
        43           Ti1 tau(  43) = (   3.2670811   2.9501284  15.6494465  )
        44           Ti1 tau(  44) = (   0.0280251   1.4030395  16.0254105  )
        45           Ti1 tau(  45) = (   0.0000382   5.9609847   6.0000000  )
        46           Ti1 tau(  46) = (   3.2902200   4.4714249   6.0002472  )
        47           Ti1 tau(  47) = (   3.3194908   0.1157174   9.1781592  )
        48           Ti1 tau(  48) = (   0.0398790   4.5135925   9.3581580  )
        49           Ti1 tau(  49) = (   6.5007586   0.0629955  12.6074658  )
        50           Ti1 tau(  50) = (   3.2510718   4.6571100  12.6672192  )
        51           Ti1 tau(  51) = (   3.3182601   5.9350673  16.2366838  )
        52           Ti1 tau(  52) = (   0.0495319   4.5308688  15.9870001  )
        53           N1  tau(  53) = (   5.2748021   5.2735043  20.4272172  )
        54           N1  tau(  54) = (   4.8779203   4.2732533  20.0576380  )
        55           O1  tau(  55) = (   3.0402417   5.9484128  18.0530970  )
        56           H1  tau(  56) = (   2.1234608   0.1014992  18.3542784  )

     number of k points=    10  Fermi-Dirac smearing, width (Ry)=  0.0073
                       cart. coord. in units 2pi/alat
        k(    1) = (   0.0000000   0.0000000   0.0000000), wk =   0.1250000
        k(    2) = (   0.0000000   0.0419351   0.0000000), wk =   0.2500000
        k(    3) = (   0.0000000  -0.0838702   0.0000000), wk =   0.1250000
        k(    4) = (   0.0379955   0.0000049   0.0000000), wk =   0.2500000
        k(    5) = (   0.0379955   0.0419400   0.0000000), wk =   0.2500000
        k(    6) = (   0.0379955  -0.0838652   0.0000000), wk =   0.2500000
        k(    7) = (   0.0379955  -0.0419301   0.0000000), wk =   0.2500000
        k(    8) = (  -0.0759910  -0.0000099   0.0000000), wk =   0.1250000
        k(    9) = (  -0.0759910   0.0419252   0.0000000), wk =   0.2500000
        k(   10) = (  -0.0759910  -0.0838800   0.0000000), wk =   0.1250000

     Dense  grid:   566857 G-vectors     FFT dimensions: (  72,  64, 270)

     Smooth grid:   143421 G-vectors     FFT dimensions: (  45,  40, 180)

     Estimated max dynamical RAM per process >     462.28 MB

     Estimated total dynamical RAM >       3.61 GB
     Cannot read rho : file not found

     Initial potential from superposition of free atoms

     starting charge  391.99915, renormalised to  408.00000

     negative rho (up, down):  1.414E-02 0.000E+00


     %%%%%%%%%%%%%%%%%%%%%%%%%%%%%%%%%%%%%%%%%%%%%%%%%%%%%%%%%%%%%%%%%%%%%%%%
     %                                                                      %
     % You are using vdW-DF, which was implemented by the Thonhauser group. %
     % Please cite the following two papers that made this development      %
     % possible and the two reviews that describe the various versions:     %
     %                                                                      %
     %   T. Thonhauser et al., PRL 115, 136402 (2015).                      %
     %   T. Thonhauser et al., PRB 76, 125112 (2007).                       %
     %   K. Berland et al., Rep. Prog. Phys. 78, 066501 (2015).             %
     %   D.C. Langreth et al., J. Phys.: Condens. Matter 21, 084203 (2009). %
     %                                                                      %
     %                                                                      %
     % If you are calculating the stress with vdW-DF, please also cite:     %
     %                                                                      %
     %   R. Sabatini et al., J. Phys.: Condens. Matter 24, 424209 (2012).   %
     %                                                                      %
     %%%%%%%%%%%%%%%%%%%%%%%%%%%%%%%%%%%%%%%%%%%%%%%%%%%%%%%%%%%%%%%%%%%%%%%%


 
     Adding external electric field

     Computed dipole along edir(3) : 
        Dipole              -15.5929 Ry au,        -39.6331 Debye
        Dipole field         -0.0294 Ry au, 
 
        Potential amp.        2.7277 Ry
        Total length         46.3494 bohr
 
     Starting wfcs are  308 atomic wfcs
  @ DRIVER MODE: Message from server: STATUS
  @ DRIVER MODE: Message from server: POSDATA
  @ DRIVER MODE: Reading and sharing cell 
  @ DRIVER MODE: Reading and sharing positions 
  @ DRIVER MODE: Received positions 

     total cpu time spent up to now is       17.3 secs

     Self-consistent Calculation

     iteration #  1     ecut=    29.40 Ry     beta= 0.05
     Davidson diagonalization with overlap
     c_bands:  3 eigenvalues not converged
     c_bands:  2 eigenvalues not converged
     c_bands:  1 eigenvalues not converged
     c_bands:  1 eigenvalues not converged
     c_bands:  4 eigenvalues not converged
     c_bands:  2 eigenvalues not converged
     ethr =  1.00E-05,  avg # of iterations = 31.2

     negative rho (up, down):  7.962E-03 0.000E+00
 
     Adding external electric field

     Computed dipole along edir(3) : 
        Dipole               61.2072 Ry au,        155.5733 Debye
        Dipole field          0.1155 Ry au, 
 
        Potential amp.      -10.7073 Ry
        Total length         46.3494 bohr
 

     total cpu time spent up to now is       88.7 secs

     total energy              =   -2234.28508146 Ry
     estimated scf accuracy    <    8817.35140255 Ry

     iteration #  2     ecut=    29.40 Ry     beta= 0.05
     Davidson diagonalization with overlap
     ethr =  1.00E-02,  avg # of iterations = 31.2

     negative rho (up, down):  2.168E-04 0.000E+00
 
     Adding external electric field

     Computed dipole along edir(3) : 
        Dipole                0.4429 Ry au,          1.1256 Debye
        Dipole field          0.0008 Ry au, 
 
        Potential amp.       -0.0775 Ry
        Total length         46.3494 bohr
 

     total cpu time spent up to now is      224.3 secs

     total energy              =   -2461.29871919 Ry
     estimated scf accuracy    <   79838.83761100 Ry

     iteration #  3     ecut=    29.40 Ry     beta= 0.05
     Davidson diagonalization with overlap
     ethr =  1.00E-02,  avg # of iterations = 16.4

     negative rho (up, down):  2.563E-04 0.000E+00
 
     Adding external electric field

     Computed dipole along edir(3) : 
        Dipole               -3.0007 Ry au,         -7.6271 Debye
        Dipole field         -0.0057 Ry au, 
 
        Potential amp.        0.5249 Ry
        Total length         46.3494 bohr
 

     total cpu time spent up to now is      289.5 secs

     total energy              =   -2993.90700764 Ry
     estimated scf accuracy    <    8099.69533310 Ry

     iteration #  4     ecut=    29.40 Ry     beta= 0.05
     Davidson diagonalization with overlap
     ethr =  1.00E-02,  avg # of iterations = 12.7

     negative rho (up, down):  2.650E-04 0.000E+00
 
     Adding external electric field

     Computed dipole along edir(3) : 
        Dipole               -4.3411 Ry au,        -11.0340 Debye
        Dipole field         -0.0082 Ry au, 
 
        Potential amp.        0.7594 Ry
        Total length         46.3494 bohr
 

     total cpu time spent up to now is      323.0 secs

     total energy              =   -3004.97509150 Ry
     estimated scf accuracy    <    2126.74826247 Ry

     iteration #  5     ecut=    29.40 Ry     beta= 0.05
     Davidson diagonalization with overlap
     ethr =  1.00E-02,  avg # of iterations =  2.2

     negative rho (up, down):  2.958E-04 0.000E+00
 
     Adding external electric field

     Computed dipole along edir(3) : 
        Dipole               -6.6310 Ry au,        -16.8544 Debye
        Dipole field         -0.0125 Ry au, 
 
        Potential amp.        1.1600 Ry
        Total length         46.3494 bohr
 

     total cpu time spent up to now is      347.0 secs

     total energy              =   -2970.41824910 Ry
     estimated scf accuracy    <    2041.88414974 Ry

     iteration #  6     ecut=    29.40 Ry     beta= 0.05
     Davidson diagonalization with overlap
     ethr =  1.00E-02,  avg # of iterations = 12.2

     negative rho (up, down):  2.912E-04 0.000E+00
 
     Adding external electric field

     Computed dipole along edir(3) : 
        Dipole               -5.0898 Ry au,        -12.9371 Debye
        Dipole field         -0.0096 Ry au, 
 
        Potential amp.        0.8904 Ry
        Total length         46.3494 bohr
 

     total cpu time spent up to now is      380.3 secs

     total energy              =   -3009.52399398 Ry
     estimated scf accuracy    <      33.53149643 Ry

     iteration #  7     ecut=    29.40 Ry     beta= 0.05
     Davidson diagonalization with overlap
     ethr =  8.22E-03,  avg # of iterations =  1.6

     negative rho (up, down):  2.956E-04 0.000E+00
 
     Adding external electric field

     Computed dipole along edir(3) : 
        Dipole               -2.2675 Ry au,         -5.7634 Debye
        Dipole field         -0.0043 Ry au, 
 
        Potential amp.        0.3967 Ry
        Total length         46.3494 bohr
 

     total cpu time spent up to now is      396.2 secs

     total energy              =   -3007.96973278 Ry
     estimated scf accuracy    <      26.04335497 Ry

     iteration #  8     ecut=    29.40 Ry     beta= 0.05
     Davidson diagonalization with overlap
     ethr =  6.38E-03,  avg # of iterations =  5.9

     negative rho (up, down):  3.002E-04 0.000E+00
 
     Adding external electric field

     Computed dipole along edir(3) : 
        Dipole               -2.1740 Ry au,         -5.5257 Debye
        Dipole field         -0.0041 Ry au, 
 
        Potential amp.        0.3803 Ry
        Total length         46.3494 bohr
 

     total cpu time spent up to now is      411.7 secs

     total energy              =   -3010.85754442 Ry
     estimated scf accuracy    <     307.85843146 Ry

     iteration #  9     ecut=    29.40 Ry     beta= 0.05
     Davidson diagonalization with overlap
     ethr =  6.38E-03,  avg # of iterations =  1.0

     negative rho (up, down):  3.195E-04 0.000E+00
 
     Adding external electric field

     Computed dipole along edir(3) : 
        Dipole               -2.2887 Ry au,         -5.8173 Debye
        Dipole field         -0.0043 Ry au, 
 
        Potential amp.        0.4004 Ry
        Total length         46.3494 bohr
 

     total cpu time spent up to now is      424.6 secs

     total energy              =   -3009.31811780 Ry
     estimated scf accuracy    <     461.28802251 Ry

     iteration # 10     ecut=    29.40 Ry     beta= 0.05
     Davidson diagonalization with overlap
     ethr =  6.38E-03,  avg # of iterations =  1.2

     negative rho (up, down):  4.288E-04 0.000E+00
 
     Adding external electric field

     Computed dipole along edir(3) : 
        Dipole               -5.7770 Ry au,        -14.6836 Debye
        Dipole field         -0.0109 Ry au, 
 
        Potential amp.        1.0106 Ry
        Total length         46.3494 bohr
 

     total cpu time spent up to now is      437.7 secs

     total energy              =   -2990.78749683 Ry
     estimated scf accuracy    <     278.05271626 Ry

     iteration # 11     ecut=    29.40 Ry     beta= 0.05
     Davidson diagonalization with overlap
     ethr =  6.38E-03,  avg # of iterations = 15.2

     negative rho (up, down):  4.113E-04 0.000E+00
 
     Adding external electric field

     Computed dipole along edir(3) : 
        Dipole               -0.5709 Ry au,         -1.4512 Debye
        Dipole field         -0.0011 Ry au, 
 
        Potential amp.        0.0999 Ry
        Total length         46.3494 bohr
 

     total cpu time spent up to now is      460.8 secs

     total energy              =   -2994.09225049 Ry
     estimated scf accuracy    <     193.74453618 Ry

     iteration # 12     ecut=    29.40 Ry     beta= 0.05
     Davidson diagonalization with overlap
     ethr =  6.38E-03,  avg # of iterations = 13.4

     negative rho (up, down):  4.152E-04 0.000E+00
 
     Adding external electric field

     Computed dipole along edir(3) : 
        Dipole               -1.0713 Ry au,         -2.7229 Debye
        Dipole field         -0.0020 Ry au, 
 
        Potential amp.        0.1874 Ry
        Total length         46.3494 bohr
 

     total cpu time spent up to now is      483.2 secs

     total energy              =   -3006.89679022 Ry
     estimated scf accuracy    <     147.51591156 Ry

     iteration # 13     ecut=    29.40 Ry     beta= 0.05
     Davidson diagonalization with overlap
     ethr =  6.38E-03,  avg # of iterations =  1.6

     negative rho (up, down):  3.993E-04 0.000E+00
 
     Adding external electric field

     Computed dipole along edir(3) : 
        Dipole               -0.0272 Ry au,         -0.0691 Debye
        Dipole field         -0.0001 Ry au, 
 
        Potential amp.        0.0048 Ry
        Total length         46.3494 bohr
 

     total cpu time spent up to now is      496.7 secs

     total energy              =   -3009.41617183 Ry
     estimated scf accuracy    <     132.53540860 Ry

     iteration # 14     ecut=    29.40 Ry     beta= 0.05
     Davidson diagonalization with overlap
     ethr =  6.38E-03,  avg # of iterations =  2.4

     negative rho (up, down):  3.768E-04 0.000E+00
 
     Adding external electric field

     Computed dipole along edir(3) : 
        Dipole               -1.5978 Ry au,         -4.0611 Debye
        Dipole field         -0.0030 Ry au, 
 
        Potential amp.        0.2795 Ry
        Total length         46.3494 bohr
 

     total cpu time spent up to now is      510.8 secs

     total energy              =   -3004.28209804 Ry
     estimated scf accuracy    <     325.69444650 Ry

     iteration # 15     ecut=    29.40 Ry     beta= 0.05
     Davidson diagonalization with overlap
     ethr =  6.38E-03,  avg # of iterations = 14.8

     negative rho (up, down):  3.809E-04 0.000E+00
 
     Adding external electric field

     Computed dipole along edir(3) : 
        Dipole               -3.0947 Ry au,         -7.8659 Debye
        Dipole field         -0.0058 Ry au, 
 
        Potential amp.        0.5414 Ry
        Total length         46.3494 bohr
 

     total cpu time spent up to now is      531.6 secs

     total energy              =   -3000.23078567 Ry
     estimated scf accuracy    <     421.62425354 Ry

     iteration # 16     ecut=    29.40 Ry     beta= 0.05
     Davidson diagonalization with overlap
     ethr =  6.38E-03,  avg # of iterations =  3.5

     negative rho (up, down):  4.371E-04 0.000E+00
 
     Adding external electric field

     Computed dipole along edir(3) : 
        Dipole               -2.8477 Ry au,         -7.2382 Debye
        Dipole field         -0.0054 Ry au, 
 
        Potential amp.        0.4982 Ry
        Total length         46.3494 bohr
 

     total cpu time spent up to now is      546.1 secs

     total energy              =   -3004.92088129 Ry
     estimated scf accuracy    <      17.63416655 Ry

     iteration # 17     ecut=    29.40 Ry     beta= 0.05
     Davidson diagonalization with overlap
     ethr =  4.32E-03,  avg # of iterations =  1.9

     negative rho (up, down):  4.987E-04 0.000E+00
 
     Adding external electric field

     Computed dipole along edir(3) : 
        Dipole               -2.5233 Ry au,         -6.4137 Debye
        Dipole field         -0.0048 Ry au, 
 
        Potential amp.        0.4414 Ry
        Total length         46.3494 bohr
 

     total cpu time spent up to now is      560.0 secs

     total energy              =   -3004.09091771 Ry
     estimated scf accuracy    <      14.90475211 Ry

     iteration # 18     ecut=    29.40 Ry     beta= 0.05
     Davidson diagonalization with overlap
     ethr =  3.65E-03,  avg # of iterations =  5.0

     negative rho (up, down):  5.134E-04 0.000E+00
 
     Adding external electric field

     Computed dipole along edir(3) : 
        Dipole               -2.4008 Ry au,         -6.1023 Debye
        Dipole field         -0.0045 Ry au, 
 
        Potential amp.        0.4200 Ry
        Total length         46.3494 bohr
 

     total cpu time spent up to now is      576.3 secs

     total energy              =   -3005.53843230 Ry
     estimated scf accuracy    <       2.71717201 Ry

     iteration # 19     ecut=    29.40 Ry     beta= 0.05
     Davidson diagonalization with overlap
     c_bands:  5 eigenvalues not converged
     c_bands:  1 eigenvalues not converged
     c_bands:  4 eigenvalues not converged
     ethr =  6.66E-04,  avg # of iterations = 13.6

     negative rho (up, down):  5.133E-04 0.000E+00
 
     Adding external electric field

     Computed dipole along edir(3) : 
        Dipole               -2.3854 Ry au,         -6.0631 Debye
        Dipole field         -0.0045 Ry au, 
 
        Potential amp.        0.4173 Ry
        Total length         46.3494 bohr
 

     total cpu time spent up to now is      597.5 secs

     total energy              =   -3005.64823034 Ry
     estimated scf accuracy    <       3.35246875 Ry

     iteration # 20     ecut=    29.40 Ry     beta= 0.05
     Davidson diagonalization with overlap
     ethr =  6.66E-04,  avg # of iterations =  1.6

     negative rho (up, down):  6.252E-04 0.000E+00
 
     Adding external electric field

     Computed dipole along edir(3) : 
        Dipole               -2.3198 Ry au,         -5.8963 Debye
        Dipole field         -0.0044 Ry au, 
 
        Potential amp.        0.4058 Ry
        Total length         46.3494 bohr
 

     total cpu time spent up to now is      611.1 secs

     total energy              =   -3005.56836598 Ry
     estimated scf accuracy    <       2.86365404 Ry

     iteration # 21     ecut=    29.40 Ry     beta= 0.05
     Davidson diagonalization with overlap
     ethr =  6.66E-04,  avg # of iterations =  2.3

     negative rho (up, down):  1.050E-03 0.000E+00
 
     Adding external electric field

     Computed dipole along edir(3) : 
        Dipole               -1.5543 Ry au,         -3.9506 Debye
        Dipole field         -0.0029 Ry au, 
 
        Potential amp.        0.2719 Ry
        Total length         46.3494 bohr
 

     total cpu time spent up to now is      624.8 secs

     total energy              =   -3005.50051179 Ry
     estimated scf accuracy    <       2.91320666 Ry

     iteration # 22     ecut=    29.40 Ry     beta= 0.05
     Davidson diagonalization with overlap
     ethr =  6.66E-04,  avg # of iterations = 13.8

     negative rho (up, down):  9.834E-04 0.000E+00
 
     Adding external electric field

     Computed dipole along edir(3) : 
        Dipole               -2.1059 Ry au,         -5.3527 Debye
        Dipole field         -0.0040 Ry au, 
 
        Potential amp.        0.3684 Ry
        Total length         46.3494 bohr
 

     total cpu time spent up to now is      646.9 secs

     total energy              =   -3005.70020496 Ry
     estimated scf accuracy    <      14.21299295 Ry

     iteration # 23     ecut=    29.40 Ry     beta= 0.05
     Davidson diagonalization with overlap
     c_bands:  2 eigenvalues not converged
     ethr =  6.66E-04,  avg # of iterations =  6.8

     negative rho (up, down):  9.881E-04 0.000E+00
 
     Adding external electric field

     Computed dipole along edir(3) : 
        Dipole               -1.8081 Ry au,         -4.5957 Debye
        Dipole field         -0.0034 Ry au, 
 
        Potential amp.        0.3163 Ry
        Total length         46.3494 bohr
 

     total cpu time spent up to now is      662.7 secs

     total energy              =   -3005.85175524 Ry
     estimated scf accuracy    <      35.87157083 Ry

     iteration # 24     ecut=    29.40 Ry     beta= 0.05
     Davidson diagonalization with overlap
     ethr =  6.66E-04,  avg # of iterations =  1.3

     negative rho (up, down):  8.465E-04 0.000E+00
 
     Adding external electric field

     Computed dipole along edir(3) : 
        Dipole               -1.6532 Ry au,         -4.2021 Debye
        Dipole field         -0.0031 Ry au, 
 
        Potential amp.        0.2892 Ry
        Total length         46.3494 bohr
 

     total cpu time spent up to now is      676.0 secs

     total energy              =   -3005.21476601 Ry
     estimated scf accuracy    <      64.59473059 Ry

     iteration # 25     ecut=    29.40 Ry     beta= 0.05
     Davidson diagonalization with overlap
     ethr =  6.66E-04,  avg # of iterations =  2.5

     negative rho (up, down):  9.396E-04 0.000E+00
 
     Adding external electric field

     Computed dipole along edir(3) : 
        Dipole               -1.3090 Ry au,         -3.3272 Debye
        Dipole field         -0.0025 Ry au, 
 
        Potential amp.        0.2290 Ry
        Total length         46.3494 bohr
 

     total cpu time spent up to now is      690.0 secs

     total energy              =   -3005.33067807 Ry
     estimated scf accuracy    <       4.49605209 Ry

     iteration # 26     ecut=    29.40 Ry     beta= 0.05
     Davidson diagonalization with overlap
     ethr =  6.66E-04,  avg # of iterations = 12.1

     negative rho (up, down):  1.186E-03 0.000E+00
 
     Adding external electric field

     Computed dipole along edir(3) : 
        Dipole               -1.0235 Ry au,         -2.6014 Debye
        Dipole field         -0.0019 Ry au, 
 
        Potential amp.        0.1790 Ry
        Total length         46.3494 bohr
 

     total cpu time spent up to now is      711.8 secs

     total energy              =   -3005.65168967 Ry
     estimated scf accuracy    <       6.91499846 Ry

     iteration # 27     ecut=    29.40 Ry     beta= 0.05
     Davidson diagonalization with overlap
     ethr =  6.66E-04,  avg # of iterations =  5.2

     negative rho (up, down):  1.272E-03 0.000E+00
 
     Adding external electric field

     Computed dipole along edir(3) : 
        Dipole               -0.3683 Ry au,         -0.9360 Debye
        Dipole field         -0.0007 Ry au, 
 
        Potential amp.        0.0644 Ry
        Total length         46.3494 bohr
 

     total cpu time spent up to now is      726.7 secs

     total energy              =   -3005.18055951 Ry
     estimated scf accuracy    <      95.57925410 Ry

     iteration # 28     ecut=    29.40 Ry     beta= 0.05
     Davidson diagonalization with overlap
     ethr =  6.66E-04,  avg # of iterations =  8.3

     negative rho (up, down):  1.871E-03 0.000E+00
 
     Adding external electric field

     Computed dipole along edir(3) : 
        Dipole                0.2842 Ry au,          0.7225 Debye
        Dipole field          0.0005 Ry au, 
 
        Potential amp.       -0.0497 Ry
        Total length         46.3494 bohr
 

     total cpu time spent up to now is      742.9 secs

     total energy              =   -3005.32698178 Ry
     estimated scf accuracy    <      14.59228212 Ry

     iteration # 29     ecut=    29.40 Ry     beta= 0.05
     Davidson diagonalization with overlap
     ethr =  6.66E-04,  avg # of iterations =  2.2

     negative rho (up, down):  2.088E-03 0.000E+00
 
     Adding external electric field

     Computed dipole along edir(3) : 
        Dipole                0.3017 Ry au,          0.7668 Debye
        Dipole field          0.0006 Ry au, 
 
        Potential amp.       -0.0528 Ry
        Total length         46.3494 bohr
 

     total cpu time spent up to now is      756.9 secs

     total energy              =   -3005.17640823 Ry
     estimated scf accuracy    <      17.39138708 Ry

     iteration # 30     ecut=    29.40 Ry     beta= 0.05
     Davidson diagonalization with overlap
     ethr =  6.66E-04,  avg # of iterations =  2.0

     negative rho (up, down):  1.993E-03 0.000E+00
 
     Adding external electric field

     Computed dipole along edir(3) : 
        Dipole                0.0934 Ry au,          0.2375 Debye
        Dipole field          0.0002 Ry au, 
 
        Potential amp.       -0.0163 Ry
        Total length         46.3494 bohr
 

     total cpu time spent up to now is      771.0 secs

     total energy              =   -3005.22190629 Ry
     estimated scf accuracy    <       3.07732555 Ry

     iteration # 31     ecut=    29.40 Ry     beta= 0.05
     Davidson diagonalization with overlap
     ethr =  6.66E-04,  avg # of iterations =  1.0

     negative rho (up, down):  1.680E-03 0.000E+00
 
     Adding external electric field

     Computed dipole along edir(3) : 
        Dipole               -0.6099 Ry au,         -1.5502 Debye
        Dipole field         -0.0012 Ry au, 
 
        Potential amp.        0.1067 Ry
        Total length         46.3494 bohr
 

     total cpu time spent up to now is      784.0 secs

     total energy              =   -3005.12661814 Ry
     estimated scf accuracy    <       1.90266085 Ry

     iteration # 32     ecut=    29.40 Ry     beta= 0.05
     Davidson diagonalization with overlap
     ethr =  4.66E-04,  avg # of iterations =  2.0

     negative rho (up, down):  1.633E-03 0.000E+00
 
     Adding external electric field

     Computed dipole along edir(3) : 
        Dipole               -0.6259 Ry au,         -1.5909 Debye
        Dipole field         -0.0012 Ry au, 
 
        Potential amp.        0.1095 Ry
        Total length         46.3494 bohr
 

     total cpu time spent up to now is      798.0 secs

     total energy              =   -3005.20147668 Ry
     estimated scf accuracy    <       8.06626249 Ry

     iteration # 33     ecut=    29.40 Ry     beta= 0.05
     Davidson diagonalization with overlap
     ethr =  4.66E-04,  avg # of iterations =  1.0

     negative rho (up, down):  1.579E-03 0.000E+00
 
     Adding external electric field

     Computed dipole along edir(3) : 
        Dipole               -0.6384 Ry au,         -1.6226 Debye
        Dipole field         -0.0012 Ry au, 
 
        Potential amp.        0.1117 Ry
        Total length         46.3494 bohr
 

     total cpu time spent up to now is      811.0 secs

     total energy              =   -3005.19926740 Ry
     estimated scf accuracy    <       6.83277372 Ry

     iteration # 34     ecut=    29.40 Ry     beta= 0.05
     Davidson diagonalization with overlap
     ethr =  4.66E-04,  avg # of iterations =  1.0

     negative rho (up, down):  1.608E-03 0.000E+00
 
     Adding external electric field

     Computed dipole along edir(3) : 
        Dipole               -0.5121 Ry au,         -1.3017 Debye
        Dipole field         -0.0010 Ry au, 
 
        Potential amp.        0.0896 Ry
        Total length         46.3494 bohr
 

     total cpu time spent up to now is      823.9 secs

     total energy              =   -3005.18067617 Ry
     estimated scf accuracy    <       4.75948022 Ry

     iteration # 35     ecut=    29.40 Ry     beta= 0.05
     Davidson diagonalization with overlap
     ethr =  4.66E-04,  avg # of iterations =  1.4

     negative rho (up, down):  1.774E-03 0.000E+00
 
     Adding external electric field

     Computed dipole along edir(3) : 
        Dipole               -0.4021 Ry au,         -1.0220 Debye
        Dipole field         -0.0008 Ry au, 
 
        Potential amp.        0.0703 Ry
        Total length         46.3494 bohr
 

     total cpu time spent up to now is      837.3 secs

     total energy              =   -3005.16643481 Ry
     estimated scf accuracy    <       1.58333353 Ry

     iteration # 36     ecut=    29.40 Ry     beta= 0.05
     Davidson diagonalization with overlap
     ethr =  3.88E-04,  avg # of iterations =  5.2

     negative rho (up, down):  2.059E-03 0.000E+00
 
     Adding external electric field

     Computed dipole along edir(3) : 
        Dipole               -0.1951 Ry au,         -0.4959 Debye
        Dipole field         -0.0004 Ry au, 
 
        Potential amp.        0.0341 Ry
        Total length         46.3494 bohr
 

     total cpu time spent up to now is      852.5 secs

     total energy              =   -3005.15759759 Ry
     estimated scf accuracy    <       0.73669513 Ry

     iteration # 37     ecut=    29.40 Ry     beta= 0.05
     Davidson diagonalization with overlap
     c_bands:  2 eigenvalues not converged
     c_bands:  1 eigenvalues not converged
     c_bands:  1 eigenvalues not converged
     c_bands:  1 eigenvalues not converged
     c_bands:  1 eigenvalues not converged
     ethr =  1.81E-04,  avg # of iterations = 14.2

     negative rho (up, down):  2.233E-03 0.000E+00
 
     Adding external electric field

     Computed dipole along edir(3) : 
        Dipole               -0.0351 Ry au,         -0.0893 Debye
        Dipole field         -0.0001 Ry au, 
 
        Potential amp.        0.0061 Ry
        Total length         46.3494 bohr
 

     total cpu time spent up to now is      882.1 secs

     total energy              =   -3005.15961829 Ry
     estimated scf accuracy    <       0.19458160 Ry

     iteration # 38     ecut=    29.40 Ry     beta= 0.05
     Davidson diagonalization with overlap
     c_bands:  2 eigenvalues not converged
     c_bands:  2 eigenvalues not converged
     c_bands:  2 eigenvalues not converged
     c_bands:  2 eigenvalues not converged
     c_bands:  1 eigenvalues not converged
     c_bands:  3 eigenvalues not converged
     c_bands:  1 eigenvalues not converged
     ethr =  4.77E-05,  avg # of iterations = 19.0

     negative rho (up, down):  2.440E-03 0.000E+00
 
     Adding external electric field

     Computed dipole along edir(3) : 
        Dipole                0.0014 Ry au,          0.0035 Debye
        Dipole field          0.0000 Ry au, 
 
        Potential amp.       -0.0002 Ry
        Total length         46.3494 bohr
 

     total cpu time spent up to now is      907.3 secs

     total energy              =   -3005.15768505 Ry
     estimated scf accuracy    <       0.08432344 Ry

     iteration # 39     ecut=    29.40 Ry     beta= 0.05
     Davidson diagonalization with overlap
     c_bands:  2 eigenvalues not converged
     c_bands:  1 eigenvalues not converged
     c_bands:  3 eigenvalues not converged
     c_bands:  1 eigenvalues not converged
     c_bands:  1 eigenvalues not converged
     c_bands:  1 eigenvalues not converged
     ethr =  2.07E-05,  avg # of iterations = 16.6

     negative rho (up, down):  3.536E-03 0.000E+00
 
     Adding external electric field

     Computed dipole along edir(3) : 
        Dipole                0.1545 Ry au,          0.3927 Debye
        Dipole field          0.0003 Ry au, 
 
        Potential amp.       -0.0270 Ry
        Total length         46.3494 bohr
 

     total cpu time spent up to now is      950.9 secs

     total energy              =   -3005.15262930 Ry
     estimated scf accuracy    <       0.04801499 Ry

     iteration # 40     ecut=    29.40 Ry     beta= 0.05
     Davidson diagonalization with overlap
     c_bands:  3 eigenvalues not converged
     c_bands:  5 eigenvalues not converged
     c_bands:  2 eigenvalues not converged
     c_bands:  2 eigenvalues not converged
     c_bands:  4 eigenvalues not converged
     c_bands:  2 eigenvalues not converged
     ethr =  1.18E-05,  avg # of iterations = 30.6

     negative rho (up, down):  3.838E-03 0.000E+00
 
     Adding external electric field

     Computed dipole along edir(3) : 
        Dipole                0.3067 Ry au,          0.7796 Debye
        Dipole field          0.0006 Ry au, 
 
        Potential amp.       -0.0537 Ry
        Total length         46.3494 bohr
 

     total cpu time spent up to now is     1008.0 secs

     total energy              =   -3005.15457422 Ry
     estimated scf accuracy    <       0.06825271 Ry

     iteration # 41     ecut=    29.40 Ry     beta= 0.05
     Davidson diagonalization with overlap
     c_bands:  1 eigenvalues not converged
     c_bands:  2 eigenvalues not converged
     c_bands:  1 eigenvalues not converged
     ethr =  1.18E-05,  avg # of iterations = 11.4

     negative rho (up, down):  4.960E-03 0.000E+00
 
     Adding external electric field

     Computed dipole along edir(3) : 
        Dipole                0.5493 Ry au,          1.3961 Debye
        Dipole field          0.0010 Ry au, 
 
        Potential amp.       -0.0961 Ry
        Total length         46.3494 bohr
 

     total cpu time spent up to now is     1026.3 secs

     total energy              =   -3005.14638907 Ry
     estimated scf accuracy    <       0.02901313 Ry

     iteration # 42     ecut=    29.40 Ry     beta= 0.05
     Davidson diagonalization with overlap
     c_bands:  4 eigenvalues not converged
     c_bands:  4 eigenvalues not converged
     c_bands:  1 eigenvalues not converged
     c_bands:  2 eigenvalues not converged
     c_bands:  4 eigenvalues not converged
     c_bands:  3 eigenvalues not converged
     c_bands:  2 eigenvalues not converged
     c_bands:  3 eigenvalues not converged
     ethr =  7.11E-06,  avg # of iterations = 22.8

     negative rho (up, down):  5.187E-03 0.000E+00
 
     Adding external electric field

     Computed dipole along edir(3) : 
        Dipole                0.4880 Ry au,          1.2405 Debye
        Dipole field          0.0009 Ry au, 
 
        Potential amp.       -0.0854 Ry
        Total length         46.3494 bohr
 

     total cpu time spent up to now is     1080.4 secs

     total energy              =   -3005.15469692 Ry
     estimated scf accuracy    <       0.05848830 Ry

     iteration # 43     ecut=    29.40 Ry     beta= 0.05
     Davidson diagonalization with overlap
     c_bands:  1 eigenvalues not converged
     c_bands:  3 eigenvalues not converged
     c_bands:  2 eigenvalues not converged
     c_bands:  1 eigenvalues not converged
     c_bands:  2 eigenvalues not converged
     c_bands:  2 eigenvalues not converged
     c_bands:  3 eigenvalues not converged
     c_bands:  3 eigenvalues not converged
     ethr =  7.11E-06,  avg # of iterations = 19.8

     negative rho (up, down):  7.585E-03 0.000E+00
 
     Adding external electric field

     Computed dipole along edir(3) : 
        Dipole                0.5417 Ry au,          1.3770 Debye
        Dipole field          0.0010 Ry au, 
 
        Potential amp.       -0.0948 Ry
        Total length         46.3494 bohr
 

     total cpu time spent up to now is     1104.8 secs

     total energy              =   -3005.15166684 Ry
     estimated scf accuracy    <       0.02031488 Ry

     iteration # 44     ecut=    29.40 Ry     beta= 0.05
     Davidson diagonalization with overlap
     c_bands:  3 eigenvalues not converged
     c_bands:  4 eigenvalues not converged
     c_bands:  2 eigenvalues not converged
     c_bands:  4 eigenvalues not converged
     c_bands:  4 eigenvalues not converged
     c_bands:  4 eigenvalues not converged
     c_bands:  5 eigenvalues not converged
     c_bands:  1 eigenvalues not converged
     c_bands:  2 eigenvalues not converged
     c_bands:  1 eigenvalues not converged
     ethr =  4.98E-06,  avg # of iterations = 22.0

     negative rho (up, down):  8.196E-03 0.000E+00
 
     Adding external electric field

     Computed dipole along edir(3) : 
        Dipole                0.5739 Ry au,          1.4587 Debye
        Dipole field          0.0011 Ry au, 
 
        Potential amp.       -0.1004 Ry
        Total length         46.3494 bohr
 

     total cpu time spent up to now is     1141.8 secs

     total energy              =   -3005.15820592 Ry
     estimated scf accuracy    <       0.02136436 Ry

     iteration # 45     ecut=    29.40 Ry     beta= 0.05
     Davidson diagonalization with overlap
     c_bands:  1 eigenvalues not converged
     c_bands:  3 eigenvalues not converged
     c_bands:  1 eigenvalues not converged
     ethr =  4.98E-06,  avg # of iterations = 15.3

     negative rho (up, down):  8.216E-03 0.000E+00
 
     Adding external electric field

     Computed dipole along edir(3) : 
        Dipole                0.5660 Ry au,          1.4387 Debye
        Dipole field          0.0011 Ry au, 
 
        Potential amp.       -0.0990 Ry
        Total length         46.3494 bohr
 

     total cpu time spent up to now is     1161.0 secs

     total energy              =   -3005.15690973 Ry
     estimated scf accuracy    <       0.01005741 Ry

     iteration # 46     ecut=    29.40 Ry     beta= 0.05
     Davidson diagonalization with overlap
     c_bands:  1 eigenvalues not converged
     c_bands:  1 eigenvalues not converged
     c_bands:  1 eigenvalues not converged
     c_bands:  3 eigenvalues not converged
     c_bands:  1 eigenvalues not converged
     c_bands:  2 eigenvalues not converged
     ethr =  2.47E-06,  avg # of iterations = 18.3

     negative rho (up, down):  7.927E-03 0.000E+00
 
     Adding external electric field

     Computed dipole along edir(3) : 
        Dipole                0.5403 Ry au,          1.3733 Debye
        Dipole field          0.0010 Ry au, 
 
        Potential amp.       -0.0945 Ry
        Total length         46.3494 bohr
 

     total cpu time spent up to now is     1190.2 secs

     total energy              =   -3005.15842772 Ry
     estimated scf accuracy    <       0.00294099 Ry

     iteration # 47     ecut=    29.40 Ry     beta= 0.05
     Davidson diagonalization with overlap
     c_bands:  1 eigenvalues not converged
     c_bands:  1 eigenvalues not converged
     ethr =  7.21E-07,  avg # of iterations =  5.5

     negative rho (up, down):  7.844E-03 0.000E+00
 
     Adding external electric field

     Computed dipole along edir(3) : 
        Dipole                0.4611 Ry au,          1.1721 Debye
        Dipole field          0.0009 Ry au, 
 
        Potential amp.       -0.0807 Ry
        Total length         46.3494 bohr
 

     total cpu time spent up to now is     1205.5 secs

     total energy              =   -3005.15824437 Ry
     estimated scf accuracy    <       0.00261792 Ry

     iteration # 48     ecut=    29.40 Ry     beta= 0.05
     Davidson diagonalization with overlap
     c_bands:  2 eigenvalues not converged
     c_bands:  2 eigenvalues not converged
     c_bands:  2 eigenvalues not converged
     c_bands:  1 eigenvalues not converged
     c_bands:  2 eigenvalues not converged
     c_bands:  2 eigenvalues not converged
     c_bands:  1 eigenvalues not converged
     c_bands:  3 eigenvalues not converged
     ethr =  6.42E-07,  avg # of iterations = 19.7

     negative rho (up, down):  9.409E-03 0.000E+00
 
     Adding external electric field

     Computed dipole along edir(3) : 
        Dipole                0.4380 Ry au,          1.1132 Debye
        Dipole field          0.0008 Ry au, 
 
        Potential amp.       -0.0766 Ry
        Total length         46.3494 bohr
 

     total cpu time spent up to now is     1242.8 secs

     total energy              =   -3005.15870227 Ry
     estimated scf accuracy    <       0.00230880 Ry

     iteration # 49     ecut=    29.40 Ry     beta= 0.05
     Davidson diagonalization with overlap
     c_bands:  1 eigenvalues not converged
     c_bands:  3 eigenvalues not converged
     c_bands:  1 eigenvalues not converged
     ethr =  5.66E-07,  avg # of iterations = 15.5

     negative rho (up, down):  9.478E-03 0.000E+00
 
     Adding external electric field

     Computed dipole along edir(3) : 
        Dipole                0.4482 Ry au,          1.1393 Debye
        Dipole field          0.0008 Ry au, 
 
        Potential amp.       -0.0784 Ry
        Total length         46.3494 bohr
 

     total cpu time spent up to now is     1273.4 secs

     total energy              =   -3005.15910171 Ry
     estimated scf accuracy    <       0.00485006 Ry

     iteration # 50     ecut=    29.40 Ry     beta= 0.05
     Davidson diagonalization with overlap
     c_bands:  3 eigenvalues not converged
     ethr =  5.66E-07,  avg # of iterations =  2.9

     negative rho (up, down):  8.663E-03 0.000E+00
 
     Adding external electric field

     Computed dipole along edir(3) : 
        Dipole                0.4688 Ry au,          1.1915 Debye
        Dipole field          0.0009 Ry au, 
 
        Potential amp.       -0.0820 Ry
        Total length         46.3494 bohr
 

     total cpu time spent up to now is     1287.3 secs

     total energy              =   -3005.15838634 Ry
     estimated scf accuracy    <       0.00444319 Ry

     iteration # 51     ecut=    29.40 Ry     beta= 0.05
     Davidson diagonalization with overlap
     ethr =  5.66E-07,  avg # of iterations =  8.2

     negative rho (up, down):  8.816E-03 0.000E+00
 
     Adding external electric field

     Computed dipole along edir(3) : 
        Dipole                0.4269 Ry au,          1.0850 Debye
        Dipole field          0.0008 Ry au, 
 
        Potential amp.       -0.0747 Ry
        Total length         46.3494 bohr
 

     total cpu time spent up to now is     1308.3 secs

     total energy              =   -3005.15866690 Ry
     estimated scf accuracy    <       0.00324576 Ry

     iteration # 52     ecut=    29.40 Ry     beta= 0.05
     Davidson diagonalization with overlap
     ethr =  5.66E-07,  avg # of iterations =  1.1

     negative rho (up, down):  8.884E-03 0.000E+00
 
     Adding external electric field

     Computed dipole along edir(3) : 
        Dipole                0.4424 Ry au,          1.1244 Debye
        Dipole field          0.0008 Ry au, 
 
        Potential amp.       -0.0774 Ry
        Total length         46.3494 bohr
 

     total cpu time spent up to now is     1321.4 secs

     total energy              =   -3005.15854271 Ry
     estimated scf accuracy    <       0.00262598 Ry

     iteration # 53     ecut=    29.40 Ry     beta= 0.05
     Davidson diagonalization with overlap
     ethr =  5.66E-07,  avg # of iterations =  3.7

     negative rho (up, down):  9.074E-03 0.000E+00
 
     Adding external electric field

     Computed dipole along edir(3) : 
        Dipole                0.4638 Ry au,          1.1787 Debye
        Dipole field          0.0009 Ry au, 
 
        Potential amp.       -0.0811 Ry
        Total length         46.3494 bohr
 

     total cpu time spent up to now is     1336.3 secs

     total energy              =   -3005.15850534 Ry
     estimated scf accuracy    <       0.00185971 Ry

     iteration # 54     ecut=    29.40 Ry     beta= 0.05
     Davidson diagonalization with overlap
     ethr =  4.56E-07,  avg # of iterations =  2.1

     negative rho (up, down):  1.078E-02 0.000E+00
 
     Adding external electric field

     Computed dipole along edir(3) : 
        Dipole                0.4924 Ry au,          1.2517 Debye
        Dipole field          0.0009 Ry au, 
 
        Potential amp.       -0.0861 Ry
        Total length         46.3494 bohr
 

     total cpu time spent up to now is     1350.2 secs

     total energy              =   -3005.15867556 Ry
     estimated scf accuracy    <       0.00118921 Ry

     iteration # 55     ecut=    29.40 Ry     beta= 0.05
     Davidson diagonalization with overlap
     c_bands:  2 eigenvalues not converged
     c_bands:  4 eigenvalues not converged
     c_bands:  4 eigenvalues not converged
     c_bands:  3 eigenvalues not converged
     c_bands:  3 eigenvalues not converged
     c_bands:  4 eigenvalues not converged
     c_bands:  1 eigenvalues not converged
     c_bands:  3 eigenvalues not converged
     c_bands:  2 eigenvalues not converged
     ethr =  2.91E-07,  avg # of iterations = 19.6

     negative rho (up, down):  1.059E-02 0.000E+00
 
     Adding external electric field

     Computed dipole along edir(3) : 
        Dipole                0.4685 Ry au,          1.1908 Debye
        Dipole field          0.0009 Ry au, 
 
        Potential amp.       -0.0820 Ry
        Total length         46.3494 bohr
 

     total cpu time spent up to now is     1407.9 secs

     total energy              =   -3005.15975899 Ry
     estimated scf accuracy    <       0.00865126 Ry

     iteration # 56     ecut=    29.40 Ry     beta= 0.05
     Davidson diagonalization with overlap
     c_bands:  1 eigenvalues not converged
     c_bands:  1 eigenvalues not converged
     ethr =  2.91E-07,  avg # of iterations =  8.9

     negative rho (up, down):  9.539E-03 0.000E+00
 
     Adding external electric field

     Computed dipole along edir(3) : 
        Dipole                0.4631 Ry au,          1.1770 Debye
        Dipole field          0.0009 Ry au, 
 
        Potential amp.       -0.0810 Ry
        Total length         46.3494 bohr
 

     total cpu time spent up to now is     1424.4 secs

     total energy              =   -3005.15799169 Ry
     estimated scf accuracy    <       0.00746906 Ry

     iteration # 57     ecut=    29.40 Ry     beta= 0.05
     Davidson diagonalization with overlap
     c_bands:  1 eigenvalues not converged
     c_bands:  1 eigenvalues not converged
     ethr =  2.91E-07,  avg # of iterations = 14.8

     negative rho (up, down):  9.518E-03 0.000E+00
 
     Adding external electric field

     Computed dipole along edir(3) : 
        Dipole                0.4677 Ry au,          1.1888 Debye
        Dipole field          0.0009 Ry au, 
 
        Potential amp.       -0.0818 Ry
        Total length         46.3494 bohr
 

     total cpu time spent up to now is     1454.3 secs

     total energy              =   -3005.15854902 Ry
     estimated scf accuracy    <       0.00103280 Ry

     iteration # 58     ecut=    29.40 Ry     beta= 0.05
     Davidson diagonalization with overlap
     ethr =  2.53E-07,  avg # of iterations =  2.1

     negative rho (up, down):  1.077E-02 0.000E+00
 
     Adding external electric field

     Computed dipole along edir(3) : 
        Dipole                0.4674 Ry au,          1.1880 Debye
        Dipole field          0.0009 Ry au, 
 
        Potential amp.       -0.0818 Ry
        Total length         46.3494 bohr
 

     total cpu time spent up to now is     1468.8 secs

     total energy              =   -3005.15860330 Ry
     estimated scf accuracy    <       0.00063863 Ry

     iteration # 59     ecut=    29.40 Ry     beta= 0.05
     Davidson diagonalization with overlap
     c_bands:  2 eigenvalues not converged
     c_bands:  1 eigenvalues not converged
     c_bands:  2 eigenvalues not converged
     c_bands:  1 eigenvalues not converged
     c_bands:  3 eigenvalues not converged
     ethr =  1.57E-07,  avg # of iterations = 15.4

     negative rho (up, down):  1.186E-02 0.000E+00
 
     Adding external electric field

     Computed dipole along edir(3) : 
        Dipole                0.4782 Ry au,          1.2155 Debye
        Dipole field          0.0009 Ry au, 
 
        Potential amp.       -0.0837 Ry
        Total length         46.3494 bohr
 

     total cpu time spent up to now is     1500.6 secs

     total energy              =   -3005.15883936 Ry
     estimated scf accuracy    <       0.00314060 Ry

     iteration # 60     ecut=    29.40 Ry     beta= 0.05
     Davidson diagonalization with overlap
     c_bands:  1 eigenvalues not converged
     c_bands:  2 eigenvalues not converged
     ethr =  1.57E-07,  avg # of iterations =  8.0

     negative rho (up, down):  1.360E-02 0.000E+00
 
     Adding external electric field

     Computed dipole along edir(3) : 
        Dipole                0.4966 Ry au,          1.2621 Debye
        Dipole field          0.0009 Ry au, 
 
        Potential amp.       -0.0869 Ry
        Total length         46.3494 bohr
 

     total cpu time spent up to now is     1517.9 secs

     total energy              =   -3005.15838986 Ry
     estimated scf accuracy    <       0.00167352 Ry

     iteration # 61     ecut=    29.40 Ry     beta= 0.05
     Davidson diagonalization with overlap
     c_bands:  1 eigenvalues not converged
     ethr =  1.57E-07,  avg # of iterations =  8.7

     negative rho (up, down):  1.360E-02 0.000E+00
 
     Adding external electric field

     Computed dipole along edir(3) : 
        Dipole                0.4974 Ry au,          1.2642 Debye
        Dipole field          0.0009 Ry au, 
 
        Potential amp.       -0.0870 Ry
        Total length         46.3494 bohr
 

     total cpu time spent up to now is     1545.9 secs

     total energy              =   -3005.15895999 Ry
     estimated scf accuracy    <       0.00060063 Ry

     iteration # 62     ecut=    29.40 Ry     beta= 0.05
     Davidson diagonalization with overlap
     ethr =  1.47E-07,  avg # of iterations =  1.1

     negative rho (up, down):  1.378E-02 0.000E+00
 
     Adding external electric field

     Computed dipole along edir(3) : 
        Dipole                0.4975 Ry au,          1.2644 Debye
        Dipole field          0.0009 Ry au, 
 
        Potential amp.       -0.0870 Ry
        Total length         46.3494 bohr
 

     total cpu time spent up to now is     1566.5 secs

     total energy              =   -3005.15897532 Ry
     estimated scf accuracy    <       0.00062171 Ry

     iteration # 63     ecut=    29.40 Ry     beta= 0.05
     Davidson diagonalization with overlap
     ethr =  1.47E-07,  avg # of iterations =  1.0

     negative rho (up, down):  1.376E-02 0.000E+00
 
     Adding external electric field

     Computed dipole along edir(3) : 
        Dipole                0.4961 Ry au,          1.2609 Debye
        Dipole field          0.0009 Ry au, 
 
        Potential amp.       -0.0868 Ry
        Total length         46.3494 bohr
 

     total cpu time spent up to now is     1579.5 secs

     total energy              =   -3005.15887471 Ry
     estimated scf accuracy    <       0.00065944 Ry

     iteration # 64     ecut=    29.40 Ry     beta= 0.05
     Davidson diagonalization with overlap
     ethr =  1.47E-07,  avg # of iterations =  3.5

     negative rho (up, down):  1.380E-02 0.000E+00
 
     Adding external electric field

     Computed dipole along edir(3) : 
        Dipole                0.4996 Ry au,          1.2698 Debye
        Dipole field          0.0009 Ry au, 
 
        Potential amp.       -0.0874 Ry
        Total length         46.3494 bohr
 

     total cpu time spent up to now is     1594.1 secs

     total energy              =   -3005.15885075 Ry
     estimated scf accuracy    <       0.00032602 Ry

     iteration # 65     ecut=    29.40 Ry     beta= 0.05
     Davidson diagonalization with overlap
     ethr =  7.99E-08,  avg # of iterations =  2.3

     negative rho (up, down):  1.387E-02 0.000E+00
 
     Adding external electric field

     Computed dipole along edir(3) : 
        Dipole                0.4999 Ry au,          1.2705 Debye
        Dipole field          0.0009 Ry au, 
 
        Potential amp.       -0.0874 Ry
        Total length         46.3494 bohr
 

     total cpu time spent up to now is     1609.6 secs

     total energy              =   -3005.15888905 Ry
     estimated scf accuracy    <       0.00011490 Ry

     iteration # 66     ecut=    29.40 Ry     beta= 0.05
     Davidson diagonalization with overlap
     ethr =  2.82E-08,  avg # of iterations =  1.8

     negative rho (up, down):  1.378E-02 0.000E+00
 
     Adding external electric field

     Computed dipole along edir(3) : 
        Dipole                0.4946 Ry au,          1.2572 Debye
        Dipole field          0.0009 Ry au, 
 
        Potential amp.       -0.0865 Ry
        Total length         46.3494 bohr
 

     total cpu time spent up to now is     1623.5 secs

     total energy              =   -3005.15888789 Ry
     estimated scf accuracy    <       0.00012507 Ry

     iteration # 67     ecut=    29.40 Ry     beta= 0.05
     Davidson diagonalization with overlap
     ethr =  2.82E-08,  avg # of iterations =  1.7

     negative rho (up, down):  1.385E-02 0.000E+00
 
     Adding external electric field

     Computed dipole along edir(3) : 
        Dipole                0.4927 Ry au,          1.2523 Debye
        Dipole field          0.0009 Ry au, 
 
        Potential amp.       -0.0862 Ry
        Total length         46.3494 bohr
 

     total cpu time spent up to now is     1637.8 secs

     total energy              =   -3005.15888164 Ry
     estimated scf accuracy    <       0.00009636 Ry

     iteration # 68     ecut=    29.40 Ry     beta= 0.05
     Davidson diagonalization with overlap
     ethr =  2.36E-08,  avg # of iterations =  5.0

     negative rho (up, down):  1.401E-02 0.000E+00
 
     Adding external electric field

     Computed dipole along edir(3) : 
        Dipole                0.4957 Ry au,          1.2599 Debye
        Dipole field          0.0009 Ry au, 
 
        Potential amp.       -0.0867 Ry
        Total length         46.3494 bohr
 

     total cpu time spent up to now is     1654.1 secs

     total energy              =   -3005.15888971 Ry
     estimated scf accuracy    <       0.00003337 Ry

     iteration # 69     ecut=    29.40 Ry     beta= 0.05
     Davidson diagonalization with overlap
     c_bands:  1 eigenvalues not converged
     ethr =  8.18E-09,  avg # of iterations =  6.5

     negative rho (up, down):  1.414E-02 0.000E+00
 
     Adding external electric field

     Computed dipole along edir(3) : 
        Dipole                0.4950 Ry au,          1.2581 Debye
        Dipole field          0.0009 Ry au, 
 
        Potential amp.       -0.0866 Ry
        Total length         46.3494 bohr
 

     total cpu time spent up to now is     1674.3 secs

     total energy              =   -3005.15889496 Ry
     estimated scf accuracy    <       0.00002957 Ry

     iteration # 70     ecut=    29.40 Ry     beta= 0.05
     Davidson diagonalization with overlap
     ethr =  7.25E-09,  avg # of iterations =  4.5

     negative rho (up, down):  1.422E-02 0.000E+00
 
     Adding external electric field

     Computed dipole along edir(3) : 
        Dipole                0.4947 Ry au,          1.2573 Debye
        Dipole field          0.0009 Ry au, 
 
        Potential amp.       -0.0865 Ry
        Total length         46.3494 bohr
 

     total cpu time spent up to now is     1690.4 secs

     total energy              =   -3005.15889852 Ry
     estimated scf accuracy    <       0.00001555 Ry

     iteration # 71     ecut=    29.40 Ry     beta= 0.05
     Davidson diagonalization with overlap
     ethr =  3.81E-09,  avg # of iterations =  5.0

     negative rho (up, down):  1.433E-02 0.000E+00
 
     Adding external electric field

     Computed dipole along edir(3) : 
        Dipole                0.4999 Ry au,          1.2707 Debye
        Dipole field          0.0009 Ry au, 
 
        Potential amp.       -0.0875 Ry
        Total length         46.3494 bohr
 

     total cpu time spent up to now is     1712.9 secs

     total energy              =   -3005.15889685 Ry
     estimated scf accuracy    <       0.00003650 Ry

     iteration # 72     ecut=    29.40 Ry     beta= 0.05
     Davidson diagonalization with overlap
     ethr =  3.81E-09,  avg # of iterations =  4.5

     negative rho (up, down):  1.437E-02 0.000E+00
 
     Adding external electric field

     Computed dipole along edir(3) : 
        Dipole                0.4994 Ry au,          1.2693 Debye
        Dipole field          0.0009 Ry au, 
 
        Potential amp.       -0.0874 Ry
        Total length         46.3494 bohr
 

     total cpu time spent up to now is     1737.4 secs

     total energy              =   -3005.15890338 Ry
     estimated scf accuracy    <       0.00001001 Ry

     iteration # 73     ecut=    29.40 Ry     beta= 0.05
     Davidson diagonalization with overlap
     ethr =  2.45E-09,  avg # of iterations =  5.3

     negative rho (up, down):  1.430E-02 0.000E+00
 
     Adding external electric field

     Computed dipole along edir(3) : 
        Dipole                0.4993 Ry au,          1.2690 Debye
        Dipole field          0.0009 Ry au, 
 
        Potential amp.       -0.0873 Ry
        Total length         46.3494 bohr
 

     total cpu time spent up to now is     1754.2 secs

     total energy              =   -3005.15890581 Ry
     estimated scf accuracy    <       0.00000505 Ry

     iteration # 74     ecut=    29.40 Ry     beta= 0.05
     Davidson diagonalization with overlap
     ethr =  1.24E-09,  avg # of iterations =  2.1

     negative rho (up, down):  1.424E-02 0.000E+00
 
     Adding external electric field

     Computed dipole along edir(3) : 
        Dipole                0.4987 Ry au,          1.2676 Debye
        Dipole field          0.0009 Ry au, 
 
        Potential amp.       -0.0872 Ry
        Total length         46.3494 bohr
 

     total cpu time spent up to now is     1768.4 secs

     total energy              =   -3005.15890614 Ry
     estimated scf accuracy    <       0.00000461 Ry

     iteration # 75     ecut=    29.40 Ry     beta= 0.05
     Davidson diagonalization with overlap
     ethr =  1.13E-09,  avg # of iterations =  5.0

     negative rho (up, down):  1.431E-02 0.000E+00
 
     Adding external electric field

     Computed dipole along edir(3) : 
        Dipole                0.4989 Ry au,          1.2682 Debye
        Dipole field          0.0009 Ry au, 
 
        Potential amp.       -0.0873 Ry
        Total length         46.3494 bohr
 

     total cpu time spent up to now is     1786.1 secs

     total energy              =   -3005.15890850 Ry
     estimated scf accuracy    <       0.00000165 Ry

     iteration # 76     ecut=    29.40 Ry     beta= 0.05
     Davidson diagonalization with overlap
     ethr =  4.03E-10,  avg # of iterations =  5.0

     negative rho (up, down):  1.439E-02 0.000E+00
 
     Adding external electric field

     Computed dipole along edir(3) : 
        Dipole                0.4999 Ry au,          1.2705 Debye
        Dipole field          0.0009 Ry au, 
 
        Potential amp.       -0.0874 Ry
        Total length         46.3494 bohr
 

     total cpu time spent up to now is     1809.4 secs

     total energy              =   -3005.15890971 Ry
     estimated scf accuracy    <       0.00000662 Ry

     iteration # 77     ecut=    29.40 Ry     beta= 0.05
     Davidson diagonalization with overlap
     ethr =  4.03E-10,  avg # of iterations =  4.9

     negative rho (up, down):  1.442E-02 0.000E+00
 
     Adding external electric field

     Computed dipole along edir(3) : 
        Dipole                0.4994 Ry au,          1.2694 Debye
        Dipole field          0.0009 Ry au, 
 
        Potential amp.       -0.0874 Ry
        Total length         46.3494 bohr
 

     total cpu time spent up to now is     1828.3 secs

     total energy              =   -3005.15891094 Ry
     estimated scf accuracy    <       0.00000151 Ry

     iteration # 78     ecut=    29.40 Ry     beta= 0.05
     Davidson diagonalization with overlap
     ethr =  3.71E-10,  avg # of iterations =  4.4

     negative rho (up, down):  1.442E-02 0.000E+00
 
     Adding external electric field

     Computed dipole along edir(3) : 
        Dipole                0.4988 Ry au,          1.2678 Debye
        Dipole field          0.0009 Ry au, 
 
        Potential amp.       -0.0873 Ry
        Total length         46.3494 bohr
 

     total cpu time spent up to now is     1846.3 secs

     total energy              =   -3005.15891210 Ry
     estimated scf accuracy    <       0.00000048 Ry

     iteration # 79     ecut=    29.40 Ry     beta= 0.05
     Davidson diagonalization with overlap
     ethr =  1.18E-10,  avg # of iterations =  5.0

     negative rho (up, down):  1.442E-02 0.000E+00
 
     Adding external electric field

     Computed dipole along edir(3) : 
        Dipole                0.4982 Ry au,          1.2662 Debye
        Dipole field          0.0009 Ry au, 
 
        Potential amp.       -0.0871 Ry
        Total length         46.3494 bohr
 

     total cpu time spent up to now is     1862.1 secs

     total energy              =   -3005.15891300 Ry
     estimated scf accuracy    <       0.00000025 Ry

     iteration # 80     ecut=    29.40 Ry     beta= 0.05
     Davidson diagonalization with overlap
     ethr =  6.07E-11,  avg # of iterations =  6.6

     negative rho (up, down):  1.443E-02 0.000E+00
 
     Adding external electric field

     Computed dipole along edir(3) : 
        Dipole                0.4986 Ry au,          1.2674 Debye
        Dipole field          0.0009 Ry au, 
 
        Potential amp.       -0.0872 Ry
        Total length         46.3494 bohr
 

     total cpu time spent up to now is     1892.7 secs

     total energy              =   -3005.15891368 Ry
     estimated scf accuracy    <       0.00000055 Ry

     iteration # 81     ecut=    29.40 Ry     beta= 0.05
     Davidson diagonalization with overlap
     ethr =  6.07E-11,  avg # of iterations =  7.2

     negative rho (up, down):  1.443E-02 0.000E+00
 
     Adding external electric field

     Computed dipole along edir(3) : 
        Dipole                0.4988 Ry au,          1.2679 Debye
        Dipole field          0.0009 Ry au, 
 
        Potential amp.       -0.0873 Ry
        Total length         46.3494 bohr
 

     total cpu time spent up to now is     1918.7 secs

     total energy              =   -3005.15891447 Ry
     estimated scf accuracy    <       0.00000009 Ry

     iteration # 82     ecut=    29.40 Ry     beta= 0.05
     Davidson diagonalization with overlap
     ethr =  2.18E-11,  avg # of iterations =  4.4

     negative rho (up, down):  1.448E-02 0.000E+00
 
     Adding external electric field

     Computed dipole along edir(3) : 
        Dipole                0.4980 Ry au,          1.2658 Debye
        Dipole field          0.0009 Ry au, 
 
        Potential amp.       -0.0871 Ry
        Total length         46.3494 bohr
 

     total cpu time spent up to now is     1934.9 secs

     End of self-consistent calculation

          k = 0.0000 0.0000 0.0000 ( 18029 PWs)   bands (ev):

   -56.1936 -56.1472 -55.6581 -55.6444 -55.6297 -55.5796 -55.5708 -55.5275
   -55.5140 -55.4875 -55.4433 -55.4008 -55.3962 -55.2721 -54.8179 -54.7840
   -32.6078 -32.4568 -32.4081 -32.3738 -32.2795 -32.2342 -32.1472 -32.0848
   -32.0753 -32.0230 -31.9597 -31.9403 -31.9393 -31.8866 -31.8839 -31.8794
   -31.8646 -31.8434 -31.8318 -31.8092 -31.8001 -31.7944 -31.7581 -31.7314
   -31.7279 -31.7108 -31.7052 -31.7027 -31.7006 -31.6921 -31.6861 -31.6795
   -31.6670 -31.6491 -31.6458 -31.6045 -31.5956 -31.5882 -31.5627 -31.5260
   -31.4858 -31.4741 -31.2128 -31.1572 -31.1328 -31.0297 -30.9448 -30.8338
   -20.6105 -16.8436 -16.4299 -16.3572 -16.2142 -15.9841 -15.8473 -15.7619
   -15.5311 -15.5145 -15.4024 -15.3929 -15.3500 -15.2378 -15.2346 -15.1877
   -15.1835 -15.1545 -15.1529 -15.1192 -15.1142 -15.1074 -15.0401 -15.0124
   -14.9847 -14.9406 -14.8845 -14.8458 -14.7759 -14.7715 -14.7261 -14.5213
   -13.7552 -13.3185 -13.2094  -6.3524  -5.3704  -4.8375  -4.2715  -4.0206
    -3.8818  -3.6659  -3.5702  -3.5621  -3.3990  -3.3703  -3.2733  -3.0540
    -2.9213  -2.8385  -2.8080  -2.7481  -2.7268  -2.6581  -2.6212  -2.6131
    -2.5695  -2.5227  -2.4684  -2.4560  -2.4441  -2.4010  -2.3860  -2.3543
    -2.3375  -2.3339  -2.2946  -2.1428  -2.1344  -2.0763  -2.0675  -2.0223
    -2.0158  -1.9859  -1.9737  -1.9293  -1.8924  -1.7523  -1.7362  -1.7214
    -1.6543  -1.4354  -1.4009  -1.3041  -1.2459  -1.2113  -1.1141  -1.1127
    -1.0807  -1.0512  -1.0019  -0.9214  -0.8877  -0.8316  -0.7863  -0.7817
    -0.7297  -0.6630  -0.6163  -0.5545  -0.5178  -0.4832  -0.4022  -0.3490
    -0.2814  -0.2635  -0.2097  -0.1764  -0.0862  -0.0494  -0.0225   0.0312
     0.0563   0.1199   0.1240   0.1650   0.1820   0.2630   0.2920   0.3087
     0.3591   0.3842   0.3975   0.4639   0.5263   0.5667   0.6140   0.7158
     0.7562   0.7859   0.8562   0.9324   1.1002   1.2006   1.2296   1.4249
     1.4573   1.7544   1.8024   1.8545   3.1046   3.2693   3.5571   3.6378
     3.6836   3.7143   3.8112   3.8418   3.9948   4.0414

          k = 0.0000 0.0419 0.0000 ( 17933 PWs)   bands (ev):

   -56.1903 -56.1504 -55.6573 -55.6434 -55.6270 -55.5765 -55.5734 -55.5305
   -55.5146 -55.4883 -55.4395 -55.4044 -55.3950 -55.2731 -54.8129 -54.7889
   -32.5548 -32.4545 -32.4098 -32.3614 -32.2919 -32.2897 -32.1010 -32.0307
   -32.0260 -31.9878 -31.9532 -31.9158 -31.8859 -31.8777 -31.8763 -31.8736
   -31.8435 -31.8376 -31.8340 -31.7999 -31.7989 -31.7971 -31.7742 -31.7528
   -31.7493 -31.7387 -31.7318 -31.7241 -31.7222 -31.7084 -31.7020 -31.7003
   -31.6852 -31.6466 -31.6437 -31.6182 -31.6109 -31.5976 -31.5873 -31.5488
   -31.5139 -31.4736 -31.1591 -31.1534 -31.1362 -31.0172 -30.9573 -30.8905
   -20.6101 -16.8077 -16.4208 -16.2291 -16.1015 -15.8839 -15.7534 -15.6784
   -15.5557 -15.4649 -15.4550 -15.4225 -15.3310 -15.3049 -15.2531 -15.1958
   -15.1691 -15.1671 -15.1578 -15.1392 -15.1220 -15.0789 -15.0659 -15.0591
   -15.0058 -14.9335 -14.9167 -14.9014 -14.8510 -14.8330 -14.7844 -14.5820
   -13.7588 -13.3260 -13.2507  -6.3188  -5.3898  -4.8097  -4.2552  -4.0197
    -3.6989  -3.4867  -3.4491  -3.4343  -3.4040  -3.2091  -3.1328  -2.8630
    -2.8086  -2.8011  -2.7844  -2.7232  -2.6913  -2.6626  -2.6498  -2.6336
    -2.6177  -2.5767  -2.5437  -2.5097  -2.4857  -2.4668  -2.4364  -2.4202
    -2.3775  -2.3516  -2.3225  -2.3090  -2.2667  -2.2483  -2.2103  -2.1651
    -2.0119  -1.9957  -1.9696  -1.9141  -1.8775  -1.8413  -1.6857  -1.5401
    -1.4456  -1.4036  -1.3558  -1.2966  -1.1755  -1.0965  -1.0335  -0.9603
    -0.9351  -0.9103  -0.8898  -0.8623  -0.8436  -0.7771  -0.7164  -0.6695
    -0.6487  -0.6021  -0.5804  -0.5510  -0.5229  -0.4926  -0.4483  -0.4188
    -0.3939  -0.3706  -0.3264  -0.2666  -0.2442  -0.1959  -0.1681  -0.0460
    -0.0059   0.0415   0.1015   0.1193   0.1518   0.1722   0.1915   0.2204
     0.2554   0.3462   0.3736   0.4157   0.5239   0.5549   0.5757   0.5962
     0.6344   0.7163   0.7313   0.7944   0.8762   1.0058   1.3039   1.4116
     1.5341   1.6987   1.7197   1.8234   3.3702   3.3736   3.5487   3.7649
     3.8243   3.8608   3.8703   3.9324   3.9453   3.9570

          k = 0.0000-0.0839 0.0000 ( 17884 PWs)   bands (ev):

   -56.1863 -56.1542 -55.6566 -55.6425 -55.6241 -55.5763 -55.5728 -55.5341
   -55.5152 -55.4892 -55.4347 -55.4091 -55.3939 -55.2742 -54.8011 -54.8006
   -32.4521 -32.4371 -32.4122 -32.4098 -32.3402 -32.3130 -32.0353 -31.9504
   -31.9479 -31.9421 -31.9178 -31.8848 -31.8822 -31.8691 -31.8680 -31.8526
   -31.8436 -31.8287 -31.8165 -31.8056 -31.8038 -31.7925 -31.7895 -31.7854
   -31.7820 -31.7813 -31.7631 -31.7521 -31.7501 -31.7462 -31.7180 -31.7019
   -31.7004 -31.6741 -31.6475 -31.6341 -31.6240 -31.6213 -31.5880 -31.5855
   -31.5256 -31.4731 -31.1447 -31.1445 -31.0283 -31.0266 -30.9869 -30.9861
   -20.6097 -16.7714 -16.4146 -15.9075 -15.9021 -15.8609 -15.7749 -15.6209
   -15.6154 -15.5231 -15.4642 -15.4150 -15.3935 -15.3114 -15.3108 -15.2422
   -15.2145 -15.1507 -15.1088 -15.0979 -15.0538 -15.0505 -15.0460 -15.0407
   -15.0238 -14.9914 -14.9815 -14.9655 -14.9256 -14.9168 -14.8535 -14.6749
   -13.7623 -13.3139 -13.3128  -6.2832  -5.4116  -4.7829  -4.2378  -4.0194
    -3.4951  -3.2405  -3.2393  -3.1078  -3.0946  -3.0620  -3.0289  -3.0076
    -2.9935  -2.8819  -2.8766  -2.7915  -2.7810  -2.7699  -2.7391  -2.7314
    -2.7052  -2.6464  -2.6213  -2.5842  -2.5754  -2.5421  -2.4824  -2.4184
    -2.3723  -2.3444  -2.3123  -2.2997  -2.2478  -2.2235  -2.0531  -2.0377
    -1.8790  -1.8106  -1.7794  -1.7662  -1.6993  -1.6360  -1.5842  -1.5192
    -1.4898  -1.4746  -1.4074  -1.2795  -1.2200  -1.1825  -1.1325  -1.1181
    -1.0905  -1.0730  -1.0458  -1.0129  -0.9867  -0.9105  -0.8165  -0.6434
    -0.5800  -0.5568  -0.4404  -0.4307  -0.3967  -0.3732  -0.3472  -0.3188
    -0.2861  -0.2768  -0.2546  -0.2378  -0.2116  -0.1942  -0.1615  -0.1345
    -0.1084  -0.0719  -0.0250   0.0335   0.0438   0.1163   0.1261   0.1516
     0.1752   0.2181   0.2769   0.2797   0.3103   0.3847   0.4820   0.5068
     0.5315   0.5979   0.6243   0.8368   0.9237   1.0409   1.1206   1.5558
     1.5763   1.6407   1.6513   1.7929   3.5723   3.6005   3.7053   3.7264
     3.7975   3.8149   3.8329   3.9075   3.9879   4.0170

          k = 0.0380 0.0000 0.0000 ( 17913 PWs)   bands (ev):

   -56.1935 -56.1471 -55.6579 -55.6443 -55.6296 -55.5795 -55.5707 -55.5274
   -55.5139 -55.4873 -55.4432 -55.4007 -55.3961 -55.2720 -54.8178 -54.7839
   -32.6084 -32.4566 -32.4080 -32.3719 -32.2791 -32.2339 -32.1474 -32.0850
   -32.0772 -32.0279 -31.9491 -31.9454 -31.9404 -31.8860 -31.8820 -31.8758
   -31.8639 -31.8434 -31.8361 -31.8002 -31.7921 -31.7905 -31.7579 -31.7288
   -31.7219 -31.7107 -31.7079 -31.7031 -31.6976 -31.6921 -31.6858 -31.6800
   -31.6670 -31.6662 -31.6459 -31.6047 -31.5955 -31.5923 -31.5624 -31.5259
   -31.4858 -31.4751 -31.2124 -31.1595 -31.1311 -31.0295 -30.9446 -30.8336
   -20.6104 -16.8334 -16.4234 -16.2611 -16.1290 -15.9113 -15.8085 -15.7524
   -15.6719 -15.5820 -15.4309 -15.3629 -15.3564 -15.3143 -15.3100 -15.2942
   -15.2198 -15.2022 -15.1830 -15.1353 -15.0849 -15.0269 -15.0088 -14.9534
   -14.9377 -14.8876 -14.8512 -14.8444 -14.8276 -14.7931 -14.7720 -14.5193
   -13.7552 -13.3157 -13.2091  -6.3527  -5.3710  -4.8407  -4.2712  -4.0109
    -3.6000  -3.4905  -3.3988  -3.3766  -3.3191  -3.3053  -3.2011  -3.0780
    -3.0341  -3.0119  -2.9459  -2.9260  -2.8654  -2.7595  -2.6526  -2.5930
    -2.5169  -2.4698  -2.4242  -2.4073  -2.3506  -2.3353  -2.3134  -2.2987
    -2.2558  -2.1995  -2.1610  -2.1206  -2.0925  -2.0874  -2.0635  -2.0347
[...]

   -56.1902 -56.1503 -55.6572 -55.6434 -55.6270 -55.5764 -55.5733 -55.5305
   -55.5145 -55.4882 -55.4395 -55.4044 -55.3950 -55.2731 -54.8128 -54.7889
   -32.5554 -32.4544 -32.4098 -32.3598 -32.2916 -32.2897 -32.1014 -32.0311
   -32.0276 -31.9923 -31.9444 -31.9169 -31.8933 -31.8764 -31.8740 -31.8721
   -31.8444 -31.8379 -31.8343 -31.7978 -31.7952 -31.7855 -31.7740 -31.7529
   -31.7491 -31.7326 -31.7260 -31.7240 -31.7226 -31.7070 -31.7043 -31.7003
   -31.6852 -31.6608 -31.6460 -31.6160 -31.6140 -31.5976 -31.5906 -31.5486
   -31.5138 -31.4753 -31.1589 -31.1553 -31.1352 -31.0170 -30.9574 -30.8904
   -20.6100 -16.8017 -16.4164 -16.1373 -16.0224 -15.8159 -15.7267 -15.6529
   -15.6472 -15.5216 -15.4210 -15.3828 -15.3639 -15.3395 -15.3214 -15.2702
   -15.2547 -15.2010 -15.1642 -15.1321 -15.1011 -15.0798 -15.0608 -14.9874
   -14.9752 -14.9557 -14.9117 -14.8875 -14.8705 -14.8513 -14.8393 -14.5793
   -13.7587 -13.3241 -13.2510  -6.3191  -5.3907  -4.8120  -4.2575  -4.0071
    -3.4489  -3.4213  -3.3206  -3.2357  -3.1872  -3.1361  -3.0557  -2.9221
    -2.8577  -2.8235  -2.7783  -2.7515  -2.6995  -2.6729  -2.6251  -2.5966
    -2.5808  -2.5238  -2.5071  -2.4698  -2.4525  -2.4254  -2.3998  -2.3852
    -2.3646  -2.3445  -2.3202  -2.2864  -2.2270  -2.2076  -2.1319  -2.1148
    -1.9815  -1.9552  -1.9307  -1.8950  -1.8084  -1.7669  -1.6691  -1.6064
    -1.4582  -1.3747  -1.3380  -1.2605  -1.1955  -1.1621  -1.1197  -1.0925
    -1.0373  -1.0158  -0.9494  -0.8972  -0.8745  -0.8402  -0.8177  -0.7890
    -0.7326  -0.6840  -0.6574  -0.6310  -0.5992  -0.5746  -0.5218  -0.4807
    -0.4293  -0.4134  -0.3873  -0.3375  -0.3138  -0.2318  -0.2174  -0.1378
    -0.0734  -0.0283  -0.0135   0.0132   0.0652   0.1005   0.1445   0.1819
     0.2601   0.3318   0.3901   0.4809   0.5110   0.5436   0.5810   0.6224
     0.6680   0.6939   0.7208   0.7603   0.8537   0.9872   1.2429   1.4242
     1.5387   1.6239   1.6880   1.8236   3.3564   3.5132   3.6050   3.7582
     3.7940   3.8623   3.9105   3.9363   3.9723   3.9981

          k = 0.0380-0.0839 0.0000 ( 17916 PWs)   bands (ev):

   -56.1863 -56.1542 -55.6565 -55.6425 -55.6242 -55.5763 -55.5729 -55.5341
   -55.5152 -55.4892 -55.4348 -55.4091 -55.3939 -55.2743 -54.8011 -54.8007
   -32.4521 -32.4377 -32.4123 -32.4103 -32.3395 -32.3123 -32.0360 -31.9499
   -31.9496 -31.9385 -31.9182 -31.8858 -31.8829 -31.8728 -31.8656 -31.8529
   -31.8409 -31.8310 -31.8168 -31.8074 -31.8052 -31.7950 -31.7906 -31.7881
   -31.7820 -31.7749 -31.7742 -31.7513 -31.7377 -31.7208 -31.7136 -31.7087
   -31.7005 -31.6740 -31.6477 -31.6429 -31.6306 -31.6233 -31.5900 -31.5866
   -31.5256 -31.4754 -31.1453 -31.1452 -31.0283 -31.0266 -30.9869 -30.9861
   -20.6097 -16.7693 -16.4110 -15.8519 -15.8334 -15.8082 -15.7156 -15.5720
   -15.5646 -15.4889 -15.4667 -15.4199 -15.4053 -15.3882 -15.3759 -15.2518
   -15.2465 -15.1566 -15.1370 -15.1188 -15.1016 -15.0887 -15.0483 -15.0380
   -15.0228 -15.0140 -14.9953 -14.9909 -14.9684 -14.9344 -14.8440 -14.6676
   -13.7624 -13.3137 -13.3127  -6.2838  -5.4126  -4.7847  -4.2402  -4.0064
    -3.4941  -3.0473  -3.0292  -3.0210  -2.9412  -2.8919  -2.8683  -2.8510
    -2.8260  -2.8063  -2.7793  -2.7442  -2.6957  -2.6705  -2.6621  -2.6458
    -2.6199  -2.5997  -2.5789  -2.5403  -2.5149  -2.5053  -2.4541  -2.4282
    -2.3870  -2.3477  -2.3255  -2.2947  -2.2900  -2.2812  -1.9815  -1.9172
    -1.8895  -1.8419  -1.7969  -1.7269  -1.7029  -1.6649  -1.6355  -1.6090
    -1.5192  -1.5030  -1.4623  -1.4271  -1.4146  -1.3737  -1.3564  -1.2984
    -1.2587  -1.1913  -1.1514  -1.0135  -0.9202  -0.8843  -0.7701  -0.7151
    -0.6852  -0.6642  -0.6034  -0.5625  -0.5267  -0.5178  -0.5046  -0.4765
    -0.4245  -0.4111  -0.3853  -0.3606  -0.3431  -0.3196  -0.3039  -0.2289
    -0.1427  -0.1063  -0.0769   0.0035   0.0352   0.1120   0.1505   0.2142
     0.2255   0.3443   0.3630   0.3871   0.4008   0.4466   0.4840   0.5614
     0.5904   0.6210   0.6449   0.8447   0.8984   1.0271   1.0685   1.5663
     1.5838   1.6277   1.6362   1.7926   3.5811   3.5933   3.7416   3.7498
     3.8487   3.9167   3.9630   3.9822   3.9853   4.0685

          k = 0.0380-0.0419 0.0000 ( 17876 PWs)   bands (ev):

   -56.1902 -56.1503 -55.6572 -55.6434 -55.6270 -55.5764 -55.5733 -55.5305
   -55.5145 -55.4882 -55.4395 -55.4044 -55.3950 -55.2731 -54.8128 -54.7889
   -32.5553 -32.4544 -32.4098 -32.3598 -32.2915 -32.2897 -32.1014 -32.0312
   -32.0276 -31.9928 -31.9436 -31.9165 -31.8933 -31.8768 -31.8743 -31.8722
   -31.8439 -31.8371 -31.8336 -31.7984 -31.7973 -31.7856 -31.7739 -31.7524
   -31.7492 -31.7322 -31.7264 -31.7235 -31.7225 -31.7072 -31.7041 -31.7003
   -31.6852 -31.6603 -31.6460 -31.6163 -31.6140 -31.5975 -31.5909 -31.5486
   -31.5138 -31.4751 -31.1588 -31.1553 -31.1352 -31.0170 -30.9574 -30.8904
   -20.6100 -16.8015 -16.4165 -16.1374 -16.0225 -15.8159 -15.7249 -15.6537
   -15.6484 -15.5213 -15.4202 -15.3835 -15.3723 -15.3328 -15.3209 -15.2727
   -15.2519 -15.2005 -15.1641 -15.1319 -15.0994 -15.0799 -15.0596 -14.9869
   -14.9792 -14.9548 -14.9121 -14.8877 -14.8711 -14.8515 -14.8380 -14.5798
   -13.7587 -13.3241 -13.2510  -6.3194  -5.3904  -4.8127  -4.2554  -4.0095
    -3.4479  -3.4205  -3.3187  -3.2400  -3.1800  -3.1345  -3.0563  -2.9210
    -2.8584  -2.8218  -2.7764  -2.7536  -2.7060  -2.6616  -2.6321  -2.6036
    -2.5831  -2.5362  -2.5008  -2.4744  -2.4601  -2.4225  -2.4005  -2.3844
    -2.3621  -2.3469  -2.3201  -2.2786  -2.2272  -2.2019  -2.1412  -2.1034
    -1.9928  -1.9496  -1.9353  -1.8741  -1.8154  -1.7611  -1.6661  -1.6003
    -1.4690  -1.3698  -1.3389  -1.2727  -1.2099  -1.1590  -1.1272  -1.1001
    -1.0391  -1.0166  -0.9422  -0.8959  -0.8677  -0.8412  -0.7962  -0.7664
    -0.7210  -0.6890  -0.6615  -0.6419  -0.5970  -0.5685  -0.5263  -0.4788
    -0.4440  -0.4017  -0.3666  -0.3350  -0.3104  -0.2405  -0.2209  -0.1627
    -0.0805  -0.0601  -0.0076   0.0283   0.0512   0.1135   0.1351   0.1785
     0.2407   0.3182   0.3966   0.4790   0.5104   0.5604   0.6079   0.6324
     0.6531   0.7014   0.7183   0.7689   0.8545   0.9940   1.2409   1.4236
     1.5402   1.6229   1.6892   1.8209   3.3604   3.5136   3.6051   3.7493
     3.7756   3.8795   3.9039   3.9390   3.9745   4.0072

          k =-0.0760-0.0000 0.0000 ( 17886 PWs)   bands (ev):

   -56.1934 -56.1471 -55.6578 -55.6443 -55.6297 -55.5794 -55.5707 -55.5273
   -55.5139 -55.4873 -55.4432 -55.4007 -55.3961 -55.2720 -54.8178 -54.7839
   -32.6091 -32.4565 -32.4079 -32.3701 -32.2793 -32.2339 -32.1478 -32.0852
   -32.0792 -32.0326 -31.9511 -31.9414 -31.9363 -31.8853 -31.8811 -31.8706
   -31.8635 -31.8455 -31.8415 -31.8001 -31.7866 -31.7692 -31.7577 -31.7285
   -31.7125 -31.7106 -31.7102 -31.7024 -31.6960 -31.6942 -31.6919 -31.6846
   -31.6807 -31.6665 -31.6459 -31.6053 -31.5977 -31.5953 -31.5624 -31.5259
   -31.4858 -31.4763 -31.2121 -31.1618 -31.1300 -31.0294 -30.9445 -30.8336
   -20.6104 -16.8239 -16.4185 -16.0809 -16.0467 -15.8979 -15.7666 -15.7549
   -15.6742 -15.6436 -15.4900 -15.4716 -15.4208 -15.3827 -15.3724 -15.3543
   -15.2009 -15.1836 -15.1788 -15.1359 -15.0736 -15.0170 -15.0020 -14.9656
   -14.9512 -14.9123 -14.8410 -14.8372 -14.8056 -14.7729 -14.7583 -14.5187
   -13.7551 -13.3132 -13.2088  -6.3532  -5.3717  -4.8437  -4.2709  -4.0002
    -3.4253  -3.3959  -3.3637  -3.2169  -3.2017  -3.1483  -3.1351  -3.1055
    -3.0073  -2.9811  -2.9751  -2.9392  -2.9007  -2.6670  -2.6242  -2.5217
    -2.4910  -2.4522  -2.4078  -2.2994  -2.2827  -2.2573  -2.2509  -2.2051
    -2.1662  -2.1624  -2.1447  -2.0913  -2.0633  -2.0353  -2.0242  -2.0134
    -2.0025  -1.9930  -1.9464  -1.8341  -1.7940  -1.7665  -1.5692  -1.5372
    -1.4824  -1.4310  -1.4079  -1.3787  -1.3496  -1.3169  -1.2957  -1.2081
    -1.2029  -1.1595  -1.1294  -1.0744  -1.0470  -0.9860  -0.9741  -0.9308
    -0.8840  -0.7688  -0.7236  -0.6784  -0.6197  -0.5186  -0.4773  -0.3753
    -0.3522  -0.2969  -0.2854  -0.2289  -0.1963  -0.1818  -0.1254  -0.0655
    -0.0445  -0.0075   0.0180   0.0544   0.1015   0.1702   0.1993   0.2685
     0.3190   0.3485   0.3610   0.4024   0.4487   0.4709   0.5560   0.5856
     0.6402   0.7850   0.8672   0.8701   0.9716   1.0244   1.2323   1.2656
     1.4100   1.5213   1.6410   1.8515   3.2408   3.3942   3.4668   3.5745
     3.6957   3.7121   3.7852   3.8528   3.8584   3.9525

          k =-0.0760 0.0419 0.0000 ( 17914 PWs)   bands (ev):

   -56.1902 -56.1503 -55.6571 -55.6434 -55.6271 -55.5764 -55.5733 -55.5305
   -55.5146 -55.4882 -55.4395 -55.4044 -55.3950 -55.2731 -54.8128 -54.7889
   -32.5561 -32.4544 -32.4098 -32.3586 -32.2915 -32.2899 -32.1018 -32.0319
   -32.0293 -31.9974 -31.9333 -31.9181 -31.9002 -31.8759 -31.8722 -31.8696
   -31.8488 -31.8377 -31.8350 -31.7977 -31.7918 -31.7735 -31.7683 -31.7530
   -31.7496 -31.7324 -31.7246 -31.7225 -31.7127 -31.7123 -31.7015 -31.6994
   -31.6850 -31.6819 -31.6460 -31.6181 -31.6150 -31.5976 -31.5948 -31.5486
   -31.5138 -31.4770 -31.1587 -31.1573 -31.1346 -31.0170 -30.9574 -30.8904
   -20.6100 -16.7958 -16.4126 -15.9592 -15.9498 -15.7938 -15.7116 -15.6932
   -15.5893 -15.5635 -15.4598 -15.4236 -15.4064 -15.3781 -15.3652 -15.3340
   -15.2452 -15.2223 -15.1800 -15.1582 -15.0785 -15.0660 -15.0628 -15.0280
   -14.9886 -14.9603 -14.9293 -14.8779 -14.8597 -14.8552 -14.8347 -14.5786
   -13.7588 -13.3223 -13.2513  -6.3198  -5.3914  -4.8148  -4.2574  -3.9965
    -3.4477  -3.2541  -3.2265  -3.0011  -2.9163  -2.9064  -2.8894  -2.8824
    -2.8273  -2.8207  -2.7563  -2.7277  -2.7062  -2.6661  -2.6111  -2.5940
    -2.5623  -2.5506  -2.4797  -2.4600  -2.4400  -2.3854  -2.3595  -2.3489
    -2.3209  -2.2753  -2.2522  -2.2267  -2.2047  -2.1927  -2.1325  -2.1020
    -1.9703  -1.9361  -1.7835  -1.7691  -1.7445  -1.7215  -1.6655  -1.5985
    -1.5183  -1.4855  -1.3043  -1.2890  -1.2646  -1.2341  -1.1861  -1.1714
    -1.1489  -1.1297  -1.0815  -1.0357  -1.0018  -0.9624  -0.9168  -0.8909
    -0.8487  -0.8225  -0.7951  -0.7485  -0.7224  -0.6551  -0.6266  -0.5758
    -0.5089  -0.4956  -0.4563  -0.3837  -0.3609  -0.3264  -0.2750  -0.2437
    -0.1465  -0.1176  -0.0574  -0.0333   0.0343   0.0678   0.1517   0.1963
     0.2942   0.3505   0.3791   0.4628   0.5201   0.5578   0.6237   0.6925
     0.6974   0.7610   0.7775   0.8725   0.9130   0.9780   1.0223   1.4385
     1.5434   1.5524   1.6686   1.8213   3.3576   3.5357   3.5573   3.6765
     3.7355   3.8082   3.8709   3.9531   4.0174   4.0311

          k =-0.0760-0.0839 0.0000 ( 17948 PWs)   bands (ev):

   -56.1864 -56.1543 -55.6565 -55.6425 -55.6243 -55.5763 -55.5728 -55.5341
   -55.5153 -55.4892 -55.4348 -55.4092 -55.3940 -55.2743 -54.8011 -54.8007
   -32.4521 -32.4383 -32.4124 -32.4108 -32.3388 -32.3116 -32.0366 -31.9523
   -31.9513 -31.9302 -31.9185 -31.8887 -31.8832 -31.8745 -31.8628 -31.8531
   -31.8465 -31.8323 -31.8169 -31.8075 -31.8009 -31.8003 -31.7905 -31.7871
   -31.7820 -31.7808 -31.7689 -31.7514 -31.7219 -31.7174 -31.7093 -31.7005
   -31.6986 -31.6739 -31.6573 -31.6470 -31.6423 -31.6225 -31.5931 -31.5870
   -31.5257 -31.4776 -31.1460 -31.1458 -31.0283 -31.0266 -30.9870 -30.9861
   -20.6097 -16.7672 -16.4075 -15.7973 -15.6681 -15.6600 -15.6592 -15.6239
   -15.5832 -15.5303 -15.5045 -15.4493 -15.3898 -15.3491 -15.3380 -15.3107
   -15.2664 -15.2308 -15.2229 -15.1479 -15.1107 -15.0989 -15.0837 -15.0726
   -15.0296 -15.0265 -15.0076 -15.0018 -14.9922 -14.9366 -14.8388 -14.6620
   -13.7625 -13.3136 -13.3125  -6.2845  -5.4135  -4.7865  -4.2422  -3.9935
    -3.4931  -3.0249  -2.9240  -2.8451  -2.8377  -2.7496  -2.7079  -2.6780
    -2.6578  -2.6398  -2.6130  -2.5628  -2.5411  -2.5058  -2.4949  -2.4922
    -2.4765  -2.4728  -2.4484  -2.4256  -2.4073  -2.3915  -2.3808  -2.3578
    -2.3449  -2.3349  -2.3194  -2.2869  -2.2420  -2.2240  -2.0547  -2.0170
    -2.0117  -2.0091  -1.9423  -1.9379  -1.8794  -1.8065  -1.7901  -1.7694
    -1.7500  -1.6381  -1.5090  -1.4549  -1.3974  -1.3743  -1.3083  -1.2547
    -1.1539  -1.1392  -1.1282  -1.1090  -1.0634  -1.0632  -0.9765  -0.9212
    -0.8787  -0.8741  -0.8535  -0.8091  -0.6908  -0.6825  -0.6440  -0.6192
    -0.6067  -0.5035  -0.4722  -0.4526  -0.4368  -0.4262  -0.3211  -0.2717
    -0.2259  -0.1796  -0.1202  -0.0598   0.0623   0.0870   0.1828   0.2133
     0.2522   0.3874   0.4115   0.4638   0.4971   0.5518   0.5891   0.6044
     0.7327   0.7859   0.8042   0.8711   0.8923   0.9301   0.9537   1.5931
     1.5992   1.6065   1.6089   1.7924   3.6469   3.6733   3.6796   3.7140
     3.8969   3.9266   4.0035   4.0278   4.0444   4.0520

     the Fermi energy is     2.5633 ev

!    total energy              =   -3005.15892071 Ry
     estimated scf accuracy    <       0.00000005 Ry
     smearing contrib. (-TS)   =      -0.00023821 Ry
     internal energy E=F+TS    =   -3005.15868250 Ry

     The total energy is F=E-TS. E is the sum of the following terms:
     one-electron contribution =  -22952.21334545 Ry
     hartree contribution      =   11572.03296840 Ry
     xc contribution           =    -500.30499646 Ry
     ewald contribution        =    8875.32622299 Ry
     electric field correction =       0.00046802 Ry

     convergence has been achieved in  82 iterations

     Forces acting on atoms (cartesian axes, Ry/au):

     atom    1 type  1   force =     0.00058761   -0.00026297    0.00024271
     atom    2 type  2   force =    -0.00018298    0.00020337   -0.00008421
     atom    3 type  2   force =    -0.00004381    0.00000794   -0.00034805
     atom    4 type  2   force =    -0.00039807   -0.00011443    0.00011644
     atom    5 type  3   force =     0.00027113   -0.00316359   -0.05387891
     atom    6 type  3   force =     0.00044214    0.00119673    0.04054837
     atom    7 type  3   force =    -0.00980273   -0.00221946    0.00043545
     atom    8 type  3   force =     0.00887067   -0.00512118   -0.00066921
     atom    9 type  3   force =     0.00010343    0.00005251   -0.00004052
     atom   10 type  3   force =    -0.00010488    0.00004538    0.00002609
     atom   11 type  3   force =     0.00011562   -0.00000644   -0.00007569
     atom   12 type  3   force =     0.00005449    0.00013178    0.00001213
     atom   13 type  3   force =     0.00032309    0.00000454    0.00007577
     atom   14 type  3   force =    -0.00028530   -0.00011488    0.00002646
     atom   15 type  3   force =    -0.00119554   -0.00042622    0.00002182
     atom   16 type  3   force =    -0.00036216   -0.00058532    0.00015856
     atom   17 type  3   force =    -0.00007308    0.00016177    0.09945750
     atom   18 type  3   force =     0.00056209   -0.00007818    0.00008799
     atom   19 type  3   force =    -0.08023494    0.00058996   -0.03415499
     atom   20 type  3   force =     0.08000100    0.00110591   -0.03418221
     atom   21 type  3   force =     0.00051005    0.00002119   -0.05295501
     atom   22 type  3   force =     0.00037895    0.00048855    0.04230556
     atom   23 type  3   force =    -0.01093390    0.00575439    0.00234796
     atom   24 type  3   force =     0.01004830    0.00212942    0.00120009
     atom   25 type  3   force =     0.00006327   -0.00000703    0.00005875
     atom   26 type  3   force =     0.00000712    0.00006322    0.00001211
     atom   27 type  3   force =     0.00006096    0.00008174    0.00002257
     atom   28 type  3   force =     0.00009376   -0.00002561    0.00006359
     atom   29 type  3   force =     0.00043208   -0.00012038    0.00020351
     atom   30 type  3   force =    -0.00014983   -0.00005646   -0.00004184
     atom   31 type  3   force =    -0.00130214    0.00077217   -0.00015345
     atom   32 type  3   force =    -0.00036770    0.00010889    0.00027583
     atom   33 type  3   force =    -0.00008334    0.00025244    0.09903115
     atom   34 type  3   force =    -0.08023555   -0.00145061   -0.03415559
     atom   35 type  3   force =     0.08000819   -0.00092765   -0.03420275
     atom   36 type  3   force =     0.00035894   -0.00013769    0.00005479
     atom   37 type  4   force =     0.00019505    0.00016472    0.13340166
     atom   38 type  4   force =     0.00001633    0.00798215   -0.15913250
     atom   39 type  4   force =    -0.00006923   -0.00005941   -0.00000241
     atom   40 type  4   force =    -0.00007828    0.00016158    0.00002769
     atom   41 type  4   force =    -0.00035552   -0.00002242   -0.00016449
     atom   42 type  4   force =    -0.00001295    0.00007885   -0.00004668
     atom   43 type  4   force =     0.00325102    0.00002503    0.00012365
     atom   44 type  4   force =    -0.00213880   -0.00009628   -0.00013526
     atom   45 type  4   force =    -0.00024750   -0.00008792    0.14214431
     atom   46 type  4   force =    -0.00019668   -0.00647698   -0.15860536
     atom   47 type  4   force =     0.00010715   -0.00008528    0.00003999
     atom   48 type  4   force =    -0.00016423    0.00015634    0.00012476
     atom   49 type  4   force =    -0.00020485   -0.00001039    0.00003723
     atom   50 type  4   force =    -0.00001819   -0.00003295    0.00002388
     atom   51 type  4   force =     0.00520768   -0.00011567   -0.00102553
     atom   52 type  4   force =    -0.00238608    0.00000002    0.00006817
     atom   53 type  5   force =     0.00025129    0.00002784   -0.00042007
     atom   54 type  5   force =    -0.00003601    0.00005869    0.00051341
     atom   55 type  3   force =    -0.00083224    0.00037971    0.00038281
     atom   56 type  2   force =     0.00017512   -0.00040142    0.00080201

     Total force =     0.385125     Total SCF correction =     0.000509
  @ DRIVER MODE: Message from server: STATUS
  @ DRIVER MODE: Message from server: GETFORCE
  @ DRIVER MODE: Returning v,forces,stress,ensemble 

     Writing output data file ./calc.save/
  @ DRIVER MODE: Message from server: EXIT
  @ DRIVE MODE: Exiting  
 
     init_run     :     15.76s CPU     16.17s WALL (       1 calls)
     electrons    :   1861.05s CPU   1917.66s WALL (       1 calls)
     forces       :      2.91s CPU      3.04s WALL (       1 calls)

     Called by init_run:
     wfcinit      :      5.96s CPU      6.16s WALL (       1 calls)
     potinit      :      9.03s CPU      9.12s WALL (       1 calls)
     hinit0       :      0.37s CPU      0.38s WALL (       1 calls)

     Called by electrons:
     c_bands      :   1567.50s CPU   1604.97s WALL (      82 calls)
     sum_band     :    213.94s CPU    224.43s WALL (      82 calls)
     v_of_rho     :     60.33s CPU     62.63s WALL (      83 calls)
     newd         :     23.69s CPU     29.87s WALL (      83 calls)
     mix_rho      :      3.34s CPU      3.46s WALL (      82 calls)
     vdW_kernel   :      8.06s CPU      8.08s WALL (       1 calls)

     Called by c_bands:
     init_us_2    :      8.64s CPU      8.71s WALL (    1660 calls)
     cegterg      :   1539.48s CPU   1576.30s WALL (     847 calls)

     Called by *egterg:
     cdiaghg      :    238.38s CPU    244.43s WALL (    7537 calls)
     h_psi        :    857.24s CPU    881.24s WALL (    7554 calls)
     s_psi        :     99.58s CPU     99.98s WALL (    7554 calls)
     g_psi        :      2.76s CPU      2.78s WALL (    6697 calls)

     Called by h_psi:
     h_psi:calbec :     98.77s CPU    100.45s WALL (    7554 calls)
     vloc_psi     :    655.41s CPU    672.51s WALL (    7554 calls)
     add_vuspsi   :     99.93s CPU    102.59s WALL (    7554 calls)

     General routines
     calbec       :    130.50s CPU    132.44s WALL (    8414 calls)
     fft          :     31.35s CPU     31.53s WALL (    5229 calls)
     ffts         :      0.27s CPU      0.28s WALL (     165 calls)
     fftw         :    762.86s CPU    783.08s WALL ( 1195020 calls)
     interpolate  :      0.69s CPU      0.70s WALL (      83 calls)
     davcio       :      0.00s CPU      1.62s WALL (      10 calls)
 
     Parallel routines
 
     PWSCF        :  31m20.87s CPU  32m31.23s WALL

 
   This run was terminated on:   1:36:37  26Sep2021            

=------------------------------------------------------------------------------=
   JOB DONE.
=------------------------------------------------------------------------------=
