
     Program PWSCF v.6.7GPU starts on 22Sep2021 at 21: 9:23 

     This program is part of the open-source Quantum ESPRESSO suite
     for quantum simulation of materials; please cite
         "P. Giannozzi et al., J. Phys.:Condens. Matter 21 395502 (2009);
         "P. Giannozzi et al., J. Phys.:Condens. Matter 29 465901 (2017);
         "P. Giannozzi et al., J. Chem. Phys. 152 154105 (2020);
          URL http://www.quantum-espresso.org", 
     in publications or presentations arising from this work. More details at
     http://www.quantum-espresso.org/quote

     Parallel version (MPI), running on    10 processors

     MPI processes distributed on     1 nodes
     R & G space division:  proc/nbgrp/npool/nimage =      10
     Reading input from /storage/home/hcoda1/3/ntian30/research/carbon/CxH_vib/H2O_calc/ads_slab/CHNNHHHO_a/out_0015/pw.inp
Warning: card &CELL ignored
Warning: card   CELL_DYNAMICS='IPI', ignored
Warning: card / ignored

     Current dimensions of program PWSCF are:
     Max number of different atomic species (ntypx) = 10
     Max number of k-points (npk) =  40000
     Max angular momentum in pseudopotentials (lmaxx) =  3
     Presently no symmetry can be used with electric field

     Message from routine cell_base_init:
     DEPRECATED: use true lattice parameter, not A to a.u. conversion factor

     **************************************************************************
     Initializing libbeef V0.1.2 with the BEEF-vdW functional.
     Citation: Wellendorff et al., PRB 85, 235149 (2012).
     **************************************************************************


     IMPORTANT: XC functional enforced from input :
     Exchange-correlation= BEEF-VDW
                           (   1   4  43  14   2   0   0)
     Any further DFT definition will be discarded
     Please, verify this is what you really want


     Subspace diagonalization in iterative solution of the eigenvalue problem:
     one sub-group per band group will be used
     scalapack distributed-memory algorithm (size of sub-group:  3*  3 procs)

  @ DRIVER MODE: Connecting to 
 qe_1139763_2937315.sched-torque.pace.gatech.edutlbv0azl_scratch
  using UNIX socket
  @ DRIVER MODE: Message from server: STATUS
  @ DRIVER MODE: Message from server: INIT
  @ DRIVER MODE: Receiving replica           0          -1
  @ DRIVER MODE: Receiving encoded integer          25
  @ DRIVER MODE:  SCF:  T  FORCE:  T  STRESS:  F  VC:  F  ENSEMBLE:  F
  @ DRIVER MODE:  SCF:  T  FORCE:  T  STRESS:  F  VC:  F  ENSEMBLE:  F
 
     Parallelization info
     --------------------
     sticks:   dense  smooth     PW     G-vecs:    dense   smooth      PW
     Min         327     131     37                56683    14340    2191
     Max         328     133     38                56694    14346    2206
     Sum        3275    1317    379               566857   143421   21985
 
     Using Slab Decomposition
 


     bravais-lattice index     =            0
     lattice parameter (alat)  =       1.8897  a.u.
     unit-cell volume          =    6658.9804 (a.u.)^3
     number of atoms/cell      =           55
     number of atomic types    =            5
     number of electrons       =       402.00
     number of Kohn-Sham states=          211
     kinetic-energy cutoff     =      29.3995  Ry
     charge density cutoff     =     293.9946  Ry
     scf convergence threshold =      7.3E-08
     mixing beta               =       0.0500
     number of iterations used =            8  plain     mixing
     Exchange-correlation= BEEF-VDW
                           (   1   4  43  14   2   0   0)

     celldm(1)=   1.889726  celldm(2)=   0.000000  celldm(3)=   0.000000
     celldm(4)=   0.000000  celldm(5)=   0.000000  celldm(6)=   0.000000

     crystal axes: (cart. coord. in units of alat)
               a(1) = (   6.579727   0.000000   0.000000 )  
               a(2) = (  -0.000775   5.961596   0.000000 )  
               a(3) = (   0.000000   0.000000  25.155947 )  

     reciprocal axes: (cart. coord. in units 2 pi/alat)
               b(1) = (  0.151982  0.000020  0.000000 )  
               b(2) = (  0.000000  0.167740  0.000000 )  
               b(3) = (  0.000000  0.000000  0.039752 )  


     PseudoPot. # 1 for Ti read from file:
     /storage/coda1/p-amedford6/0/shared/rich_project_chbe-medford/medford-share/data/pseudos_module/espresso/nninc/pbe/van/Ti.UPF
     MD5 check sum: 8e4df49b7f0d34bbd5052bf3f5ea0213
     Pseudo is Ultrasoft, Zval = 12.0
     Generated by new atomic code, or converted to UPF format
     Using radial grid of  851 points,  6 beta functions with: 
                l(1) =   0
                l(2) =   0
                l(3) =   1
                l(4) =   1
                l(5) =   2
                l(6) =   2
     Q(r) pseudized with  8 coefficients,  rinner =    1.000   1.000   1.000
                                                       1.000   1.000

     PseudoPot. # 2 for O  read from file:
     /storage/coda1/p-amedford6/0/shared/rich_project_chbe-medford/medford-share/data/pseudos_module/espresso/nninc/pbe/van/O.UPF
     MD5 check sum: 78c19812648e8988a0fe644b0f25305e
     Pseudo is Ultrasoft, Zval =  6.0
     Generated by new atomic code, or converted to UPF format
     Using radial grid of  737 points,  4 beta functions with: 
                l(1) =   0
                l(2) =   0
                l(3) =   1
                l(4) =   1
     Q(r) pseudized with  8 coefficients,  rinner =    0.800   0.800   0.800


     PseudoPot. # 3 for N  read from file:
     /storage/coda1/p-amedford6/0/shared/rich_project_chbe-medford/medford-share/data/pseudos_module/espresso/nninc/pbe/van/N.UPF
     MD5 check sum: 90d10febe142ad51ac9d5be1deb811c4
     Pseudo is Ultrasoft, Zval =  5.0
     Generated by new atomic code, or converted to UPF format
     Using radial grid of  729 points,  4 beta functions with: 
                l(1) =   0
                l(2) =   0
                l(3) =   1
                l(4) =   1
     Q(r) pseudized with  8 coefficients,  rinner =    0.800   0.800   0.800


     PseudoPot. # 4 for C  read from file:
     /storage/coda1/p-amedford6/0/shared/rich_project_chbe-medford/medford-share/data/pseudos_module/espresso/nninc/pbe/van/C.UPF
     MD5 check sum: 1a69bf6b8db32088f5b2163dbdb77a27
     Pseudo is Ultrasoft, Zval =  4.0
     Generated by new atomic code, or converted to UPF format
     Using radial grid of  721 points,  4 beta functions with: 
                l(1) =   0
                l(2) =   0
                l(3) =   1
                l(4) =   1
     Q(r) pseudized with  8 coefficients,  rinner =    0.800   0.800   0.800


     PseudoPot. # 5 for H  read from file:
     /storage/coda1/p-amedford6/0/shared/rich_project_chbe-medford/medford-share/data/pseudos_module/espresso/nninc/pbe/van/H.UPF
     MD5 check sum: b5ee9d7bfd3a09ee7748110bda690ff7
     Pseudo is Ultrasoft, Zval =  1.0
     Generated by new atomic code, or converted to UPF format
     Using radial grid of  615 points,  1 beta functions with: 
                l(1) =   0
     Q(r) pseudized with  8 coefficients,  rinner =    0.800

     atomic species   valence    mass     pseudopotential
        Ti1           12.00    47.86700     Ti( 1.00)
        O1             6.00    15.99900     O ( 1.00)
        N1             5.00    14.00700     N ( 1.00)
        C1             4.00    12.01100     C ( 1.00)
        H1             1.00     1.00800     H ( 1.00)

     No symmetry found



   Cartesian axes

     site n.     atom                  positions (alat units)
         1           Ti1 tau(   1) = (   0.0004258   2.9801865   6.0000000  )
         2           Ti1 tau(   2) = (   3.2906075   1.4906267   6.0002472  )
         3           O1  tau(   3) = (   0.0006271   0.0005054   7.9858123  )
         4           O1  tau(   4) = (   3.2906025   0.0005020   7.3038282  )
         5           O1  tau(   5) = (   4.5942328   1.4918067   9.2879030  )
         6           O1  tau(   6) = (   1.9868534   1.4903216   9.2879459  )
         7           Ti1 tau(   7) = (   3.2907910   2.8959150   9.1758416  )
         8           Ti1 tau(   8) = (   0.0015273   1.4827037   9.2680791  )
         9           O1  tau(   9) = (   3.3019041   5.9340972  11.2780832  )
        10           O1  tau(  10) = (   0.0116148   5.9584955  10.6183126  )
        11           O1  tau(  11) = (   1.2869077   1.4717189  12.6473688  )
        12           O1  tau(  12) = (   5.3188397   1.4655789  12.6430575  )
        13           Ti1 tau(  13) = (   0.0521173   3.0639968  12.7333969  )
        14           Ti1 tau(  14) = (   3.2906581   1.3001642  12.6471297  )
        15           O1  tau(  15) = (   0.0021475   5.9326859  14.6872502  )
        16           O1  tau(  16) = (   3.3040199   0.0265785  13.8678754  )
        17           O1  tau(  17) = (   4.6240569   1.6264218  16.1080407  )
        18           O1  tau(  18) = (   2.0715169   1.5429601  15.9546445  )
        19           Ti1 tau(  19) = (   3.3363059   2.9874148  15.6109769  )
        20           Ti1 tau(  20) = (   0.0492893   1.4028208  15.7974426  )
        21           O1  tau(  21) = (   3.2904802   0.0005063   4.7018136  )
        22           O1  tau(  22) = (   0.0944532   0.0627470  17.1934044  )
        23           O1  tau(  23) = (   1.3043587   1.4918075   6.0039043  )
        24           O1  tau(  24) = (   5.2767064   1.4903225   6.0039473  )
        25           Ti1 tau(  25) = (   0.0000382   5.9609847   6.0000000  )
        26           Ti1 tau(  26) = (   3.2902200   4.4714249   6.0002472  )
        27           O1  tau(  27) = (   0.0002396   2.9813036   7.9858123  )
        28           O1  tau(  28) = (   3.2902150   2.9813002   7.3038282  )
        29           O1  tau(  29) = (   4.5938453   4.4726049   9.2879030  )
        30           O1  tau(  30) = (   1.9864658   4.4711199   9.2879459  )
        31           Ti1 tau(  31) = (   3.2891106   5.8743827   9.1763621  )
        32           Ti1 tau(  32) = (   0.0006254   4.4649316   9.2693709  )
        33           O1  tau(  33) = (   3.3033179   3.0104581  11.2528581  )
        34           O1  tau(  34) = (   0.0092240   2.9805883  10.6323155  )
        35           O1  tau(  35) = (   1.3074756   4.4469578  12.6382572  )
        36           O1  tau(  36) = (   5.3202433   4.4545580  12.6357595  )
        37           Ti1 tau(  37) = (   6.5572640   0.0741000  12.5519234  )
        38           Ti1 tau(  38) = (   3.3179412   4.3950854  12.4030220  )
        39           O1  tau(  39) = (   0.0383827   2.9948909  14.7437145  )
        40           O1  tau(  40) = (   3.3238341   2.9662938  13.8354460  )
        41           O1  tau(  41) = (   4.5722604   4.5101538  15.9256862  )
        42           O1  tau(  42) = (   2.0839069   4.4665637  16.0501180  )
        43           Ti1 tau(  43) = (   3.2507700   5.9423238  16.2547716  )
        44           Ti1 tau(  44) = (   6.5063516   4.5631136  16.2071476  )
        45           O1  tau(  45) = (   3.2900926   2.9813045   4.7018136  )
        46           O1  tau(  46) = (   1.3039711   4.4726057   6.0039043  )
        47           O1  tau(  47) = (   5.2763189   4.4711207   6.0039473  )
        48           N1  tau(  48) = (   0.4124544   2.9287237  17.8391456  )
        49           C1  tau(  49) = (   1.3780350   3.0145335  18.6736463  )
        50           H1  tau(  50) = (   2.3027514   2.5568077  18.2879847  )
        51           N1  tau(  51) = (   5.7762606   3.6115528  18.1636368  )
        52           H1  tau(  52) = (   5.8537390   4.1179332  19.0469945  )
        53           H1  tau(  53) = (   5.0130290   2.9392956  18.1702355  )
        54           O1  tau(  54) = (   3.2882145   0.0116813  18.0866318  )
        55           H1  tau(  55) = (   2.5950809   5.5738040  18.6371346  )

     number of k points=    10  Fermi-Dirac smearing, width (Ry)=  0.0073
                       cart. coord. in units 2pi/alat
        k(    1) = (   0.0000000   0.0000000   0.0000000), wk =   0.1250000
        k(    2) = (   0.0000000   0.0419351   0.0000000), wk =   0.2500000
        k(    3) = (   0.0000000  -0.0838702   0.0000000), wk =   0.1250000
        k(    4) = (   0.0379955   0.0000049   0.0000000), wk =   0.2500000
        k(    5) = (   0.0379955   0.0419400   0.0000000), wk =   0.2500000
        k(    6) = (   0.0379955  -0.0838652   0.0000000), wk =   0.2500000
        k(    7) = (   0.0379955  -0.0419301   0.0000000), wk =   0.2500000
        k(    8) = (  -0.0759910  -0.0000099   0.0000000), wk =   0.1250000
        k(    9) = (  -0.0759910   0.0419252   0.0000000), wk =   0.2500000
        k(   10) = (  -0.0759910  -0.0838800   0.0000000), wk =   0.1250000

     Dense  grid:   566857 G-vectors     FFT dimensions: (  72,  64, 270)

     Smooth grid:   143421 G-vectors     FFT dimensions: (  45,  40, 180)

     Estimated max dynamical RAM per process >     367.45 MB

     Estimated total dynamical RAM >       3.59 GB
     Cannot read rho : file not found

     Initial potential from superposition of free atoms

     starting charge  385.99915, renormalised to  402.00000

     negative rho (up, down):  1.703E-02 0.000E+00


     %%%%%%%%%%%%%%%%%%%%%%%%%%%%%%%%%%%%%%%%%%%%%%%%%%%%%%%%%%%%%%%%%%%%%%%%
     %                                                                      %
     % You are using vdW-DF, which was implemented by the Thonhauser group. %
     % Please cite the following two papers that made this development      %
     % possible and the two reviews that describe the various versions:     %
     %                                                                      %
     %   T. Thonhauser et al., PRL 115, 136402 (2015).                      %
     %   T. Thonhauser et al., PRB 76, 125112 (2007).                       %
     %   K. Berland et al., Rep. Prog. Phys. 78, 066501 (2015).             %
     %   D.C. Langreth et al., J. Phys.: Condens. Matter 21, 084203 (2009). %
     %                                                                      %
     %                                                                      %
     % If you are calculating the stress with vdW-DF, please also cite:     %
     %                                                                      %
     %   R. Sabatini et al., J. Phys.: Condens. Matter 24, 424209 (2012).   %
     %                                                                      %
     %%%%%%%%%%%%%%%%%%%%%%%%%%%%%%%%%%%%%%%%%%%%%%%%%%%%%%%%%%%%%%%%%%%%%%%%


 
     Adding external electric field

     Computed dipole along edir(3) : 
        Dipole              -11.1544 Ry au,        -28.3516 Debye
        Dipole field         -0.0210 Ry au, 
 
        Potential amp.        1.9513 Ry
        Total length         46.3494 bohr
 
     Starting wfcs are  304 atomic wfcs
  @ DRIVER MODE: Message from server: STATUS
  @ DRIVER MODE: Message from server: POSDATA
  @ DRIVER MODE: Reading and sharing cell 
  @ DRIVER MODE: Reading and sharing positions 
  @ DRIVER MODE: Received positions 

     total cpu time spent up to now is       11.7 secs

     Self-consistent Calculation

     iteration #  1     ecut=    29.40 Ry     beta= 0.05
     Davidson diagonalization with overlap
     c_bands:  2 eigenvalues not converged
     c_bands:  3 eigenvalues not converged
     c_bands:  1 eigenvalues not converged
     c_bands:  5 eigenvalues not converged
     c_bands:  1 eigenvalues not converged
     c_bands:  5 eigenvalues not converged
     c_bands:  3 eigenvalues not converged
     ethr =  1.00E-05,  avg # of iterations = 27.6

     negative rho (up, down):  9.917E-03 0.000E+00
 
     Adding external electric field

     Computed dipole along edir(3) : 
        Dipole               51.8442 Ry au,        131.7748 Debye
        Dipole field          0.0978 Ry au, 
 
        Potential amp.       -9.0694 Ry
        Total length         46.3494 bohr
 

     total cpu time spent up to now is       60.2 secs

     total energy              =   -2400.32944560 Ry
     estimated scf accuracy    <    6416.15856838 Ry

     iteration #  2     ecut=    29.40 Ry     beta= 0.05
     Davidson diagonalization with overlap
     ethr =  1.00E-02,  avg # of iterations = 24.6

     negative rho (up, down):  9.185E-04 0.000E+00
 
     Adding external electric field

     Computed dipole along edir(3) : 
        Dipole                0.1197 Ry au,          0.3043 Debye
        Dipole field          0.0002 Ry au, 
 
        Potential amp.       -0.0209 Ry
        Total length         46.3494 bohr
 

     total cpu time spent up to now is      139.8 secs

     total energy              =   -2484.54999741 Ry
     estimated scf accuracy    <   70849.51783051 Ry

     iteration #  3     ecut=    29.40 Ry     beta= 0.05
     Davidson diagonalization with overlap
     ethr =  1.00E-02,  avg # of iterations = 15.7

     negative rho (up, down):  9.912E-04 0.000E+00
 
     Adding external electric field

     Computed dipole along edir(3) : 
        Dipole               -3.1203 Ry au,         -7.9311 Debye
        Dipole field         -0.0059 Ry au, 
 
        Potential amp.        0.5459 Ry
        Total length         46.3494 bohr
 

     total cpu time spent up to now is      189.7 secs

     total energy              =   -2959.87472768 Ry
     estimated scf accuracy    <    5608.75147949 Ry

     iteration #  4     ecut=    29.40 Ry     beta= 0.05
     Davidson diagonalization with overlap
     ethr =  1.00E-02,  avg # of iterations = 11.3

     negative rho (up, down):  1.024E-03 0.000E+00
 
     Adding external electric field

     Computed dipole along edir(3) : 
        Dipole               -4.8145 Ry au,        -12.2374 Debye
        Dipole field         -0.0091 Ry au, 
 
        Potential amp.        0.8422 Ry
        Total length         46.3494 bohr
 

     total cpu time spent up to now is      210.2 secs

     total energy              =   -2960.12768787 Ry
     estimated scf accuracy    <    2027.68363088 Ry

     iteration #  5     ecut=    29.40 Ry     beta= 0.05
     Davidson diagonalization with overlap
     ethr =  1.00E-02,  avg # of iterations =  3.8

     negative rho (up, down):  1.099E-03 0.000E+00
 
     Adding external electric field

     Computed dipole along edir(3) : 
        Dipole               -6.7909 Ry au,        -17.2606 Debye
        Dipole field         -0.0128 Ry au, 
 
        Potential amp.        1.1880 Ry
        Total length         46.3494 bohr
 

     total cpu time spent up to now is      221.6 secs

     total energy              =   -2940.56465688 Ry
     estimated scf accuracy    <    1913.72397766 Ry

     iteration #  6     ecut=    29.40 Ry     beta= 0.05
     Davidson diagonalization with overlap
     c_bands:  1 eigenvalues not converged
     ethr =  1.00E-02,  avg # of iterations = 13.6

     negative rho (up, down):  1.081E-03 0.000E+00
 
     Adding external electric field

     Computed dipole along edir(3) : 
        Dipole               -5.6475 Ry au,        -14.3545 Debye
        Dipole field         -0.0107 Ry au, 
 
        Potential amp.        0.9879 Ry
        Total length         46.3494 bohr
 

     total cpu time spent up to now is      247.6 secs

     total energy              =   -2976.74580973 Ry
     estimated scf accuracy    <      42.93079682 Ry

     iteration #  7     ecut=    29.40 Ry     beta= 0.05
     Davidson diagonalization with overlap
     ethr =  1.00E-02,  avg # of iterations =  1.2

     negative rho (up, down):  1.116E-03 0.000E+00
 
     Adding external electric field

     Computed dipole along edir(3) : 
        Dipole               -3.7409 Ry au,         -9.5084 Debye
        Dipole field         -0.0071 Ry au, 
 
        Potential amp.        0.6544 Ry
        Total length         46.3494 bohr
 

     total cpu time spent up to now is      257.9 secs

     total energy              =   -2974.70309514 Ry
     estimated scf accuracy    <      24.94811491 Ry

     iteration #  8     ecut=    29.40 Ry     beta= 0.05
     Davidson diagonalization with overlap
     ethr =  6.21E-03,  avg # of iterations =  2.3

     negative rho (up, down):  1.168E-03 0.000E+00
 
     Adding external electric field

     Computed dipole along edir(3) : 
        Dipole               -2.5320 Ry au,         -6.4358 Debye
        Dipole field         -0.0048 Ry au, 
 
        Potential amp.        0.4429 Ry
        Total length         46.3494 bohr
 

     total cpu time spent up to now is      268.6 secs

     total energy              =   -2974.27792032 Ry
     estimated scf accuracy    <      16.21765896 Ry

     iteration #  9     ecut=    29.40 Ry     beta= 0.05
     Davidson diagonalization with overlap
     ethr =  4.03E-03,  avg # of iterations =  4.6

     negative rho (up, down):  1.169E-03 0.000E+00
 
     Adding external electric field

     Computed dipole along edir(3) : 
        Dipole               -2.5539 Ry au,         -6.4914 Debye
        Dipole field         -0.0048 Ry au, 
 
        Potential amp.        0.4468 Ry
        Total length         46.3494 bohr
 

     total cpu time spent up to now is      280.3 secs

     total energy              =   -2974.89606597 Ry
     estimated scf accuracy    <     119.20076478 Ry

     iteration # 10     ecut=    29.40 Ry     beta= 0.05
     Davidson diagonalization with overlap
     ethr =  4.03E-03,  avg # of iterations =  2.5

     negative rho (up, down):  1.326E-03 0.000E+00
 
     Adding external electric field

     Computed dipole along edir(3) : 
        Dipole               -1.4088 Ry au,         -3.5808 Debye
        Dipole field         -0.0027 Ry au, 
 
        Potential amp.        0.2465 Ry
        Total length         46.3494 bohr
 

     total cpu time spent up to now is      291.1 secs

     total energy              =   -2974.26675079 Ry
     estimated scf accuracy    <     110.19580074 Ry

     iteration # 11     ecut=    29.40 Ry     beta= 0.05
     Davidson diagonalization with overlap
     ethr =  4.03E-03,  avg # of iterations =  9.2

     negative rho (up, down):  1.486E-03 0.000E+00
 
     Adding external electric field

     Computed dipole along edir(3) : 
        Dipole               -2.9260 Ry au,         -7.4370 Debye
        Dipole field         -0.0055 Ry au, 
 
        Potential amp.        0.5119 Ry
        Total length         46.3494 bohr
 

     total cpu time spent up to now is      304.8 secs

     total energy              =   -2966.12505907 Ry
     estimated scf accuracy    <     409.42775436 Ry

     iteration # 12     ecut=    29.40 Ry     beta= 0.05
     Davidson diagonalization with overlap
     ethr =  4.03E-03,  avg # of iterations =  3.2

     negative rho (up, down):  1.767E-03 0.000E+00
 
     Adding external electric field

     Computed dipole along edir(3) : 
        Dipole               -1.9363 Ry au,         -4.9217 Debye
        Dipole field         -0.0037 Ry au, 
 
        Potential amp.        0.3387 Ry
        Total length         46.3494 bohr
 

     total cpu time spent up to now is      316.1 secs

     total energy              =   -2972.26204796 Ry
     estimated scf accuracy    <       5.82612474 Ry

     iteration # 13     ecut=    29.40 Ry     beta= 0.05
     Davidson diagonalization with overlap
     ethr =  1.45E-03,  avg # of iterations =  8.2

     negative rho (up, down):  1.887E-03 0.000E+00
 
     Adding external electric field

     Computed dipole along edir(3) : 
        Dipole               -0.8825 Ry au,         -2.2431 Debye
        Dipole field         -0.0017 Ry au, 
 
        Potential amp.        0.1544 Ry
        Total length         46.3494 bohr
 

     total cpu time spent up to now is      330.1 secs

     total energy              =   -2972.83387189 Ry
     estimated scf accuracy    <       5.11232321 Ry

     iteration # 14     ecut=    29.40 Ry     beta= 0.05
     Davidson diagonalization with overlap
     ethr =  1.27E-03,  avg # of iterations =  4.3

     negative rho (up, down):  2.007E-03 0.000E+00
 
     Adding external electric field

     Computed dipole along edir(3) : 
        Dipole               -0.4061 Ry au,         -1.0322 Debye
        Dipole field         -0.0008 Ry au, 
 
        Potential amp.        0.0710 Ry
        Total length         46.3494 bohr
 

     total cpu time spent up to now is      341.9 secs

     total energy              =   -2973.81599366 Ry
     estimated scf accuracy    <      73.28727435 Ry

     iteration # 15     ecut=    29.40 Ry     beta= 0.05
     Davidson diagonalization with overlap
     c_bands:  1 eigenvalues not converged
     ethr =  1.27E-03,  avg # of iterations =  6.2

     negative rho (up, down):  2.013E-03 0.000E+00
 
     Adding external electric field

     Computed dipole along edir(3) : 
        Dipole               -0.5398 Ry au,         -1.3720 Debye
        Dipole field         -0.0010 Ry au, 
 
        Potential amp.        0.0944 Ry
        Total length         46.3494 bohr
 

     total cpu time spent up to now is      354.4 secs

     total energy              =   -2973.77650857 Ry
     estimated scf accuracy    <     226.96194507 Ry

     iteration # 16     ecut=    29.40 Ry     beta= 0.05
     Davidson diagonalization with overlap
     ethr =  1.27E-03,  avg # of iterations =  1.1

     negative rho (up, down):  1.736E-03 0.000E+00
 
     Adding external electric field

     Computed dipole along edir(3) : 
        Dipole               -1.9137 Ry au,         -4.8642 Debye
        Dipole field         -0.0036 Ry au, 
 
        Potential amp.        0.3348 Ry
        Total length         46.3494 bohr
 

     total cpu time spent up to now is      364.6 secs

     total energy              =   -2970.97531917 Ry
     estimated scf accuracy    <     158.02297019 Ry

     iteration # 17     ecut=    29.40 Ry     beta= 0.05
     Davidson diagonalization with overlap
     ethr =  1.27E-03,  avg # of iterations =  4.4

     negative rho (up, down):  1.771E-03 0.000E+00
 
     Adding external electric field

     Computed dipole along edir(3) : 
        Dipole               -1.8965 Ry au,         -4.8203 Debye
        Dipole field         -0.0036 Ry au, 
 
        Potential amp.        0.3318 Ry
        Total length         46.3494 bohr
 

     total cpu time spent up to now is      376.7 secs

     total energy              =   -2972.60327603 Ry
     estimated scf accuracy    <       3.02431247 Ry

     iteration # 18     ecut=    29.40 Ry     beta= 0.05
     Davidson diagonalization with overlap
     ethr =  7.52E-04,  avg # of iterations =  2.6

     negative rho (up, down):  2.318E-03 0.000E+00
 
     Adding external electric field

     Computed dipole along edir(3) : 
        Dipole               -0.7037 Ry au,         -1.7887 Debye
        Dipole field         -0.0013 Ry au, 
 
        Potential amp.        0.1231 Ry
        Total length         46.3494 bohr
 

     total cpu time spent up to now is      388.0 secs

     total energy              =   -2972.55791177 Ry
     estimated scf accuracy    <       2.10452521 Ry

     iteration # 19     ecut=    29.40 Ry     beta= 0.05
     Davidson diagonalization with overlap
     ethr =  5.24E-04,  avg # of iterations =  8.9

     negative rho (up, down):  2.823E-03 0.000E+00
 
     Adding external electric field

     Computed dipole along edir(3) : 
        Dipole               -0.1500 Ry au,         -0.3812 Debye
        Dipole field         -0.0003 Ry au, 
 
        Potential amp.        0.0262 Ry
        Total length         46.3494 bohr
 

     total cpu time spent up to now is      401.9 secs

     total energy              =   -2972.69498053 Ry
     estimated scf accuracy    <       2.28554401 Ry

     iteration # 20     ecut=    29.40 Ry     beta= 0.05
     Davidson diagonalization with overlap
     ethr =  5.24E-04,  avg # of iterations =  2.6

     negative rho (up, down):  2.852E-03 0.000E+00
 
     Adding external electric field

     Computed dipole along edir(3) : 
        Dipole               -0.2220 Ry au,         -0.5642 Debye
        Dipole field         -0.0004 Ry au, 
 
        Potential amp.        0.0388 Ry
        Total length         46.3494 bohr
 

     total cpu time spent up to now is      413.2 secs

     total energy              =   -2972.73372423 Ry
     estimated scf accuracy    <       6.58735071 Ry

     iteration # 21     ecut=    29.40 Ry     beta= 0.05
     Davidson diagonalization with overlap
     ethr =  5.24E-04,  avg # of iterations =  2.7

     negative rho (up, down):  3.335E-03 0.000E+00
 
     Adding external electric field

     Computed dipole along edir(3) : 
        Dipole                0.0002 Ry au,          0.0005 Debye
        Dipole field          0.0000 Ry au, 
 
        Potential amp.       -0.0000 Ry
        Total length         46.3494 bohr
 

     total cpu time spent up to now is      424.2 secs

     total energy              =   -2972.72294810 Ry
     estimated scf accuracy    <       2.40848596 Ry

     iteration # 22     ecut=    29.40 Ry     beta= 0.05
     Davidson diagonalization with overlap
     ethr =  5.24E-04,  avg # of iterations =  2.4

     negative rho (up, down):  3.310E-03 0.000E+00
 
     Adding external electric field

     Computed dipole along edir(3) : 
        Dipole               -0.6627 Ry au,         -1.6845 Debye
        Dipole field         -0.0013 Ry au, 
 
        Potential amp.        0.1159 Ry
        Total length         46.3494 bohr
 

     total cpu time spent up to now is      435.3 secs

     total energy              =   -2972.34535729 Ry
     estimated scf accuracy    <       1.97499176 Ry

     iteration # 23     ecut=    29.40 Ry     beta= 0.05
     Davidson diagonalization with overlap
     c_bands:  5 eigenvalues not converged
     c_bands:  1 eigenvalues not converged
     ethr =  4.91E-04,  avg # of iterations = 13.2

     negative rho (up, down):  3.266E-03 0.000E+00
 
     Adding external electric field

     Computed dipole along edir(3) : 
        Dipole               -0.6793 Ry au,         -1.7266 Debye
        Dipole field         -0.0013 Ry au, 
 
        Potential amp.        0.1188 Ry
        Total length         46.3494 bohr
 

     total cpu time spent up to now is      453.0 secs

     total energy              =   -2972.66400950 Ry
     estimated scf accuracy    <       5.58602873 Ry

     iteration # 24     ecut=    29.40 Ry     beta= 0.05
     Davidson diagonalization with overlap
     ethr =  4.91E-04,  avg # of iterations =  3.3

     negative rho (up, down):  3.278E-03 0.000E+00
 
     Adding external electric field

     Computed dipole along edir(3) : 
        Dipole               -0.6079 Ry au,         -1.5451 Debye
        Dipole field         -0.0011 Ry au, 
 
        Potential amp.        0.1063 Ry
        Total length         46.3494 bohr
 

     total cpu time spent up to now is      464.0 secs

     total energy              =   -2972.64299167 Ry
     estimated scf accuracy    <       5.13018765 Ry

     iteration # 25     ecut=    29.40 Ry     beta= 0.05
     Davidson diagonalization with overlap
     ethr =  4.91E-04,  avg # of iterations =  1.0

     negative rho (up, down):  3.514E-03 0.000E+00
 
     Adding external electric field

     Computed dipole along edir(3) : 
        Dipole               -0.4633 Ry au,         -1.1775 Debye
        Dipole field         -0.0009 Ry au, 
 
        Potential amp.        0.0810 Ry
        Total length         46.3494 bohr
 

     total cpu time spent up to now is      474.2 secs

     total energy              =   -2972.50530511 Ry
     estimated scf accuracy    <       2.83157678 Ry

     iteration # 26     ecut=    29.40 Ry     beta= 0.05
     Davidson diagonalization with overlap
     ethr =  4.91E-04,  avg # of iterations =  1.6

     negative rho (up, down):  3.824E-03 0.000E+00
 
     Adding external electric field

     Computed dipole along edir(3) : 
        Dipole               -0.5530 Ry au,         -1.4057 Debye
        Dipole field         -0.0010 Ry au, 
 
        Potential amp.        0.0967 Ry
        Total length         46.3494 bohr
 

     total cpu time spent up to now is      484.9 secs

     total energy              =   -2972.57644736 Ry
     estimated scf accuracy    <       0.12988239 Ry

     iteration # 27     ecut=    29.40 Ry     beta= 0.05
     Davidson diagonalization with overlap
     c_bands:  5 eigenvalues not converged
     c_bands:  3 eigenvalues not converged
     c_bands:  1 eigenvalues not converged
     c_bands:  1 eigenvalues not converged
     c_bands:  1 eigenvalues not converged
     ethr =  3.23E-05,  avg # of iterations = 17.4

     negative rho (up, down):  4.273E-03 0.000E+00
 
     Adding external electric field

     Computed dipole along edir(3) : 
        Dipole               -0.2643 Ry au,         -0.6717 Debye
        Dipole field         -0.0005 Ry au, 
 
        Potential amp.        0.0462 Ry
        Total length         46.3494 bohr
 

     total cpu time spent up to now is      507.3 secs

     total energy              =   -2972.59681236 Ry
     estimated scf accuracy    <       2.09244710 Ry

     iteration # 28     ecut=    29.40 Ry     beta= 0.05
     Davidson diagonalization with overlap
     ethr =  3.23E-05,  avg # of iterations =  9.0

     negative rho (up, down):  5.545E-03 0.000E+00
 
     Adding external electric field

     Computed dipole along edir(3) : 
        Dipole                0.1590 Ry au,          0.4040 Debye
        Dipole field          0.0003 Ry au, 
 
        Potential amp.       -0.0278 Ry
        Total length         46.3494 bohr
 

     total cpu time spent up to now is      520.8 secs

     total energy              =   -2972.58591543 Ry
     estimated scf accuracy    <       0.59137371 Ry

     iteration # 29     ecut=    29.40 Ry     beta= 0.05
     Davidson diagonalization with overlap
     c_bands:  2 eigenvalues not converged
     c_bands:  2 eigenvalues not converged
     c_bands:  1 eigenvalues not converged
     c_bands:  3 eigenvalues not converged
     c_bands:  1 eigenvalues not converged
     ethr =  3.23E-05,  avg # of iterations = 15.0

     negative rho (up, down):  5.142E-03 0.000E+00
 
     Adding external electric field

     Computed dipole along edir(3) : 
        Dipole                0.1162 Ry au,          0.2953 Debye
        Dipole field          0.0002 Ry au, 
 
        Potential amp.       -0.0203 Ry
        Total length         46.3494 bohr
 

     total cpu time spent up to now is      541.4 secs

     total energy              =   -2972.62801136 Ry
     estimated scf accuracy    <       0.17707603 Ry

     iteration # 30     ecut=    29.40 Ry     beta= 0.05
     Davidson diagonalization with overlap
     ethr =  3.23E-05,  avg # of iterations =  3.7

     negative rho (up, down):  5.027E-03 0.000E+00
 
     Adding external electric field

     Computed dipole along edir(3) : 
        Dipole                0.0338 Ry au,          0.0858 Debye
        Dipole field          0.0001 Ry au, 
 
        Potential amp.       -0.0059 Ry
        Total length         46.3494 bohr
 

     total cpu time spent up to now is      552.9 secs

     total energy              =   -2972.61934188 Ry
     estimated scf accuracy    <       0.26330942 Ry

     iteration # 31     ecut=    29.40 Ry     beta= 0.05
     Davidson diagonalization with overlap
     ethr =  3.23E-05,  avg # of iterations =  1.7

     negative rho (up, down):  5.971E-03 0.000E+00
 
     Adding external electric field

     Computed dipole along edir(3) : 
        Dipole                0.2076 Ry au,          0.5277 Debye
        Dipole field          0.0004 Ry au, 
 
        Potential amp.       -0.0363 Ry
        Total length         46.3494 bohr
 

     total cpu time spent up to now is      563.4 secs

     total energy              =   -2972.63597671 Ry
     estimated scf accuracy    <       0.16651020 Ry

     iteration # 32     ecut=    29.40 Ry     beta= 0.05
     Davidson diagonalization with overlap
     ethr =  3.23E-05,  avg # of iterations =  4.9

     negative rho (up, down):  5.794E-03 0.000E+00
 
     Adding external electric field

     Computed dipole along edir(3) : 
        Dipole               -0.0149 Ry au,         -0.0378 Debye
        Dipole field         -0.0000 Ry au, 
 
        Potential amp.        0.0026 Ry
        Total length         46.3494 bohr
 

     total cpu time spent up to now is      575.2 secs

     total energy              =   -2972.62252275 Ry
     estimated scf accuracy    <       0.30555179 Ry

     iteration # 33     ecut=    29.40 Ry     beta= 0.05
     Davidson diagonalization with overlap
     c_bands:  1 eigenvalues not converged
     c_bands:  2 eigenvalues not converged
     c_bands:  2 eigenvalues not converged
     ethr =  3.23E-05,  avg # of iterations = 14.0

     negative rho (up, down):  7.167E-03 0.000E+00
 
     Adding external electric field

     Computed dipole along edir(3) : 
        Dipole                0.1710 Ry au,          0.4347 Debye
        Dipole field          0.0003 Ry au, 
 
        Potential amp.       -0.0299 Ry
        Total length         46.3494 bohr
 

     total cpu time spent up to now is      589.9 secs

     total energy              =   -2972.64782873 Ry
     estimated scf accuracy    <       0.16032344 Ry

     iteration # 34     ecut=    29.40 Ry     beta= 0.05
     Davidson diagonalization with overlap
     ethr =  3.23E-05,  avg # of iterations =  4.4

     negative rho (up, down):  6.936E-03 0.000E+00
 
     Adding external electric field

     Computed dipole along edir(3) : 
        Dipole               -0.0004 Ry au,         -0.0011 Debye
        Dipole field         -0.0000 Ry au, 
 
        Potential amp.        0.0001 Ry
        Total length         46.3494 bohr
 

     total cpu time spent up to now is      601.5 secs

     total energy              =   -2972.63883731 Ry
     estimated scf accuracy    <       0.28931436 Ry

     iteration # 35     ecut=    29.40 Ry     beta= 0.05
     Davidson diagonalization with overlap
     c_bands:  1 eigenvalues not converged
     c_bands:  2 eigenvalues not converged
     c_bands:  2 eigenvalues not converged
     ethr =  3.23E-05,  avg # of iterations = 14.4

     negative rho (up, down):  5.946E-03 0.000E+00
 
     Adding external electric field

     Computed dipole along edir(3) : 
        Dipole                0.3671 Ry au,          0.9331 Debye
        Dipole field          0.0007 Ry au, 
 
        Potential amp.       -0.0642 Ry
        Total length         46.3494 bohr
 

     total cpu time spent up to now is      617.3 secs

     total energy              =   -2972.60363788 Ry
     estimated scf accuracy    <       0.24107748 Ry

     iteration # 36     ecut=    29.40 Ry     beta= 0.05
     Davidson diagonalization with overlap
     c_bands:  3 eigenvalues not converged
     c_bands:  5 eigenvalues not converged
     c_bands:  2 eigenvalues not converged
     c_bands:  5 eigenvalues not converged
     c_bands:  5 eigenvalues not converged
     c_bands:  3 eigenvalues not converged
     c_bands:  4 eigenvalues not converged
     c_bands:  5 eigenvalues not converged
     c_bands:  4 eigenvalues not converged
     c_bands:  2 eigenvalues not converged
     ethr =  3.23E-05,  avg # of iterations = 20.0

     negative rho (up, down):  5.354E-03 0.000E+00
 
     Adding external electric field

     Computed dipole along edir(3) : 
        Dipole                0.1619 Ry au,          0.4116 Debye
        Dipole field          0.0003 Ry au, 
 
        Potential amp.       -0.0283 Ry
        Total length         46.3494 bohr
 

     total cpu time spent up to now is      640.0 secs

     total energy              =   -2972.62903143 Ry
     estimated scf accuracy    <       0.39775446 Ry

     iteration # 37     ecut=    29.40 Ry     beta= 0.05
     Davidson diagonalization with overlap
     c_bands:  1 eigenvalues not converged
     c_bands:  1 eigenvalues not converged
     ethr =  3.23E-05,  avg # of iterations = 13.2

     negative rho (up, down):  5.398E-03 0.000E+00
 
     Adding external electric field

     Computed dipole along edir(3) : 
        Dipole                0.1574 Ry au,          0.4000 Debye
        Dipole field          0.0003 Ry au, 
 
        Potential amp.       -0.0275 Ry
        Total length         46.3494 bohr
 

     total cpu time spent up to now is      653.9 secs

     total energy              =   -2972.61487876 Ry
     estimated scf accuracy    <       0.33065271 Ry

     iteration # 38     ecut=    29.40 Ry     beta= 0.05
     Davidson diagonalization with overlap
     c_bands:  5 eigenvalues not converged
     ethr =  3.23E-05,  avg # of iterations =  4.3

     negative rho (up, down):  1.121E-02 0.000E+00
 
     Adding external electric field

     Computed dipole along edir(3) : 
        Dipole                0.6534 Ry au,          1.6607 Debye
        Dipole field          0.0012 Ry au, 
 
        Potential amp.       -0.1143 Ry
        Total length         46.3494 bohr
 

     total cpu time spent up to now is      665.7 secs

     total energy              =   -2972.62877871 Ry
     estimated scf accuracy    <       0.25587413 Ry

     iteration # 39     ecut=    29.40 Ry     beta= 0.05
     Davidson diagonalization with overlap
     c_bands:  3 eigenvalues not converged
     c_bands:  1 eigenvalues not converged
     c_bands:  2 eigenvalues not converged
     c_bands:  1 eigenvalues not converged
     c_bands:  3 eigenvalues not converged
     ethr =  3.23E-05,  avg # of iterations = 13.9

     negative rho (up, down):  1.163E-02 0.000E+00
 
     Adding external electric field

     Computed dipole along edir(3) : 
        Dipole                0.5773 Ry au,          1.4673 Debye
        Dipole field          0.0011 Ry au, 
 
        Potential amp.       -0.1010 Ry
        Total length         46.3494 bohr
 

     total cpu time spent up to now is      683.1 secs

     total energy              =   -2972.63277530 Ry
     estimated scf accuracy    <       0.32832528 Ry

     iteration # 40     ecut=    29.40 Ry     beta= 0.05
     Davidson diagonalization with overlap
     c_bands:  1 eigenvalues not converged
     c_bands:  1 eigenvalues not converged
     c_bands:  1 eigenvalues not converged
     c_bands:  2 eigenvalues not converged
     ethr =  3.23E-05,  avg # of iterations = 13.1

     negative rho (up, down):  9.947E-03 0.000E+00
 
     Adding external electric field

     Computed dipole along edir(3) : 
        Dipole                0.4710 Ry au,          1.1971 Debye
        Dipole field          0.0009 Ry au, 
 
        Potential amp.       -0.0824 Ry
        Total length         46.3494 bohr
 

     total cpu time spent up to now is      698.3 secs

     total energy              =   -2972.62719264 Ry
     estimated scf accuracy    <       0.29978631 Ry

     iteration # 41     ecut=    29.40 Ry     beta= 0.05
     Davidson diagonalization with overlap
     c_bands:  2 eigenvalues not converged
     c_bands:  1 eigenvalues not converged
     c_bands:  2 eigenvalues not converged
     c_bands:  1 eigenvalues not converged
     c_bands:  3 eigenvalues not converged
     c_bands:  3 eigenvalues not converged
     ethr =  3.23E-05,  avg # of iterations = 14.8

     negative rho (up, down):  1.013E-02 0.000E+00
 
     Adding external electric field

     Computed dipole along edir(3) : 
        Dipole                0.5015 Ry au,          1.2747 Debye
        Dipole field          0.0009 Ry au, 
 
        Potential amp.       -0.0877 Ry
        Total length         46.3494 bohr
 

     total cpu time spent up to now is      714.1 secs

     total energy              =   -2972.63827784 Ry
     estimated scf accuracy    <       0.28174984 Ry

     iteration # 42     ecut=    29.40 Ry     beta= 0.05
     Davidson diagonalization with overlap
     ethr =  3.23E-05,  avg # of iterations =  3.2

     negative rho (up, down):  6.329E-03 0.000E+00
 
     Adding external electric field

     Computed dipole along edir(3) : 
        Dipole                0.0376 Ry au,          0.0956 Debye
        Dipole field          0.0001 Ry au, 
 
        Potential amp.       -0.0066 Ry
        Total length         46.3494 bohr
 

     total cpu time spent up to now is      725.1 secs

     total energy              =   -2972.58220556 Ry
     estimated scf accuracy    <       0.30485274 Ry

     iteration # 43     ecut=    29.40 Ry     beta= 0.05
     Davidson diagonalization with overlap
     c_bands:  2 eigenvalues not converged
     c_bands:  3 eigenvalues not converged
     c_bands:  4 eigenvalues not converged
     c_bands:  1 eigenvalues not converged
     c_bands:  2 eigenvalues not converged
     c_bands:  4 eigenvalues not converged
     c_bands:  3 eigenvalues not converged
     c_bands:  2 eigenvalues not converged
     c_bands:  1 eigenvalues not converged
     ethr =  3.23E-05,  avg # of iterations = 19.5

     negative rho (up, down):  8.012E-03 0.000E+00
 
     Adding external electric field

     Computed dipole along edir(3) : 
        Dipole                0.3073 Ry au,          0.7811 Debye
        Dipole field          0.0006 Ry au, 
 
        Potential amp.       -0.0538 Ry
        Total length         46.3494 bohr
 

     total cpu time spent up to now is      748.7 secs

     total energy              =   -2972.58220135 Ry
     estimated scf accuracy    <       0.27204825 Ry

     iteration # 44     ecut=    29.40 Ry     beta= 0.05
     Davidson diagonalization with overlap
     c_bands:  1 eigenvalues not converged
     c_bands:  1 eigenvalues not converged
     c_bands:  4 eigenvalues not converged
     c_bands:  2 eigenvalues not converged
     c_bands:  2 eigenvalues not converged
     c_bands:  1 eigenvalues not converged
     c_bands:  2 eigenvalues not converged
     ethr =  3.23E-05,  avg # of iterations = 18.1

     negative rho (up, down):  9.052E-03 0.000E+00
 
     Adding external electric field

     Computed dipole along edir(3) : 
        Dipole                0.3690 Ry au,          0.9378 Debye
        Dipole field          0.0007 Ry au, 
 
        Potential amp.       -0.0645 Ry
        Total length         46.3494 bohr
 

     total cpu time spent up to now is      765.9 secs

     total energy              =   -2972.61572472 Ry
     estimated scf accuracy    <       0.18370277 Ry

     iteration # 45     ecut=    29.40 Ry     beta= 0.05
     Davidson diagonalization with overlap
     ethr =  3.23E-05,  avg # of iterations =  5.0

     negative rho (up, down):  9.068E-03 0.000E+00
 
     Adding external electric field

     Computed dipole along edir(3) : 
        Dipole                0.3881 Ry au,          0.9865 Debye
        Dipole field          0.0007 Ry au, 
 
        Potential amp.       -0.0679 Ry
        Total length         46.3494 bohr
 

     total cpu time spent up to now is      777.6 secs

     total energy              =   -2972.61732261 Ry
     estimated scf accuracy    <       0.19335696 Ry

     iteration # 46     ecut=    29.40 Ry     beta= 0.05
     Davidson diagonalization with overlap
     ethr =  3.23E-05,  avg # of iterations =  1.7

     negative rho (up, down):  7.873E-03 0.000E+00
 
     Adding external electric field

     Computed dipole along edir(3) : 
        Dipole                0.2662 Ry au,          0.6766 Debye
        Dipole field          0.0005 Ry au, 
 
        Potential amp.       -0.0466 Ry
        Total length         46.3494 bohr
 

     total cpu time spent up to now is      788.4 secs

     total energy              =   -2972.61236992 Ry
     estimated scf accuracy    <       0.20091759 Ry

     iteration # 47     ecut=    29.40 Ry     beta= 0.05
     Davidson diagonalization with overlap
     ethr =  3.23E-05,  avg # of iterations =  1.1

     negative rho (up, down):  8.586E-03 0.000E+00
 
     Adding external electric field

     Computed dipole along edir(3) : 
        Dipole                0.3260 Ry au,          0.8287 Debye
        Dipole field          0.0006 Ry au, 
 
        Potential amp.       -0.0570 Ry
        Total length         46.3494 bohr
 

     total cpu time spent up to now is      798.6 secs

     total energy              =   -2972.61634579 Ry
     estimated scf accuracy    <       0.15605877 Ry

     iteration # 48     ecut=    29.40 Ry     beta= 0.05
     Davidson diagonalization with overlap
     ethr =  3.23E-05,  avg # of iterations =  1.6

     negative rho (up, down):  9.023E-03 0.000E+00
 
     Adding external electric field

     Computed dipole along edir(3) : 
        Dipole                0.3304 Ry au,          0.8397 Debye
        Dipole field          0.0006 Ry au, 
 
        Potential amp.       -0.0578 Ry
        Total length         46.3494 bohr
 

     total cpu time spent up to now is      809.2 secs

     total energy              =   -2972.61473911 Ry
     estimated scf accuracy    <       0.18397851 Ry

     iteration # 49     ecut=    29.40 Ry     beta= 0.05
     Davidson diagonalization with overlap
     ethr =  3.23E-05,  avg # of iterations =  1.0

     negative rho (up, down):  8.543E-03 0.000E+00
 
     Adding external electric field

     Computed dipole along edir(3) : 
        Dipole                0.3066 Ry au,          0.7794 Debye
        Dipole field          0.0006 Ry au, 
 
        Potential amp.       -0.0536 Ry
        Total length         46.3494 bohr
 

     total cpu time spent up to now is      819.3 secs

     total energy              =   -2972.61504691 Ry
     estimated scf accuracy    <       0.16759516 Ry

     iteration # 50     ecut=    29.40 Ry     beta= 0.05
     Davidson diagonalization with overlap
     ethr =  3.23E-05,  avg # of iterations =  1.1

     negative rho (up, down):  1.022E-02 0.000E+00
 
     Adding external electric field

     Computed dipole along edir(3) : 
        Dipole                0.3802 Ry au,          0.9664 Debye
        Dipole field          0.0007 Ry au, 
 
        Potential amp.       -0.0665 Ry
        Total length         46.3494 bohr
 

     total cpu time spent up to now is      829.5 secs

     total energy              =   -2972.61762758 Ry
     estimated scf accuracy    <       0.16710115 Ry

     iteration # 51     ecut=    29.40 Ry     beta= 0.05
     Davidson diagonalization with overlap
     ethr =  3.23E-05,  avg # of iterations =  4.2

     negative rho (up, down):  8.012E-03 0.000E+00
 
     Adding external electric field

     Computed dipole along edir(3) : 
        Dipole                0.1931 Ry au,          0.4908 Debye
        Dipole field          0.0004 Ry au, 
 
        Potential amp.       -0.0338 Ry
        Total length         46.3494 bohr
 

     total cpu time spent up to now is      840.8 secs

     total energy              =   -2972.60774388 Ry
     estimated scf accuracy    <       0.17825435 Ry

     iteration # 52     ecut=    29.40 Ry     beta= 0.05
     Davidson diagonalization with overlap
     ethr =  3.23E-05,  avg # of iterations =  1.7

     negative rho (up, down):  7.373E-03 0.000E+00
 
     Adding external electric field

     Computed dipole along edir(3) : 
        Dipole               -0.0035 Ry au,         -0.0089 Debye
        Dipole field         -0.0000 Ry au, 
 
        Potential amp.        0.0006 Ry
        Total length         46.3494 bohr
 

     total cpu time spent up to now is      851.2 secs

     total energy              =   -2972.60118919 Ry
     estimated scf accuracy    <       0.06552652 Ry

     iteration # 53     ecut=    29.40 Ry     beta= 0.05
     Davidson diagonalization with overlap
     c_bands:  2 eigenvalues not converged
     c_bands:  2 eigenvalues not converged
     c_bands:  1 eigenvalues not converged
     c_bands:  1 eigenvalues not converged
     c_bands:  3 eigenvalues not converged
     c_bands:  1 eigenvalues not converged
     c_bands:  1 eigenvalues not converged
     ethr =  1.63E-05,  avg # of iterations = 17.0

     negative rho (up, down):  1.182E-02 0.000E+00
 
     Adding external electric field

     Computed dipole along edir(3) : 
        Dipole                0.4642 Ry au,          1.1799 Debye
        Dipole field          0.0009 Ry au, 
 
        Potential amp.       -0.0812 Ry
        Total length         46.3494 bohr
 

     total cpu time spent up to now is      867.5 secs

     total energy              =   -2972.54893236 Ry
     estimated scf accuracy    <       1.54247003 Ry

     iteration # 54     ecut=    29.40 Ry     beta= 0.05
     Davidson diagonalization with overlap
     c_bands:  3 eigenvalues not converged
     c_bands:  3 eigenvalues not converged
     c_bands:  4 eigenvalues not converged
     c_bands:  3 eigenvalues not converged
     c_bands:  4 eigenvalues not converged
     c_bands:  3 eigenvalues not converged
     c_bands:  1 eigenvalues not converged
     c_bands:  2 eigenvalues not converged
     c_bands:  3 eigenvalues not converged
     ethr =  1.63E-05,  avg # of iterations = 19.3

     negative rho (up, down):  1.511E-02 0.000E+00
 
     Adding external electric field

     Computed dipole along edir(3) : 
        Dipole                0.5675 Ry au,          1.4424 Debye
        Dipole field          0.0011 Ry au, 
 
        Potential amp.       -0.0993 Ry
        Total length         46.3494 bohr
 

     total cpu time spent up to now is      886.0 secs

     total energy              =   -2972.62459501 Ry
     estimated scf accuracy    <       0.18662690 Ry

     iteration # 55     ecut=    29.40 Ry     beta= 0.05
     Davidson diagonalization with overlap
     c_bands:  4 eigenvalues not converged
     c_bands:  1 eigenvalues not converged
     c_bands:  1 eigenvalues not converged
     ethr =  1.63E-05,  avg # of iterations = 10.1

     negative rho (up, down):  1.613E-02 0.000E+00
 
     Adding external electric field

     Computed dipole along edir(3) : 
        Dipole                0.4738 Ry au,          1.2043 Debye
        Dipole field          0.0009 Ry au, 
 
        Potential amp.       -0.0829 Ry
        Total length         46.3494 bohr
 

     total cpu time spent up to now is      899.7 secs

     total energy              =   -2972.61616333 Ry
     estimated scf accuracy    <       0.21671862 Ry

     iteration # 56     ecut=    29.40 Ry     beta= 0.05
     Davidson diagonalization with overlap
     c_bands:  1 eigenvalues not converged
     ethr =  1.63E-05,  avg # of iterations = 10.5

     negative rho (up, down):  1.584E-02 0.000E+00
 
     Adding external electric field

     Computed dipole along edir(3) : 
        Dipole                0.4125 Ry au,          1.0484 Debye
        Dipole field          0.0008 Ry au, 
 
        Potential amp.       -0.0722 Ry
        Total length         46.3494 bohr
 

     total cpu time spent up to now is      912.7 secs

     total energy              =   -2972.61257932 Ry
     estimated scf accuracy    <       0.17248810 Ry

     iteration # 57     ecut=    29.40 Ry     beta= 0.05
     Davidson diagonalization with overlap
     ethr =  1.63E-05,  avg # of iterations =  2.6

     negative rho (up, down):  1.546E-02 0.000E+00
 
     Adding external electric field

     Computed dipole along edir(3) : 
        Dipole                0.3883 Ry au,          0.9869 Debye
        Dipole field          0.0007 Ry au, 
 
        Potential amp.       -0.0679 Ry
        Total length         46.3494 bohr
 

     total cpu time spent up to now is      923.5 secs

     total energy              =   -2972.61378243 Ry
     estimated scf accuracy    <       0.12035997 Ry

     iteration # 58     ecut=    29.40 Ry     beta= 0.05
     Davidson diagonalization with overlap
     ethr =  1.63E-05,  avg # of iterations =  1.0

     negative rho (up, down):  1.553E-02 0.000E+00
 
     Adding external electric field

     Computed dipole along edir(3) : 
        Dipole                0.3599 Ry au,          0.9148 Debye
        Dipole field          0.0007 Ry au, 
 
        Potential amp.       -0.0630 Ry
        Total length         46.3494 bohr
 

     total cpu time spent up to now is      933.7 secs

     total energy              =   -2972.61307665 Ry
     estimated scf accuracy    <       0.12968753 Ry

     iteration # 59     ecut=    29.40 Ry     beta= 0.05
     Davidson diagonalization with overlap
     ethr =  1.63E-05,  avg # of iterations =  1.0

     negative rho (up, down):  1.595E-02 0.000E+00
 
     Adding external electric field

     Computed dipole along edir(3) : 
        Dipole                0.2411 Ry au,          0.6127 Debye
        Dipole field          0.0005 Ry au, 
 
        Potential amp.       -0.0422 Ry
        Total length         46.3494 bohr
 

     total cpu time spent up to now is      943.8 secs

     total energy              =   -2972.60815822 Ry
     estimated scf accuracy    <       0.11255209 Ry

     iteration # 60     ecut=    29.40 Ry     beta= 0.05
     Davidson diagonalization with overlap
     c_bands:  3 eigenvalues not converged
     ethr =  1.63E-05,  avg # of iterations = 10.5

     negative rho (up, down):  1.618E-02 0.000E+00
 
     Adding external electric field

     Computed dipole along edir(3) : 
        Dipole                0.2339 Ry au,          0.5944 Debye
        Dipole field          0.0004 Ry au, 
 
        Potential amp.       -0.0409 Ry
        Total length         46.3494 bohr
 

     total cpu time spent up to now is      957.3 secs

     total energy              =   -2972.60963522 Ry
     estimated scf accuracy    <       0.00981815 Ry

     iteration # 61     ecut=    29.40 Ry     beta= 0.05
     Davidson diagonalization with overlap
     c_bands:  3 eigenvalues not converged
     c_bands:  3 eigenvalues not converged
     c_bands:  2 eigenvalues not converged
     c_bands:  1 eigenvalues not converged
     c_bands:  3 eigenvalues not converged
     c_bands:  1 eigenvalues not converged
     c_bands:  1 eigenvalues not converged
     c_bands:  1 eigenvalues not converged
     ethr =  2.44E-06,  avg # of iterations = 18.7

     negative rho (up, down):  1.595E-02 0.000E+00
 
     Adding external electric field

     Computed dipole along edir(3) : 
        Dipole                0.2269 Ry au,          0.5767 Debye
        Dipole field          0.0004 Ry au, 
 
        Potential amp.       -0.0397 Ry
        Total length         46.3494 bohr
 

     total cpu time spent up to now is      975.1 secs

     total energy              =   -2972.60980533 Ry
     estimated scf accuracy    <       0.00280075 Ry

     iteration # 62     ecut=    29.40 Ry     beta= 0.05
     Davidson diagonalization with overlap
     c_bands:  2 eigenvalues not converged
     c_bands:  2 eigenvalues not converged
     c_bands:  2 eigenvalues not converged
     c_bands:  2 eigenvalues not converged
     ethr =  6.97E-07,  avg # of iterations = 14.2

     negative rho (up, down):  1.605E-02 0.000E+00
 
     Adding external electric field

     Computed dipole along edir(3) : 
        Dipole                0.2296 Ry au,          0.5836 Debye
        Dipole field          0.0004 Ry au, 
 
        Potential amp.       -0.0402 Ry
        Total length         46.3494 bohr
 

     total cpu time spent up to now is      989.5 secs

     total energy              =   -2972.60987298 Ry
     estimated scf accuracy    <       0.00070665 Ry

     iteration # 63     ecut=    29.40 Ry     beta= 0.05
     Davidson diagonalization with overlap
     c_bands:  1 eigenvalues not converged
     ethr =  1.76E-07,  avg # of iterations = 10.1

     negative rho (up, down):  1.605E-02 0.000E+00
 
     Adding external electric field

     Computed dipole along edir(3) : 
        Dipole                0.2250 Ry au,          0.5718 Debye
        Dipole field          0.0004 Ry au, 
 
        Potential amp.       -0.0394 Ry
        Total length         46.3494 bohr
 

     total cpu time spent up to now is     1003.1 secs

     total energy              =   -2972.60990320 Ry
     estimated scf accuracy    <       0.00087326 Ry

     iteration # 64     ecut=    29.40 Ry     beta= 0.05
     Davidson diagonalization with overlap
     ethr =  1.76E-07,  avg # of iterations =  1.0

     negative rho (up, down):  1.598E-02 0.000E+00
 
     Adding external electric field

     Computed dipole along edir(3) : 
        Dipole                0.1877 Ry au,          0.4771 Debye
        Dipole field          0.0004 Ry au, 
 
        Potential amp.       -0.0328 Ry
        Total length         46.3494 bohr
 

     total cpu time spent up to now is     1013.2 secs

     total energy              =   -2972.60988900 Ry
     estimated scf accuracy    <       0.00049896 Ry

     iteration # 65     ecut=    29.40 Ry     beta= 0.05
     Davidson diagonalization with overlap
     c_bands:  2 eigenvalues not converged
     c_bands:  1 eigenvalues not converged
     ethr =  1.24E-07,  avg # of iterations =  9.6

     negative rho (up, down):  1.608E-02 0.000E+00
 
     Adding external electric field

     Computed dipole along edir(3) : 
        Dipole                0.2318 Ry au,          0.5892 Debye
        Dipole field          0.0004 Ry au, 
 
        Potential amp.       -0.0406 Ry
        Total length         46.3494 bohr
 

     total cpu time spent up to now is     1029.2 secs

     total energy              =   -2972.60939341 Ry
     estimated scf accuracy    <       0.02204250 Ry

     iteration # 66     ecut=    29.40 Ry     beta= 0.05
     Davidson diagonalization with overlap
     ethr =  1.24E-07,  avg # of iterations =  7.5

     negative rho (up, down):  1.658E-02 0.000E+00
 
     Adding external electric field

     Computed dipole along edir(3) : 
        Dipole                0.1993 Ry au,          0.5066 Debye
        Dipole field          0.0004 Ry au, 
 
        Potential amp.       -0.0349 Ry
        Total length         46.3494 bohr
 

     total cpu time spent up to now is     1042.3 secs

     total energy              =   -2972.60985221 Ry
     estimated scf accuracy    <       0.00248075 Ry

     iteration # 67     ecut=    29.40 Ry     beta= 0.05
     Davidson diagonalization with overlap
     ethr =  1.24E-07,  avg # of iterations =  4.5

     negative rho (up, down):  1.695E-02 0.000E+00
 
     Adding external electric field

     Computed dipole along edir(3) : 
        Dipole                0.2218 Ry au,          0.5637 Debye
        Dipole field          0.0004 Ry au, 
 
        Potential amp.       -0.0388 Ry
        Total length         46.3494 bohr
 

     total cpu time spent up to now is     1054.1 secs

     total energy              =   -2972.60994206 Ry
     estimated scf accuracy    <       0.00787856 Ry

     iteration # 68     ecut=    29.40 Ry     beta= 0.05
     Davidson diagonalization with overlap
     ethr =  1.24E-07,  avg # of iterations =  2.0

     negative rho (up, down):  1.695E-02 0.000E+00
 
     Adding external electric field

     Computed dipole along edir(3) : 
        Dipole                0.2191 Ry au,          0.5569 Debye
        Dipole field          0.0004 Ry au, 
 
        Potential amp.       -0.0383 Ry
        Total length         46.3494 bohr
 

     total cpu time spent up to now is     1065.0 secs

     total energy              =   -2972.61002071 Ry
     estimated scf accuracy    <       0.00061714 Ry

     iteration # 69     ecut=    29.40 Ry     beta= 0.05
     Davidson diagonalization with overlap
     ethr =  1.24E-07,  avg # of iterations =  1.0

     negative rho (up, down):  1.662E-02 0.000E+00
 
     Adding external electric field

     Computed dipole along edir(3) : 
        Dipole                0.2219 Ry au,          0.5639 Debye
        Dipole field          0.0004 Ry au, 
 
        Potential amp.       -0.0388 Ry
        Total length         46.3494 bohr
 

     total cpu time spent up to now is     1075.1 secs

     total energy              =   -2972.60996374 Ry
     estimated scf accuracy    <       0.00090071 Ry

     iteration # 70     ecut=    29.40 Ry     beta= 0.05
     Davidson diagonalization with overlap
     ethr =  1.24E-07,  avg # of iterations =  1.5

     negative rho (up, down):  1.628E-02 0.000E+00
 
     Adding external electric field

     Computed dipole along edir(3) : 
        Dipole                0.2253 Ry au,          0.5726 Debye
        Dipole field          0.0004 Ry au, 
 
        Potential amp.       -0.0394 Ry
        Total length         46.3494 bohr
 

     total cpu time spent up to now is     1085.4 secs

     total energy              =   -2972.60993385 Ry
     estimated scf accuracy    <       0.00047006 Ry

     iteration # 71     ecut=    29.40 Ry     beta= 0.05
     Davidson diagonalization with overlap
     ethr =  1.17E-07,  avg # of iterations =  2.0

     negative rho (up, down):  1.654E-02 0.000E+00
 
     Adding external electric field

     Computed dipole along edir(3) : 
        Dipole                0.2275 Ry au,          0.5784 Debye
        Dipole field          0.0004 Ry au, 
 
        Potential amp.       -0.0398 Ry
        Total length         46.3494 bohr
 

     total cpu time spent up to now is     1096.5 secs

     total energy              =   -2972.60996055 Ry
     estimated scf accuracy    <       0.00037290 Ry

     iteration # 72     ecut=    29.40 Ry     beta= 0.05
     Davidson diagonalization with overlap
     ethr =  9.28E-08,  avg # of iterations =  1.2

     negative rho (up, down):  1.687E-02 0.000E+00
 
     Adding external electric field

     Computed dipole along edir(3) : 
        Dipole                0.2276 Ry au,          0.5784 Debye
        Dipole field          0.0004 Ry au, 
 
        Potential amp.       -0.0398 Ry
        Total length         46.3494 bohr
 

     total cpu time spent up to now is     1106.8 secs

     total energy              =   -2972.60997658 Ry
     estimated scf accuracy    <       0.00043471 Ry

     iteration # 73     ecut=    29.40 Ry     beta= 0.05
     Davidson diagonalization with overlap
     ethr =  9.28E-08,  avg # of iterations =  1.0

     negative rho (up, down):  1.667E-02 0.000E+00
 
     Adding external electric field

     Computed dipole along edir(3) : 
        Dipole                0.2268 Ry au,          0.5766 Debye
        Dipole field          0.0004 Ry au, 
 
        Potential amp.       -0.0397 Ry
        Total length         46.3494 bohr
 

     total cpu time spent up to now is     1116.9 secs

     total energy              =   -2972.60993493 Ry
     estimated scf accuracy    <       0.00053154 Ry

     iteration # 74     ecut=    29.40 Ry     beta= 0.05
     Davidson diagonalization with overlap
     ethr =  9.28E-08,  avg # of iterations =  2.0

     negative rho (up, down):  1.682E-02 0.000E+00
 
     Adding external electric field

     Computed dipole along edir(3) : 
        Dipole                0.2286 Ry au,          0.5809 Debye
        Dipole field          0.0004 Ry au, 
 
        Potential amp.       -0.0400 Ry
        Total length         46.3494 bohr
 

     total cpu time spent up to now is     1128.1 secs

     total energy              =   -2972.60994639 Ry
     estimated scf accuracy    <       0.00014132 Ry

     iteration # 75     ecut=    29.40 Ry     beta= 0.05
     Davidson diagonalization with overlap
     ethr =  3.52E-08,  avg # of iterations =  5.2

     negative rho (up, down):  1.690E-02 0.000E+00
 
     Adding external electric field

     Computed dipole along edir(3) : 
        Dipole                0.2277 Ry au,          0.5788 Debye
        Dipole field          0.0004 Ry au, 
 
        Potential amp.       -0.0398 Ry
        Total length         46.3494 bohr
 

     total cpu time spent up to now is     1142.4 secs

     total energy              =   -2972.60996291 Ry
     estimated scf accuracy    <       0.00005694 Ry

     iteration # 76     ecut=    29.40 Ry     beta= 0.05
     Davidson diagonalization with overlap
     ethr =  1.42E-08,  avg # of iterations =  2.0

     negative rho (up, down):  1.690E-02 0.000E+00
 
     Adding external electric field

     Computed dipole along edir(3) : 
        Dipole                0.2273 Ry au,          0.5777 Debye
        Dipole field          0.0004 Ry au, 
 
        Potential amp.       -0.0398 Ry
        Total length         46.3494 bohr
 

     total cpu time spent up to now is     1153.6 secs

     total energy              =   -2972.60996267 Ry
     estimated scf accuracy    <       0.00003802 Ry

     iteration # 77     ecut=    29.40 Ry     beta= 0.05
     Davidson diagonalization with overlap
     ethr =  9.46E-09,  avg # of iterations =  4.9

     negative rho (up, down):  1.674E-02 0.000E+00
 
     Adding external electric field

     Computed dipole along edir(3) : 
        Dipole                0.2259 Ry au,          0.5742 Debye
        Dipole field          0.0004 Ry au, 
 
        Potential amp.       -0.0395 Ry
        Total length         46.3494 bohr
 

     total cpu time spent up to now is     1166.2 secs

     total energy              =   -2972.60996479 Ry
     estimated scf accuracy    <       0.00001942 Ry

     iteration # 78     ecut=    29.40 Ry     beta= 0.05
     Davidson diagonalization with overlap
     ethr =  4.83E-09,  avg # of iterations =  6.7

     negative rho (up, down):  1.662E-02 0.000E+00
 
     Adding external electric field

     Computed dipole along edir(3) : 
        Dipole                0.2241 Ry au,          0.5697 Debye
        Dipole field          0.0004 Ry au, 
 
        Potential amp.       -0.0392 Ry
        Total length         46.3494 bohr
 

     total cpu time spent up to now is     1181.0 secs

     total energy              =   -2972.60996725 Ry
     estimated scf accuracy    <       0.00001215 Ry

     iteration # 79     ecut=    29.40 Ry     beta= 0.05
     Davidson diagonalization with overlap
     ethr =  3.02E-09,  avg # of iterations =  4.6

     negative rho (up, down):  1.657E-02 0.000E+00
 
     Adding external electric field

     Computed dipole along edir(3) : 
        Dipole                0.2230 Ry au,          0.5669 Debye
        Dipole field          0.0004 Ry au, 
 
        Potential amp.       -0.0390 Ry
        Total length         46.3494 bohr
 

     total cpu time spent up to now is     1193.5 secs

     total energy              =   -2972.60996546 Ry
     estimated scf accuracy    <       0.00001157 Ry

     iteration # 80     ecut=    29.40 Ry     beta= 0.05
     Davidson diagonalization with overlap
     ethr =  2.88E-09,  avg # of iterations =  6.5

     negative rho (up, down):  1.657E-02 0.000E+00
 
     Adding external electric field

     Computed dipole along edir(3) : 
        Dipole                0.2241 Ry au,          0.5697 Debye
        Dipole field          0.0004 Ry au, 
 
        Potential amp.       -0.0392 Ry
        Total length         46.3494 bohr
 

     total cpu time spent up to now is     1208.8 secs

     total energy              =   -2972.60996748 Ry
     estimated scf accuracy    <       0.00000640 Ry

     iteration # 81     ecut=    29.40 Ry     beta= 0.05
     Davidson diagonalization with overlap
     ethr =  1.59E-09,  avg # of iterations =  6.3

     negative rho (up, down):  1.653E-02 0.000E+00
 
     Adding external electric field

     Computed dipole along edir(3) : 
        Dipole                0.2232 Ry au,          0.5674 Debye
        Dipole field          0.0004 Ry au, 
 
        Potential amp.       -0.0391 Ry
        Total length         46.3494 bohr
 

     total cpu time spent up to now is     1223.6 secs

     total energy              =   -2972.60996833 Ry
     estimated scf accuracy    <       0.00000620 Ry

     iteration # 82     ecut=    29.40 Ry     beta= 0.05
     Davidson diagonalization with overlap
     ethr =  1.54E-09,  avg # of iterations =  2.0

     negative rho (up, down):  1.644E-02 0.000E+00
 
     Adding external electric field

     Computed dipole along edir(3) : 
        Dipole                0.2203 Ry au,          0.5600 Debye
        Dipole field          0.0004 Ry au, 
 
        Potential amp.       -0.0385 Ry
        Total length         46.3494 bohr
 

     total cpu time spent up to now is     1234.8 secs

     total energy              =   -2972.60996908 Ry
     estimated scf accuracy    <       0.00000291 Ry

     iteration # 83     ecut=    29.40 Ry     beta= 0.05
     Davidson diagonalization with overlap
     ethr =  7.24E-10,  avg # of iterations = 10.9

     negative rho (up, down):  1.643E-02 0.000E+00
 
     Adding external electric field

     Computed dipole along edir(3) : 
        Dipole                0.2201 Ry au,          0.5594 Debye
        Dipole field          0.0004 Ry au, 
 
        Potential amp.       -0.0385 Ry
        Total length         46.3494 bohr
 

     total cpu time spent up to now is     1258.5 secs

     total energy              =   -2972.60997083 Ry
     estimated scf accuracy    <       0.00001774 Ry

     iteration # 84     ecut=    29.40 Ry     beta= 0.05
     Davidson diagonalization with overlap
     ethr =  7.24E-10,  avg # of iterations =  5.6

     negative rho (up, down):  1.644E-02 0.000E+00
 
     Adding external electric field

     Computed dipole along edir(3) : 
        Dipole                0.2210 Ry au,          0.5616 Debye
        Dipole field          0.0004 Ry au, 
 
        Potential amp.       -0.0387 Ry
        Total length         46.3494 bohr
 

     total cpu time spent up to now is     1272.5 secs

     total energy              =   -2972.60996971 Ry
     estimated scf accuracy    <       0.00000969 Ry

     iteration # 85     ecut=    29.40 Ry     beta= 0.05
     Davidson diagonalization with overlap
     ethr =  7.24E-10,  avg # of iterations =  6.4

     negative rho (up, down):  1.643E-02 0.000E+00
 
     Adding external electric field

     Computed dipole along edir(3) : 
        Dipole                0.2207 Ry au,          0.5611 Debye
        Dipole field          0.0004 Ry au, 
 
        Potential amp.       -0.0386 Ry
        Total length         46.3494 bohr
 

     total cpu time spent up to now is     1290.6 secs

     total energy              =   -2972.60997127 Ry
     estimated scf accuracy    <       0.00000138 Ry

     iteration # 86     ecut=    29.40 Ry     beta= 0.05
     Davidson diagonalization with overlap
     ethr =  3.42E-10,  avg # of iterations =  4.8

     negative rho (up, down):  1.639E-02 0.000E+00
 
     Adding external electric field

     Computed dipole along edir(3) : 
        Dipole                0.2205 Ry au,          0.5605 Debye
        Dipole field          0.0004 Ry au, 
 
        Potential amp.       -0.0386 Ry
        Total length         46.3494 bohr
 

     total cpu time spent up to now is     1303.1 secs

     total energy              =   -2972.60997162 Ry
     estimated scf accuracy    <       0.00000071 Ry

     iteration # 87     ecut=    29.40 Ry     beta= 0.05
     Davidson diagonalization with overlap
     ethr =  1.77E-10,  avg # of iterations =  6.8

     negative rho (up, down):  1.639E-02 0.000E+00
 
     Adding external electric field

     Computed dipole along edir(3) : 
        Dipole                0.2200 Ry au,          0.5591 Debye
        Dipole field          0.0004 Ry au, 
 
        Potential amp.       -0.0385 Ry
        Total length         46.3494 bohr
 

     total cpu time spent up to now is     1317.9 secs

     total energy              =   -2972.60997203 Ry
     estimated scf accuracy    <       0.00000037 Ry

     iteration # 88     ecut=    29.40 Ry     beta= 0.05
     Davidson diagonalization with overlap
     ethr =  9.28E-11,  avg # of iterations =  5.1

     negative rho (up, down):  1.639E-02 0.000E+00
 
     Adding external electric field

     Computed dipole along edir(3) : 
        Dipole                0.2199 Ry au,          0.5590 Debye
        Dipole field          0.0004 Ry au, 
 
        Potential amp.       -0.0385 Ry
        Total length         46.3494 bohr
 

     total cpu time spent up to now is     1331.1 secs

     total energy              =   -2972.60997237 Ry
     estimated scf accuracy    <       0.00000013 Ry

     iteration # 89     ecut=    29.40 Ry     beta= 0.05
     Davidson diagonalization with overlap
     ethr =  3.35E-11,  avg # of iterations =  5.8

     negative rho (up, down):  1.638E-02 0.000E+00
 
     Adding external electric field

     Computed dipole along edir(3) : 
        Dipole                0.2198 Ry au,          0.5587 Debye
        Dipole field          0.0004 Ry au, 
 
        Potential amp.       -0.0385 Ry
        Total length         46.3494 bohr
 

     total cpu time spent up to now is     1347.0 secs

     total energy              =   -2972.60997266 Ry
     estimated scf accuracy    <       0.00000019 Ry

     iteration # 90     ecut=    29.40 Ry     beta= 0.05
     Davidson diagonalization with overlap
     ethr =  3.35E-11,  avg # of iterations =  2.0

     negative rho (up, down):  1.636E-02 0.000E+00
 
     Adding external electric field

     Computed dipole along edir(3) : 
        Dipole                0.2196 Ry au,          0.5581 Debye
        Dipole field          0.0004 Ry au, 
 
        Potential amp.       -0.0384 Ry
        Total length         46.3494 bohr
 

     total cpu time spent up to now is     1358.4 secs

     total energy              =   -2972.60997295 Ry
     estimated scf accuracy    <       0.00000011 Ry

     iteration # 91     ecut=    29.40 Ry     beta= 0.05
     Davidson diagonalization with overlap
     ethr =  2.71E-11,  avg # of iterations =  5.6

     negative rho (up, down):  1.636E-02 0.000E+00
 
     Adding external electric field

     Computed dipole along edir(3) : 
        Dipole                0.2195 Ry au,          0.5578 Debye
        Dipole field          0.0004 Ry au, 
 
        Potential amp.       -0.0384 Ry
        Total length         46.3494 bohr
 

     total cpu time spent up to now is     1376.9 secs

     total energy              =   -2972.60997318 Ry
     estimated scf accuracy    <       0.00000018 Ry

     iteration # 92     ecut=    29.40 Ry     beta= 0.05
     Davidson diagonalization with overlap
     ethr =  2.71E-11,  avg # of iterations =  2.0

     negative rho (up, down):  1.636E-02 0.000E+00
 
     Adding external electric field

     Computed dipole along edir(3) : 
        Dipole                0.2195 Ry au,          0.5578 Debye
        Dipole field          0.0004 Ry au, 
 
        Potential amp.       -0.0384 Ry
        Total length         46.3494 bohr
 

     total cpu time spent up to now is     1388.1 secs

     total energy              =   -2972.60997337 Ry
     estimated scf accuracy    <       0.00000009 Ry

     iteration # 93     ecut=    29.40 Ry     beta= 0.05
     Davidson diagonalization with overlap
     ethr =  2.32E-11,  avg # of iterations =  2.5

     negative rho (up, down):  1.638E-02 0.000E+00
 
     Adding external electric field

     Computed dipole along edir(3) : 
        Dipole                0.2204 Ry au,          0.5602 Debye
        Dipole field          0.0004 Ry au, 
 
        Potential amp.       -0.0386 Ry
        Total length         46.3494 bohr
 

     total cpu time spent up to now is     1400.0 secs

     End of self-consistent calculation

          k = 0.0000 0.0000 0.0000 ( 18029 PWs)   bands (ev):

   -56.4672 -56.4334 -56.0105 -55.9746 -55.7588 -55.7043 -55.6458 -55.6360
   -55.6039 -55.5156 -55.5059 -55.4507 -55.4067 -55.2825 -55.2115 -55.1776
   -32.9137 -32.7585 -32.7312 -32.6271 -32.5382 -32.5348 -32.4920 -32.2421
   -32.2282 -32.2061 -32.1594 -32.1543 -32.1283 -32.1091 -32.0263 -32.0112
   -31.9933 -31.9800 -31.9620 -31.9237 -31.9174 -31.9098 -31.9067 -31.8837
   -31.8652 -31.8630 -31.8582 -31.8059 -31.7899 -31.7697 -31.7468 -31.7229
   -31.7105 -31.6950 -31.6789 -31.6727 -31.6452 -31.6067 -31.5961 -31.5775
   -31.5474 -31.5466 -31.5228 -31.5141 -31.4906 -31.4258 -31.3415 -31.2294
[...]
     0.7737   0.8247   0.8887   0.9675   1.0188   1.2274   1.2533   1.3168
     2.5100   2.8712   2.8853   3.1930   3.2099   3.3539   3.5540   3.5904
     3.7423   3.7862   3.8260

          k = 0.0380 0.0419 0.0000 ( 17878 PWs)   bands (ev):

   -56.4621 -56.4383 -56.0058 -55.9790 -55.7559 -55.7069 -55.6419 -55.6351
   -55.6075 -55.5144 -55.5065 -55.4498 -55.4076 -55.2832 -55.2064 -55.1824
   -32.8608 -32.7539 -32.7345 -32.6118 -32.5944 -32.5479 -32.4409 -32.2159
   -32.2115 -32.1928 -32.1890 -32.1424 -32.1365 -32.0770 -31.9954 -31.9882
   -31.9822 -31.9814 -31.9360 -31.9224 -31.9196 -31.9166 -31.9030 -31.8894
   -31.8672 -31.8613 -31.8578 -31.8186 -31.8057 -31.7865 -31.7718 -31.7234
   -31.7203 -31.7053 -31.6959 -31.6835 -31.6480 -31.6046 -31.5965 -31.5717
   -31.5532 -31.5450 -31.5400 -31.5251 -31.4922 -31.4133 -31.3538 -31.2861
   -17.9019 -16.5262 -16.4603 -16.2021 -16.0632 -16.0388 -15.9466 -15.9351
   -15.7539 -15.7231 -15.6783 -15.6713 -15.6063 -15.5255 -15.4970 -15.4295
   -15.3913 -15.3623 -15.2669 -15.2516 -15.2229 -15.2021 -15.1648 -15.1219
   -15.0566 -15.0333 -14.9175 -14.8966 -14.8323 -14.7164 -14.5958 -13.7135
   -13.6384 -13.2189  -7.8127  -6.1367  -4.2812  -4.1193  -3.7964  -3.6307
    -3.4556  -3.3418  -3.2947  -3.2869  -3.2582  -3.1936  -3.0678  -2.9988
    -2.9848  -2.9670  -2.9227  -2.8728  -2.8552  -2.8256  -2.7851  -2.7495
    -2.7240  -2.6798  -2.6481  -2.6086  -2.5769  -2.5425  -2.5263  -2.4815
    -2.4444  -2.3880  -2.3401  -2.2637  -2.2036  -2.1643  -2.1388  -2.0613
    -1.9551  -1.9311  -1.8657  -1.7899  -1.7554  -1.6774  -1.5695  -1.5444
    -1.5361  -1.4760  -1.4411  -1.3677  -1.2818  -1.2315  -1.1903  -1.1539
    -1.1098  -1.0583  -1.0379  -1.0162  -1.0011  -0.9249  -0.8744  -0.8322
    -0.7703  -0.7529  -0.7125  -0.6795  -0.6383  -0.5932  -0.5411  -0.5002
    -0.4748  -0.4225  -0.3796  -0.3523  -0.2672  -0.2454  -0.2165  -0.1219
    -0.0967  -0.0626  -0.0078   0.0025   0.0707   0.1506   0.1930   0.2464
     0.2613   0.2987   0.4283   0.4438   0.4830   0.5551   0.5956   0.6478
     0.7110   0.7823   0.9711   1.0375   1.1438   1.1985   1.2360   1.2909
     2.4984   2.9904   3.1084   3.2697   3.4085   3.4134   3.5674   3.6185
     3.7224   3.7454   3.8077

          k = 0.0380-0.0839 0.0000 ( 17916 PWs)   bands (ev):

   -56.4504 -56.4500 -55.9988 -55.9861 -55.7528 -55.7101 -55.6372 -55.6345
   -55.6124 -55.5134 -55.5072 -55.4490 -55.4087 -55.2841 -55.1950 -55.1939
   -32.7442 -32.7438 -32.7293 -32.7291 -32.5805 -32.5796 -32.3205 -32.3095
   -32.1907 -32.1838 -32.1759 -32.1744 -32.0679 -32.0339 -31.9816 -31.9679
   -31.9588 -31.9546 -31.9487 -31.9378 -31.9312 -31.9286 -31.9097 -31.8730
   -31.8654 -31.8558 -31.8543 -31.8438 -31.8232 -31.7928 -31.7813 -31.7735
   -31.7296 -31.7114 -31.7016 -31.6804 -31.6472 -31.6327 -31.6302 -31.5969
   -31.5496 -31.5355 -31.5346 -31.4924 -31.4224 -31.4210 -31.3842 -31.3833
   -17.8987 -16.4563 -16.2526 -16.2444 -15.9786 -15.9582 -15.8961 -15.8489
   -15.7862 -15.7329 -15.6926 -15.6798 -15.5484 -15.4952 -15.4811 -15.4518
   -15.4231 -15.4088 -15.3018 -15.2927 -15.2663 -15.2320 -15.1685 -15.1163
   -15.0903 -15.0387 -14.9339 -14.9063 -14.9035 -14.8262 -14.6887 -13.7012
   -13.7003 -13.2171  -7.8153  -6.1329  -4.3119  -4.0908  -3.4196  -3.4178
    -3.3006  -3.2278  -3.1825  -3.1621  -3.0842  -3.0621  -3.0596  -3.0401
    -3.0135  -2.9559  -2.8798  -2.8651  -2.8360  -2.8034  -2.7739  -2.7606
    -2.7529  -2.7035  -2.6922  -2.6599  -2.6324  -2.6025  -2.5568  -2.4896
    -2.3912  -2.3720  -2.2911  -2.2099  -2.1689  -2.1169  -2.0861  -2.0653
    -1.9998  -1.9331  -1.8777  -1.7662  -1.7287  -1.6728  -1.6479  -1.6145
    -1.5887  -1.5334  -1.4912  -1.4555  -1.4342  -1.3541  -1.3249  -1.2487
    -1.1605  -1.1155  -1.0863  -1.0376  -0.9662  -0.9136  -0.8892  -0.8780
    -0.8006  -0.7382  -0.7112  -0.6988  -0.6620  -0.6044  -0.5974  -0.5595
    -0.5037  -0.4301  -0.3924  -0.3755  -0.3156  -0.2793  -0.2293  -0.1896
    -0.1360  -0.1040  -0.0648  -0.0505   0.0106   0.0658   0.1560   0.1726
     0.2055   0.2784   0.3425   0.4171   0.4452   0.4948   0.5258   0.5958
     0.7071   0.9010   0.9932   1.0241   1.1821   1.1890   1.2379   1.2442
     2.4873   3.2476   3.2498   3.4114   3.4143   3.6022   3.6225   3.6515
     3.6616   3.6958   3.7615

          k = 0.0380-0.0419 0.0000 ( 17876 PWs)   bands (ev):

   -56.4621 -56.4383 -56.0058 -55.9790 -55.7559 -55.7069 -55.6419 -55.6351
   -55.6075 -55.5144 -55.5065 -55.4498 -55.4076 -55.2832 -55.2064 -55.1824
   -32.8607 -32.7539 -32.7345 -32.6118 -32.5944 -32.5479 -32.4409 -32.2159
   -32.2115 -32.1928 -32.1890 -32.1424 -32.1364 -32.0769 -31.9946 -31.9882
   -31.9823 -31.9816 -31.9359 -31.9221 -31.9194 -31.9167 -31.9043 -31.8896
   -31.8675 -31.8615 -31.8578 -31.8198 -31.8045 -31.7865 -31.7722 -31.7275
   -31.7116 -31.7061 -31.7005 -31.6801 -31.6478 -31.6050 -31.5973 -31.5718
   -31.5532 -31.5450 -31.5400 -31.5251 -31.4923 -31.4133 -31.3538 -31.2861
   -17.9018 -16.5261 -16.4608 -16.2022 -16.0638 -16.0396 -15.9478 -15.9349
   -15.7561 -15.7191 -15.6776 -15.6716 -15.6077 -15.5251 -15.4965 -15.4133
   -15.3864 -15.3503 -15.3271 -15.2472 -15.2141 -15.1985 -15.1622 -15.1093
   -15.0561 -15.0348 -14.9175 -14.8991 -14.8309 -14.7172 -14.5966 -13.7135
   -13.6384 -13.2187  -7.8144  -6.1382  -4.2991  -4.1045  -3.7958  -3.6310
    -3.4538  -3.3388  -3.2949  -3.2830  -3.2562  -3.1976  -3.0682  -3.0037
    -2.9910  -2.9725  -2.9240  -2.8852  -2.8572  -2.8380  -2.7839  -2.7668
    -2.7259  -2.6796  -2.6536  -2.6121  -2.5709  -2.5366  -2.5005  -2.4632
    -2.4425  -2.3710  -2.3187  -2.2678  -2.2089  -2.1684  -2.1286  -2.0476
    -1.9671  -1.9334  -1.9072  -1.7815  -1.7645  -1.6885  -1.5801  -1.5462
    -1.5312  -1.4540  -1.4247  -1.3431  -1.2990  -1.2072  -1.1767  -1.1301
    -1.0924  -1.0502  -1.0443  -1.0141  -0.9616  -0.9200  -0.8661  -0.7990
    -0.7719  -0.7426  -0.7226  -0.6610  -0.6438  -0.6020  -0.5697  -0.5156
    -0.4970  -0.4536  -0.4004  -0.3801  -0.3139  -0.2528  -0.2217  -0.1154
    -0.0877  -0.0308   0.0090   0.0173   0.0999   0.1382   0.1889   0.2254
     0.2536   0.3369   0.3677   0.4254   0.4366   0.5400   0.6039   0.6491
     0.7279   0.7924   0.9662   1.0377   1.1394   1.1963   1.2357   1.2915
     2.4979   2.9909   3.1086   3.2697   3.4078   3.4135   3.5672   3.6187
     3.7221   3.7450   3.8283

          k =-0.0760-0.0000 0.0000 ( 17886 PWs)   bands (ev):

   -56.4670 -56.4333 -56.0103 -55.9745 -55.7587 -55.7042 -55.6456 -55.6358
   -55.6038 -55.5153 -55.5059 -55.4506 -55.4066 -55.2824 -55.2114 -55.1775
   -32.9152 -32.7582 -32.7310 -32.6226 -32.5379 -32.5348 -32.4923 -32.2656
   -32.2278 -32.1829 -32.1593 -32.1320 -32.1287 -32.1088 -32.0283 -32.0151
   -32.0034 -31.9933 -31.9626 -31.9234 -31.9073 -31.9048 -31.8950 -31.8839
   -31.8649 -31.8625 -31.8566 -31.8013 -31.7911 -31.7708 -31.7469 -31.7146
   -31.7102 -31.7011 -31.6811 -31.6717 -31.6538 -31.6060 -31.6006 -31.5776
   -31.5518 -31.5472 -31.5198 -31.5141 -31.4936 -31.4255 -31.3413 -31.2292
   -17.9033 -16.5007 -16.4622 -16.2024 -16.1553 -16.1260 -16.0190 -15.9159
   -15.8670 -15.8031 -15.6929 -15.6674 -15.5403 -15.5321 -15.5057 -15.4722
   -15.4537 -15.3581 -15.3468 -15.2651 -15.2397 -15.1860 -15.1528 -15.0534
   -15.0136 -14.9107 -14.8671 -14.8623 -14.8091 -14.6276 -14.5313 -13.7035
   -13.5968 -13.2286  -7.7939  -6.1116  -4.2948  -4.1440  -3.7778  -3.5845
    -3.5812  -3.4917  -3.4028  -3.3556  -3.2408  -3.2068  -3.1926  -3.1812
    -3.0800  -3.0153  -2.9267  -2.8800  -2.8562  -2.7713  -2.7647  -2.6935
    -2.6036  -2.6013  -2.5665  -2.5571  -2.4566  -2.3912  -2.3743  -2.3205
    -2.2510  -2.2167  -2.1785  -2.1298  -2.1154  -2.0819  -2.0270  -1.9842
    -1.9692  -1.9133  -1.8861  -1.8191  -1.7980  -1.7538  -1.7294  -1.6622
    -1.6320  -1.5769  -1.5140  -1.4702  -1.3892  -1.3090  -1.2946  -1.2432
    -1.1760  -1.1642  -1.1001  -1.0836  -1.0356  -0.9758  -0.9330  -0.8731
    -0.8246  -0.7668  -0.7087  -0.6511  -0.6468  -0.6164  -0.5431  -0.5245
    -0.3678  -0.3513  -0.3285  -0.3032  -0.2584  -0.1844  -0.1798  -0.1530
    -0.0983  -0.0814   0.0246   0.1343   0.1751   0.2137   0.2310   0.2730
     0.3501   0.3708   0.4208   0.4576   0.5083   0.5770   0.6025   0.6674
     0.8317   0.8444   0.8883   0.9509   0.9745   1.0114   1.1325   1.2545
     2.5052   2.8462   2.9189   3.1061   3.1973   3.3418   3.3515   3.7155
     3.7422   3.7940   3.8380

          k =-0.0760 0.0419 0.0000 ( 17914 PWs)   bands (ev):

   -56.4621 -56.4383 -56.0058 -55.9790 -55.7559 -55.7070 -55.6419 -55.6351
   -55.6076 -55.5143 -55.5066 -55.4498 -55.4076 -55.2832 -55.2064 -55.1825
   -32.8616 -32.7540 -32.7345 -32.6102 -32.5947 -32.5479 -32.4411 -32.2243
   -32.2159 -32.1926 -32.1805 -32.1424 -32.1216 -32.0791 -31.9969 -31.9921
   -31.9885 -31.9827 -31.9364 -31.9222 -31.9190 -31.9187 -31.8988 -31.8833
   -31.8679 -31.8610 -31.8574 -31.8165 -31.8055 -31.7875 -31.7724 -31.7259
   -31.7131 -31.7061 -31.6975 -31.6843 -31.6521 -31.6052 -31.5993 -31.5717
   -31.5530 -31.5473 -31.5401 -31.5245 -31.4942 -31.4134 -31.3538 -31.2861
   -17.9005 -16.4580 -16.3911 -16.1098 -16.0822 -16.0568 -15.9598 -15.9524
   -15.7835 -15.7643 -15.6241 -15.6119 -15.6044 -15.5705 -15.4781 -15.4631
   -15.4288 -15.3905 -15.3306 -15.2908 -15.2577 -15.1953 -15.1873 -15.1191
   -15.0843 -14.9918 -14.9246 -14.9079 -14.8237 -14.7178 -14.5951 -13.7116
   -13.6387 -13.2261  -7.7944  -6.1064  -4.3321  -4.1053  -3.6211  -3.3764
    -3.3593  -3.2841  -3.1994  -3.1706  -3.1608  -3.0380  -2.9992  -2.9884
    -2.9782  -2.9315  -2.8980  -2.8649  -2.8531  -2.7991  -2.7613  -2.7511
    -2.7089  -2.7019  -2.6311  -2.6078  -2.5254  -2.5019  -2.4733  -2.3980
    -2.3683  -2.2809  -2.2296  -2.2054  -2.1366  -2.1166  -2.0947  -2.0539
    -2.0243  -1.9485  -1.9254  -1.7832  -1.7325  -1.7017  -1.6782  -1.5669
    -1.5557  -1.5043  -1.4506  -1.4108  -1.3753  -1.3198  -1.2967  -1.2668
    -1.2007  -1.1741  -1.1293  -1.0786  -1.0346  -1.0072  -0.9830  -0.9396
    -0.8904  -0.8579  -0.8307  -0.7926  -0.7351  -0.7088  -0.6708  -0.6298
    -0.5500  -0.5382  -0.5186  -0.3873  -0.3523  -0.3036  -0.2616  -0.2441
    -0.1422  -0.0299  -0.0134   0.0753   0.1141   0.1856   0.2050   0.2553
     0.3094   0.3760   0.4040   0.4308   0.5010   0.5261   0.6557   0.6896
     0.7292   0.8742   0.9340   0.9680   1.0497   1.1635   1.1798   1.2769
     2.4995   2.9958   3.1183   3.1902   3.2939   3.4755   3.5372   3.7230
     3.7586   3.8001   3.8412

          k =-0.0760-0.0839 0.0000 ( 17948 PWs)   bands (ev):

   -56.4505 -56.4500 -55.9988 -55.9861 -55.7528 -55.7101 -55.6372 -55.6345
   -55.6124 -55.5134 -55.5073 -55.4490 -55.4087 -55.2841 -55.1951 -55.1939
   -32.7443 -32.7438 -32.7299 -32.7298 -32.5796 -32.5787 -32.3208 -32.3098
   -32.1907 -32.1844 -32.1763 -32.1747 -32.0607 -32.0282 -31.9817 -31.9746
   -31.9611 -31.9565 -31.9484 -31.9394 -31.9366 -31.9287 -31.9074 -31.8702
   -31.8631 -31.8565 -31.8546 -31.8401 -31.8208 -31.7962 -31.7821 -31.7725
   -31.7266 -31.7089 -31.7014 -31.6828 -31.6510 -31.6323 -31.6302 -31.6004
   -31.5496 -31.5362 -31.5354 -31.4947 -31.4224 -31.4210 -31.3842 -31.3833
   -17.8976 -16.4544 -16.1445 -16.1337 -16.0160 -16.0104 -15.8574 -15.8379
   -15.8198 -15.7460 -15.6815 -15.6605 -15.5125 -15.4998 -15.4634 -15.4279
   -15.3997 -15.3626 -15.3580 -15.3344 -15.3013 -15.2359 -15.2146 -15.1896
   -15.1793 -15.1023 -14.9230 -14.8999 -14.8970 -14.8225 -14.6837 -13.7010
   -13.7002 -13.2237  -7.7949  -6.1018  -4.3599  -4.0765  -3.3151  -3.2512
    -3.1758  -3.1390  -3.1282  -3.0569  -3.0416  -2.9268  -2.8986  -2.8598
    -2.8333  -2.8228  -2.8027  -2.7519  -2.7297  -2.6847  -2.6681  -2.6664
    -2.6348  -2.5942  -2.5743  -2.5510  -2.5403  -2.4705  -2.4408  -2.3979
    -2.3814  -2.3695  -2.3221  -2.2612  -2.2431  -2.1866  -2.1746  -2.1420
    -2.1053  -2.0444  -2.0052  -1.9634  -1.8654  -1.8445  -1.7759  -1.6585
    -1.6374  -1.5535  -1.5254  -1.5038  -1.4818  -1.4042  -1.3718  -1.3385
    -1.2509  -1.2244  -1.2162  -1.1897  -1.1564  -1.1315  -1.0746  -1.0129
    -0.9176  -0.8541  -0.8422  -0.8234  -0.7841  -0.7577  -0.7168  -0.6246
    -0.6033  -0.5682  -0.5583  -0.5165  -0.4045  -0.3779  -0.2285  -0.1912
    -0.1018  -0.0744  -0.0547  -0.0135   0.1085   0.1359   0.1862   0.2065
     0.2657   0.3105   0.3613   0.4519   0.5535   0.5658   0.6973   0.7242
     0.7448   0.8182   0.9513   0.9925   1.2072   1.2119   1.2135   1.2156
     2.4944   3.3207   3.3231   3.3564   3.3687   3.5721   3.5920   3.7178
     3.8022   3.8120   3.8316

     the Fermi energy is     2.6946 ev

!    total energy              =   -2972.60997508 Ry
     estimated scf accuracy    <       0.00000005 Ry
     smearing contrib. (-TS)   =      -0.01174839 Ry
     internal energy E=F+TS    =   -2972.59822669 Ry

     The total energy is F=E-TS. E is the sum of the following terms:
     one-electron contribution =  -24036.57001458 Ry
     hartree contribution      =   12109.68292132 Ry
     xc contribution           =    -493.07324536 Ry
     ewald contribution        =    9447.36202025 Ry
     electric field correction =       0.00009167 Ry

     convergence has been achieved in  93 iterations

     Forces acting on atoms (cartesian axes, Ry/au):

     atom    1 type  1   force =    -0.00003556   -0.00046168    0.10838501
     atom    2 type  1   force =     0.00002182    0.00008626   -0.16405586
     atom    3 type  2   force =     0.00013379    0.00046769   -0.04120128
     atom    4 type  2   force =     0.00009420   -0.00056656    0.03215990
     atom    5 type  2   force =    -0.00380501   -0.00332927   -0.00775961
     atom    6 type  2   force =     0.00586651   -0.00273696   -0.00758470
     atom    7 type  1   force =     0.00017299   -0.00552331    0.03632356
     atom    8 type  1   force =     0.00013081    0.02544297    0.06349656
     atom    9 type  2   force =     0.00013886    0.00040267    0.00012238
     atom   10 type  2   force =    -0.00195139    0.00076222   -0.03776188
     atom   11 type  2   force =     0.00010088   -0.00015832   -0.00016682
     atom   12 type  2   force =    -0.00073802    0.00020281   -0.00017428
     atom   13 type  1   force =     0.00044657    0.00045208    0.00085695
     atom   14 type  1   force =    -0.00056176   -0.00027163    0.00016720
     atom   15 type  2   force =    -0.00014651   -0.00003549    0.00083147
     atom   16 type  2   force =    -0.00012515    0.00032439   -0.00016051
     atom   17 type  2   force =    -0.00105362    0.00048445   -0.00000709
     atom   18 type  2   force =     0.00058015   -0.00009371   -0.00035139
     atom   19 type  1   force =     0.00028242   -0.00074109    0.00009231
     atom   20 type  1   force =    -0.00047518    0.00003038   -0.00016582
     atom   21 type  2   force =     0.00009690    0.00018687    0.10008426
     atom   22 type  2   force =    -0.00011350   -0.00038678    0.00034873
     atom   23 type  2   force =    -0.07741311    0.00001510   -0.03031637
     atom   24 type  2   force =     0.07740542    0.00043261   -0.03035643
     atom   25 type  1   force =    -0.00000597   -0.00032216    0.10856742
     atom   26 type  1   force =    -0.00004191   -0.00110836   -0.16408617
     atom   27 type  2   force =     0.00011768   -0.00017759   -0.03921203
     atom   28 type  2   force =     0.00011720    0.00118079    0.02837719
     atom   29 type  2   force =    -0.00230519    0.00467847   -0.01049173
     atom   30 type  2   force =     0.00438322    0.00496054   -0.01045184
     atom   31 type  1   force =     0.00005720    0.00317932    0.01915130
     atom   32 type  1   force =     0.00036646   -0.02766372    0.06523450
     atom   33 type  2   force =    -0.00003244   -0.00079336   -0.00042031
     atom   34 type  2   force =    -0.00062639    0.00085792   -0.05565730
     atom   35 type  2   force =    -0.00035040   -0.00023208   -0.00025745
     atom   36 type  2   force =    -0.00006538   -0.00003718   -0.00018372
     atom   37 type  1   force =     0.00029523   -0.00052171    0.00009678
     atom   38 type  1   force =    -0.00037164   -0.00014953    0.00027818
     atom   39 type  2   force =    -0.00015985    0.00035047   -0.00012825
     atom   40 type  2   force =    -0.00016515   -0.00026653   -0.00031511
     atom   41 type  2   force =    -0.00029696    0.00017492   -0.00001523
     atom   42 type  2   force =    -0.00044362    0.00004965    0.00005472
     atom   43 type  1   force =     0.00029384    0.00024183   -0.00006248
     atom   44 type  1   force =    -0.00041996    0.00031152   -0.00063174
     atom   45 type  2   force =     0.00010318    0.00001313    0.09989426
     atom   46 type  2   force =    -0.07744627   -0.00001214   -0.03032613
     atom   47 type  2   force =     0.07746660    0.00041798   -0.03036413
     atom   48 type  3   force =    -0.00054894   -0.00053249   -0.00006973
     atom   49 type  4   force =     0.00383413   -0.00262304   -0.00199832
     atom   50 type  5   force =    -0.00387709    0.00242135    0.00130421
     atom   51 type  3   force =     0.00108071   -0.00028645   -0.00018172
     atom   52 type  5   force =     0.00020723    0.00025606   -0.00037153
     atom   53 type  5   force =     0.00020299    0.00068192    0.00005266
     atom   54 type  2   force =     0.00076934    0.00071138   -0.00137323
     atom   55 type  5   force =    -0.00119036   -0.00074663    0.00078067

     Total force =     0.382897     Total SCF correction =     0.000529
  @ DRIVER MODE: Message from server: STATUS
  @ DRIVER MODE: Message from server: GETFORCE
  @ DRIVER MODE: Returning v,forces,stress,ensemble 

     Writing output data file ./calc.save/
  @ DRIVER MODE: Message from server: EXIT
  @ DRIVE MODE: Exiting  
 
     init_run     :     10.94s CPU     11.17s WALL (       1 calls)
     electrons    :   1366.80s CPU   1388.32s WALL (       1 calls)
     forces       :      2.43s CPU      2.52s WALL (       1 calls)

     Called by init_run:
     wfcinit      :      4.89s CPU      4.96s WALL (       1 calls)
     potinit      :      5.39s CPU      5.46s WALL (       1 calls)
     hinit0       :      0.29s CPU      0.30s WALL (       1 calls)

     Called by electrons:
     c_bands      :   1139.97s CPU   1148.37s WALL (      93 calls)
     sum_band     :    153.05s CPU    158.35s WALL (      93 calls)
     v_of_rho     :     53.61s CPU     56.30s WALL (      94 calls)
     newd         :     22.47s CPU     27.54s WALL (      94 calls)
     mix_rho      :      2.08s CPU      2.12s WALL (      93 calls)
     vdW_kernel   :      4.55s CPU      4.57s WALL (       1 calls)

     Called by c_bands:
     init_us_2    :     10.64s CPU     10.68s WALL (    1880 calls)
     cegterg      :   1112.91s CPU   1120.89s WALL (     944 calls)

     Called by *egterg:
     cdiaghg      :    157.26s CPU    158.01s WALL (    7421 calls)
     h_psi        :    614.23s CPU    619.87s WALL (    7435 calls)
     s_psi        :     81.35s CPU     81.59s WALL (    7435 calls)
     g_psi        :      2.34s CPU      2.36s WALL (    6481 calls)

     Called by h_psi:
     h_psi:calbec :     77.01s CPU     77.38s WALL (    7435 calls)
     vloc_psi     :    449.85s CPU    454.42s WALL (    7435 calls)
     add_vuspsi   :     82.32s CPU     82.72s WALL (    7435 calls)

     General routines
     calbec       :    103.63s CPU    104.08s WALL (    8405 calls)
     fft          :     28.85s CPU     29.05s WALL (    5922 calls)
     ffts         :      0.18s CPU      0.18s WALL (     187 calls)
     fftw         :    509.84s CPU    514.97s WALL ( 1210908 calls)
     interpolate  :      0.59s CPU      0.59s WALL (      94 calls)
     davcio       :      0.00s CPU      1.00s WALL (      10 calls)
 
     Parallel routines
 
     PWSCF        :  23m 0.44s CPU  23m24.57s WALL

 
   This run was terminated on:  21:32:48  22Sep2021            

=------------------------------------------------------------------------------=
   JOB DONE.
=------------------------------------------------------------------------------=
