
     Program PWSCF v.6.7GPU starts on 23Aug2021 at 13:29:32 

     This program is part of the open-source Quantum ESPRESSO suite
     for quantum simulation of materials; please cite
         "P. Giannozzi et al., J. Phys.:Condens. Matter 21 395502 (2009);
         "P. Giannozzi et al., J. Phys.:Condens. Matter 29 465901 (2017);
         "P. Giannozzi et al., J. Chem. Phys. 152 154105 (2020);
          URL http://www.quantum-espresso.org", 
     in publications or presentations arising from this work. More details at
     http://www.quantum-espresso.org/quote

     Parallel version (MPI), running on     6 processors

     MPI processes distributed on     1 nodes
     R & G space division:  proc/nbgrp/npool/nimage =       6
     Reading input from /storage/home/hcoda1/3/ntian30/research/carbon/CH_vib/ads_slab/CH_a/out_0002/pw.inp
Warning: card &CELL ignored
Warning: card   CELL_DYNAMICS='IPI', ignored
Warning: card / ignored

     Current dimensions of program PWSCF are:
     Max number of different atomic species (ntypx) = 10
     Max number of k-points (npk) =  40000
     Max angular momentum in pseudopotentials (lmaxx) =  3
     Presently no symmetry can be used with electric field

     Message from routine cell_base_init:
     DEPRECATED: use true lattice parameter, not A to a.u. conversion factor

     **************************************************************************
     Initializing libbeef V0.1.2 with the BEEF-vdW functional.
     Citation: Wellendorff et al., PRB 85, 235149 (2012).
     **************************************************************************


     IMPORTANT: XC functional enforced from input :
     Exchange-correlation= BEEF-VDW
                           (   1   4  43  14   2   0   0)
     Any further DFT definition will be discarded
     Please, verify this is what you really want


     Subspace diagonalization in iterative solution of the eigenvalue problem:
     one sub-group per band group will be used
     scalapack distributed-memory algorithm (size of sub-group:  2*  2 procs)

  @ DRIVER MODE: Connecting to 
 qe_1139763_2632798.sched-torque.pace.gatech.edu6u5yefph_scratch
  using UNIX socket
  @ DRIVER MODE: Message from server: STATUS
  @ DRIVER MODE: Message from server: INIT
  @ DRIVER MODE: Receiving replica           0          -1
  @ DRIVER MODE: Receiving encoded integer          25
  @ DRIVER MODE:  SCF:  T  FORCE:  T  STRESS:  F  VC:  F  ENSEMBLE:  F
  @ DRIVER MODE:  SCF:  T  FORCE:  T  STRESS:  F  VC:  F  ENSEMBLE:  F
 
     Parallelization info
     --------------------
     sticks:   dense  smooth     PW     G-vecs:    dense   smooth      PW
     Min         545     219     63                94473    23902    3663
     Max         546     222     64                94484    23905    3665
     Sum        3275    1317    379               566857   143421   21985
 
     Using Slab Decomposition
 


     bravais-lattice index     =            0
     lattice parameter (alat)  =       1.8897  a.u.
     unit-cell volume          =    6658.9804 (a.u.)^3
     number of atoms/cell      =           49
     number of atomic types    =            4
     number of electrons       =       383.00
     number of Kohn-Sham states=          201
     kinetic-energy cutoff     =      29.3995  Ry
     charge density cutoff     =     293.9946  Ry
     scf convergence threshold =      7.3E-08
     mixing beta               =       0.0500
     number of iterations used =            8  plain     mixing
     Exchange-correlation= BEEF-VDW
                           (   1   4  43  14   2   0   0)

     celldm(1)=   1.889726  celldm(2)=   0.000000  celldm(3)=   0.000000
     celldm(4)=   0.000000  celldm(5)=   0.000000  celldm(6)=   0.000000

     crystal axes: (cart. coord. in units of alat)
               a(1) = (   6.579727   0.000000   0.000000 )  
               a(2) = (  -0.000775   5.961596   0.000000 )  
               a(3) = (   0.000000   0.000000  25.155947 )  

     reciprocal axes: (cart. coord. in units 2 pi/alat)
               b(1) = (  0.151982  0.000020  0.000000 )  
               b(2) = (  0.000000  0.167740  0.000000 )  
               b(3) = (  0.000000  0.000000  0.039752 )  


     PseudoPot. # 1 for Ti read from file:
     /storage/coda1/p-amedford6/0/shared/rich_project_chbe-medford/medford-share/data/pseudos_module/espresso/nninc/pbe/van/Ti.UPF
     MD5 check sum: 8e4df49b7f0d34bbd5052bf3f5ea0213
     Pseudo is Ultrasoft, Zval = 12.0
     Generated by new atomic code, or converted to UPF format
     Using radial grid of  851 points,  6 beta functions with: 
                l(1) =   0
                l(2) =   0
                l(3) =   1
                l(4) =   1
                l(5) =   2
                l(6) =   2
     Q(r) pseudized with  8 coefficients,  rinner =    1.000   1.000   1.000
                                                       1.000   1.000

     PseudoPot. # 2 for O  read from file:
     /storage/coda1/p-amedford6/0/shared/rich_project_chbe-medford/medford-share/data/pseudos_module/espresso/nninc/pbe/van/O.UPF
     MD5 check sum: 78c19812648e8988a0fe644b0f25305e
     Pseudo is Ultrasoft, Zval =  6.0
     Generated by new atomic code, or converted to UPF format
     Using radial grid of  737 points,  4 beta functions with: 
                l(1) =   0
                l(2) =   0
                l(3) =   1
                l(4) =   1
     Q(r) pseudized with  8 coefficients,  rinner =    0.800   0.800   0.800


     PseudoPot. # 3 for C  read from file:
     /storage/coda1/p-amedford6/0/shared/rich_project_chbe-medford/medford-share/data/pseudos_module/espresso/nninc/pbe/van/C.UPF
     MD5 check sum: 1a69bf6b8db32088f5b2163dbdb77a27
     Pseudo is Ultrasoft, Zval =  4.0
     Generated by new atomic code, or converted to UPF format
     Using radial grid of  721 points,  4 beta functions with: 
                l(1) =   0
                l(2) =   0
                l(3) =   1
                l(4) =   1
     Q(r) pseudized with  8 coefficients,  rinner =    0.800   0.800   0.800


     PseudoPot. # 4 for H  read from file:
     /storage/coda1/p-amedford6/0/shared/rich_project_chbe-medford/medford-share/data/pseudos_module/espresso/nninc/pbe/van/H.UPF
     MD5 check sum: b5ee9d7bfd3a09ee7748110bda690ff7
     Pseudo is Ultrasoft, Zval =  1.0
     Generated by new atomic code, or converted to UPF format
     Using radial grid of  615 points,  1 beta functions with: 
                l(1) =   0
     Q(r) pseudized with  8 coefficients,  rinner =    0.800

     atomic species   valence    mass     pseudopotential
        Ti1           12.00    47.86700     Ti( 1.00)
        O1             6.00    15.99900     O ( 1.00)
        C1             4.00    12.01100     C ( 1.00)
        H1             1.00     1.00800     H ( 1.00)

     No symmetry found



   Cartesian axes

     site n.     atom                  positions (alat units)
         1           Ti1 tau(   1) = (   0.0004258   2.9801865   6.0000000  )
         2           Ti1 tau(   2) = (   3.2906075   1.4906267   6.0002472  )
         3           O1  tau(   3) = (   0.0006271   0.0005054   7.9858123  )
         4           O1  tau(   4) = (   3.2906025   0.0005020   7.3038282  )
         5           O1  tau(   5) = (   4.5942328   1.4918067   9.2879030  )
         6           O1  tau(   6) = (   1.9868534   1.4903216   9.2879459  )
         7           Ti1 tau(   7) = (   3.2921849   2.8658251   9.1648892  )
         8           Ti1 tau(   8) = (   0.0073351   1.4983988   9.3831490  )
         9           O1  tau(   9) = (   3.2842540   0.0070318  11.3521760  )
        10           O1  tau(  10) = (   0.0010487   0.0043113  10.5580200  )
        11           O1  tau(  11) = (   1.2736759   1.5124129  12.6486185  )
        12           O1  tau(  12) = (   5.2630300   1.5084811  12.6300625  )
        13           Ti1 tau(  13) = (   0.0799159   2.9885021  12.8537609  )
        14           Ti1 tau(  14) = (   3.3962166   1.4899997  12.4930974  )
        15           O1  tau(  15) = (   6.5670857   5.9608082  14.6055349  )
        16           O1  tau(  16) = (   3.2779887   0.0262294  13.9455360  )
        17           O1  tau(  17) = (   4.5047259   1.5524619  16.1062024  )
        18           O1  tau(  18) = (   2.0328015   1.5482461  16.0993997  )
        19           Ti1 tau(  19) = (   3.2588990   3.0258902  15.7259251  )
        20           Ti1 tau(  20) = (   6.5443225   1.5921241  16.1654916  )
        21           O1  tau(  21) = (   3.2904802   0.0005063   4.7018136  )
        22           O1  tau(  22) = (   6.5577444   0.0567680  17.2452940  )
        23           O1  tau(  23) = (   1.3043587   1.4918075   6.0039043  )
        24           O1  tau(  24) = (   5.2767064   1.4903225   6.0039473  )
        25           Ti1 tau(  25) = (   0.0000382   5.9609847   6.0000000  )
        26           Ti1 tau(  26) = (   3.2902200   4.4714249   6.0002472  )
        27           O1  tau(  27) = (   0.0002396   2.9813036   7.9858123  )
        28           O1  tau(  28) = (   3.2902150   2.9813002   7.3038282  )
        29           O1  tau(  29) = (   4.5938453   4.4726049   9.2879030  )
        30           O1  tau(  30) = (   1.9864658   4.4711199   9.2879459  )
        31           Ti1 tau(  31) = (   3.2960881   5.8478476   9.1648656  )
        32           Ti1 tau(  32) = (   0.0086818   4.4758218   9.3788328  )
        33           O1  tau(  33) = (   3.2854246   2.9850844  11.3450670  )
        34           O1  tau(  34) = (   0.0004502   2.9836692  10.5560002  )
        35           O1  tau(  35) = (   1.2751814   4.4662498  12.6462591  )
        36           O1  tau(  36) = (   5.2612828   4.4711168  12.6263095  )
        37           Ti1 tau(  37) = (   0.0650160   0.0072273  12.8037121  )
        38           Ti1 tau(  38) = (   3.3952379   4.4681493  12.4860303  )
        39           O1  tau(  39) = (   6.5700874   2.9943110  14.6990684  )
        40           O1  tau(  40) = (   3.2774739   3.0059374  13.9302241  )
        41           O1  tau(  41) = (   4.5038310   4.5165569  16.1051355  )
        42           O1  tau(  42) = (   2.0336826   4.5180826  16.0999700  )
        43           Ti1 tau(  43) = (   3.2582433   0.0441072  15.7465997  )
        44           Ti1 tau(  44) = (   6.5393581   4.6163053  16.1595090  )
        45           O1  tau(  45) = (   3.2900926   2.9813045   4.7018136  )
        46           O1  tau(  46) = (   1.3039711   4.4726057   6.0039043  )
        47           O1  tau(  47) = (   5.2763189   4.4711207   6.0039473  )
        48           C1  tau(  48) = (   6.5769965   3.0274956  17.5143990  )
        49           H1  tau(  49) = (   0.0036594   3.1884539  18.5931066  )

     number of k points=    10  Fermi-Dirac smearing, width (Ry)=  0.0073
                       cart. coord. in units 2pi/alat
        k(    1) = (   0.0000000   0.0000000   0.0000000), wk =   0.1250000
        k(    2) = (   0.0000000   0.0419351   0.0000000), wk =   0.2500000
        k(    3) = (   0.0000000  -0.0838702   0.0000000), wk =   0.1250000
        k(    4) = (   0.0379955   0.0000049   0.0000000), wk =   0.2500000
        k(    5) = (   0.0379955   0.0419400   0.0000000), wk =   0.2500000
        k(    6) = (   0.0379955  -0.0838652   0.0000000), wk =   0.2500000
        k(    7) = (   0.0379955  -0.0419301   0.0000000), wk =   0.2500000
        k(    8) = (  -0.0759910  -0.0000099   0.0000000), wk =   0.1250000
        k(    9) = (  -0.0759910   0.0419252   0.0000000), wk =   0.2500000
        k(   10) = (  -0.0759910  -0.0838800   0.0000000), wk =   0.1250000

     Dense  grid:   566857 G-vectors     FFT dimensions: (  72,  64, 270)

     Smooth grid:   143421 G-vectors     FFT dimensions: (  45,  40, 180)

     Estimated max dynamical RAM per process >     592.90 MB

     Estimated total dynamical RAM >       3.47 GB
     Cannot read rho : file not found

     Initial potential from superposition of free atoms

     starting charge  366.99920, renormalised to  383.00000

     negative rho (up, down):  2.156E-02 0.000E+00


     %%%%%%%%%%%%%%%%%%%%%%%%%%%%%%%%%%%%%%%%%%%%%%%%%%%%%%%%%%%%%%%%%%%%%%%%
     %                                                                      %
     % You are using vdW-DF, which was implemented by the Thonhauser group. %
     % Please cite the following two papers that made this development      %
     % possible and the two reviews that describe the various versions:     %
     %                                                                      %
     %   T. Thonhauser et al., PRL 115, 136402 (2015).                      %
     %   T. Thonhauser et al., PRB 76, 125112 (2007).                       %
     %   K. Berland et al., Rep. Prog. Phys. 78, 066501 (2015).             %
     %   D.C. Langreth et al., J. Phys.: Condens. Matter 21, 084203 (2009). %
     %                                                                      %
     %                                                                      %
     % If you are calculating the stress with vdW-DF, please also cite:     %
     %                                                                      %
     %   R. Sabatini et al., J. Phys.: Condens. Matter 24, 424209 (2012).   %
     %                                                                      %
     %%%%%%%%%%%%%%%%%%%%%%%%%%%%%%%%%%%%%%%%%%%%%%%%%%%%%%%%%%%%%%%%%%%%%%%%


 
     Adding external electric field

     Computed dipole along edir(3) : 
        Dipole                0.0501 Ry au,          0.1273 Debye
        Dipole field          0.0001 Ry au, 
 
        Potential amp.       -0.0088 Ry
        Total length         46.3494 bohr
 
     Starting wfcs are  289 atomic wfcs
  @ DRIVER MODE: Message from server: STATUS
  @ DRIVER MODE: Message from server: POSDATA
  @ DRIVER MODE: Reading and sharing cell 
  @ DRIVER MODE: Reading and sharing positions 
  @ DRIVER MODE: Received positions 

     total cpu time spent up to now is       18.7 secs

     Self-consistent Calculation

     iteration #  1     ecut=    29.40 Ry     beta= 0.05
     Davidson diagonalization with overlap
     c_bands:  1 eigenvalues not converged
     c_bands:  1 eigenvalues not converged
     c_bands:  1 eigenvalues not converged
     c_bands:  1 eigenvalues not converged
     c_bands:  1 eigenvalues not converged
     c_bands:  1 eigenvalues not converged
     ethr =  1.00E-05,  avg # of iterations = 19.5

     negative rho (up, down):  2.137E-02 0.000E+00
 
     Adding external electric field

     Computed dipole along edir(3) : 
        Dipole               -0.0311 Ry au,         -0.0790 Debye
        Dipole field         -0.0001 Ry au, 
 
        Potential amp.        0.0054 Ry
        Total length         46.3494 bohr
 

     total cpu time spent up to now is       79.1 secs

     total energy              =   -2897.80966319 Ry
     estimated scf accuracy    <      11.75344862 Ry

     iteration #  2     ecut=    29.40 Ry     beta= 0.05
     Davidson diagonalization with overlap
     ethr =  3.07E-03,  avg # of iterations =  1.0

     negative rho (up, down):  2.305E-02 0.000E+00
 
     Adding external electric field

     Computed dipole along edir(3) : 
        Dipole               -0.4970 Ry au,         -1.2632 Debye
        Dipole field         -0.0009 Ry au, 
 
        Potential amp.        0.0869 Ry
        Total length         46.3494 bohr
 

     total cpu time spent up to now is       95.6 secs

     total energy              =   -2893.08243831 Ry
     estimated scf accuracy    <       9.05085980 Ry

     iteration #  3     ecut=    29.40 Ry     beta= 0.05
     Davidson diagonalization with overlap
     ethr =  2.36E-03,  avg # of iterations =  8.8

     negative rho (up, down):  2.250E-02 0.000E+00
 
     Adding external electric field

     Computed dipole along edir(3) : 
        Dipole               -0.3826 Ry au,         -0.9726 Debye
        Dipole field         -0.0007 Ry au, 
 
        Potential amp.        0.0669 Ry
        Total length         46.3494 bohr
 

     total cpu time spent up to now is      129.2 secs

     total energy              =   -2897.97917682 Ry
     estimated scf accuracy    <      42.55393142 Ry

     iteration #  4     ecut=    29.40 Ry     beta= 0.05
     Davidson diagonalization with overlap
     ethr =  2.36E-03,  avg # of iterations =  1.6

     negative rho (up, down):  2.204E-02 0.000E+00
 
     Adding external electric field

     Computed dipole along edir(3) : 
        Dipole               -0.2763 Ry au,         -0.7023 Debye
        Dipole field         -0.0005 Ry au, 
 
        Potential amp.        0.0483 Ry
        Total length         46.3494 bohr
 

     total cpu time spent up to now is      146.5 secs

     total energy              =   -2897.62093866 Ry
     estimated scf accuracy    <      36.70052356 Ry

     iteration #  5     ecut=    29.40 Ry     beta= 0.05
     Davidson diagonalization with overlap
     ethr =  2.36E-03,  avg # of iterations =  1.0

     negative rho (up, down):  2.150E-02 0.000E+00
 
     Adding external electric field

     Computed dipole along edir(3) : 
        Dipole               -0.3747 Ry au,         -0.9525 Debye
        Dipole field         -0.0007 Ry au, 
 
        Potential amp.        0.0656 Ry
        Total length         46.3494 bohr
 

     total cpu time spent up to now is      163.0 secs

     total energy              =   -2896.85714095 Ry
     estimated scf accuracy    <      31.65447330 Ry

     iteration #  6     ecut=    29.40 Ry     beta= 0.05
     Davidson diagonalization with overlap
     ethr =  2.36E-03,  avg # of iterations =  1.1

     negative rho (up, down):  2.131E-02 0.000E+00
 
     Adding external electric field

     Computed dipole along edir(3) : 
        Dipole               -0.2189 Ry au,         -0.5564 Debye
        Dipole field         -0.0004 Ry au, 
 
        Potential amp.        0.0383 Ry
        Total length         46.3494 bohr
 

     total cpu time spent up to now is      179.7 secs

     total energy              =   -2896.97287558 Ry
     estimated scf accuracy    <      25.08651070 Ry

     iteration #  7     ecut=    29.40 Ry     beta= 0.05
     Davidson diagonalization with overlap
     ethr =  2.36E-03,  avg # of iterations =  1.0

     negative rho (up, down):  2.111E-02 0.000E+00
 
     Adding external electric field

     Computed dipole along edir(3) : 
        Dipole                0.6620 Ry au,          1.6826 Debye
        Dipole field          0.0012 Ry au, 
 
        Potential amp.       -0.1158 Ry
        Total length         46.3494 bohr
 

     total cpu time spent up to now is      196.2 secs

     total energy              =   -2895.77439436 Ry
     estimated scf accuracy    <      23.36621517 Ry

     iteration #  8     ecut=    29.40 Ry     beta= 0.05
     Davidson diagonalization with overlap
     ethr =  2.36E-03,  avg # of iterations =  6.2

     negative rho (up, down):  2.093E-02 0.000E+00
 
     Adding external electric field

     Computed dipole along edir(3) : 
        Dipole                0.6345 Ry au,          1.6126 Debye
        Dipole field          0.0012 Ry au, 
 
        Potential amp.       -0.1110 Ry
        Total length         46.3494 bohr
 

     total cpu time spent up to now is      215.7 secs

     total energy              =   -2896.15228550 Ry
     estimated scf accuracy    <       6.94993231 Ry

     iteration #  9     ecut=    29.40 Ry     beta= 0.05
     Davidson diagonalization with overlap
     ethr =  1.81E-03,  avg # of iterations =  4.9

     negative rho (up, down):  2.076E-02 0.000E+00
 
     Adding external electric field

     Computed dipole along edir(3) : 
        Dipole                0.6929 Ry au,          1.7613 Debye
        Dipole field          0.0013 Ry au, 
 
        Potential amp.       -0.1212 Ry
        Total length         46.3494 bohr
 

     total cpu time spent up to now is      234.6 secs

     total energy              =   -2896.22455124 Ry
     estimated scf accuracy    <       7.12606352 Ry

     iteration # 10     ecut=    29.40 Ry     beta= 0.05
     Davidson diagonalization with overlap
     ethr =  1.81E-03,  avg # of iterations =  1.9

     negative rho (up, down):  2.068E-02 0.000E+00
 
     Adding external electric field

     Computed dipole along edir(3) : 
        Dipole                1.1186 Ry au,          2.8432 Debye
        Dipole field          0.0021 Ry au, 
 
        Potential amp.       -0.1957 Ry
        Total length         46.3494 bohr
 

     total cpu time spent up to now is      251.6 secs

     total energy              =   -2896.17780898 Ry
     estimated scf accuracy    <       6.70260623 Ry

     iteration # 11     ecut=    29.40 Ry     beta= 0.05
     Davidson diagonalization with overlap
     ethr =  1.75E-03,  avg # of iterations =  4.0

     negative rho (up, down):  2.054E-02 0.000E+00
 
     Adding external electric field

     Computed dipole along edir(3) : 
        Dipole                0.7085 Ry au,          1.8009 Debye
        Dipole field          0.0013 Ry au, 
 
        Potential amp.       -0.1239 Ry
        Total length         46.3494 bohr
 

     total cpu time spent up to now is      270.1 secs

     total energy              =   -2896.08727147 Ry
     estimated scf accuracy    <      23.00963909 Ry

     iteration # 12     ecut=    29.40 Ry     beta= 0.05
     Davidson diagonalization with overlap
     ethr =  1.75E-03,  avg # of iterations =  3.5

     negative rho (up, down):  2.048E-02 0.000E+00
 
     Adding external electric field

     Computed dipole along edir(3) : 
        Dipole                0.8393 Ry au,          2.1332 Debye
        Dipole field          0.0016 Ry au, 
 
        Potential amp.       -0.1468 Ry
        Total length         46.3494 bohr
 

     total cpu time spent up to now is      288.6 secs

     total energy              =   -2896.25641034 Ry
     estimated scf accuracy    <       3.67397823 Ry

     iteration # 13     ecut=    29.40 Ry     beta= 0.05
     Davidson diagonalization with overlap
     ethr =  9.59E-04,  avg # of iterations =  3.7

     negative rho (up, down):  2.044E-02 0.000E+00
 
     Adding external electric field

     Computed dipole along edir(3) : 
        Dipole                0.7060 Ry au,          1.7945 Debye
        Dipole field          0.0013 Ry au, 
 
        Potential amp.       -0.1235 Ry
        Total length         46.3494 bohr
 

     total cpu time spent up to now is      307.2 secs

     total energy              =   -2896.32755193 Ry
     estimated scf accuracy    <       3.95630362 Ry

     iteration # 14     ecut=    29.40 Ry     beta= 0.05
     Davidson diagonalization with overlap
     ethr =  9.59E-04,  avg # of iterations =  1.2

     negative rho (up, down):  2.058E-02 0.000E+00
 
     Adding external electric field

     Computed dipole along edir(3) : 
        Dipole                0.2935 Ry au,          0.7460 Debye
        Dipole field          0.0006 Ry au, 
 
        Potential amp.       -0.0513 Ry
        Total length         46.3494 bohr
 

     total cpu time spent up to now is      324.0 secs

     total energy              =   -2896.28375128 Ry
     estimated scf accuracy    <       3.01274848 Ry

     iteration # 15     ecut=    29.40 Ry     beta= 0.05
     Davidson diagonalization with overlap
     ethr =  7.87E-04,  avg # of iterations =  8.0

     negative rho (up, down):  2.053E-02 0.000E+00
 
     Adding external electric field

     Computed dipole along edir(3) : 
        Dipole                0.0952 Ry au,          0.2419 Debye
        Dipole field          0.0002 Ry au, 
 
        Potential amp.       -0.0166 Ry
        Total length         46.3494 bohr
 

     total cpu time spent up to now is      344.2 secs

     total energy              =   -2896.46547480 Ry
     estimated scf accuracy    <       1.14036420 Ry

     iteration # 16     ecut=    29.40 Ry     beta= 0.05
     Davidson diagonalization with overlap
     c_bands:  3 eigenvalues not converged
     c_bands:  2 eigenvalues not converged
     c_bands:  2 eigenvalues not converged
     ethr =  2.98E-04,  avg # of iterations = 14.8

     negative rho (up, down):  2.038E-02 0.000E+00
 
     Adding external electric field

     Computed dipole along edir(3) : 
        Dipole                0.5955 Ry au,          1.5136 Debye
        Dipole field          0.0011 Ry au, 
 
        Potential amp.       -0.1042 Ry
        Total length         46.3494 bohr
 

     total cpu time spent up to now is      368.1 secs

     total energy              =   -2896.31160464 Ry
     estimated scf accuracy    <       2.16589727 Ry

     iteration # 17     ecut=    29.40 Ry     beta= 0.05
     Davidson diagonalization with overlap
     ethr =  2.98E-04,  avg # of iterations =  8.8

     negative rho (up, down):  2.039E-02 0.000E+00
 
     Adding external electric field

     Computed dipole along edir(3) : 
        Dipole                0.3117 Ry au,          0.7923 Debye
        Dipole field          0.0006 Ry au, 
 
        Potential amp.       -0.0545 Ry
        Total length         46.3494 bohr
 

     total cpu time spent up to now is      389.0 secs

     total energy              =   -2896.44857953 Ry
     estimated scf accuracy    <       0.97547395 Ry

     iteration # 18     ecut=    29.40 Ry     beta= 0.05
     Davidson diagonalization with overlap
     c_bands:  2 eigenvalues not converged
     c_bands:  1 eigenvalues not converged
     ethr =  2.55E-04,  avg # of iterations =  7.8

     negative rho (up, down):  2.041E-02 0.000E+00
 
     Adding external electric field

     Computed dipole along edir(3) : 
        Dipole                0.2535 Ry au,          0.6444 Debye
        Dipole field          0.0005 Ry au, 
 
        Potential amp.       -0.0444 Ry
        Total length         46.3494 bohr
 

     total cpu time spent up to now is      409.6 secs

     total energy              =   -2896.39053234 Ry
     estimated scf accuracy    <       1.50298748 Ry

     iteration # 19     ecut=    29.40 Ry     beta= 0.05
     Davidson diagonalization with overlap
     ethr =  2.55E-04,  avg # of iterations =  4.0

     negative rho (up, down):  2.075E-02 0.000E+00
 
     Adding external electric field

     Computed dipole along edir(3) : 
        Dipole                0.2522 Ry au,          0.6410 Debye
        Dipole field          0.0005 Ry au, 
 
        Potential amp.       -0.0441 Ry
        Total length         46.3494 bohr
 

     total cpu time spent up to now is      428.0 secs

     total energy              =   -2896.19750453 Ry
     estimated scf accuracy    <       0.93840383 Ry

     iteration # 20     ecut=    29.40 Ry     beta= 0.05
     Davidson diagonalization with overlap
     ethr =  2.45E-04,  avg # of iterations = 14.1

     negative rho (up, down):  2.064E-02 0.000E+00
 
     Adding external electric field

     Computed dipole along edir(3) : 
        Dipole                0.3521 Ry au,          0.8950 Debye
        Dipole field          0.0007 Ry au, 
 
        Potential amp.       -0.0616 Ry
        Total length         46.3494 bohr
 

     total cpu time spent up to now is      461.3 secs

     total energy              =   -2896.41944721 Ry
     estimated scf accuracy    <      30.77284907 Ry

     iteration # 21     ecut=    29.40 Ry     beta= 0.05
     Davidson diagonalization with overlap
     ethr =  2.45E-04,  avg # of iterations =  1.4

     negative rho (up, down):  2.054E-02 0.000E+00
 
     Adding external electric field

     Computed dipole along edir(3) : 
        Dipole                0.3702 Ry au,          0.9411 Debye
        Dipole field          0.0007 Ry au, 
 
        Potential amp.       -0.0648 Ry
        Total length         46.3494 bohr
 

     total cpu time spent up to now is      478.3 secs

     total energy              =   -2896.45906101 Ry
     estimated scf accuracy    <       6.28006102 Ry

     iteration # 22     ecut=    29.40 Ry     beta= 0.05
     Davidson diagonalization with overlap
     ethr =  2.45E-04,  avg # of iterations =  1.1

     negative rho (up, down):  2.048E-02 0.000E+00
 
     Adding external electric field

     Computed dipole along edir(3) : 
        Dipole                0.4648 Ry au,          1.1813 Debye
        Dipole field          0.0009 Ry au, 
 
        Potential amp.       -0.0813 Ry
        Total length         46.3494 bohr
 

     total cpu time spent up to now is      495.0 secs

     total energy              =   -2896.47184807 Ry
     estimated scf accuracy    <       2.72184392 Ry

     iteration # 23     ecut=    29.40 Ry     beta= 0.05
     Davidson diagonalization with overlap
     ethr =  2.45E-04,  avg # of iterations =  1.0

     negative rho (up, down):  2.044E-02 0.000E+00
 
     Adding external electric field

     Computed dipole along edir(3) : 
        Dipole                0.3997 Ry au,          1.0160 Debye
        Dipole field          0.0008 Ry au, 
 
        Potential amp.       -0.0699 Ry
        Total length         46.3494 bohr
 

     total cpu time spent up to now is      511.5 secs

     total energy              =   -2896.50267676 Ry
     estimated scf accuracy    <       1.88051435 Ry

     iteration # 24     ecut=    29.40 Ry     beta= 0.05
     Davidson diagonalization with overlap
     ethr =  2.45E-04,  avg # of iterations =  1.0

     negative rho (up, down):  2.056E-02 0.000E+00
 
     Adding external electric field

     Computed dipole along edir(3) : 
        Dipole                0.7421 Ry au,          1.8862 Debye
        Dipole field          0.0014 Ry au, 
 
        Potential amp.       -0.1298 Ry
        Total length         46.3494 bohr
 

     total cpu time spent up to now is      528.0 secs

     total energy              =   -2896.11000183 Ry
     estimated scf accuracy    <       3.14906815 Ry

     iteration # 25     ecut=    29.40 Ry     beta= 0.05
     Davidson diagonalization with overlap
     c_bands:  4 eigenvalues not converged
     c_bands:  5 eigenvalues not converged
     c_bands:  1 eigenvalues not converged
     c_bands:  1 eigenvalues not converged
     c_bands:  5 eigenvalues not converged
     c_bands:  3 eigenvalues not converged
     c_bands:  4 eigenvalues not converged
     ethr =  2.45E-04,  avg # of iterations = 27.4

     negative rho (up, down):  2.052E-02 0.000E+00
 
     Adding external electric field

     Computed dipole along edir(3) : 
        Dipole                0.9339 Ry au,          2.3738 Debye
        Dipole field          0.0018 Ry au, 
 
        Potential amp.       -0.1634 Ry
        Total length         46.3494 bohr
 

     total cpu time spent up to now is      565.1 secs

     total energy              =   -2896.38887667 Ry
     estimated scf accuracy    <       0.99927034 Ry

     iteration # 26     ecut=    29.40 Ry     beta= 0.05
     Davidson diagonalization with overlap
     c_bands:  2 eigenvalues not converged
     c_bands:  5 eigenvalues not converged
     c_bands:  5 eigenvalues not converged
     c_bands:  1 eigenvalues not converged
     c_bands:  5 eigenvalues not converged
     ethr =  2.45E-04,  avg # of iterations = 10.9

     negative rho (up, down):  2.093E-02 0.000E+00
 
     Adding external electric field

     Computed dipole along edir(3) : 
        Dipole                0.7551 Ry au,          1.9193 Debye
        Dipole field          0.0014 Ry au, 
 
        Potential amp.       -0.1321 Ry
        Total length         46.3494 bohr
 

     total cpu time spent up to now is      586.8 secs

     total energy              =   -2896.37105448 Ry
     estimated scf accuracy    <       2.93750817 Ry

     iteration # 27     ecut=    29.40 Ry     beta= 0.05
     Davidson diagonalization with overlap
     ethr =  2.45E-04,  avg # of iterations =  4.3

     negative rho (up, down):  2.133E-02 0.000E+00
 
     Adding external electric field

     Computed dipole along edir(3) : 
        Dipole                0.8711 Ry au,          2.2140 Debye
        Dipole field          0.0016 Ry au, 
 
        Potential amp.       -0.1524 Ry
        Total length         46.3494 bohr
 

     total cpu time spent up to now is      604.6 secs

     total energy              =   -2896.42887083 Ry
     estimated scf accuracy    <       0.70581588 Ry

     iteration # 28     ecut=    29.40 Ry     beta= 0.05
     Davidson diagonalization with overlap
     c_bands:  1 eigenvalues not converged
     c_bands:  1 eigenvalues not converged
     c_bands:  3 eigenvalues not converged
     c_bands:  1 eigenvalues not converged
     c_bands:  3 eigenvalues not converged
     c_bands:  1 eigenvalues not converged
     c_bands:  1 eigenvalues not converged
     ethr =  1.84E-04,  avg # of iterations = 16.8

     negative rho (up, down):  2.090E-02 0.000E+00
 
     Adding external electric field

     Computed dipole along edir(3) : 
        Dipole                0.6092 Ry au,          1.5485 Debye
        Dipole field          0.0011 Ry au, 
 
        Potential amp.       -0.1066 Ry
        Total length         46.3494 bohr
 

     total cpu time spent up to now is      630.3 secs

     total energy              =   -2896.37857723 Ry
     estimated scf accuracy    <       2.15923881 Ry

     iteration # 29     ecut=    29.40 Ry     beta= 0.05
     Davidson diagonalization with overlap
     ethr =  1.84E-04,  avg # of iterations =  1.7

     negative rho (up, down):  2.079E-02 0.000E+00
 
     Adding external electric field

     Computed dipole along edir(3) : 
        Dipole                0.4534 Ry au,          1.1525 Debye
        Dipole field          0.0009 Ry au, 
 
        Potential amp.       -0.0793 Ry
        Total length         46.3494 bohr
 

     total cpu time spent up to now is      647.6 secs

     total energy              =   -2896.34898209 Ry
     estimated scf accuracy    <       0.36060636 Ry

     iteration # 30     ecut=    29.40 Ry     beta= 0.05
     Davidson diagonalization with overlap
     c_bands:  2 eigenvalues not converged
     c_bands:  1 eigenvalues not converged
     c_bands:  2 eigenvalues not converged
     c_bands:  1 eigenvalues not converged
     c_bands:  1 eigenvalues not converged
     c_bands:  4 eigenvalues not converged
     ethr =  9.42E-05,  avg # of iterations = 17.1

     negative rho (up, down):  2.058E-02 0.000E+00
 
     Adding external electric field

     Computed dipole along edir(3) : 
        Dipole                0.4665 Ry au,          1.1856 Debye
        Dipole field          0.0009 Ry au, 
 
        Potential amp.       -0.0816 Ry
        Total length         46.3494 bohr
 

     total cpu time spent up to now is      673.6 secs

     total energy              =   -2896.37049212 Ry
     estimated scf accuracy    <       0.11463574 Ry

     iteration # 31     ecut=    29.40 Ry     beta= 0.05
     Davidson diagonalization with overlap
     c_bands:  2 eigenvalues not converged
     c_bands:  2 eigenvalues not converged
     c_bands:  1 eigenvalues not converged
     c_bands:  1 eigenvalues not converged
     ethr =  2.99E-05,  avg # of iterations = 14.7

     negative rho (up, down):  2.053E-02 0.000E+00
 
     Adding external electric field

     Computed dipole along edir(3) : 
        Dipole                0.4130 Ry au,          1.0496 Debye
        Dipole field          0.0008 Ry au, 
 
        Potential amp.       -0.0722 Ry
        Total length         46.3494 bohr
 

     total cpu time spent up to now is      698.2 secs

     total energy              =   -2896.36408151 Ry
     estimated scf accuracy    <       0.11200123 Ry

     iteration # 32     ecut=    29.40 Ry     beta= 0.05
     Davidson diagonalization with overlap
     c_bands:  1 eigenvalues not converged
     ethr =  2.92E-05,  avg # of iterations =  7.5

     negative rho (up, down):  2.057E-02 0.000E+00
 
     Adding external electric field

     Computed dipole along edir(3) : 
        Dipole                0.3726 Ry au,          0.9472 Debye
        Dipole field          0.0007 Ry au, 
 
        Potential amp.       -0.0652 Ry
        Total length         46.3494 bohr
 

     total cpu time spent up to now is      718.6 secs

     total energy              =   -2896.36529842 Ry
     estimated scf accuracy    <       0.06499157 Ry

     iteration # 33     ecut=    29.40 Ry     beta= 0.05
     Davidson diagonalization with overlap
     c_bands:  3 eigenvalues not converged
     c_bands:  2 eigenvalues not converged
     c_bands:  1 eigenvalues not converged
     c_bands:  1 eigenvalues not converged
     c_bands:  1 eigenvalues not converged
     ethr =  1.70E-05,  avg # of iterations = 17.1

     negative rho (up, down):  2.060E-02 0.000E+00
 
     Adding external electric field

     Computed dipole along edir(3) : 
        Dipole                0.4500 Ry au,          1.1437 Debye
        Dipole field          0.0008 Ry au, 
 
        Potential amp.       -0.0787 Ry
        Total length         46.3494 bohr
 

     total cpu time spent up to now is      747.5 secs

     total energy              =   -2896.36599316 Ry
     estimated scf accuracy    <       0.04879671 Ry

     iteration # 34     ecut=    29.40 Ry     beta= 0.05
     Davidson diagonalization with overlap
     c_bands:  3 eigenvalues not converged
     c_bands:  3 eigenvalues not converged
     c_bands:  2 eigenvalues not converged
     c_bands:  3 eigenvalues not converged
     c_bands:  4 eigenvalues not converged
     c_bands:  3 eigenvalues not converged
     c_bands:  2 eigenvalues not converged
     c_bands:  3 eigenvalues not converged
     c_bands:  4 eigenvalues not converged
     ethr =  1.27E-05,  avg # of iterations = 19.1

     negative rho (up, down):  2.067E-02 0.000E+00
 
     Adding external electric field

     Computed dipole along edir(3) : 
        Dipole                0.3672 Ry au,          0.9335 Debye
        Dipole field          0.0007 Ry au, 
 
        Potential amp.       -0.0642 Ry
        Total length         46.3494 bohr
 

     total cpu time spent up to now is      779.9 secs

     total energy              =   -2896.36902197 Ry
     estimated scf accuracy    <       0.06727853 Ry

     iteration # 35     ecut=    29.40 Ry     beta= 0.05
     Davidson diagonalization with overlap
     c_bands:  1 eigenvalues not converged
     c_bands:  1 eigenvalues not converged
     c_bands:  1 eigenvalues not converged
     c_bands:  1 eigenvalues not converged
     c_bands:  1 eigenvalues not converged
     c_bands:  2 eigenvalues not converged
     c_bands:  1 eigenvalues not converged
     c_bands:  1 eigenvalues not converged
     ethr =  1.27E-05,  avg # of iterations = 18.0

     negative rho (up, down):  2.062E-02 0.000E+00
 
     Adding external electric field

     Computed dipole along edir(3) : 
        Dipole                0.2831 Ry au,          0.7197 Debye
        Dipole field          0.0005 Ry au, 
 
        Potential amp.       -0.0495 Ry
        Total length         46.3494 bohr
 

     total cpu time spent up to now is      806.0 secs

     total energy              =   -2896.36584543 Ry
     estimated scf accuracy    <       0.02866931 Ry

     iteration # 36     ecut=    29.40 Ry     beta= 0.05
     Davidson diagonalization with overlap
     c_bands:  2 eigenvalues not converged
     c_bands:  1 eigenvalues not converged
     c_bands:  1 eigenvalues not converged
     c_bands:  3 eigenvalues not converged
     c_bands:  3 eigenvalues not converged
     c_bands:  1 eigenvalues not converged
     ethr =  7.49E-06,  avg # of iterations = 18.5

     negative rho (up, down):  2.074E-02 0.000E+00
 
     Adding external electric field

     Computed dipole along edir(3) : 
        Dipole                0.2784 Ry au,          0.7076 Debye
        Dipole field          0.0005 Ry au, 
 
        Potential amp.       -0.0487 Ry
        Total length         46.3494 bohr
 

     total cpu time spent up to now is      840.1 secs

     total energy              =   -2896.37143846 Ry
     estimated scf accuracy    <       0.02862295 Ry

     iteration # 37     ecut=    29.40 Ry     beta= 0.05
     Davidson diagonalization with overlap
     c_bands:  2 eigenvalues not converged
     c_bands:  1 eigenvalues not converged
     c_bands:  1 eigenvalues not converged
     ethr =  7.47E-06,  avg # of iterations = 10.0

     negative rho (up, down):  2.093E-02 0.000E+00
 
     Adding external electric field

     Computed dipole along edir(3) : 
        Dipole                0.2532 Ry au,          0.6435 Debye
        Dipole field          0.0005 Ry au, 
 
        Potential amp.       -0.0443 Ry
        Total length         46.3494 bohr
 

     total cpu time spent up to now is      861.8 secs

     total energy              =   -2896.37483470 Ry
     estimated scf accuracy    <       0.01280837 Ry

     iteration # 38     ecut=    29.40 Ry     beta= 0.05
     Davidson diagonalization with overlap
     c_bands:  1 eigenvalues not converged
     c_bands:  1 eigenvalues not converged
     c_bands:  1 eigenvalues not converged
     c_bands:  1 eigenvalues not converged
     c_bands:  2 eigenvalues not converged
     ethr =  3.34E-06,  avg # of iterations = 16.4

     negative rho (up, down):  2.090E-02 0.000E+00
 
     Adding external electric field

     Computed dipole along edir(3) : 
        Dipole                0.2500 Ry au,          0.6354 Debye
        Dipole field          0.0005 Ry au, 
 
        Potential amp.       -0.0437 Ry
        Total length         46.3494 bohr
 

     total cpu time spent up to now is      886.9 secs

     total energy              =   -2896.37617767 Ry
     estimated scf accuracy    <       0.02869507 Ry

     iteration # 39     ecut=    29.40 Ry     beta= 0.05
     Davidson diagonalization with overlap
     c_bands:  2 eigenvalues not converged
     ethr =  3.34E-06,  avg # of iterations =  4.6

     negative rho (up, down):  2.091E-02 0.000E+00
 
     Adding external electric field

     Computed dipole along edir(3) : 
        Dipole                0.2649 Ry au,          0.6733 Debye
        Dipole field          0.0005 Ry au, 
 
        Potential amp.       -0.0463 Ry
        Total length         46.3494 bohr
 

     total cpu time spent up to now is      905.4 secs

     total energy              =   -2896.37574853 Ry
     estimated scf accuracy    <       0.02968844 Ry

     iteration # 40     ecut=    29.40 Ry     beta= 0.05
     Davidson diagonalization with overlap
     c_bands:  4 eigenvalues not converged
     c_bands:  1 eigenvalues not converged
     ethr =  3.34E-06,  avg # of iterations =  9.3

     negative rho (up, down):  2.088E-02 0.000E+00
 
     Adding external electric field

     Computed dipole along edir(3) : 
        Dipole                0.2761 Ry au,          0.7017 Debye
        Dipole field          0.0005 Ry au, 
 
        Potential amp.       -0.0483 Ry
        Total length         46.3494 bohr
 

     total cpu time spent up to now is      926.3 secs

     total energy              =   -2896.37513814 Ry
     estimated scf accuracy    <       0.02994428 Ry

     iteration # 41     ecut=    29.40 Ry     beta= 0.05
     Davidson diagonalization with overlap
     ethr =  3.34E-06,  avg # of iterations =  6.2

     negative rho (up, down):  2.087E-02 0.000E+00
 
     Adding external electric field

     Computed dipole along edir(3) : 
        Dipole                0.2744 Ry au,          0.6976 Debye
        Dipole field          0.0005 Ry au, 
 
        Potential amp.       -0.0480 Ry
        Total length         46.3494 bohr
 

     total cpu time spent up to now is      945.7 secs

     total energy              =   -2896.37546752 Ry
     estimated scf accuracy    <       0.01393585 Ry

     iteration # 42     ecut=    29.40 Ry     beta= 0.05
     Davidson diagonalization with overlap
     ethr =  3.34E-06,  avg # of iterations =  1.4

     negative rho (up, down):  2.083E-02 0.000E+00
 
     Adding external electric field

     Computed dipole along edir(3) : 
        Dipole                0.2867 Ry au,          0.7288 Debye
        Dipole field          0.0005 Ry au, 
 
        Potential amp.       -0.0502 Ry
        Total length         46.3494 bohr
 

     total cpu time spent up to now is      962.8 secs

     total energy              =   -2896.37527803 Ry
     estimated scf accuracy    <       0.01251761 Ry

     iteration # 43     ecut=    29.40 Ry     beta= 0.05
     Davidson diagonalization with overlap
     ethr =  3.27E-06,  avg # of iterations =  3.6

     negative rho (up, down):  2.080E-02 0.000E+00
 
     Adding external electric field

     Computed dipole along edir(3) : 
        Dipole                0.3128 Ry au,          0.7950 Debye
        Dipole field          0.0006 Ry au, 
 
        Potential amp.       -0.0547 Ry
        Total length         46.3494 bohr
 

     total cpu time spent up to now is      980.9 secs

     total energy              =   -2896.37524790 Ry
     estimated scf accuracy    <       0.00795008 Ry

     iteration # 44     ecut=    29.40 Ry     beta= 0.05
     Davidson diagonalization with overlap
     c_bands:  1 eigenvalues not converged
     c_bands:  1 eigenvalues not converged
     ethr =  2.08E-06,  avg # of iterations = 13.6

     negative rho (up, down):  2.077E-02 0.000E+00
 
     Adding external electric field

     Computed dipole along edir(3) : 
        Dipole                0.2400 Ry au,          0.6100 Debye
        Dipole field          0.0005 Ry au, 
 
        Potential amp.       -0.0420 Ry
        Total length         46.3494 bohr
 

     total cpu time spent up to now is     1004.1 secs

     total energy              =   -2896.37624811 Ry
     estimated scf accuracy    <       0.00630304 Ry

     iteration # 45     ecut=    29.40 Ry     beta= 0.05
     Davidson diagonalization with overlap
     ethr =  1.65E-06,  avg # of iterations =  8.8

     negative rho (up, down):  2.077E-02 0.000E+00
 
     Adding external electric field

     Computed dipole along edir(3) : 
        Dipole                0.2341 Ry au,          0.5949 Debye
        Dipole field          0.0004 Ry au, 
 
        Potential amp.       -0.0409 Ry
        Total length         46.3494 bohr
 

     total cpu time spent up to now is     1025.5 secs

     total energy              =   -2896.37655904 Ry
     estimated scf accuracy    <       0.01845510 Ry

     iteration # 46     ecut=    29.40 Ry     beta= 0.05
     Davidson diagonalization with overlap
     ethr =  1.65E-06,  avg # of iterations =  2.8

     negative rho (up, down):  2.080E-02 0.000E+00
 
     Adding external electric field

     Computed dipole along edir(3) : 
        Dipole                0.2602 Ry au,          0.6614 Debye
        Dipole field          0.0005 Ry au, 
 
        Potential amp.       -0.0455 Ry
        Total length         46.3494 bohr
 

     total cpu time spent up to now is     1043.3 secs

     total energy              =   -2896.37625320 Ry
     estimated scf accuracy    <       0.01945863 Ry

     iteration # 47     ecut=    29.40 Ry     beta= 0.05
     Davidson diagonalization with overlap
     ethr =  1.65E-06,  avg # of iterations =  1.8

     negative rho (up, down):  2.079E-02 0.000E+00
 
     Adding external electric field

     Computed dipole along edir(3) : 
        Dipole                0.3264 Ry au,          0.8297 Debye
        Dipole field          0.0006 Ry au, 
 
        Potential amp.       -0.0571 Ry
        Total length         46.3494 bohr
 

     total cpu time spent up to now is     1060.4 secs

     total energy              =   -2896.37471416 Ry
     estimated scf accuracy    <       0.01531623 Ry

     iteration # 48     ecut=    29.40 Ry     beta= 0.05
     Davidson diagonalization with overlap
     c_bands:  1 eigenvalues not converged
     ethr =  1.65E-06,  avg # of iterations =  8.7

     negative rho (up, down):  2.078E-02 0.000E+00
 
     Adding external electric field

     Computed dipole along edir(3) : 
        Dipole                0.3463 Ry au,          0.8802 Debye
        Dipole field          0.0007 Ry au, 
 
        Potential amp.       -0.0606 Ry
        Total length         46.3494 bohr
 

     total cpu time spent up to now is     1081.1 secs

     total energy              =   -2896.37464949 Ry
     estimated scf accuracy    <       0.00482876 Ry

     iteration # 49     ecut=    29.40 Ry     beta= 0.05
     Davidson diagonalization with overlap
     c_bands:  1 eigenvalues not converged
     ethr =  1.26E-06,  avg # of iterations =  8.9

     negative rho (up, down):  2.075E-02 0.000E+00
 
     Adding external electric field

     Computed dipole along edir(3) : 
        Dipole                0.3911 Ry au,          0.9940 Debye
        Dipole field          0.0007 Ry au, 
 
        Potential amp.       -0.0684 Ry
        Total length         46.3494 bohr
 

     total cpu time spent up to now is     1102.3 secs

     total energy              =   -2896.37458433 Ry
     estimated scf accuracy    <       0.00265349 Ry

     iteration # 50     ecut=    29.40 Ry     beta= 0.05
     Davidson diagonalization with overlap
     c_bands:  1 eigenvalues not converged
     c_bands:  1 eigenvalues not converged
     c_bands:  2 eigenvalues not converged
     c_bands:  2 eigenvalues not converged
     ethr =  6.93E-07,  avg # of iterations = 14.2

     negative rho (up, down):  2.072E-02 0.000E+00
 
     Adding external electric field

     Computed dipole along edir(3) : 
        Dipole                0.3815 Ry au,          0.9698 Debye
        Dipole field          0.0007 Ry au, 
 
        Potential amp.       -0.0667 Ry
        Total length         46.3494 bohr
 

     total cpu time spent up to now is     1127.5 secs

     total energy              =   -2896.37448603 Ry
     estimated scf accuracy    <       0.00197546 Ry

     iteration # 51     ecut=    29.40 Ry     beta= 0.05
     Davidson diagonalization with overlap
     c_bands:  2 eigenvalues not converged
     c_bands:  1 eigenvalues not converged
     c_bands:  1 eigenvalues not converged
     ethr =  5.16E-07,  avg # of iterations = 12.5

     negative rho (up, down):  2.071E-02 0.000E+00
 
     Adding external electric field

     Computed dipole along edir(3) : 
        Dipole                0.3542 Ry au,          0.9004 Debye
        Dipole field          0.0007 Ry au, 
 
        Potential amp.       -0.0620 Ry
        Total length         46.3494 bohr
 

     total cpu time spent up to now is     1152.7 secs

     total energy              =   -2896.37468033 Ry
     estimated scf accuracy    <       0.00117911 Ry

     iteration # 52     ecut=    29.40 Ry     beta= 0.05
     Davidson diagonalization with overlap
     ethr =  3.08E-07,  avg # of iterations =  5.2

     negative rho (up, down):  2.071E-02 0.000E+00
 
     Adding external electric field

     Computed dipole along edir(3) : 
        Dipole                0.3517 Ry au,          0.8938 Debye
        Dipole field          0.0007 Ry au, 
 
        Potential amp.       -0.0615 Ry
        Total length         46.3494 bohr
 

     total cpu time spent up to now is     1171.9 secs

     total energy              =   -2896.37485315 Ry
     estimated scf accuracy    <       0.00096853 Ry

     iteration # 53     ecut=    29.40 Ry     beta= 0.05
     Davidson diagonalization with overlap
     ethr =  2.53E-07,  avg # of iterations =  5.9

     negative rho (up, down):  2.070E-02 0.000E+00
 
     Adding external electric field

     Computed dipole along edir(3) : 
        Dipole                0.3622 Ry au,          0.9207 Debye
        Dipole field          0.0007 Ry au, 
 
        Potential amp.       -0.0634 Ry
        Total length         46.3494 bohr
 

     total cpu time spent up to now is     1191.5 secs

     total energy              =   -2896.37485614 Ry
     estimated scf accuracy    <       0.00085166 Ry

     iteration # 54     ecut=    29.40 Ry     beta= 0.05
     Davidson diagonalization with overlap
     ethr =  2.22E-07,  avg # of iterations =  5.0

     negative rho (up, down):  2.071E-02 0.000E+00
 
     Adding external electric field

     Computed dipole along edir(3) : 
        Dipole                0.3917 Ry au,          0.9957 Debye
        Dipole field          0.0007 Ry au, 
 
        Potential amp.       -0.0685 Ry
        Total length         46.3494 bohr
 

     total cpu time spent up to now is     1210.7 secs

     total energy              =   -2896.37492110 Ry
     estimated scf accuracy    <       0.00058223 Ry

     iteration # 55     ecut=    29.40 Ry     beta= 0.05
     Davidson diagonalization with overlap
     ethr =  1.52E-07,  avg # of iterations =  6.1

     negative rho (up, down):  2.072E-02 0.000E+00
 
     Adding external electric field

     Computed dipole along edir(3) : 
        Dipole                0.3682 Ry au,          0.9358 Debye
        Dipole field          0.0007 Ry au, 
 
        Potential amp.       -0.0644 Ry
        Total length         46.3494 bohr
 

     total cpu time spent up to now is     1233.9 secs

     total energy              =   -2896.37500827 Ry
     estimated scf accuracy    <       0.00048137 Ry

     iteration # 56     ecut=    29.40 Ry     beta= 0.05
     Davidson diagonalization with overlap
     ethr =  1.26E-07,  avg # of iterations =  5.0

     negative rho (up, down):  2.071E-02 0.000E+00
 
     Adding external electric field

     Computed dipole along edir(3) : 
        Dipole                0.3683 Ry au,          0.9360 Debye
        Dipole field          0.0007 Ry au, 
 
        Potential amp.       -0.0644 Ry
        Total length         46.3494 bohr
 

     total cpu time spent up to now is     1255.5 secs

     total energy              =   -2896.37506175 Ry
     estimated scf accuracy    <       0.00013267 Ry

     iteration # 57     ecut=    29.40 Ry     beta= 0.05
     Davidson diagonalization with overlap
     ethr =  3.46E-08,  avg # of iterations =  5.5

     negative rho (up, down):  2.071E-02 0.000E+00
 
     Adding external electric field

     Computed dipole along edir(3) : 
        Dipole                0.3651 Ry au,          0.9279 Debye
        Dipole field          0.0007 Ry au, 
 
        Potential amp.       -0.0639 Ry
        Total length         46.3494 bohr
 

     total cpu time spent up to now is     1278.3 secs

     total energy              =   -2896.37507690 Ry
     estimated scf accuracy    <       0.00009449 Ry

     iteration # 58     ecut=    29.40 Ry     beta= 0.05
     Davidson diagonalization with overlap
     ethr =  2.47E-08,  avg # of iterations =  4.7

     negative rho (up, down):  2.071E-02 0.000E+00
 
     Adding external electric field

     Computed dipole along edir(3) : 
        Dipole                0.3691 Ry au,          0.9382 Debye
        Dipole field          0.0007 Ry au, 
 
        Potential amp.       -0.0646 Ry
        Total length         46.3494 bohr
 

     total cpu time spent up to now is     1297.9 secs

     total energy              =   -2896.37507724 Ry
     estimated scf accuracy    <       0.00007442 Ry

     iteration # 59     ecut=    29.40 Ry     beta= 0.05
     Davidson diagonalization with overlap
     ethr =  1.94E-08,  avg # of iterations =  5.8

     negative rho (up, down):  2.070E-02 0.000E+00
 
     Adding external electric field

     Computed dipole along edir(3) : 
        Dipole                0.3757 Ry au,          0.9550 Debye
        Dipole field          0.0007 Ry au, 
 
        Potential amp.       -0.0657 Ry
        Total length         46.3494 bohr
 

     total cpu time spent up to now is     1319.2 secs

     total energy              =   -2896.37508405 Ry
     estimated scf accuracy    <       0.00004766 Ry

     iteration # 60     ecut=    29.40 Ry     beta= 0.05
     Davidson diagonalization with overlap
     ethr =  1.24E-08,  avg # of iterations =  5.8

     negative rho (up, down):  2.069E-02 0.000E+00
 
     Adding external electric field

     Computed dipole along edir(3) : 
        Dipole                0.3698 Ry au,          0.9400 Debye
        Dipole field          0.0007 Ry au, 
 
        Potential amp.       -0.0647 Ry
        Total length         46.3494 bohr
 

     total cpu time spent up to now is     1342.2 secs

     total energy              =   -2896.37509383 Ry
     estimated scf accuracy    <       0.00003573 Ry

     iteration # 61     ecut=    29.40 Ry     beta= 0.05
     Davidson diagonalization with overlap
     ethr =  9.33E-09,  avg # of iterations =  5.1

     negative rho (up, down):  2.069E-02 0.000E+00
 
     Adding external electric field

     Computed dipole along edir(3) : 
        Dipole                0.3670 Ry au,          0.9329 Debye
        Dipole field          0.0007 Ry au, 
 
        Potential amp.       -0.0642 Ry
        Total length         46.3494 bohr
 

     total cpu time spent up to now is     1361.9 secs

     total energy              =   -2896.37509930 Ry
     estimated scf accuracy    <       0.00001602 Ry

     iteration # 62     ecut=    29.40 Ry     beta= 0.05
     Davidson diagonalization with overlap
     ethr =  4.18E-09,  avg # of iterations =  5.0

     negative rho (up, down):  2.069E-02 0.000E+00
 
     Adding external electric field

     Computed dipole along edir(3) : 
        Dipole                0.3718 Ry au,          0.9450 Debye
        Dipole field          0.0007 Ry au, 
 
        Potential amp.       -0.0650 Ry
        Total length         46.3494 bohr
 

     total cpu time spent up to now is     1384.9 secs

     total energy              =   -2896.37509999 Ry
     estimated scf accuracy    <       0.00001722 Ry

     iteration # 63     ecut=    29.40 Ry     beta= 0.05
     Davidson diagonalization with overlap
     ethr =  4.18E-09,  avg # of iterations =  5.9

     negative rho (up, down):  2.069E-02 0.000E+00
 
     Adding external electric field

     Computed dipole along edir(3) : 
        Dipole                0.3692 Ry au,          0.9384 Debye
        Dipole field          0.0007 Ry au, 
 
        Potential amp.       -0.0646 Ry
        Total length         46.3494 bohr
 

     total cpu time spent up to now is     1409.7 secs

     total energy              =   -2896.37510533 Ry
     estimated scf accuracy    <       0.00001400 Ry

     iteration # 64     ecut=    29.40 Ry     beta= 0.05
     Davidson diagonalization with overlap
     ethr =  3.65E-09,  avg # of iterations =  3.4

     negative rho (up, down):  2.068E-02 0.000E+00
 
     Adding external electric field

     Computed dipole along edir(3) : 
        Dipole                0.3672 Ry au,          0.9333 Debye
        Dipole field          0.0007 Ry au, 
 
        Potential amp.       -0.0642 Ry
        Total length         46.3494 bohr
 

     total cpu time spent up to now is     1428.3 secs

     total energy              =   -2896.37510754 Ry
     estimated scf accuracy    <       0.00000526 Ry

     iteration # 65     ecut=    29.40 Ry     beta= 0.05
     Davidson diagonalization with overlap
     ethr =  1.37E-09,  avg # of iterations =  6.2

     negative rho (up, down):  2.068E-02 0.000E+00
 
     Adding external electric field

     Computed dipole along edir(3) : 
        Dipole                0.3680 Ry au,          0.9354 Debye
        Dipole field          0.0007 Ry au, 
 
        Potential amp.       -0.0644 Ry
        Total length         46.3494 bohr
 

     total cpu time spent up to now is     1454.8 secs

     total energy              =   -2896.37511087 Ry
     estimated scf accuracy    <       0.00000560 Ry

     iteration # 66     ecut=    29.40 Ry     beta= 0.05
     Davidson diagonalization with overlap
     ethr =  1.37E-09,  avg # of iterations =  2.6

     negative rho (up, down):  2.068E-02 0.000E+00
 
     Adding external electric field

     Computed dipole along edir(3) : 
        Dipole                0.3682 Ry au,          0.9358 Debye
        Dipole field          0.0007 Ry au, 
 
        Potential amp.       -0.0644 Ry
        Total length         46.3494 bohr
 

     total cpu time spent up to now is     1473.0 secs

     total energy              =   -2896.37511289 Ry
     estimated scf accuracy    <       0.00000312 Ry

     iteration # 67     ecut=    29.40 Ry     beta= 0.05
     Davidson diagonalization with overlap
     ethr =  8.16E-10,  avg # of iterations =  5.0

     negative rho (up, down):  2.068E-02 0.000E+00
 
     Adding external electric field

     Computed dipole along edir(3) : 
        Dipole                0.3687 Ry au,          0.9373 Debye
        Dipole field          0.0007 Ry au, 
 
        Potential amp.       -0.0645 Ry
        Total length         46.3494 bohr
 

     total cpu time spent up to now is     1492.7 secs

     total energy              =   -2896.37511536 Ry
     estimated scf accuracy    <       0.00000204 Ry

     iteration # 68     ecut=    29.40 Ry     beta= 0.05
     Davidson diagonalization with overlap
     ethr =  5.34E-10,  avg # of iterations =  6.0

     negative rho (up, down):  2.068E-02 0.000E+00
 
     Adding external electric field

     Computed dipole along edir(3) : 
        Dipole                0.3689 Ry au,          0.9376 Debye
        Dipole field          0.0007 Ry au, 
 
        Potential amp.       -0.0645 Ry
        Total length         46.3494 bohr
 

     total cpu time spent up to now is     1514.3 secs

     total energy              =   -2896.37511729 Ry
     estimated scf accuracy    <       0.00000321 Ry

     iteration # 69     ecut=    29.40 Ry     beta= 0.05
     Davidson diagonalization with overlap
     ethr =  5.34E-10,  avg # of iterations =  1.9

     negative rho (up, down):  2.068E-02 0.000E+00
 
     Adding external electric field

     Computed dipole along edir(3) : 
        Dipole                0.3689 Ry au,          0.9376 Debye
        Dipole field          0.0007 Ry au, 
 
        Potential amp.       -0.0645 Ry
        Total length         46.3494 bohr
 

     total cpu time spent up to now is     1532.1 secs

     total energy              =   -2896.37511856 Ry
     estimated scf accuracy    <       0.00000234 Ry

     iteration # 70     ecut=    29.40 Ry     beta= 0.05
     Davidson diagonalization with overlap
     ethr =  5.34E-10,  avg # of iterations =  6.0

     negative rho (up, down):  2.068E-02 0.000E+00
 
     Adding external electric field

     Computed dipole along edir(3) : 
        Dipole                0.3689 Ry au,          0.9376 Debye
        Dipole field          0.0007 Ry au, 
 
        Potential amp.       -0.0645 Ry
        Total length         46.3494 bohr
 

     total cpu time spent up to now is     1553.6 secs

     total energy              =   -2896.37512011 Ry
     estimated scf accuracy    <       0.00000074 Ry

     iteration # 71     ecut=    29.40 Ry     beta= 0.05
     Davidson diagonalization with overlap
     ethr =  1.93E-10,  avg # of iterations =  6.3

     negative rho (up, down):  2.068E-02 0.000E+00
 
     Adding external electric field

     Computed dipole along edir(3) : 
        Dipole                0.3685 Ry au,          0.9366 Debye
        Dipole field          0.0007 Ry au, 
 
        Potential amp.       -0.0645 Ry
        Total length         46.3494 bohr
 

     total cpu time spent up to now is     1578.0 secs

     total energy              =   -2896.37512153 Ry
     estimated scf accuracy    <       0.00000063 Ry

     iteration # 72     ecut=    29.40 Ry     beta= 0.05
     Davidson diagonalization with overlap
     ethr =  1.65E-10,  avg # of iterations =  2.2

     negative rho (up, down):  2.068E-02 0.000E+00
 
     Adding external electric field

     Computed dipole along edir(3) : 
        Dipole                0.3681 Ry au,          0.9356 Debye
        Dipole field          0.0007 Ry au, 
 
        Potential amp.       -0.0644 Ry
        Total length         46.3494 bohr
 

     total cpu time spent up to now is     1596.1 secs

     total energy              =   -2896.37512264 Ry
     estimated scf accuracy    <       0.00000040 Ry

     iteration # 73     ecut=    29.40 Ry     beta= 0.05
     Davidson diagonalization with overlap
     ethr =  1.04E-10,  avg # of iterations =  7.4

     negative rho (up, down):  2.068E-02 0.000E+00
 
     Adding external electric field

     Computed dipole along edir(3) : 
        Dipole                0.3690 Ry au,          0.9378 Debye
        Dipole field          0.0007 Ry au, 
 
        Potential amp.       -0.0645 Ry
        Total length         46.3494 bohr
 

     total cpu time spent up to now is     1623.2 secs

     total energy              =   -2896.37512359 Ry
     estimated scf accuracy    <       0.00000069 Ry

     iteration # 74     ecut=    29.40 Ry     beta= 0.05
     Davidson diagonalization with overlap
     ethr =  1.04E-10,  avg # of iterations =  7.2

     negative rho (up, down):  2.068E-02 0.000E+00
 
     Adding external electric field

     Computed dipole along edir(3) : 
        Dipole                0.3689 Ry au,          0.9375 Debye
        Dipole field          0.0007 Ry au, 
 
        Potential amp.       -0.0645 Ry
        Total length         46.3494 bohr
 

     total cpu time spent up to now is     1650.5 secs

     total energy              =   -2896.37512471 Ry
     estimated scf accuracy    <       0.00000026 Ry

     iteration # 75     ecut=    29.40 Ry     beta= 0.05
     Davidson diagonalization with overlap
     ethr =  6.76E-11,  avg # of iterations =  5.9

     negative rho (up, down):  2.068E-02 0.000E+00
 
     Adding external electric field

     Computed dipole along edir(3) : 
        Dipole                0.3686 Ry au,          0.9370 Debye
        Dipole field          0.0007 Ry au, 
 
        Potential amp.       -0.0645 Ry
        Total length         46.3494 bohr
 

     total cpu time spent up to now is     1674.2 secs

     total energy              =   -2896.37512555 Ry
     estimated scf accuracy    <       0.00000026 Ry

     iteration # 76     ecut=    29.40 Ry     beta= 0.05
     Davidson diagonalization with overlap
     ethr =  6.76E-11,  avg # of iterations =  5.0

     negative rho (up, down):  2.068E-02 0.000E+00
 
     Adding external electric field

     Computed dipole along edir(3) : 
        Dipole                0.3686 Ry au,          0.9368 Debye
        Dipole field          0.0007 Ry au, 
 
        Potential amp.       -0.0645 Ry
        Total length         46.3494 bohr
 

     total cpu time spent up to now is     1693.8 secs

     total energy              =   -2896.37512631 Ry
     estimated scf accuracy    <       0.00000011 Ry

     iteration # 77     ecut=    29.40 Ry     beta= 0.05
     Davidson diagonalization with overlap
     ethr =  2.84E-11,  avg # of iterations =  5.2

     negative rho (up, down):  2.068E-02 0.000E+00
 
     Adding external electric field

     Computed dipole along edir(3) : 
        Dipole                0.3686 Ry au,          0.9370 Debye
        Dipole field          0.0007 Ry au, 
 
        Potential amp.       -0.0645 Ry
        Total length         46.3494 bohr
 

     total cpu time spent up to now is     1716.1 secs

     total energy              =   -2896.37512702 Ry
     estimated scf accuracy    <       0.00000008 Ry

     iteration # 78     ecut=    29.40 Ry     beta= 0.05
     Davidson diagonalization with overlap
     ethr =  2.18E-11,  avg # of iterations =  2.0

     negative rho (up, down):  2.068E-02 0.000E+00
 
     Adding external electric field

     Computed dipole along edir(3) : 
        Dipole                0.3686 Ry au,          0.9370 Debye
        Dipole field          0.0007 Ry au, 
 
        Potential amp.       -0.0645 Ry
        Total length         46.3494 bohr
 

     total cpu time spent up to now is     1733.9 secs

     total energy              =   -2896.37512762 Ry
     estimated scf accuracy    <       0.00000008 Ry

     iteration # 79     ecut=    29.40 Ry     beta= 0.05
     Davidson diagonalization with overlap
     ethr =  2.08E-11,  avg # of iterations =  5.5

     negative rho (up, down):  2.070E-02 0.000E+00
 
     Adding external electric field

     Computed dipole along edir(3) : 
        Dipole                0.3678 Ry au,          0.9349 Debye
        Dipole field          0.0007 Ry au, 
 
        Potential amp.       -0.0643 Ry
        Total length         46.3494 bohr
 

     total cpu time spent up to now is     1753.7 secs

     End of self-consistent calculation

          k = 0.0000 0.0000 0.0000 ( 18029 PWs)   bands (ev):

   -56.6400 -56.6062 -56.3427 -56.3058 -56.2270 -56.1661 -56.0429 -56.0398
   -56.0055 -55.9451 -55.9358 -55.9088 -55.4375 -55.4035 -55.3536 -55.2683
   -33.0686 -32.8864 -32.8859 -32.8580 -32.8321 -32.7408 -32.6953 -32.6799
   -32.6494 -32.5572 -32.5447 -32.5374 -32.5231 -32.5197 -32.5127 -32.4958
   -32.4727 -32.4550 -32.4446 -32.3492 -32.3116 -32.2885 -32.2864 -32.2762
   -32.2625 -32.2590 -32.1970 -32.1937 -32.1679 -32.1617 -32.1542 -32.1302
   -32.1221 -32.1126 -32.0989 -32.0413 -31.8962 -31.8379 -31.7627 -31.7390
   -31.6563 -31.6255 -31.5871 -31.5714 -31.5608 -31.4851 -31.4593 -31.3417
   -16.9973 -16.8091 -16.5769 -16.4417 -16.3518 -16.2788 -16.0120 -16.0098
   -15.9636 -15.8913 -15.8635 -15.8007 -15.7975 -15.7712 -15.7605 -15.7509
   -15.7326 -15.6843 -15.6678 -15.6401 -15.6069 -15.5657 -15.4437 -15.4243
   -15.4078 -15.2936 -15.2441 -15.2058 -15.0228 -13.9305 -13.8164  -7.7776
    -4.3998  -4.3412  -4.1870  -4.1626  -4.0705  -3.8265  -3.6993  -3.4769
    -3.4357  -3.4050  -3.3901  -3.3239  -3.2647  -3.1575  -3.1412  -3.1197
    -3.0796  -3.0711  -3.0490  -3.0352  -3.0103  -2.9699  -2.8871  -2.8483
    -2.8291  -2.7500  -2.7224  -2.6453  -2.6188  -2.5745  -2.5492  -2.4901
    -2.4834  -2.4198  -2.3489  -2.2907  -2.1393  -2.0988  -2.0903  -2.0834
    -2.0127  -1.9037  -1.7625  -1.7281  -1.6616  -1.6598  -1.6422  -1.6055
    -1.5125  -1.4955  -1.4105  -1.3046  -1.2952  -1.2431  -1.1908  -1.1499
    -1.1335  -1.1326  -1.0754  -1.0428  -1.0070  -0.8803  -0.8527  -0.7335
    -0.7163  -0.6812  -0.6440  -0.6390  -0.5884  -0.5302  -0.4770  -0.4465
    -0.4252  -0.3781  -0.3679  -0.3328  -0.3097  -0.2553  -0.1403  -0.1166
    -0.1058  -0.0413   0.1440   0.1693   0.2123   0.3015   0.3499   0.5118
     0.5324   0.5911   0.7992   0.8358   1.1816   1.2617   1.5400   2.2811
     2.6275   2.8225   3.0830   3.1191   3.1364   3.1682   3.3427   3.3772
     3.3957

          k = 0.0000 0.0419 0.0000 ( 17933 PWs)   bands (ev):

   -56.6351 -56.6110 -56.3376 -56.3108 -56.2244 -56.1686 -56.0414 -56.0348
   -56.0103 -55.9402 -55.9371 -55.9136 -55.4324 -55.4084 -55.3518 -55.2700
   -33.0152 -32.8823 -32.8617 -32.8288 -32.8188 -32.7541 -32.7511 -32.6362
   -32.6257 -32.5680 -32.5555 -32.5378 -32.5220 -32.5094 -32.5045 -32.4734
   -32.4596 -32.4442 -32.3883 -32.3601 -32.3439 -32.2967 -32.2840 -32.2721
   -32.2624 -32.2594 -32.2170 -32.2100 -32.1877 -32.1724 -32.1651 -32.1615
   -32.1275 -32.1195 -32.1111 -32.0989 -31.8538 -31.7843 -31.7591 -31.7422
   -31.6440 -31.6241 -31.6004 -31.5837 -31.5618 -31.5162 -31.4964 -31.3622
   -16.8635 -16.6874 -16.4676 -16.3331 -16.2579 -16.2411 -16.1456 -16.0421
   -15.9614 -15.9527 -15.8741 -15.8613 -15.8090 -15.7622 -15.7433 -15.7282
   -15.7088 -15.6666 -15.6662 -15.6544 -15.6130 -15.5730 -15.4940 -15.4602
   -15.4261 -15.3482 -15.3139 -15.2635 -15.0866 -13.9356 -13.8564  -7.7795
    -4.2137  -4.1599  -4.0265  -3.9859  -3.9144  -3.5863  -3.5326  -3.5014
    -3.4386  -3.3465  -3.3079  -3.3023  -3.2521  -3.2438  -3.2196  -3.1815
    -3.1146  -3.0994  -3.0557  -3.0453  -3.0164  -2.9988  -2.9542  -2.9238
    -2.9167  -2.8261  -2.8043  -2.7716  -2.7648  -2.6900  -2.6386  -2.5838
    -2.5518  -2.4049  -2.3741  -2.2621  -2.2046  -2.0499  -2.0285  -1.9856
    -1.9529  -1.9065  -1.7007  -1.6490  -1.6080  -1.5834  -1.4308  -1.4108
    -1.3975  -1.3554  -1.2984  -1.2873  -1.2567  -1.2390  -1.1978  -1.1460
    -1.1217  -1.0709  -1.0621  -1.0366  -1.0067  -0.9163  -0.8850  -0.8707
    -0.8397  -0.8157  -0.7828  -0.7325  -0.6136  -0.5774  -0.5568  -0.5120
    -0.4589  -0.4422  -0.3827  -0.3605  -0.3551  -0.2838  -0.2284  -0.1714
    -0.1152  -0.0535   0.0088   0.0605   0.1395   0.1543   0.1911   0.2363
     0.4404   0.6940   0.7952   0.8748   1.1157   1.1733   1.6227   2.1590
     2.8950   2.9376   3.0640   3.1218   3.1547   3.3252   3.3514   3.3685
     3.3948

          k = 0.0000-0.0839 0.0000 ( 17884 PWs)   bands (ev):

   -56.6251 -56.6209 -56.3286 -56.3197 -56.2216 -56.1714 -56.0399 -56.0250
   -56.0200 -55.9386 -55.9313 -55.9223 -55.4204 -55.4204 -55.3499 -55.2718
   -32.8863 -32.8829 -32.8745 -32.8692 -32.7882 -32.7846 -32.6933 -32.6865
   -32.6046 -32.5937 -32.5367 -32.5270 -32.5241 -32.5167 -32.4907 -32.4629
   -32.4292 -32.3750 -32.3686 -32.3456 -32.3417 -32.2837 -32.2756 -32.2698
   -32.2632 -32.2607 -32.2567 -32.2513 -32.2475 -32.2395 -32.1793 -32.1731
   -32.1428 -32.1345 -32.1250 -32.1176 -31.7939 -31.7505 -31.7505 -31.6521
   -31.6520 -31.6352 -31.6226 -31.6139 -31.6139 -31.5628 -31.5055 -31.3817
   -16.5335 -16.5170 -16.3919 -16.3857 -16.2368 -16.2337 -16.0955 -16.0896
   -16.0194 -16.0114 -15.9490 -15.9450 -15.8094 -15.8094 -15.7803 -15.7763
   -15.6214 -15.6183 -15.5867 -15.5856 -15.5656 -15.5578 -15.5071 -15.4820
   -15.4789 -15.4608 -15.3933 -15.3855 -15.1652 -13.9191 -13.9188  -7.7813
    -3.7594  -3.7485  -3.7420  -3.7207  -3.6538  -3.6372  -3.5849  -3.5817
    -3.5508  -3.5340  -3.3606  -3.3587  -3.3269  -3.3237  -3.2898  -3.2893
    -3.1647  -3.1587  -3.0808  -3.0721  -3.0314  -2.9966  -2.9776  -2.9272
    -2.8975  -2.8738  -2.8668  -2.7774  -2.6921  -2.6724  -2.6282  -2.6032
    -2.3118  -2.2916  -2.2414  -2.2369  -2.1932  -2.0603  -2.0289  -1.9062
    -1.8640  -1.8472  -1.8172  -1.7831  -1.7725  -1.7289  -1.6493  -1.6010
    -1.5501  -1.4418  -1.4274  -1.3951  -1.3049  -1.1269  -1.0303  -0.9851
    -0.9636  -0.9473  -0.8735  -0.8531  -0.8267  -0.8090  -0.7994  -0.7925
    -0.7679  -0.7618  -0.7436  -0.7366  -0.7029  -0.6498  -0.6341  -0.6196
    -0.5631  -0.5435  -0.5154  -0.4793  -0.4291  -0.4241  -0.3851  -0.3518
    -0.2546  -0.1840  -0.1259  -0.0921  -0.0651   0.0075   0.2683   0.3722
     0.4639   0.4715   0.9334   0.9343   1.0749   1.0750   1.7347   2.0204
     3.1028   3.1079   3.1222   3.1274   3.2660   3.2677   3.3167   3.3237
     3.3257

          k = 0.0380 0.0000 0.0000 ( 17913 PWs)   bands (ev):

   -56.6399 -56.6061 -56.3425 -56.3057 -56.2269 -56.1660 -56.0428 -56.0396
   -56.0054 -55.9450 -55.9357 -55.9087 -55.4374 -55.4034 -55.3535 -55.2682
   -33.0693 -32.8862 -32.8859 -32.8579 -32.8299 -32.7405 -32.6950 -32.6806
   -32.6493 -32.5565 -32.5440 -32.5377 -32.5359 -32.5235 -32.5183 -32.4725
   -32.4689 -32.4530 -32.4451 -32.3489 -32.2976 -32.2881 -32.2861 -32.2823
   -32.2628 -32.2589 -32.1938 -32.1932 -32.1680 -32.1619 -32.1568 -32.1392
   -32.1229 -32.1123 -32.0988 -32.0412 -31.8957 -31.8375 -31.7654 -31.7371
   -31.6561 -31.6267 -31.5869 -31.5713 -31.5602 -31.4849 -31.4590 -31.3415
   -16.9310 -16.7055 -16.4910 -16.3787 -16.3434 -16.2784 -16.1700 -16.0821
   -15.9616 -15.9293 -15.9099 -15.8936 -15.8387 -15.8178 -15.7965 -15.7510
   -15.7202 -15.6592 -15.6505 -15.6285 -15.5270 -15.5098 -15.4661 -15.4129
   -15.4028 -15.3622 -15.2450 -15.2010 -15.0205 -13.9274 -13.8161  -7.7731
    -4.3009  -4.1030  -3.9617  -3.9257  -3.8330  -3.8073  -3.7150  -3.6963
    -3.5840  -3.4386  -3.4132  -3.3425  -3.3068  -3.2369  -3.1617  -3.1347
    -3.1000  -3.0615  -3.0109  -3.0046  -2.9115  -2.8789  -2.8775  -2.7901
    -2.7765  -2.7355  -2.6821  -2.5368  -2.5335  -2.5104  -2.4490  -2.4190
    -2.3501  -2.3023  -2.2283  -2.2152  -2.1556  -2.1228  -2.1161  -2.0615
    -2.0121  -1.9239  -1.8765  -1.7917  -1.7815  -1.7492  -1.6857  -1.6222
    -1.5666  -1.5517  -1.5063  -1.4659  -1.3801  -1.3542  -1.2570  -1.1947
    -1.1123  -1.0843  -1.0692  -1.0218  -0.9852  -0.8976  -0.8578  -0.8044
    -0.7394  -0.7255  -0.6919  -0.6698  -0.6143  -0.5901  -0.5216  -0.5067
    -0.4774  -0.4621  -0.4277  -0.3958  -0.3711  -0.2037  -0.1469  -0.1194
    -0.0845  -0.0322   0.0142   0.0242   0.0503   0.1322   0.3353   0.4250
     0.5398   0.6030   0.7033   0.7712   1.0629   1.1570   1.5466   2.1475
     2.8256   2.8335   3.1568   3.2090   3.2464   3.3127   3.3471   3.3499
     3.3990

          k = 0.0380 0.0419 0.0000 ( 17878 PWs)   bands (ev):

   -56.6350 -56.6110 -56.3375 -56.3107 -56.2243 -56.1686 -56.0414 -56.0347
   -56.0103 -55.9401 -55.9370 -55.9136 -55.4324 -55.4084 -55.3517 -55.2700
   -33.0160 -32.8821 -32.8617 -32.8289 -32.8170 -32.7538 -32.7512 -32.6360
   -32.6264 -32.5678 -32.5554 -32.5330 -32.5232 -32.5190 -32.5083 -32.4765
   -32.4429 -32.4425 -32.3890 -32.3597 -32.3440 -32.2855 -32.2822 -32.2768
   -32.2624 -32.2601 -32.2123 -32.2102 -32.1878 -32.1733 -32.1648 -32.1616
   -32.1366 -32.1232 -32.1111 -32.0986 -31.8536 -31.7840 -31.7611 -31.7412
   -31.6438 -31.6250 -31.6003 -31.5838 -31.5618 -31.5161 -31.4962 -31.3622
   -16.8036 -16.5901 -16.3880 -16.2748 -16.2460 -16.2402 -16.1658 -16.1238
   -16.0157 -15.9084 -15.9003 -15.8827 -15.8528 -15.8000 -15.7600 -15.7516
   -15.7410 -15.7040 -15.6991 -15.6702 -15.5535 -15.5416 -15.4921 -15.4863
   -15.4212 -15.4035 -15.3164 -15.2583 -15.0847 -13.9334 -13.8567  -7.7769
    -4.1269  -3.9244  -3.7954  -3.7492  -3.6798  -3.5865  -3.5561  -3.5291
    -3.4412  -3.4162  -3.2964  -3.2769  -3.2441  -3.1821  -3.1545  -3.1223
    -3.1019  -3.0901  -3.0579  -3.0487  -2.9890  -2.9658  -2.9464  -2.9240
    -2.8589  -2.8050  -2.7625  -2.7496  -2.7027  -2.6208  -2.5800  -2.5175
    -2.5098  -2.3851  -2.3353  -2.2529  -2.2037  -2.0917  -2.0615  -2.0082
    -1.8360  -1.8085  -1.7330  -1.7147  -1.6860  -1.6209  -1.5469  -1.5180
    -1.4927  -1.4804  -1.3982  -1.3923  -1.3746  -1.2655  -1.2366  -1.2005
    -1.1843  -1.1712  -1.1317  -1.1264  -1.0687  -1.0505  -0.9987  -0.9716
    -0.8909  -0.8855  -0.8673  -0.7887  -0.7326  -0.6935  -0.6661  -0.6078
    -0.5515  -0.5184  -0.4324  -0.3813  -0.3178  -0.3120  -0.1624  -0.1146
    -0.0710  -0.0151   0.0004   0.0413   0.0919   0.1111   0.2084   0.2181
     0.4175   0.6508   0.8106   0.8823   1.0379   1.1351   1.6366   2.1464
     2.9240   3.0764   3.1445   3.1516   3.2428   3.2972   3.3069   3.4002
     3.4223

          k = 0.0380-0.0839 0.0000 ( 17916 PWs)   bands (ev):

   -56.6251 -56.6210 -56.3286 -56.3197 -56.2216 -56.1714 -56.0400 -56.0250
   -56.0200 -55.9386 -55.9313 -55.9224 -55.4204 -55.4204 -55.3499 -55.2718
   -32.8870 -32.8835 -32.8745 -32.8693 -32.7874 -32.7838 -32.6935 -32.6867
   -32.6047 -32.5939 -32.5368 -32.5268 -32.5243 -32.5168 -32.4909 -32.4635
   -32.4284 -32.3742 -32.3646 -32.3493 -32.3455 -32.2842 -32.2755 -32.2697
   -32.2657 -32.2585 -32.2517 -32.2451 -32.2425 -32.2356 -32.1811 -32.1744
   -32.1428 -32.1345 -32.1323 -32.1247 -31.7939 -31.7512 -31.7512 -31.6520
   -31.6520 -31.6351 -31.6233 -31.6140 -31.6139 -31.5634 -31.5055 -31.3817
   -16.4957 -16.4784 -16.3282 -16.3221 -16.1951 -16.1914 -16.0481 -16.0424
   -16.0134 -16.0106 -15.9292 -15.9248 -15.9128 -15.9092 -15.7642 -15.7606
   -15.7116 -15.7078 -15.6626 -15.6573 -15.5690 -15.5638 -15.5170 -15.5113
   -15.4723 -15.4365 -15.3888 -15.3795 -15.1620 -13.9189 -13.9187  -7.7806
    -3.7510  -3.7198  -3.5384  -3.5372  -3.4686  -3.4668  -3.4365  -3.4267
    -3.3546  -3.3256  -3.2833  -3.2737  -3.2448  -3.2352  -3.1841  -3.1813
    -3.1417  -3.1338  -3.0626  -3.0595  -3.0046  -2.9939  -2.9801  -2.9597
    -2.9157  -2.9042  -2.8105  -2.8055  -2.7799  -2.7006  -2.3914  -2.3694
    -2.3372  -2.3241  -2.2417  -2.2318  -2.1830  -2.1441  -2.1307  -2.0743
    -2.0551  -1.9877  -1.9350  -1.9105  -1.8272  -1.7757  -1.7576  -1.7183
    -1.6157  -1.4869  -1.4399  -1.3770  -1.3118  -1.2122  -1.1880  -1.1765
    -1.1634  -1.1096  -1.0815  -1.0661  -1.0211  -0.9883  -0.9695  -0.9532
    -0.9131  -0.9019  -0.8822  -0.8413  -0.8238  -0.7968  -0.7556  -0.7199
    -0.6783  -0.5467  -0.5008  -0.4207  -0.3666  -0.3271  -0.2470  -0.1838
    -0.0914  -0.0636  -0.0488   0.0236   0.0264   0.0367   0.2826   0.3309
     0.4463   0.4551   0.9501   0.9510   1.0603   1.0613   1.7525   2.1258
     3.0985   3.1015   3.1267   3.1430   3.2591   3.2708   3.3034   3.3087
     3.4924

          k = 0.0380-0.0419 0.0000 ( 17876 PWs)   bands (ev):

   -56.6350 -56.6110 -56.3375 -56.3107 -56.2243 -56.1685 -56.0414 -56.0347
   -56.0103 -55.9401 -55.9370 -55.9136 -55.4324 -55.4084 -55.3517 -55.2699
   -33.0159 -32.8821 -32.8617 -32.8289 -32.8169 -32.7538 -32.7512 -32.6360
   -32.6263 -32.5679 -32.5554 -32.5331 -32.5234 -32.5185 -32.5084 -32.4765
   -32.4429 -32.4425 -32.3890 -32.3597 -32.3439 -32.2855 -32.2822 -32.2768
   -32.2624 -32.2601 -32.2124 -32.2102 -32.1878 -32.1734 -32.1647 -32.1616
   -32.1366 -32.1232 -32.1112 -32.0986 -31.8536 -31.7839 -31.7611 -31.7412
   -31.6438 -31.6250 -31.6003 -31.5838 -31.5618 -31.5161 -31.4962 -31.3622
   -16.8037 -16.5899 -16.3878 -16.2745 -16.2462 -16.2402 -16.1663 -16.1239
   -16.0157 -15.9083 -15.9007 -15.8823 -15.8527 -15.8007 -15.7601 -15.7511
   -15.7405 -15.7040 -15.6992 -15.6705 -15.5533 -15.5416 -15.4925 -15.4852
   -15.4217 -15.4032 -15.3166 -15.2583 -15.0846 -13.9334 -13.8567  -7.7769
    -4.1266  -3.9238  -3.7966  -3.7496  -3.6796  -3.5924  -3.5531  -3.5293
    -3.4398  -3.4153  -3.2966  -3.2732  -3.2351  -3.1859  -3.1598  -3.1216
    -3.1001  -3.0935  -3.0609  -3.0570  -2.9888  -2.9602  -2.9481  -2.9246
    -2.8622  -2.8083  -2.7596  -2.7498  -2.7052  -2.6239  -2.5794  -2.5154
    -2.5065  -2.3827  -2.3404  -2.2565  -2.2063  -2.0788  -2.0591  -2.0055
    -1.8349  -1.8040  -1.7372  -1.7182  -1.6832  -1.6183  -1.5444  -1.5213
    -1.4907  -1.4733  -1.3937  -1.3872  -1.3662  -1.2646  -1.2392  -1.1962
    -1.1804  -1.1782  -1.1392  -1.1129  -1.0860  -1.0394  -0.9900  -0.9798
    -0.8946  -0.8858  -0.8707  -0.7943  -0.7401  -0.7016  -0.6542  -0.5948
    -0.5608  -0.5342  -0.4304  -0.3716  -0.3288  -0.3123  -0.1652  -0.1064
    -0.0661  -0.0321   0.0008   0.0366   0.1001   0.1118   0.2063   0.2170
     0.4168   0.6506   0.8109   0.8825   1.0378   1.1356   1.6350   2.1460
     2.9234   3.0775   3.1437   3.1506   3.2475   3.2922   3.3159   3.3920
     3.4219

          k =-0.0760-0.0000 0.0000 ( 17886 PWs)   bands (ev):

   -56.6399 -56.6061 -56.3425 -56.3057 -56.2269 -56.1660 -56.0428 -56.0395
   -56.0054 -55.9451 -55.9357 -55.9087 -55.4373 -55.4034 -55.3535 -55.2682
   -33.0701 -32.8861 -32.8860 -32.8578 -32.8277 -32.7408 -32.6950 -32.6814
   -32.6491 -32.5565 -32.5555 -32.5395 -32.5302 -32.5244 -32.5184 -32.4724
   -32.4550 -32.4510 -32.4456 -32.3491 -32.2899 -32.2879 -32.2861 -32.2795
   -32.2630 -32.2588 -32.1934 -32.1907 -32.1684 -32.1671 -32.1624 -32.1461
   -32.1222 -32.1123 -32.0987 -32.0414 -31.8954 -31.8372 -31.7679 -31.7359
   -31.6561 -31.6282 -31.5868 -31.5711 -31.5600 -31.4849 -31.4591 -31.3415
   -16.8508 -16.5288 -16.4110 -16.3831 -16.2948 -16.2756 -16.2532 -16.0886
   -16.0302 -16.0052 -15.9668 -15.9585 -15.9175 -15.9116 -15.8213 -15.7436
   -15.6898 -15.6611 -15.6333 -15.5996 -15.5718 -15.4920 -15.4462 -15.4358
   -15.4026 -15.3156 -15.2460 -15.1987 -15.0187 -13.9245 -13.8158  -7.7688
    -4.2856  -3.8395  -3.7871  -3.7800  -3.7394  -3.7216  -3.6186  -3.6010
    -3.5663  -3.4595  -3.4396  -3.3558  -3.3198  -3.1663  -3.1545  -3.1390
    -3.0422  -3.0133  -2.9858  -2.9073  -2.8798  -2.8190  -2.8017  -2.7490
    -2.6661  -2.6043  -2.5830  -2.5124  -2.4867  -2.4653  -2.4642  -2.4530
    -2.4330  -2.4173  -2.3827  -2.3459  -2.1274  -2.0647  -2.0587  -2.0069
    -1.9978  -1.9714  -1.9242  -1.8921  -1.8771  -1.7456  -1.6829  -1.6591
    -1.6408  -1.5933  -1.5917  -1.5381  -1.4898  -1.4724  -1.4289  -1.2699
    -1.1027  -1.0828  -1.0796  -1.0364  -0.9992  -0.9971  -0.8971  -0.8762
    -0.8026  -0.7931  -0.7469  -0.7263  -0.6925  -0.6880  -0.5452  -0.5335
    -0.5216  -0.5188  -0.4534  -0.4270  -0.3394  -0.2729  -0.2024  -0.1522
    -0.0870  -0.0552  -0.0078   0.0807   0.1424   0.2433   0.2710   0.3285
     0.4824   0.5815   0.6258   0.7501   0.9196   1.0681   1.5484   2.0321
     2.8395   2.9605   2.9629   3.1094   3.1561   3.2169   3.2797   3.4166
     3.6392

          k =-0.0760 0.0419 0.0000 ( 17914 PWs)   bands (ev):

   -56.6351 -56.6110 -56.3375 -56.3108 -56.2244 -56.1686 -56.0414 -56.0347
   -56.0103 -55.9402 -55.9370 -55.9136 -55.4324 -55.4084 -55.3517 -55.2700
   -33.0168 -32.8821 -32.8618 -32.8291 -32.8154 -32.7538 -32.7514 -32.6361
   -32.6272 -32.5678 -32.5553 -32.5344 -32.5251 -32.5210 -32.5086 -32.4797
   -32.4412 -32.4309 -32.3898 -32.3595 -32.3442 -32.2842 -32.2823 -32.2675
   -32.2625 -32.2606 -32.2178 -32.2036 -32.1878 -32.1747 -32.1646 -32.1618
   -32.1476 -32.1263 -32.1112 -32.0987 -31.8534 -31.7838 -31.7634 -31.7406
   -31.6438 -31.6262 -31.6003 -31.5838 -31.5620 -31.5161 -31.4962 -31.3622
   -16.7325 -16.4078 -16.3278 -16.2714 -16.2459 -16.2127 -16.2049 -16.1332
   -16.0065 -15.9971 -15.9294 -15.9026 -15.8973 -15.8588 -15.8262 -15.7720
   -15.7606 -15.7066 -15.6806 -15.6698 -15.6460 -15.5145 -15.4987 -15.4621
   -15.4135 -15.4065 -15.3223 -15.2557 -15.0833 -13.9314 -13.8570  -7.7745
    -4.1158  -3.6146  -3.6006  -3.5639  -3.5166  -3.4363  -3.4149  -3.4061
    -3.4011  -3.3413  -3.3374  -3.2780  -3.2097  -3.1701  -3.1528  -3.1357
    -3.0946  -3.0841  -3.0118  -2.9730  -2.9549  -2.9403  -2.9369  -2.9310
    -2.8681  -2.8294  -2.7202  -2.6339  -2.6150  -2.5290  -2.5225  -2.4425
    -2.3553  -2.3333  -2.3022  -2.2902  -2.2581  -2.2548  -2.0059  -1.9615
    -1.8901  -1.8790  -1.7969  -1.7558  -1.7317  -1.7085  -1.6776  -1.6070
    -1.5694  -1.5553  -1.5405  -1.5331  -1.4747  -1.4268  -1.4111  -1.3667
    -1.3456  -1.2715  -1.2486  -1.1726  -1.1460  -1.1012  -1.0769  -1.0460
    -1.0278  -1.0205  -0.9889  -0.9264  -0.9025  -0.7352  -0.7036  -0.6638
    -0.6307  -0.5345  -0.4554  -0.3404  -0.3215  -0.1951  -0.1750  -0.1111
    -0.0342  -0.0078   0.0693   0.1356   0.1519   0.1898   0.2498   0.2837
     0.3636   0.5129   0.8286   0.8881   0.9695   1.1060   1.6495   2.1421
     2.9102   3.0268   3.1242   3.1352   3.1765   3.2128   3.2977   3.3877
     3.4379

          k =-0.0760-0.0839 0.0000 ( 17948 PWs)   bands (ev):

   -56.6252 -56.6210 -56.3286 -56.3197 -56.2216 -56.1714 -56.0400 -56.0250
   -56.0200 -55.9386 -55.9314 -55.9224 -55.4204 -55.4204 -55.3499 -55.2719
   -32.8876 -32.8842 -32.8745 -32.8693 -32.7865 -32.7829 -32.6937 -32.6869
   -32.6049 -32.5940 -32.5369 -32.5268 -32.5248 -32.5166 -32.4912 -32.4641
   -32.4275 -32.3733 -32.3604 -32.3526 -32.3488 -32.2846 -32.2755 -32.2696
   -32.2674 -32.2587 -32.2516 -32.2431 -32.2312 -32.2258 -32.1835 -32.1749
   -32.1427 -32.1415 -32.1343 -32.1333 -31.7939 -31.7519 -31.7518 -31.6520
   -31.6520 -31.6350 -31.6239 -31.6140 -31.6139 -31.5640 -31.5055 -31.3818
   -16.4530 -16.4342 -16.2204 -16.2112 -16.1126 -16.1122 -16.1113 -16.1089
   -16.0088 -16.0059 -15.9338 -15.9195 -15.8636 -15.8558 -15.8205 -15.8186
   -15.7974 -15.7941 -15.7523 -15.7456 -15.6169 -15.6148 -15.5090 -15.5054
   -15.4663 -15.4258 -15.3860 -15.3757 -15.1591 -13.9188 -13.9185  -7.7799
    -3.7510  -3.7201  -3.4357  -3.4319  -3.2496  -3.2470  -3.2457  -3.2263
    -3.1825  -3.1524  -3.1428  -3.1173  -3.0858  -3.0433  -3.0325  -3.0127
    -3.0080  -3.0023  -2.9894  -2.9884  -2.9654  -2.9563  -2.9039  -2.8825
    -2.8720  -2.8624  -2.8132  -2.8118  -2.7089  -2.5859  -2.5379  -2.5338
    -2.4846  -2.4506  -2.3667  -2.3641  -2.3354  -2.3192  -2.2726  -2.1689
    -2.0375  -2.0349  -1.9895  -1.9593  -1.8925  -1.8181  -1.7167  -1.6500
    -1.6186  -1.5888  -1.5228  -1.4650  -1.4572  -1.4382  -1.4275  -1.4194
    -1.4054  -1.3092  -1.2969  -1.2257  -1.1883  -1.1781  -1.1683  -1.1356
    -1.1090  -1.0460  -0.9508  -0.9480  -0.9358  -0.9081  -0.8036  -0.7594
    -0.7025  -0.6514  -0.6055  -0.3577  -0.3552  -0.2012  -0.0923  -0.0302
     0.0349   0.0589   0.1017   0.1670   0.2290   0.2342   0.2611   0.2635
     0.3594   0.3619   0.9773   0.9777   1.0363   1.0373   1.7716   2.2240
     3.1077   3.1508   3.1684   3.1736   3.1985   3.2265   3.2448   3.2552
     3.5837

     the Fermi energy is     2.1463 ev

!    total energy              =   -2896.37513333 Ry
     estimated scf accuracy    <       0.00000004 Ry
     smearing contrib. (-TS)   =      -0.01052654 Ry
     internal energy E=F+TS    =   -2896.36460679 Ry

     The total energy is F=E-TS. E is the sum of the following terms:
     one-electron contribution =  -24783.61372520 Ry
     hartree contribution      =   12469.83574089 Ry
     xc contribution           =    -472.98095476 Ry
     ewald contribution        =    9890.39407700 Ry
     electric field correction =       0.00025529 Ry

     convergence has been achieved in  79 iterations

     Forces acting on atoms (cartesian axes, Ry/au):

     atom    1 type  1   force =     0.00018643   -0.00055896    0.14916936
     atom    2 type  1   force =    -0.00003338   -0.00031413   -0.17024291
     atom    3 type  2   force =     0.00005934    0.00011931   -0.06122174
     atom    4 type  2   force =     0.00011080   -0.00167335    0.04074241
     atom    5 type  2   force =    -0.02327322    0.00030818    0.00410321
     atom    6 type  2   force =     0.02299351    0.00151674    0.00330863
     atom    7 type  1   force =    -0.00055095    0.00074557    0.00018009
     atom    8 type  1   force =     0.00020339    0.00084467   -0.00021687
     atom    9 type  2   force =    -0.00005503    0.00009862   -0.00050018
     atom   10 type  2   force =    -0.00002855   -0.00050986    0.00032887
     atom   11 type  2   force =    -0.00022982    0.00047589    0.00028606
     atom   12 type  2   force =     0.00034244    0.00011517    0.00023609
     atom   13 type  1   force =     0.00033986    0.00065173   -0.00098099
     atom   14 type  1   force =    -0.00046791    0.00097828   -0.00029198
     atom   15 type  2   force =     0.00034317   -0.00005463   -0.00013591
     atom   16 type  2   force =     0.00014767   -0.00026078   -0.00006728
     atom   17 type  2   force =     0.00101084    0.00031521    0.00032527
     atom   18 type  2   force =    -0.00038033    0.00011659   -0.00016313
     atom   19 type  1   force =    -0.00015128   -0.00107886    0.00059866
     atom   20 type  1   force =     0.00045975   -0.00053194    0.00081244
     atom   21 type  2   force =     0.00008072   -0.00018360    0.10249522
     atom   22 type  2   force =    -0.00025544    0.00043771   -0.00033804
     atom   23 type  2   force =    -0.07443763    0.00019672   -0.03477843
     atom   24 type  2   force =     0.07439663    0.00062583   -0.03482845
     atom   25 type  1   force =    -0.00004453   -0.00050769    0.15021483
     atom   26 type  1   force =    -0.00002705   -0.00070574   -0.17018992
     atom   27 type  2   force =     0.00007284    0.00063757   -0.06043208
     atom   28 type  2   force =     0.00003002   -0.00161840    0.04018595
     atom   29 type  2   force =    -0.02285001    0.00144271    0.00427827
     atom   30 type  2   force =     0.02312233    0.00223839    0.00347611
     atom   31 type  1   force =    -0.00054805    0.00012716   -0.00079185
     atom   32 type  1   force =     0.00022764   -0.00110936    0.00050131
     atom   33 type  2   force =     0.00026052   -0.00007921    0.00119457
     atom   34 type  2   force =    -0.00004424    0.00059108   -0.00023456
     atom   35 type  2   force =    -0.00096967   -0.00042104    0.00003148
     atom   36 type  2   force =     0.00100698   -0.00022445    0.00011214
     atom   37 type  1   force =    -0.00004107   -0.00007663   -0.00027257
     atom   38 type  1   force =    -0.00071014   -0.00076851    0.00032966
     atom   39 type  2   force =    -0.00011406   -0.00018641   -0.00012602
     atom   40 type  2   force =     0.00010785   -0.00016017   -0.00078773
     atom   41 type  2   force =     0.00101921   -0.00049504    0.00064426
     atom   42 type  2   force =    -0.00045671   -0.00031368    0.00030463
     atom   43 type  1   force =    -0.00015192    0.00082027   -0.00089969
     atom   44 type  1   force =     0.00025401   -0.00039035    0.00069126
     atom   45 type  2   force =     0.00007265   -0.00018289    0.10248395
     atom   46 type  2   force =    -0.07442792   -0.00013653   -0.03478574
     atom   47 type  2   force =     0.07438158    0.00030830   -0.03483831
     atom   48 type  3   force =    -0.00192544   -0.00087455    0.00078275
     atom   49 type  4   force =     0.00094417   -0.00029492   -0.00069309

     Total force =     0.404565     Total SCF correction =     0.000577
  @ DRIVER MODE: Message from server: STATUS
  @ DRIVER MODE: Message from server: GETFORCE
  @ DRIVER MODE: Returning v,forces,stress,ensemble 

     Writing output data file ./calc.save/
  @ DRIVER MODE: Message from server: EXIT
  @ DRIVE MODE: Exiting  
 
     init_run     :     17.53s CPU     17.86s WALL (       1 calls)
     electrons    :   1696.18s CPU   1734.97s WALL (       1 calls)
     forces       :      3.68s CPU      3.82s WALL (       1 calls)

     Called by init_run:
     wfcinit      :      7.62s CPU      7.70s WALL (       1 calls)
     potinit      :      9.01s CPU      9.11s WALL (       1 calls)
     hinit0       :      0.39s CPU      0.40s WALL (       1 calls)

     Called by electrons:
     c_bands      :   1373.30s CPU   1392.94s WALL (      79 calls)
     sum_band     :    214.60s CPU    223.67s WALL (      79 calls)
     v_of_rho     :     82.49s CPU     85.28s WALL (      80 calls)
     newd         :     30.33s CPU     37.68s WALL (      80 calls)
     mix_rho      :      3.16s CPU      3.20s WALL (      79 calls)
     vdW_kernel   :      7.59s CPU      7.61s WALL (       1 calls)

     Called by c_bands:
     init_us_2    :     12.28s CPU     12.34s WALL (    1600 calls)
     cegterg      :   1337.80s CPU   1356.88s WALL (     794 calls)

     Called by *egterg:
     cdiaghg      :    147.97s CPU    148.66s WALL (    6395 calls)
     h_psi        :    793.94s CPU    806.13s WALL (    6405 calls)
     s_psi        :    103.35s CPU    103.72s WALL (    6405 calls)
     g_psi        :      2.62s CPU      2.64s WALL (    5601 calls)

     Called by h_psi:
     h_psi:calbec :     98.15s CPU     99.38s WALL (    6405 calls)
     vloc_psi     :    588.18s CPU    593.26s WALL (    6405 calls)
     add_vuspsi   :    103.45s CPU    106.15s WALL (    6405 calls)

     General routines
     calbec       :    134.82s CPU    136.17s WALL (    7235 calls)
     fft          :     46.19s CPU     46.40s WALL (    5040 calls)
     ffts         :      0.26s CPU      0.27s WALL (     159 calls)
     fftw         :    660.26s CPU    665.81s WALL (  906138 calls)
     interpolate  :      0.89s CPU      0.90s WALL (      80 calls)
     davcio       :      0.00s CPU      0.16s WALL (      10 calls)
 
     Parallel routines
 
     PWSCF        :  28m37.62s CPU  29m17.98s WALL

 
   This run was terminated on:  13:58:50  23Aug2021            

=------------------------------------------------------------------------------=
   JOB DONE.
=------------------------------------------------------------------------------=
