
     Program PWSCF v.6.7GPU starts on 11Sep2021 at  0:22:46 

     This program is part of the open-source Quantum ESPRESSO suite
     for quantum simulation of materials; please cite
         "P. Giannozzi et al., J. Phys.:Condens. Matter 21 395502 (2009);
         "P. Giannozzi et al., J. Phys.:Condens. Matter 29 465901 (2017);
         "P. Giannozzi et al., J. Chem. Phys. 152 154105 (2020);
          URL http://www.quantum-espresso.org", 
     in publications or presentations arising from this work. More details at
     http://www.quantum-espresso.org/quote

     Parallel version (MPI), running on    10 processors

     MPI processes distributed on     1 nodes
     R & G space division:  proc/nbgrp/npool/nimage =      10
     Reading input from /storage/home/hcoda1/3/ntian30/research/carbon/CxH_vib/CH2_calc/ads_slab/CH2N2H_e/out_0019/pw.inp
Warning: card &CELL ignored
Warning: card   CELL_DYNAMICS='IPI', ignored
Warning: card / ignored

     Current dimensions of program PWSCF are:
     Max number of different atomic species (ntypx) = 10
     Max number of k-points (npk) =  40000
     Max angular momentum in pseudopotentials (lmaxx) =  3
     Presently no symmetry can be used with electric field

     Message from routine cell_base_init:
     DEPRECATED: use true lattice parameter, not A to a.u. conversion factor

     **************************************************************************
     Initializing libbeef V0.1.2 with the BEEF-vdW functional.
     Citation: Wellendorff et al., PRB 85, 235149 (2012).
     **************************************************************************


     IMPORTANT: XC functional enforced from input :
     Exchange-correlation= BEEF-VDW
                           (   1   4  43  14   2   0   0)
     Any further DFT definition will be discarded
     Please, verify this is what you really want


     Subspace diagonalization in iterative solution of the eigenvalue problem:
     one sub-group per band group will be used
     scalapack distributed-memory algorithm (size of sub-group:  3*  3 procs)

  @ DRIVER MODE: Connecting to 
 qe_1139763_2792041.sched-torque.pace.gatech.edupzh5jzvg_scratch
  using UNIX socket
  @ DRIVER MODE: Message from server: STATUS
  @ DRIVER MODE: Message from server: INIT
  @ DRIVER MODE: Receiving replica           0          -1
  @ DRIVER MODE: Receiving encoded integer          25
  @ DRIVER MODE:  SCF:  T  FORCE:  T  STRESS:  F  VC:  F  ENSEMBLE:  F
  @ DRIVER MODE:  SCF:  T  FORCE:  T  STRESS:  F  VC:  F  ENSEMBLE:  F
 
     Parallelization info
     --------------------
     sticks:   dense  smooth     PW     G-vecs:    dense   smooth      PW
     Min         327     131     37                56683    14340    2191
     Max         328     133     38                56694    14346    2206
     Sum        3275    1317    379               566857   143421   21985
 
     Using Slab Decomposition
 


     bravais-lattice index     =            0
     lattice parameter (alat)  =       1.8897  a.u.
     unit-cell volume          =    6658.9804 (a.u.)^3
     number of atoms/cell      =           53
     number of atomic types    =            5
     number of electrons       =       395.00
     number of Kohn-Sham states=          207
     kinetic-energy cutoff     =      29.3995  Ry
     charge density cutoff     =     293.9946  Ry
     scf convergence threshold =      7.3E-08
     mixing beta               =       0.0500
     number of iterations used =            8  plain     mixing
     Exchange-correlation= BEEF-VDW
                           (   1   4  43  14   2   0   0)

     celldm(1)=   1.889726  celldm(2)=   0.000000  celldm(3)=   0.000000
     celldm(4)=   0.000000  celldm(5)=   0.000000  celldm(6)=   0.000000

     crystal axes: (cart. coord. in units of alat)
               a(1) = (   6.579727   0.000000   0.000000 )  
               a(2) = (  -0.000775   5.961596   0.000000 )  
               a(3) = (   0.000000   0.000000  25.155947 )  

     reciprocal axes: (cart. coord. in units 2 pi/alat)
               b(1) = (  0.151982  0.000020  0.000000 )  
               b(2) = (  0.000000  0.167740  0.000000 )  
               b(3) = (  0.000000  0.000000  0.039752 )  


     PseudoPot. # 1 for Ti read from file:
     /storage/coda1/p-amedford6/0/shared/rich_project_chbe-medford/medford-share/data/pseudos_module/espresso/nninc/pbe/van/Ti.UPF
     MD5 check sum: 8e4df49b7f0d34bbd5052bf3f5ea0213
     Pseudo is Ultrasoft, Zval = 12.0
     Generated by new atomic code, or converted to UPF format
     Using radial grid of  851 points,  6 beta functions with: 
                l(1) =   0
                l(2) =   0
                l(3) =   1
                l(4) =   1
                l(5) =   2
                l(6) =   2
     Q(r) pseudized with  8 coefficients,  rinner =    1.000   1.000   1.000
                                                       1.000   1.000

     PseudoPot. # 2 for O  read from file:
     /storage/coda1/p-amedford6/0/shared/rich_project_chbe-medford/medford-share/data/pseudos_module/espresso/nninc/pbe/van/O.UPF
     MD5 check sum: 78c19812648e8988a0fe644b0f25305e
     Pseudo is Ultrasoft, Zval =  6.0
     Generated by new atomic code, or converted to UPF format
     Using radial grid of  737 points,  4 beta functions with: 
                l(1) =   0
                l(2) =   0
                l(3) =   1
                l(4) =   1
     Q(r) pseudized with  8 coefficients,  rinner =    0.800   0.800   0.800


     PseudoPot. # 3 for N  read from file:
     /storage/coda1/p-amedford6/0/shared/rich_project_chbe-medford/medford-share/data/pseudos_module/espresso/nninc/pbe/van/N.UPF
     MD5 check sum: 90d10febe142ad51ac9d5be1deb811c4
     Pseudo is Ultrasoft, Zval =  5.0
     Generated by new atomic code, or converted to UPF format
     Using radial grid of  729 points,  4 beta functions with: 
                l(1) =   0
                l(2) =   0
                l(3) =   1
                l(4) =   1
     Q(r) pseudized with  8 coefficients,  rinner =    0.800   0.800   0.800


     PseudoPot. # 4 for C  read from file:
     /storage/coda1/p-amedford6/0/shared/rich_project_chbe-medford/medford-share/data/pseudos_module/espresso/nninc/pbe/van/C.UPF
     MD5 check sum: 1a69bf6b8db32088f5b2163dbdb77a27
     Pseudo is Ultrasoft, Zval =  4.0
     Generated by new atomic code, or converted to UPF format
     Using radial grid of  721 points,  4 beta functions with: 
                l(1) =   0
                l(2) =   0
                l(3) =   1
                l(4) =   1
     Q(r) pseudized with  8 coefficients,  rinner =    0.800   0.800   0.800


     PseudoPot. # 5 for H  read from file:
     /storage/coda1/p-amedford6/0/shared/rich_project_chbe-medford/medford-share/data/pseudos_module/espresso/nninc/pbe/van/H.UPF
     MD5 check sum: b5ee9d7bfd3a09ee7748110bda690ff7
     Pseudo is Ultrasoft, Zval =  1.0
     Generated by new atomic code, or converted to UPF format
     Using radial grid of  615 points,  1 beta functions with: 
                l(1) =   0
     Q(r) pseudized with  8 coefficients,  rinner =    0.800

     atomic species   valence    mass     pseudopotential
        Ti1           12.00    47.86700     Ti( 1.00)
        O1             6.00    15.99900     O ( 1.00)
        N1             5.00    14.00700     N ( 1.00)
        C1             4.00    12.01100     C ( 1.00)
        H1             1.00     1.00800     H ( 1.00)

     No symmetry found



   Cartesian axes

     site n.     atom                  positions (alat units)
         1           Ti1 tau(   1) = (   0.0004258   2.9801865   6.0000000  )
         2           Ti1 tau(   2) = (   3.2906075   1.4906267   6.0002472  )
         3           O1  tau(   3) = (   0.0006271   0.0005054   7.9858123  )
         4           O1  tau(   4) = (   3.2906025   0.0005020   7.3038282  )
         5           O1  tau(   5) = (   4.5942328   1.4918067   9.2879030  )
         6           O1  tau(   6) = (   1.9868534   1.4903216   9.2879459  )
         7           Ti1 tau(   7) = (   3.2907910   2.8959150   9.1758416  )
         8           Ti1 tau(   8) = (   0.0015273   1.4827037   9.2680791  )
         9           O1  tau(   9) = (   3.2922140   0.0036562  11.3253104  )
        10           O1  tau(  10) = (   0.0116148   5.9584955  10.6183126  )
        11           O1  tau(  11) = (   1.2860832   1.4889729  12.6258215  )
        12           O1  tau(  12) = (   5.2729595   1.4828594  12.6177116  )
        13           Ti1 tau(  13) = (   0.0641184   3.0073180  12.5883652  )
        14           Ti1 tau(  14) = (   3.3767723   1.4911129  12.4765728  )
        15           O1  tau(  15) = (   6.5781935   5.9569561  14.6821271  )
        16           O1  tau(  16) = (   3.2819581   0.0025077  13.9050320  )
        17           O1  tau(  17) = (   4.5172158   1.5234625  16.0337941  )
        18           O1  tau(  18) = (   2.0475084   1.5263597  16.0453316  )
        19           Ti1 tau(  19) = (   3.2743797   3.0127756  15.6984511  )
        20           Ti1 tau(  20) = (   6.5512008   1.5842238  15.7855373  )
        21           O1  tau(  21) = (   3.2904802   0.0005063   4.7018136  )
        22           O1  tau(  22) = (   6.5742344   0.0609322  17.2932839  )
        23           O1  tau(  23) = (   1.3043587   1.4918075   6.0039043  )
        24           O1  tau(  24) = (   5.2767064   1.4903225   6.0039473  )
        25           Ti1 tau(  25) = (   0.0000382   5.9609847   6.0000000  )
        26           Ti1 tau(  26) = (   3.2902200   4.4714249   6.0002472  )
        27           O1  tau(  27) = (   0.0002396   2.9813036   7.9858123  )
        28           O1  tau(  28) = (   3.2902150   2.9813002   7.3038282  )
        29           O1  tau(  29) = (   4.5938453   4.4726049   9.2879030  )
        30           O1  tau(  30) = (   1.9864658   4.4711199   9.2879459  )
        31           Ti1 tau(  31) = (   3.2891106   5.8743827   9.1763621  )
        32           Ti1 tau(  32) = (   0.0006254   4.4649316   9.2693709  )
        33           O1  tau(  33) = (   3.2917412   2.9831059  11.3263362  )
        34           O1  tau(  34) = (   0.0092240   2.9805883  10.6323155  )
        35           O1  tau(  35) = (   1.2859270   4.4784489  12.6216084  )
        36           O1  tau(  36) = (   5.2779610   4.4756213  12.6128944  )
        37           Ti1 tau(  37) = (   0.0616295   0.0157230  12.5710002  )
        38           Ti1 tau(  38) = (   3.3796684   4.4726909  12.4790056  )
        39           O1  tau(  39) = (   6.5693437   2.9756239  14.6354252  )
        40           O1  tau(  40) = (   3.2842310   3.0020566  13.9003041  )
        41           O1  tau(  41) = (   4.5171552   4.5052370  16.0986928  )
        42           O1  tau(  42) = (   2.0408908   4.5012300  16.0971631  )
        43           Ti1 tau(  43) = (   3.2680294   0.0293594  15.7040856  )
        44           Ti1 tau(  44) = (   6.5592110   4.6908586  16.1766550  )
        45           O1  tau(  45) = (   3.2900926   2.9813045   4.7018136  )
        46           O1  tau(  46) = (   1.3039711   4.4726057   6.0039043  )
        47           O1  tau(  47) = (   5.2763189   4.4711207   6.0039473  )
        48           N1  tau(  48) = (   0.0931655   2.5901963  18.5587852  )
        49           N1  tau(  49) = (   6.5755498   2.9338716  17.3126873  )
        50           C1  tau(  50) = (   0.1889803   3.3462807  19.6294495  )
        51           H1  tau(  51) = (   0.2440540   2.8541835  20.5836859  )
        52           H1  tau(  52) = (   0.1890997   4.4171571  19.5098884  )
        53           H1  tau(  53) = (   0.0969130   1.5623892  18.6894177  )

     number of k points=    10  Fermi-Dirac smearing, width (Ry)=  0.0073
                       cart. coord. in units 2pi/alat
        k(    1) = (   0.0000000   0.0000000   0.0000000), wk =   0.1250000
        k(    2) = (   0.0000000   0.0419351   0.0000000), wk =   0.2500000
        k(    3) = (   0.0000000  -0.0838702   0.0000000), wk =   0.1250000
        k(    4) = (   0.0379955   0.0000049   0.0000000), wk =   0.2500000
        k(    5) = (   0.0379955   0.0419400   0.0000000), wk =   0.2500000
        k(    6) = (   0.0379955  -0.0838652   0.0000000), wk =   0.2500000
        k(    7) = (   0.0379955  -0.0419301   0.0000000), wk =   0.2500000
        k(    8) = (  -0.0759910  -0.0000099   0.0000000), wk =   0.1250000
        k(    9) = (  -0.0759910   0.0419252   0.0000000), wk =   0.2500000
        k(   10) = (  -0.0759910  -0.0838800   0.0000000), wk =   0.1250000

     Dense  grid:   566857 G-vectors     FFT dimensions: (  72,  64, 270)

     Smooth grid:   143421 G-vectors     FFT dimensions: (  45,  40, 180)

     Estimated max dynamical RAM per process >     363.40 MB

     Estimated total dynamical RAM >       3.55 GB
     Cannot read rho : file not found

     Initial potential from superposition of free atoms

     starting charge  378.99916, renormalised to  395.00000

     negative rho (up, down):  1.523E-02 0.000E+00


     %%%%%%%%%%%%%%%%%%%%%%%%%%%%%%%%%%%%%%%%%%%%%%%%%%%%%%%%%%%%%%%%%%%%%%%%
     %                                                                      %
     % You are using vdW-DF, which was implemented by the Thonhauser group. %
     % Please cite the following two papers that made this development      %
     % possible and the two reviews that describe the various versions:     %
     %                                                                      %
     %   T. Thonhauser et al., PRL 115, 136402 (2015).                      %
     %   T. Thonhauser et al., PRB 76, 125112 (2007).                       %
     %   K. Berland et al., Rep. Prog. Phys. 78, 066501 (2015).             %
     %   D.C. Langreth et al., J. Phys.: Condens. Matter 21, 084203 (2009). %
     %                                                                      %
     %                                                                      %
     % If you are calculating the stress with vdW-DF, please also cite:     %
     %                                                                      %
     %   R. Sabatini et al., J. Phys.: Condens. Matter 24, 424209 (2012).   %
     %                                                                      %
     %%%%%%%%%%%%%%%%%%%%%%%%%%%%%%%%%%%%%%%%%%%%%%%%%%%%%%%%%%%%%%%%%%%%%%%%


 
     Adding external electric field

     Computed dipole along edir(3) : 
        Dipole               -8.7485 Ry au,        -22.2364 Debye
        Dipole field         -0.0165 Ry au, 
 
        Potential amp.        1.5304 Ry
        Total length         46.3494 bohr
 
     Starting wfcs are  299 atomic wfcs
  @ DRIVER MODE: Message from server: STATUS
  @ DRIVER MODE: Message from server: POSDATA
  @ DRIVER MODE: Reading and sharing cell 
  @ DRIVER MODE: Reading and sharing positions 
  @ DRIVER MODE: Received positions 

     total cpu time spent up to now is       50.2 secs

     Self-consistent Calculation

     iteration #  1     ecut=    29.40 Ry     beta= 0.05
     Davidson diagonalization with overlap
     c_bands:  2 eigenvalues not converged
     c_bands:  1 eigenvalues not converged
     c_bands:  1 eigenvalues not converged
     c_bands:  3 eigenvalues not converged
     c_bands:  2 eigenvalues not converged
     c_bands:  1 eigenvalues not converged
     c_bands:  1 eigenvalues not converged
     ethr =  1.00E-05,  avg # of iterations = 19.1

     negative rho (up, down):  1.371E-02 0.000E+00
 
     Adding external electric field

     Computed dipole along edir(3) : 
        Dipole               38.0417 Ry au,         96.6925 Debye
        Dipole field          0.0718 Ry au, 
 
        Potential amp.       -6.6548 Ry
        Total length         46.3494 bohr
 

     total cpu time spent up to now is       89.1 secs

     total energy              =   -2617.00506380 Ry
     estimated scf accuracy    <    3577.46650556 Ry

     iteration #  2     ecut=    29.40 Ry     beta= 0.05
     Davidson diagonalization with overlap
     c_bands:  3 eigenvalues not converged
     ethr =  1.00E-02,  avg # of iterations = 22.1

     negative rho (up, down):  4.067E-03 0.000E+00
 
     Adding external electric field

     Computed dipole along edir(3) : 
        Dipole               -3.4752 Ry au,         -8.8332 Debye
        Dipole field         -0.0066 Ry au, 
 
        Potential amp.        0.6079 Ry
        Total length         46.3494 bohr
 

     total cpu time spent up to now is      158.6 secs

     total energy              =   -2441.91246123 Ry
     estimated scf accuracy    <   65980.58891665 Ry

     iteration #  3     ecut=    29.40 Ry     beta= 0.05
     Davidson diagonalization with overlap
     ethr =  1.00E-02,  avg # of iterations = 15.2

     negative rho (up, down):  4.135E-03 0.000E+00
 
     Adding external electric field

     Computed dipole along edir(3) : 
        Dipole               -5.1850 Ry au,        -13.1790 Debye
        Dipole field         -0.0098 Ry au, 
 
        Potential amp.        0.9070 Ry
        Total length         46.3494 bohr
 

     total cpu time spent up to now is      203.1 secs

     total energy              =   -2916.60776875 Ry
     estimated scf accuracy    <    3844.46815698 Ry

     iteration #  4     ecut=    29.40 Ry     beta= 0.05
     Davidson diagonalization with overlap
     c_bands:  2 eigenvalues not converged
     ethr =  1.00E-02,  avg # of iterations = 17.0

     negative rho (up, down):  4.175E-03 0.000E+00
 
     Adding external electric field

     Computed dipole along edir(3) : 
        Dipole               -6.0855 Ry au,        -15.4679 Debye
        Dipole field         -0.0115 Ry au, 
 
        Potential amp.        1.0646 Ry
        Total length         46.3494 bohr
 

     total cpu time spent up to now is      224.0 secs

     total energy              =   -2933.98591575 Ry
     estimated scf accuracy    <     459.69245590 Ry

     iteration #  5     ecut=    29.40 Ry     beta= 0.05
     Davidson diagonalization with overlap
     ethr =  1.00E-02,  avg # of iterations =  5.1

     negative rho (up, down):  4.187E-03 0.000E+00
 
     Adding external electric field

     Computed dipole along edir(3) : 
        Dipole               -6.6471 Ry au,        -16.8953 Debye
        Dipole field         -0.0125 Ry au, 
 
        Potential amp.        1.1628 Ry
        Total length         46.3494 bohr
 

     total cpu time spent up to now is      235.4 secs

     total energy              =   -2933.53053307 Ry
     estimated scf accuracy    <     248.14999723 Ry

     iteration #  6     ecut=    29.40 Ry     beta= 0.05
     Davidson diagonalization with overlap
     ethr =  1.00E-02,  avg # of iterations =  3.9

     negative rho (up, down):  4.235E-03 0.000E+00
 
     Adding external electric field

     Computed dipole along edir(3) : 
        Dipole               -6.7433 Ry au,        -17.1396 Debye
        Dipole field         -0.0127 Ry au, 
 
        Potential amp.        1.1796 Ry
        Total length         46.3494 bohr
 

     total cpu time spent up to now is      246.8 secs

     total energy              =   -2935.20432070 Ry
     estimated scf accuracy    <     117.83769235 Ry

     iteration #  7     ecut=    29.40 Ry     beta= 0.05
     Davidson diagonalization with overlap
     ethr =  1.00E-02,  avg # of iterations =  6.9

     negative rho (up, down):  3.858E-03 0.000E+00
 
     Adding external electric field

     Computed dipole along edir(3) : 
        Dipole               -6.1223 Ry au,        -15.5615 Debye
        Dipole field         -0.0116 Ry au, 
 
        Potential amp.        1.0710 Ry
        Total length         46.3494 bohr
 

     total cpu time spent up to now is      259.3 secs

     total energy              =   -2938.78386796 Ry
     estimated scf accuracy    <      23.56325138 Ry

     iteration #  8     ecut=    29.40 Ry     beta= 0.05
     Davidson diagonalization with overlap
     ethr =  5.97E-03,  avg # of iterations =  5.3

     negative rho (up, down):  3.968E-03 0.000E+00
 
     Adding external electric field

     Computed dipole along edir(3) : 
        Dipole               -6.9002 Ry au,        -17.5387 Debye
        Dipole field         -0.0130 Ry au, 
 
        Potential amp.        1.2071 Ry
        Total length         46.3494 bohr
 

     total cpu time spent up to now is      271.1 secs

     total energy              =   -2941.41615843 Ry
     estimated scf accuracy    <      10.70761070 Ry

     iteration #  9     ecut=    29.40 Ry     beta= 0.05
     Davidson diagonalization with overlap
     c_bands:  2 eigenvalues not converged
     ethr =  2.71E-03,  avg # of iterations =  7.7

     negative rho (up, down):  4.150E-03 0.000E+00
 
     Adding external electric field

     Computed dipole along edir(3) : 
        Dipole               -6.8366 Ry au,        -17.3768 Debye
        Dipole field         -0.0129 Ry au, 
 
        Potential amp.        1.1960 Ry
        Total length         46.3494 bohr
 

     total cpu time spent up to now is      283.5 secs

     total energy              =   -2942.16999400 Ry
     estimated scf accuracy    <      26.35292437 Ry

     iteration # 10     ecut=    29.40 Ry     beta= 0.05
     Davidson diagonalization with overlap
     ethr =  2.71E-03,  avg # of iterations =  2.2

     negative rho (up, down):  1.540E-02 0.000E+00
 
     Adding external electric field

     Computed dipole along edir(3) : 
        Dipole               -4.5677 Ry au,        -11.6098 Debye
        Dipole field         -0.0086 Ry au, 
 
        Potential amp.        0.7990 Ry
        Total length         46.3494 bohr
 

     total cpu time spent up to now is      293.6 secs

     total energy              =   -2939.46001975 Ry
     estimated scf accuracy    <      27.57614529 Ry

     iteration # 11     ecut=    29.40 Ry     beta= 0.05
     Davidson diagonalization with overlap
     ethr =  2.71E-03,  avg # of iterations =  8.6

     negative rho (up, down):  1.537E-02 0.000E+00
 
     Adding external electric field

     Computed dipole along edir(3) : 
        Dipole               -5.3968 Ry au,        -13.7172 Debye
        Dipole field         -0.0102 Ry au, 
 
        Potential amp.        0.9441 Ry
        Total length         46.3494 bohr
 

     total cpu time spent up to now is      307.3 secs

     total energy              =   -2940.91910904 Ry
     estimated scf accuracy    <      62.32977362 Ry

     iteration # 12     ecut=    29.40 Ry     beta= 0.05
     Davidson diagonalization with overlap
     ethr =  2.71E-03,  avg # of iterations =  6.0

     negative rho (up, down):  2.240E-02 0.000E+00
 
     Adding external electric field

     Computed dipole along edir(3) : 
        Dipole               -4.6721 Ry au,        -11.8752 Debye
        Dipole field         -0.0088 Ry au, 
 
        Potential amp.        0.8173 Ry
        Total length         46.3494 bohr
 

     total cpu time spent up to now is      319.0 secs

     total energy              =   -2941.50532578 Ry
     estimated scf accuracy    <     130.42967605 Ry

     iteration # 13     ecut=    29.40 Ry     beta= 0.05
     Davidson diagonalization with overlap
     ethr =  2.71E-03,  avg # of iterations =  2.2

     negative rho (up, down):  4.597E-02 0.000E+00
 
     Adding external electric field

     Computed dipole along edir(3) : 
        Dipole               -4.1562 Ry au,        -10.5639 Debye
        Dipole field         -0.0078 Ry au, 
 
        Potential amp.        0.7271 Ry
        Total length         46.3494 bohr
 

     total cpu time spent up to now is      329.3 secs

     total energy              =   -2943.34659254 Ry
     estimated scf accuracy    <      76.58958935 Ry

     iteration # 14     ecut=    29.40 Ry     beta= 0.05
     Davidson diagonalization with overlap
     ethr =  2.71E-03,  avg # of iterations =  5.0

     negative rho (up, down):  3.359E-02 0.000E+00
 
     Adding external electric field

     Computed dipole along edir(3) : 
        Dipole               -3.5610 Ry au,         -9.0513 Debye
        Dipole field         -0.0067 Ry au, 
 
        Potential amp.        0.6229 Ry
        Total length         46.3494 bohr
 

     total cpu time spent up to now is      340.6 secs

     total energy              =   -2944.21546458 Ry
     estimated scf accuracy    <     135.77556262 Ry

     iteration # 15     ecut=    29.40 Ry     beta= 0.05
     Davidson diagonalization with overlap
     c_bands:  3 eigenvalues not converged
     c_bands:  5 eigenvalues not converged
     ethr =  2.71E-03,  avg # of iterations = 15.8

     negative rho (up, down):  2.284E-02 0.000E+00
 
     Adding external electric field

     Computed dipole along edir(3) : 
        Dipole               -4.2478 Ry au,        -10.7969 Debye
        Dipole field         -0.0080 Ry au, 
 
        Potential amp.        0.7431 Ry
        Total length         46.3494 bohr
 

     total cpu time spent up to now is      356.7 secs

     total energy              =   -2941.86735742 Ry
     estimated scf accuracy    <     220.13938543 Ry

     iteration # 16     ecut=    29.40 Ry     beta= 0.05
     Davidson diagonalization with overlap
     ethr =  2.71E-03,  avg # of iterations =  5.5

     negative rho (up, down):  2.904E-02 0.000E+00
 
     Adding external electric field

     Computed dipole along edir(3) : 
        Dipole               -5.0606 Ry au,        -12.8629 Debye
        Dipole field         -0.0096 Ry au, 
 
        Potential amp.        0.8853 Ry
        Total length         46.3494 bohr
 

     total cpu time spent up to now is      368.3 secs

     total energy              =   -2942.09245581 Ry
     estimated scf accuracy    <     107.83537777 Ry

     iteration # 17     ecut=    29.40 Ry     beta= 0.05
     Davidson diagonalization with overlap
     ethr =  2.71E-03,  avg # of iterations =  4.6

     negative rho (up, down):  3.725E-03 0.000E+00
 
     Adding external electric field

     Computed dipole along edir(3) : 
        Dipole               -4.7262 Ry au,        -12.0128 Debye
        Dipole field         -0.0089 Ry au, 
 
        Potential amp.        0.8268 Ry
        Total length         46.3494 bohr
 

     total cpu time spent up to now is      379.9 secs

     total energy              =   -2938.66424700 Ry
     estimated scf accuracy    <      98.41815255 Ry

     iteration # 18     ecut=    29.40 Ry     beta= 0.05
     Davidson diagonalization with overlap
     c_bands:  1 eigenvalues not converged
     ethr =  2.71E-03,  avg # of iterations =  6.4

     negative rho (up, down):  2.074E-03 0.000E+00
 
     Adding external electric field

     Computed dipole along edir(3) : 
        Dipole               -5.6915 Ry au,        -14.4663 Debye
        Dipole field         -0.0107 Ry au, 
 
        Potential amp.        0.9956 Ry
        Total length         46.3494 bohr
 

     total cpu time spent up to now is      392.0 secs

     total energy              =   -2939.04978029 Ry
     estimated scf accuracy    <      43.45101541 Ry

     iteration # 19     ecut=    29.40 Ry     beta= 0.05
     Davidson diagonalization with overlap
     c_bands:  1 eigenvalues not converged
     c_bands:  1 eigenvalues not converged
     ethr =  2.71E-03,  avg # of iterations = 14.9

     negative rho (up, down):  1.716E-03 0.000E+00
 
     Adding external electric field

     Computed dipole along edir(3) : 
        Dipole               -5.3261 Ry au,        -13.5377 Debye
        Dipole field         -0.0101 Ry au, 
 
        Potential amp.        0.9317 Ry
        Total length         46.3494 bohr
 

     total cpu time spent up to now is      408.6 secs

     total energy              =   -2940.82289367 Ry
     estimated scf accuracy    <      22.77194816 Ry

     iteration # 20     ecut=    29.40 Ry     beta= 0.05
     Davidson diagonalization with overlap
     ethr =  2.71E-03,  avg # of iterations =  1.8

     negative rho (up, down):  1.068E-03 0.000E+00
 
     Adding external electric field

     Computed dipole along edir(3) : 
        Dipole               -3.2459 Ry au,         -8.2502 Debye
        Dipole field         -0.0061 Ry au, 
 
        Potential amp.        0.5678 Ry
        Total length         46.3494 bohr
 

     total cpu time spent up to now is      418.8 secs

     total energy              =   -2939.47708067 Ry
     estimated scf accuracy    <      22.05101265 Ry

     iteration # 21     ecut=    29.40 Ry     beta= 0.05
     Davidson diagonalization with overlap
     ethr =  2.71E-03,  avg # of iterations =  6.1

     negative rho (up, down):  1.196E-03 0.000E+00
 
     Adding external electric field

     Computed dipole along edir(3) : 
        Dipole               -2.6766 Ry au,         -6.8033 Debye
        Dipole field         -0.0051 Ry au, 
 
        Potential amp.        0.4682 Ry
        Total length         46.3494 bohr
 

     total cpu time spent up to now is      430.5 secs

     total energy              =   -2939.58138631 Ry
     estimated scf accuracy    <       6.29919368 Ry

     iteration # 22     ecut=    29.40 Ry     beta= 0.05
     Davidson diagonalization with overlap
     ethr =  1.59E-03,  avg # of iterations =  3.4

     negative rho (up, down):  1.667E-03 0.000E+00
 
     Adding external electric field

     Computed dipole along edir(3) : 
        Dipole               -2.1911 Ry au,         -5.5691 Debye
        Dipole field         -0.0041 Ry au, 
 
        Potential amp.        0.3833 Ry
        Total length         46.3494 bohr
 

     total cpu time spent up to now is      441.2 secs

     total energy              =   -2939.29235415 Ry
     estimated scf accuracy    <       4.60712370 Ry

     iteration # 23     ecut=    29.40 Ry     beta= 0.05
     Davidson diagonalization with overlap
     ethr =  1.17E-03,  avg # of iterations =  8.2

     negative rho (up, down):  2.097E-03 0.000E+00
 
     Adding external electric field

     Computed dipole along edir(3) : 
        Dipole               -2.3982 Ry au,         -6.0956 Debye
        Dipole field         -0.0045 Ry au, 
 
        Potential amp.        0.4195 Ry
        Total length         46.3494 bohr
 

     total cpu time spent up to now is      453.9 secs

     total energy              =   -2939.48733392 Ry
     estimated scf accuracy    <      13.12273932 Ry

     iteration # 24     ecut=    29.40 Ry     beta= 0.05
     Davidson diagonalization with overlap
     ethr =  1.17E-03,  avg # of iterations =  2.7

     negative rho (up, down):  2.416E-03 0.000E+00
 
     Adding external electric field

     Computed dipole along edir(3) : 
        Dipole               -0.9673 Ry au,         -2.4585 Debye
        Dipole field         -0.0018 Ry au, 
 
        Potential amp.        0.1692 Ry
        Total length         46.3494 bohr
 

     total cpu time spent up to now is      464.5 secs

     total energy              =   -2938.82488618 Ry
     estimated scf accuracy    <      16.25341153 Ry

     iteration # 25     ecut=    29.40 Ry     beta= 0.05
     Davidson diagonalization with overlap
     ethr =  1.17E-03,  avg # of iterations =  9.0

     negative rho (up, down):  3.577E-03 0.000E+00
 
     Adding external electric field

     Computed dipole along edir(3) : 
        Dipole               -0.8114 Ry au,         -2.0623 Debye
        Dipole field         -0.0015 Ry au, 
 
        Potential amp.        0.1419 Ry
        Total length         46.3494 bohr
 

     total cpu time spent up to now is      477.0 secs

     total energy              =   -2939.17707988 Ry
     estimated scf accuracy    <       1.19328926 Ry

     iteration # 26     ecut=    29.40 Ry     beta= 0.05
     Davidson diagonalization with overlap
     c_bands:  1 eigenvalues not converged
     c_bands:  1 eigenvalues not converged
     c_bands:  3 eigenvalues not converged
     ethr =  3.02E-04,  avg # of iterations = 16.9

     negative rho (up, down):  2.553E-03 0.000E+00
 
     Adding external electric field

     Computed dipole along edir(3) : 
        Dipole               -0.9974 Ry au,         -2.5350 Debye
        Dipole field         -0.0019 Ry au, 
 
        Potential amp.        0.1745 Ry
        Total length         46.3494 bohr
 

     total cpu time spent up to now is      495.1 secs

     total energy              =   -2939.20587958 Ry
     estimated scf accuracy    <       0.96237469 Ry

     iteration # 27     ecut=    29.40 Ry     beta= 0.05
     Davidson diagonalization with overlap
     ethr =  2.44E-04,  avg # of iterations = 12.7

     negative rho (up, down):  2.492E-03 0.000E+00
 
     Adding external electric field

     Computed dipole along edir(3) : 
        Dipole               -1.0156 Ry au,         -2.5814 Debye
        Dipole field         -0.0019 Ry au, 
 
        Potential amp.        0.1777 Ry
        Total length         46.3494 bohr
 

     total cpu time spent up to now is      508.9 secs

     total energy              =   -2939.19808825 Ry
     estimated scf accuracy    <       0.88205321 Ry

     iteration # 28     ecut=    29.40 Ry     beta= 0.05
     Davidson diagonalization with overlap
     c_bands:  2 eigenvalues not converged
     c_bands:  2 eigenvalues not converged
     ethr =  2.23E-04,  avg # of iterations = 10.2

     negative rho (up, down):  3.429E-03 0.000E+00
 
     Adding external electric field

     Computed dipole along edir(3) : 
        Dipole               -0.5029 Ry au,         -1.2782 Debye
        Dipole field         -0.0009 Ry au, 
 
        Potential amp.        0.0880 Ry
        Total length         46.3494 bohr
 

     total cpu time spent up to now is      521.8 secs

     total energy              =   -2939.13059067 Ry
     estimated scf accuracy    <       0.81843600 Ry

     iteration # 29     ecut=    29.40 Ry     beta= 0.05
     Davidson diagonalization with overlap
     ethr =  2.07E-04,  avg # of iterations =  8.7

     negative rho (up, down):  3.092E-03 0.000E+00
 
     Adding external electric field

     Computed dipole along edir(3) : 
        Dipole               -0.5137 Ry au,         -1.3056 Debye
        Dipole field         -0.0010 Ry au, 
 
        Potential amp.        0.0899 Ry
        Total length         46.3494 bohr
 

     total cpu time spent up to now is      534.9 secs

     total energy              =   -2939.16954898 Ry
     estimated scf accuracy    <       0.46784027 Ry

     iteration # 30     ecut=    29.40 Ry     beta= 0.05
     Davidson diagonalization with overlap
     ethr =  1.18E-04,  avg # of iterations =  2.4

     negative rho (up, down):  3.946E-03 0.000E+00
 
     Adding external electric field

     Computed dipole along edir(3) : 
        Dipole                0.4252 Ry au,          1.0807 Debye
        Dipole field          0.0008 Ry au, 
 
        Potential amp.       -0.0744 Ry
        Total length         46.3494 bohr
 

     total cpu time spent up to now is      545.6 secs

     total energy              =   -2939.12068463 Ry
     estimated scf accuracy    <       0.47693916 Ry

     iteration # 31     ecut=    29.40 Ry     beta= 0.05
     Davidson diagonalization with overlap
     c_bands:  2 eigenvalues not converged
     ethr =  1.18E-04,  avg # of iterations =  9.6

     negative rho (up, down):  4.268E-03 0.000E+00
 
     Adding external electric field

     Computed dipole along edir(3) : 
        Dipole                0.5829 Ry au,          1.4816 Debye
        Dipole field          0.0011 Ry au, 
 
        Potential amp.       -0.1020 Ry
        Total length         46.3494 bohr
 

     total cpu time spent up to now is      559.8 secs

     total energy              =   -2939.14533829 Ry
     estimated scf accuracy    <       0.30333583 Ry

     iteration # 32     ecut=    29.40 Ry     beta= 0.05
     Davidson diagonalization with overlap
     c_bands:  1 eigenvalues not converged
     c_bands:  2 eigenvalues not converged
     ethr =  7.68E-05,  avg # of iterations = 16.2

     negative rho (up, down):  4.428E-03 0.000E+00
 
     Adding external electric field

     Computed dipole along edir(3) : 
        Dipole                0.6413 Ry au,          1.6300 Debye
        Dipole field          0.0012 Ry au, 
 
        Potential amp.       -0.1122 Ry
        Total length         46.3494 bohr
 

     total cpu time spent up to now is      575.4 secs

     total energy              =   -2939.16538765 Ry
     estimated scf accuracy    <       0.13208679 Ry

     iteration # 33     ecut=    29.40 Ry     beta= 0.05
     Davidson diagonalization with overlap
     c_bands:  1 eigenvalues not converged
     ethr =  3.34E-05,  avg # of iterations =  7.6

     negative rho (up, down):  6.173E-03 0.000E+00
 
     Adding external electric field

     Computed dipole along edir(3) : 
        Dipole                1.0256 Ry au,          2.6067 Debye
        Dipole field          0.0019 Ry au, 
 
        Potential amp.       -0.1794 Ry
        Total length         46.3494 bohr
 

     total cpu time spent up to now is      587.3 secs

     total energy              =   -2939.16007397 Ry
     estimated scf accuracy    <       0.14626014 Ry

     iteration # 34     ecut=    29.40 Ry     beta= 0.05
     Davidson diagonalization with overlap
     ethr =  3.34E-05,  avg # of iterations =  9.1

     negative rho (up, down):  6.560E-03 0.000E+00
 
     Adding external electric field

     Computed dipole along edir(3) : 
        Dipole                1.0470 Ry au,          2.6613 Debye
        Dipole field          0.0020 Ry au, 
 
        Potential amp.       -0.1832 Ry
        Total length         46.3494 bohr
 

     total cpu time spent up to now is      600.3 secs

     total energy              =   -2939.12337431 Ry
     estimated scf accuracy    <       0.11870360 Ry

     iteration # 35     ecut=    29.40 Ry     beta= 0.05
     Davidson diagonalization with overlap
     c_bands:  3 eigenvalues not converged
     c_bands:  1 eigenvalues not converged
     c_bands:  4 eigenvalues not converged
     c_bands:  1 eigenvalues not converged
     c_bands:  5 eigenvalues not converged
     c_bands:  4 eigenvalues not converged
     c_bands:  3 eigenvalues not converged
     ethr =  3.01E-05,  avg # of iterations = 19.4

     negative rho (up, down):  6.360E-03 0.000E+00
 
     Adding external electric field

     Computed dipole along edir(3) : 
        Dipole                0.9871 Ry au,          2.5090 Debye
        Dipole field          0.0019 Ry au, 
 
        Potential amp.       -0.1727 Ry
        Total length         46.3494 bohr
 

     total cpu time spent up to now is      622.8 secs

     total energy              =   -2939.15403136 Ry
     estimated scf accuracy    <       0.10737609 Ry

     iteration # 36     ecut=    29.40 Ry     beta= 0.05
     Davidson diagonalization with overlap
     c_bands:  1 eigenvalues not converged
     ethr =  2.72E-05,  avg # of iterations = 11.1

     negative rho (up, down):  6.845E-03 0.000E+00
 
     Adding external electric field

     Computed dipole along edir(3) : 
        Dipole                0.9831 Ry au,          2.4989 Debye
        Dipole field          0.0019 Ry au, 
 
        Potential amp.       -0.1720 Ry
        Total length         46.3494 bohr
 

     total cpu time spent up to now is      635.7 secs

     total energy              =   -2939.15398614 Ry
     estimated scf accuracy    <       0.06863621 Ry

     iteration # 37     ecut=    29.40 Ry     beta= 0.05
     Davidson diagonalization with overlap
     c_bands:  1 eigenvalues not converged
     c_bands:  1 eigenvalues not converged
     ethr =  1.74E-05,  avg # of iterations = 13.9

     negative rho (up, down):  7.501E-03 0.000E+00
 
     Adding external electric field

     Computed dipole along edir(3) : 
        Dipole                0.9933 Ry au,          2.5248 Debye
        Dipole field          0.0019 Ry au, 
 
        Potential amp.       -0.1738 Ry
        Total length         46.3494 bohr
 

     total cpu time spent up to now is      649.6 secs

     total energy              =   -2939.15050759 Ry
     estimated scf accuracy    <       0.04719989 Ry

     iteration # 38     ecut=    29.40 Ry     beta= 0.05
     Davidson diagonalization with overlap
     c_bands:  1 eigenvalues not converged
     c_bands:  1 eigenvalues not converged
     ethr =  1.19E-05,  avg # of iterations =  9.9

     negative rho (up, down):  9.655E-03 0.000E+00
 
     Adding external electric field

     Computed dipole along edir(3) : 
        Dipole                1.0686 Ry au,          2.7162 Debye
        Dipole field          0.0020 Ry au, 
 
        Potential amp.       -0.1869 Ry
        Total length         46.3494 bohr
 

     total cpu time spent up to now is      662.9 secs

     total energy              =   -2939.15198355 Ry
     estimated scf accuracy    <       0.03105204 Ry

     iteration # 39     ecut=    29.40 Ry     beta= 0.05
     Davidson diagonalization with overlap
     c_bands:  1 eigenvalues not converged
     ethr =  7.86E-06,  avg # of iterations = 11.2

     negative rho (up, down):  1.021E-02 0.000E+00
 
     Adding external electric field

     Computed dipole along edir(3) : 
        Dipole                1.0473 Ry au,          2.6620 Debye
        Dipole field          0.0020 Ry au, 
 
        Potential amp.       -0.1832 Ry
        Total length         46.3494 bohr
 

     total cpu time spent up to now is      676.8 secs

     total energy              =   -2939.15326390 Ry
     estimated scf accuracy    <       0.00706069 Ry

     iteration # 40     ecut=    29.40 Ry     beta= 0.05
     Davidson diagonalization with overlap
     c_bands:  3 eigenvalues not converged
     c_bands:  2 eigenvalues not converged
     c_bands:  4 eigenvalues not converged
     c_bands:  4 eigenvalues not converged
     c_bands:  3 eigenvalues not converged
     c_bands:  4 eigenvalues not converged
     c_bands:  1 eigenvalues not converged
     c_bands:  1 eigenvalues not converged
     c_bands:  1 eigenvalues not converged
     ethr =  1.79E-06,  avg # of iterations = 20.0

     negative rho (up, down):  1.015E-02 0.000E+00
 
     Adding external electric field

     Computed dipole along edir(3) : 
        Dipole                1.0800 Ry au,          2.7450 Debye
        Dipole field          0.0020 Ry au, 
 
        Potential amp.       -0.1889 Ry
        Total length         46.3494 bohr
 

     total cpu time spent up to now is      701.9 secs

     total energy              =   -2939.15352768 Ry
     estimated scf accuracy    <       0.01009783 Ry

     iteration # 41     ecut=    29.40 Ry     beta= 0.05
     Davidson diagonalization with overlap
     c_bands:  1 eigenvalues not converged
     ethr =  1.79E-06,  avg # of iterations = 15.1

     negative rho (up, down):  1.341E-02 0.000E+00
 
     Adding external electric field

     Computed dipole along edir(3) : 
        Dipole                1.1509 Ry au,          2.9253 Debye
        Dipole field          0.0022 Ry au, 
 
        Potential amp.       -0.2013 Ry
        Total length         46.3494 bohr
 

     total cpu time spent up to now is      720.5 secs

     total energy              =   -2939.15512830 Ry
     estimated scf accuracy    <       0.00368223 Ry

     iteration # 42     ecut=    29.40 Ry     beta= 0.05
     Davidson diagonalization with overlap
     c_bands:  1 eigenvalues not converged
     ethr =  9.32E-07,  avg # of iterations = 11.7

     negative rho (up, down):  1.575E-02 0.000E+00
 
     Adding external electric field

     Computed dipole along edir(3) : 
        Dipole                1.1624 Ry au,          2.9546 Debye
        Dipole field          0.0022 Ry au, 
 
        Potential amp.       -0.2033 Ry
        Total length         46.3494 bohr
 

     total cpu time spent up to now is      734.4 secs

     total energy              =   -2939.15553089 Ry
     estimated scf accuracy    <       0.00281346 Ry

     iteration # 43     ecut=    29.40 Ry     beta= 0.05
     Davidson diagonalization with overlap
     ethr =  7.12E-07,  avg # of iterations =  8.7

     negative rho (up, down):  1.619E-02 0.000E+00
 
     Adding external electric field

     Computed dipole along edir(3) : 
        Dipole                1.1566 Ry au,          2.9398 Debye
        Dipole field          0.0022 Ry au, 
 
        Potential amp.       -0.2023 Ry
        Total length         46.3494 bohr
 

     total cpu time spent up to now is      746.8 secs

     total energy              =   -2939.15569929 Ry
     estimated scf accuracy    <       0.00093589 Ry

     iteration # 44     ecut=    29.40 Ry     beta= 0.05
     Davidson diagonalization with overlap
     ethr =  2.37E-07,  avg # of iterations = 10.6

     negative rho (up, down):  1.547E-02 0.000E+00
 
     Adding external electric field

     Computed dipole along edir(3) : 
        Dipole                1.1425 Ry au,          2.9038 Debye
        Dipole field          0.0022 Ry au, 
 
        Potential amp.       -0.1999 Ry
        Total length         46.3494 bohr
 

     total cpu time spent up to now is      760.8 secs

     total energy              =   -2939.15556892 Ry
     estimated scf accuracy    <       0.00087026 Ry

     iteration # 45     ecut=    29.40 Ry     beta= 0.05
     Davidson diagonalization with overlap
     ethr =  2.20E-07,  avg # of iterations =  3.4

     negative rho (up, down):  1.498E-02 0.000E+00
 
     Adding external electric field

     Computed dipole along edir(3) : 
        Dipole                1.1191 Ry au,          2.8445 Debye
        Dipole field          0.0021 Ry au, 
 
        Potential amp.       -0.1958 Ry
        Total length         46.3494 bohr
 

     total cpu time spent up to now is      772.5 secs

     total energy              =   -2939.15556325 Ry
     estimated scf accuracy    <       0.00040642 Ry

     iteration # 46     ecut=    29.40 Ry     beta= 0.05
     Davidson diagonalization with overlap
     ethr =  1.03E-07,  avg # of iterations = 15.7

     negative rho (up, down):  1.535E-02 0.000E+00
 
     Adding external electric field

     Computed dipole along edir(3) : 
        Dipole                1.1164 Ry au,          2.8377 Debye
        Dipole field          0.0021 Ry au, 
 
        Potential amp.       -0.1953 Ry
        Total length         46.3494 bohr
 

     total cpu time spent up to now is      795.1 secs

     total energy              =   -2939.15565535 Ry
     estimated scf accuracy    <       0.00070782 Ry

     iteration # 47     ecut=    29.40 Ry     beta= 0.05
     Davidson diagonalization with overlap
     c_bands:  1 eigenvalues not converged
     ethr =  1.03E-07,  avg # of iterations = 10.8

     negative rho (up, down):  1.547E-02 0.000E+00
 
     Adding external electric field

     Computed dipole along edir(3) : 
        Dipole                1.1111 Ry au,          2.8240 Debye
        Dipole field          0.0021 Ry au, 
 
        Potential amp.       -0.1944 Ry
        Total length         46.3494 bohr
 

     total cpu time spent up to now is      808.3 secs

     total energy              =   -2939.15561704 Ry
     estimated scf accuracy    <       0.00028629 Ry

     iteration # 48     ecut=    29.40 Ry     beta= 0.05
     Davidson diagonalization with overlap
     c_bands:  1 eigenvalues not converged
     ethr =  7.25E-08,  avg # of iterations = 15.5

     negative rho (up, down):  1.536E-02 0.000E+00
 
     Adding external electric field

     Computed dipole along edir(3) : 
        Dipole                1.1138 Ry au,          2.8309 Debye
        Dipole field          0.0021 Ry au, 
 
        Potential amp.       -0.1948 Ry
        Total length         46.3494 bohr
 

     total cpu time spent up to now is      829.5 secs

     total energy              =   -2939.15570425 Ry
     estimated scf accuracy    <       0.00029908 Ry

     iteration # 49     ecut=    29.40 Ry     beta= 0.05
     Davidson diagonalization with overlap
     c_bands:  1 eigenvalues not converged
     ethr =  7.25E-08,  avg # of iterations = 10.4

     negative rho (up, down):  1.557E-02 0.000E+00
 
     Adding external electric field

     Computed dipole along edir(3) : 
        Dipole                1.1184 Ry au,          2.8426 Debye
        Dipole field          0.0021 Ry au, 
 
        Potential amp.       -0.1956 Ry
        Total length         46.3494 bohr
 

     total cpu time spent up to now is      842.8 secs

     total energy              =   -2939.15573564 Ry
     estimated scf accuracy    <       0.00009550 Ry

     iteration # 50     ecut=    29.40 Ry     beta= 0.05
     Davidson diagonalization with overlap
     ethr =  2.42E-08,  avg # of iterations = 10.0

     negative rho (up, down):  1.554E-02 0.000E+00
 
     Adding external electric field

     Computed dipole along edir(3) : 
        Dipole                1.1177 Ry au,          2.8409 Debye
        Dipole field          0.0021 Ry au, 
 
        Potential amp.       -0.1955 Ry
        Total length         46.3494 bohr
 

     total cpu time spent up to now is      860.5 secs

     total energy              =   -2939.15577162 Ry
     estimated scf accuracy    <       0.00007251 Ry

     iteration # 51     ecut=    29.40 Ry     beta= 0.05
     Davidson diagonalization with overlap
     ethr =  1.84E-08,  avg # of iterations =  5.0

     negative rho (up, down):  1.559E-02 0.000E+00
 
     Adding external electric field

     Computed dipole along edir(3) : 
        Dipole                1.1196 Ry au,          2.8457 Debye
        Dipole field          0.0021 Ry au, 
 
        Potential amp.       -0.1959 Ry
        Total length         46.3494 bohr
 

     total cpu time spent up to now is      872.0 secs

     total energy              =   -2939.15578553 Ry
     estimated scf accuracy    <       0.00003551 Ry

     iteration # 52     ecut=    29.40 Ry     beta= 0.05
     Davidson diagonalization with overlap
     ethr =  8.99E-09,  avg # of iterations =  9.5

     negative rho (up, down):  1.557E-02 0.000E+00
 
     Adding external electric field

     Computed dipole along edir(3) : 
        Dipole                1.1190 Ry au,          2.8442 Debye
        Dipole field          0.0021 Ry au, 
 
        Potential amp.       -0.1958 Ry
        Total length         46.3494 bohr
 

     total cpu time spent up to now is      885.6 secs

     total energy              =   -2939.15579878 Ry
     estimated scf accuracy    <       0.00001401 Ry

     iteration # 53     ecut=    29.40 Ry     beta= 0.05
     Davidson diagonalization with overlap
     ethr =  3.55E-09,  avg # of iterations =  8.3

     negative rho (up, down):  1.569E-02 0.000E+00
 
     Adding external electric field

     Computed dipole along edir(3) : 
        Dipole                1.1215 Ry au,          2.8506 Debye
        Dipole field          0.0021 Ry au, 
 
        Potential amp.       -0.1962 Ry
        Total length         46.3494 bohr
 

     total cpu time spent up to now is      898.4 secs

     total energy              =   -2939.15581048 Ry
     estimated scf accuracy    <       0.00000803 Ry

     iteration # 54     ecut=    29.40 Ry     beta= 0.05
     Davidson diagonalization with overlap
     ethr =  2.03E-09,  avg # of iterations =  9.0

     negative rho (up, down):  1.567E-02 0.000E+00
 
     Adding external electric field

     Computed dipole along edir(3) : 
        Dipole                1.1213 Ry au,          2.8500 Debye
        Dipole field          0.0021 Ry au, 
 
        Potential amp.       -0.1961 Ry
        Total length         46.3494 bohr
 

     total cpu time spent up to now is      912.4 secs

     total energy              =   -2939.15581849 Ry
     estimated scf accuracy    <       0.00000944 Ry

     iteration # 55     ecut=    29.40 Ry     beta= 0.05
     Davidson diagonalization with overlap
     ethr =  2.03E-09,  avg # of iterations =  6.7

     negative rho (up, down):  1.571E-02 0.000E+00
 
     Adding external electric field

     Computed dipole along edir(3) : 
        Dipole                1.1214 Ry au,          2.8504 Debye
        Dipole field          0.0021 Ry au, 
 
        Potential amp.       -0.1962 Ry
        Total length         46.3494 bohr
 

     total cpu time spent up to now is      925.9 secs

     total energy              =   -2939.15582774 Ry
     estimated scf accuracy    <       0.00000545 Ry

     iteration # 56     ecut=    29.40 Ry     beta= 0.05
     Davidson diagonalization with overlap
     ethr =  1.38E-09,  avg # of iterations =  2.7

     negative rho (up, down):  1.572E-02 0.000E+00
 
     Adding external electric field

     Computed dipole along edir(3) : 
        Dipole                1.1207 Ry au,          2.8485 Debye
        Dipole field          0.0021 Ry au, 
 
        Potential amp.       -0.1960 Ry
        Total length         46.3494 bohr
 

     total cpu time spent up to now is      936.7 secs

     total energy              =   -2939.15583443 Ry
     estimated scf accuracy    <       0.00000313 Ry

     iteration # 57     ecut=    29.40 Ry     beta= 0.05
     Davidson diagonalization with overlap
     ethr =  7.91E-10,  avg # of iterations = 10.9

     negative rho (up, down):  1.567E-02 0.000E+00
 
     Adding external electric field

     Computed dipole along edir(3) : 
        Dipole                1.1203 Ry au,          2.8476 Debye
        Dipole field          0.0021 Ry au, 
 
        Potential amp.       -0.1960 Ry
        Total length         46.3494 bohr
 

     total cpu time spent up to now is      953.3 secs

     total energy              =   -2939.15584115 Ry
     estimated scf accuracy    <       0.00000278 Ry

     iteration # 58     ecut=    29.40 Ry     beta= 0.05
     Davidson diagonalization with overlap
     ethr =  7.04E-10,  avg # of iterations =  5.8

     negative rho (up, down):  1.563E-02 0.000E+00
 
     Adding external electric field

     Computed dipole along edir(3) : 
        Dipole                1.1201 Ry au,          2.8471 Debye
        Dipole field          0.0021 Ry au, 
 
        Potential amp.       -0.1959 Ry
        Total length         46.3494 bohr
 

     total cpu time spent up to now is      965.1 secs

     total energy              =   -2939.15584708 Ry
     estimated scf accuracy    <       0.00000075 Ry

     iteration # 59     ecut=    29.40 Ry     beta= 0.05
     Davidson diagonalization with overlap
     ethr =  1.90E-10,  avg # of iterations = 11.5

     negative rho (up, down):  1.564E-02 0.000E+00
 
     Adding external electric field

     Computed dipole along edir(3) : 
        Dipole                1.1200 Ry au,          2.8469 Debye
        Dipole field          0.0021 Ry au, 
 
        Potential amp.       -0.1959 Ry
        Total length         46.3494 bohr
 

     total cpu time spent up to now is      982.2 secs

     total energy              =   -2939.15585227 Ry
     estimated scf accuracy    <       0.00000076 Ry

     iteration # 60     ecut=    29.40 Ry     beta= 0.05
     Davidson diagonalization with overlap
     ethr =  1.90E-10,  avg # of iterations =  4.1

     negative rho (up, down):  1.565E-02 0.000E+00
 
     Adding external electric field

     Computed dipole along edir(3) : 
        Dipole                1.1198 Ry au,          2.8463 Debye
        Dipole field          0.0021 Ry au, 
 
        Potential amp.       -0.1959 Ry
        Total length         46.3494 bohr
 

     total cpu time spent up to now is      993.3 secs

     total energy              =   -2939.15585685 Ry
     estimated scf accuracy    <       0.00000053 Ry

     iteration # 61     ecut=    29.40 Ry     beta= 0.05
     Davidson diagonalization with overlap
     ethr =  1.35E-10,  avg # of iterations = 11.5

     negative rho (up, down):  1.561E-02 0.000E+00
 
     Adding external electric field

     Computed dipole along edir(3) : 
        Dipole                1.1199 Ry au,          2.8464 Debye
        Dipole field          0.0021 Ry au, 
 
        Potential amp.       -0.1959 Ry
        Total length         46.3494 bohr
 

     total cpu time spent up to now is     1010.4 secs

     total energy              =   -2939.15586095 Ry
     estimated scf accuracy    <       0.00000083 Ry

     iteration # 62     ecut=    29.40 Ry     beta= 0.05
     Davidson diagonalization with overlap
     ethr =  1.35E-10,  avg # of iterations = 13.7

     negative rho (up, down):  1.560E-02 0.000E+00
 
     Adding external electric field

     Computed dipole along edir(3) : 
        Dipole                1.1194 Ry au,          2.8453 Debye
        Dipole field          0.0021 Ry au, 
 
        Potential amp.       -0.1958 Ry
        Total length         46.3494 bohr
 

     total cpu time spent up to now is     1031.8 secs

     total energy              =   -2939.15586474 Ry
     estimated scf accuracy    <       0.00000198 Ry

     iteration # 63     ecut=    29.40 Ry     beta= 0.05
     Davidson diagonalization with overlap
     ethr =  1.35E-10,  avg # of iterations =  9.2

     negative rho (up, down):  1.560E-02 0.000E+00
 
     Adding external electric field

     Computed dipole along edir(3) : 
        Dipole                1.1194 Ry au,          2.8452 Debye
        Dipole field          0.0021 Ry au, 
 
        Potential amp.       -0.1958 Ry
        Total length         46.3494 bohr
 

     total cpu time spent up to now is     1049.6 secs

     total energy              =   -2939.15586843 Ry
     estimated scf accuracy    <       0.00000021 Ry

     iteration # 64     ecut=    29.40 Ry     beta= 0.05
     Davidson diagonalization with overlap
     ethr =  5.44E-11,  avg # of iterations =  2.0

     negative rho (up, down):  1.560E-02 0.000E+00
 
     Adding external electric field

     Computed dipole along edir(3) : 
        Dipole                1.1194 Ry au,          2.8453 Debye
        Dipole field          0.0021 Ry au, 
 
        Potential amp.       -0.1958 Ry
        Total length         46.3494 bohr
 

     total cpu time spent up to now is     1060.3 secs

     total energy              =   -2939.15587149 Ry
     estimated scf accuracy    <       0.00000020 Ry

     iteration # 65     ecut=    29.40 Ry     beta= 0.05
     Davidson diagonalization with overlap
     ethr =  4.96E-11,  avg # of iterations =  4.7

     negative rho (up, down):  1.559E-02 0.000E+00
 
     Adding external electric field

     Computed dipole along edir(3) : 
        Dipole                1.1195 Ry au,          2.8456 Debye
        Dipole field          0.0021 Ry au, 
 
        Potential amp.       -0.1958 Ry
        Total length         46.3494 bohr
 

     total cpu time spent up to now is     1071.5 secs

     total energy              =   -2939.15587429 Ry
     estimated scf accuracy    <       0.00000014 Ry

     iteration # 66     ecut=    29.40 Ry     beta= 0.05
     Davidson diagonalization with overlap
     c_bands:  1 eigenvalues not converged
     ethr =  3.60E-11,  avg # of iterations = 15.5

     negative rho (up, down):  1.559E-02 0.000E+00
 
     Adding external electric field

     Computed dipole along edir(3) : 
        Dipole                1.1194 Ry au,          2.8452 Debye
        Dipole field          0.0021 Ry au, 
 
        Potential amp.       -0.1958 Ry
        Total length         46.3494 bohr
 

     total cpu time spent up to now is     1093.2 secs

     total energy              =   -2939.15587681 Ry
     estimated scf accuracy    <       0.00000018 Ry

     iteration # 67     ecut=    29.40 Ry     beta= 0.05
     Davidson diagonalization with overlap
     ethr =  3.60E-11,  avg # of iterations = 10.0

     negative rho (up, down):  1.569E-02 0.000E+00
 
     Adding external electric field

     Computed dipole along edir(3) : 
        Dipole                1.1199 Ry au,          2.8464 Debye
        Dipole field          0.0021 Ry au, 
 
        Potential amp.       -0.1959 Ry
        Total length         46.3494 bohr
 

     total cpu time spent up to now is     1108.3 secs

     End of self-consistent calculation

          k = 0.0000 0.0000 0.0000 ( 18029 PWs)   bands (ev):

   -55.5875 -55.5840 -55.5534 -55.5480 -55.4553 -55.4355 -55.4191 -55.4011
   -55.4003 -55.3671 -55.3621 -55.3285 -54.9564 -54.8684 -54.5656 -54.5315
   -32.1387 -32.0704 -31.9561 -31.8995 -31.8963 -31.8882 -31.8802 -31.8533
   -31.8312 -31.8114 -31.7791 -31.7695 -31.7632 -31.7396 -31.7369 -31.7238
   -31.6922 -31.6816 -31.6716 -31.6588 -31.6557 -31.6446 -31.6099 -31.6036
   -31.5936 -31.5900 -31.5857 -31.5769 -31.5666 -31.5642 -31.5397 -31.5299
   -31.5159 -31.5107 -31.5024 -31.4750 -31.4634 -31.1956 -31.1878 -31.1490
   -31.1011 -31.0474 -30.9726 -30.8845 -30.8620 -30.7895 -30.7030 -30.5918
   -18.9376 -16.3422 -16.0657 -15.8179 -15.7377 -15.7211 -15.6051 -15.4329
   -15.3165 -15.2651 -15.1621 -15.1611 -15.1248 -15.0905 -15.0421 -15.0390
   -15.0343 -15.0074 -14.9981 -14.9777 -14.9479 -14.9296 -14.8902 -14.7911
   -14.7726 -14.7232 -14.6942 -14.6678 -14.6479 -14.2639 -13.0681 -12.9517
   -12.7037  -8.8757  -6.3292  -4.8592  -3.7176  -3.6522  -3.5599  -3.4952
    -3.4592  -3.4269  -3.2325  -3.1921  -3.1427  -2.8364  -2.7756  -2.7573
    -2.7471  -2.7174  -2.4929  -2.4540  -2.4029  -2.3721  -2.3604  -2.3580
    -2.3564  -2.3265  -2.3082  -2.1672  -2.1326  -2.0421  -2.0028  -1.9963
    -1.9874  -1.9006  -1.8685  -1.8419  -1.8318  -1.8220  -1.7942  -1.7847
    -1.7764  -1.6423  -1.5634  -1.4116  -1.3911  -1.3507  -1.2194  -1.1957
    -1.0636  -1.0468  -1.0177  -0.9809  -0.9608  -0.8921  -0.7719  -0.7503
    -0.7146  -0.6996  -0.6091  -0.5708  -0.5032  -0.4686  -0.4445  -0.3969
    -0.3582  -0.3493  -0.3272  -0.2008  -0.0711  -0.0135  -0.0042   0.0230
     0.0915   0.1291   0.1896   0.2396   0.2495   0.2860   0.3375   0.3819
     0.3940   0.3964   0.4117   0.4498   0.5910   0.6075   0.6727   0.7181
     0.7615   0.8766   0.9284   1.0642   1.1563   1.3149   1.3838   1.4565
     1.5294   1.6488   2.0271   2.0463   2.0730   3.5428   3.6315   3.6757
     3.6810   3.7869   3.8825   3.9942   4.0139   4.0344   4.0900

          k = 0.0000 0.0419 0.0000 ( 17933 PWs)   bands (ev):

   -55.5824 -55.5787 -55.5583 -55.5532 -55.4505 -55.4305 -55.4237 -55.4052
   -55.3960 -55.3720 -55.3571 -55.3333 -54.9550 -54.8697 -54.5605 -54.5364
   -32.0811 -32.0164 -31.9011 -31.8758 -31.8755 -31.8695 -31.8407 -31.8131
   -31.8050 -31.8040 -31.7969 -31.7917 -31.7582 -31.7535 -31.7489 -31.7461
   -31.7258 -31.6684 -31.6585 -31.6583 -31.6535 -31.6491 -31.6237 -31.6169
   -31.6073 -31.6036 -31.5905 -31.5891 -31.5820 -31.5677 -31.5620 -31.5603
   -31.5390 -31.5359 -31.5312 -31.5189 -31.4247 -31.1947 -31.1867 -31.1700
   -31.1013 -31.0690 -30.9185 -30.8810 -30.8651 -30.7769 -30.7155 -30.6489
   -18.9357 -16.2058 -15.9454 -15.7101 -15.6278 -15.6185 -15.5694 -15.4616
   -15.3706 -15.3489 -15.1865 -15.1346 -15.1114 -15.1053 -15.1005 -15.0657
   -15.0546 -15.0455 -14.9892 -14.9786 -14.9513 -14.9326 -14.8732 -14.8286
   -14.8186 -14.7815 -14.7200 -14.7047 -14.7006 -14.3239 -13.0721 -12.9912
   -12.7069  -8.8758  -6.3268  -4.8400  -3.6577  -3.5259  -3.3962  -3.3778
    -3.3181  -3.2891  -3.1148  -3.0431  -2.9128  -2.8215  -2.7679  -2.6698
    -2.6466  -2.6313  -2.5729  -2.5520  -2.5414  -2.4770  -2.4574  -2.4068
    -2.3487  -2.3456  -2.3130  -2.2798  -2.2580  -2.2485  -2.1736  -2.1040
    -2.0793  -2.0595  -2.0081  -1.9414  -1.8924  -1.8441  -1.8257  -1.7324
    -1.6268  -1.5333  -1.4853  -1.3505  -1.2794  -1.2494  -1.2378  -1.1722
    -1.0388  -0.9468  -0.9303  -0.8755  -0.8312  -0.8039  -0.7162  -0.6136
    -0.5827  -0.5452  -0.5364  -0.5178  -0.4898  -0.4601  -0.4364  -0.4070
    -0.3574  -0.3007  -0.2222  -0.1964  -0.1671  -0.1121  -0.0912  -0.0673
    -0.0456   0.0542   0.1465   0.1613   0.1664   0.1929   0.2300   0.2524
     0.2813   0.3612   0.4382   0.4667   0.5214   0.5408   0.6112   0.6776
     0.7332   0.7429   0.7704   0.8874   1.0722   1.0871   1.1401   1.4007
     1.6454   1.7303   1.9489   1.9817   1.9850   3.7386   3.7843   3.7898
     3.8695   3.9007   3.9461   4.0074   4.0408   4.0625   4.0992

          k = 0.0000-0.0839 0.0000 ( 17884 PWs)   bands (ev):

   -55.5706 -55.5701 -55.5663 -55.5655 -55.4426 -55.4315 -55.4212 -55.4145
   -55.3841 -55.3838 -55.3458 -55.3446 -54.9536 -54.8710 -54.5485 -54.5484
   -31.9415 -31.9397 -31.8844 -31.8839 -31.8659 -31.8651 -31.8380 -31.8377
   -31.7762 -31.7742 -31.7708 -31.7650 -31.7598 -31.7571 -31.7026 -31.6989
   -31.6981 -31.6938 -31.6923 -31.6920 -31.6678 -31.6650 -31.6375 -31.6362
   -31.6353 -31.6311 -31.6300 -31.6289 -31.6203 -31.6176 -31.5783 -31.5768
   -31.5609 -31.5588 -31.5273 -31.5267 -31.3665 -31.2325 -31.1939 -31.1631
   -31.1015 -31.0914 -30.8729 -30.8728 -30.7856 -30.7854 -30.7462 -30.7462
   -18.9338 -15.8631 -15.8540 -15.6626 -15.6602 -15.4974 -15.4808 -15.3798
   -15.3752 -15.3630 -15.3473 -15.3073 -15.2959 -15.1524 -15.1483 -14.9833
   -14.9803 -14.9710 -14.9522 -14.9379 -14.9243 -14.9224 -14.8878 -14.8846
   -14.8490 -14.8357 -14.8280 -14.8184 -14.6958 -14.4010 -13.0539 -13.0538
   -12.7101  -8.8759  -6.3243  -4.8220  -3.6643  -3.3395  -3.0668  -3.0595
    -2.9983  -2.9879  -2.9650  -2.9627  -2.8795  -2.8792  -2.7858  -2.7160
    -2.7124  -2.7058  -2.6988  -2.6763  -2.6434  -2.6150  -2.5421  -2.5389
    -2.4412  -2.4144  -2.3622  -2.3461  -2.2675  -2.2641  -2.1934  -2.1764
    -2.1596  -2.0681  -2.0314  -1.9541  -1.9451  -1.9197  -1.6722  -1.5722
    -1.4724  -1.4508  -1.3970  -1.2867  -1.2627  -1.2222  -1.1158  -1.0478
    -1.0195  -1.0034  -0.9743  -0.9543  -0.9223  -0.8327  -0.7955  -0.7597
    -0.7169  -0.6903  -0.6331  -0.4741  -0.4009  -0.2920  -0.2484  -0.2346
    -0.2145  -0.2090  -0.1853  -0.1669  -0.1066  -0.0821  -0.0495  -0.0352
    -0.0310   0.0204   0.0453   0.0923   0.1109   0.1233   0.1472   0.2023
     0.2095   0.2210   0.2665   0.3001   0.3243   0.3623   0.4951   0.6430
     0.6506   0.6575   0.6894   0.9229   1.0073   1.0606   1.1055   1.1379
     1.7891   1.7895   1.8406   1.9186   1.9188   3.8534   3.8750   3.8948
     3.9177   3.9805   3.9880   4.0734   4.0953   4.1336   4.1428

          k = 0.0380 0.0000 0.0000 ( 17913 PWs)   bands (ev):

   -55.5873 -55.5839 -55.5533 -55.5479 -55.4552 -55.4354 -55.4190 -55.4008
   -55.4002 -55.3670 -55.3622 -55.3284 -54.9564 -54.8683 -54.5655 -54.5314
   -32.1388 -32.0712 -31.9617 -31.8997 -31.8972 -31.8882 -31.8800 -31.8581
   -31.8312 -31.7949 -31.7784 -31.7694 -31.7631 -31.7367 -31.7303 -31.7234
   -31.6920 -31.6744 -31.6678 -31.6612 -31.6575 -31.6444 -31.6092 -31.6036
   -31.5928 -31.5864 -31.5830 -31.5773 -31.5665 -31.5640 -31.5607 -31.5298
   -31.5160 -31.5098 -31.5021 -31.4752 -31.4620 -31.1974 -31.1877 -31.1489
   -31.1010 -31.0473 -30.9722 -30.8878 -30.8600 -30.7893 -30.7028 -30.5916
   -18.9374 -16.2701 -15.9823 -15.7459 -15.7295 -15.6375 -15.6044 -15.4764
   -15.3142 -15.3084 -15.2798 -15.2621 -15.2115 -15.1564 -15.1488 -15.1378
   -15.0606 -14.9495 -14.8964 -14.8776 -14.8678 -14.8527 -14.8331 -14.8113
   -14.7802 -14.7713 -14.7282 -14.7138 -14.6696 -14.2606 -13.0648 -12.9513
   -12.7027  -8.8752  -6.3277  -4.8459  -3.6951  -3.6388  -3.3724  -3.3274
    -3.2883  -3.2164  -3.1346  -3.1309  -3.0677  -3.0594  -2.8377  -2.8341
    -2.6995  -2.6672  -2.6020  -2.5726  -2.4361  -2.3898  -2.3596  -2.3168
    -2.3021  -2.2399  -2.1948  -2.1639  -2.0820  -2.0694  -2.0101  -1.9809
    -1.9534  -1.9422  -1.8606  -1.8109  -1.7772  -1.7619  -1.6272  -1.6058
    -1.5628  -1.5252  -1.4601  -1.4467  -1.4087  -1.3479  -1.2403  -1.1923
    -1.1382  -1.1070  -1.0272  -1.0225  -1.0073  -0.9313  -0.8747  -0.8693
    -0.8548  -0.7484  -0.7098  -0.6236  -0.5167  -0.4822  -0.4317  -0.4076
    -0.3800  -0.3233  -0.3041  -0.1869  -0.0979  -0.0475  -0.0371  -0.0151
     0.0554   0.1040   0.1240   0.1524   0.2024   0.2335   0.2424   0.2594
     0.2856   0.2961   0.3445   0.4810   0.5159   0.5500   0.5924   0.6557
     0.7288   0.7504   0.7752   1.0404   1.1004   1.3169   1.3825   1.3998
     1.4683   1.6183   1.9136   1.9197   1.9903   3.5740   3.6037   3.8866
     3.9147   3.9237   3.9665   3.9926   4.0055   4.0344   4.0686

          k = 0.0380 0.0419 0.0000 ( 17878 PWs)   bands (ev):

   -55.5823 -55.5786 -55.5583 -55.5532 -55.4505 -55.4305 -55.4237 -55.4052
   -55.3958 -55.3720 -55.3572 -55.3333 -54.9550 -54.8696 -54.5604 -54.5364
   -32.0813 -32.0172 -31.9078 -31.8756 -31.8753 -31.8696 -31.8418 -31.8134
   -31.8078 -31.8031 -31.7935 -31.7847 -31.7581 -31.7531 -31.7490 -31.7366
   -31.7233 -31.6688 -31.6581 -31.6551 -31.6512 -31.6490 -31.6224 -31.6191
   -31.6074 -31.5924 -31.5903 -31.5882 -31.5825 -31.5677 -31.5629 -31.5605
   -31.5567 -31.5390 -31.5269 -31.5234 -31.4240 -31.1962 -31.1866 -31.1699
   -31.1017 -31.0689 -30.9181 -30.8836 -30.8641 -30.7767 -30.7156 -30.6488
   -18.9356 -16.1404 -15.8688 -15.6439 -15.6233 -15.5674 -15.5332 -15.4636
   -15.4065 -15.3498 -15.2451 -15.2142 -15.1847 -15.1800 -15.1428 -15.0842
   -15.0257 -15.0127 -14.9735 -14.9520 -14.9145 -14.9035 -14.8774 -14.8526
   -14.8286 -14.8203 -14.7751 -14.7462 -14.6846 -14.3208 -13.0699 -12.9914
   -12.7062  -8.8754  -6.3259  -4.8328  -3.6784  -3.4610  -3.3490  -3.1675
    -3.1266  -3.0432  -2.9800  -2.9243  -2.9068  -2.8904  -2.7439  -2.6908
    -2.6229  -2.5952  -2.5755  -2.4884  -2.4798  -2.4451  -2.4046  -2.3765
    -2.3344  -2.3164  -2.3043  -2.2753  -2.2429  -2.2195  -2.1737  -2.1305
    -2.0809  -2.0495  -1.9389  -1.8995  -1.8566  -1.7876  -1.7394  -1.6246
    -1.5906  -1.5522  -1.4898  -1.3465  -1.3180  -1.2845  -1.1783  -1.0935
    -1.0402  -1.0222  -0.9997  -0.9277  -0.9084  -0.8549  -0.8273  -0.7648
    -0.7299  -0.6684  -0.6329  -0.5804  -0.5340  -0.5203  -0.4587  -0.4243
    -0.3950  -0.3467  -0.3104  -0.2735  -0.2359  -0.2199  -0.1886  -0.1701
    -0.0947  -0.0518  -0.0273   0.0385   0.0934   0.1078   0.1372   0.1837
     0.2496   0.3334   0.3638   0.4972   0.5123   0.5831   0.6239   0.6741
     0.7221   0.7723   0.7938   0.8473   0.9991   1.0618   1.1818   1.3384
     1.6561   1.7343   1.9009   1.9041   1.9657   3.7270   3.7848   3.8633
     3.9247   3.9468   3.9922   4.0668   4.0989   4.1262   4.1386

          k = 0.0380-0.0839 0.0000 ( 17916 PWs)   bands (ev):

   -55.5706 -55.5701 -55.5663 -55.5655 -55.4427 -55.4316 -55.4212 -55.4145
   -55.3841 -55.3838 -55.3459 -55.3447 -54.9537 -54.8710 -54.5485 -54.5484
   -31.9418 -31.9400 -31.8851 -31.8846 -31.8659 -31.8652 -31.8381 -31.8378
   -31.7959 -31.7847 -31.7665 -31.7606 -31.7443 -31.7353 -31.7032 -31.6998
   -31.6988 -31.6947 -31.6911 -31.6908 -31.6790 -31.6764 -31.6449 -31.6381
   -31.6300 -31.6285 -31.6207 -31.6161 -31.6135 -31.6121 -31.5781 -31.5766
   -31.5610 -31.5589 -31.5390 -31.5384 -31.3663 -31.2323 -31.1952 -31.1632
   -31.1024 -31.0914 -30.8739 -30.8737 -30.7855 -30.7853 -30.7462 -30.7462
   -18.9338 -15.8213 -15.8112 -15.6127 -15.6107 -15.4704 -15.4579 -15.3834
   -15.3661 -15.3205 -15.2922 -15.2834 -15.2706 -15.1645 -15.1613 -15.0558
   -15.0372 -15.0052 -15.0025 -14.9745 -14.9557 -14.9474 -14.9200 -14.9010
   -14.8926 -14.8825 -14.8528 -14.7997 -14.6833 -14.3959 -13.0537 -13.0536
   -12.7098  -8.8758  -6.3239  -4.8212  -3.6654  -3.3346  -3.0590  -3.0489
    -2.8355  -2.8273  -2.7828  -2.7708  -2.7258  -2.7009  -2.6692  -2.6646
    -2.6195  -2.6018  -2.5756  -2.5519  -2.5467  -2.4848  -2.4325  -2.4275
    -2.4235  -2.4137  -2.3611  -2.3095  -2.2905  -2.2495  -2.2252  -2.2007
    -2.1386  -2.0960  -2.0473  -1.9927  -1.7098  -1.6997  -1.6924  -1.5335
    -1.4980  -1.4757  -1.4318  -1.4090  -1.3609  -1.3498  -1.3011  -1.2471
    -1.2272  -1.2073  -1.1357  -1.0571  -1.0213  -0.8881  -0.8345  -0.7470
    -0.7117  -0.6873  -0.6233  -0.6106  -0.5244  -0.4972  -0.4178  -0.3770
    -0.3584  -0.3476  -0.3215  -0.2931  -0.2625  -0.2190  -0.1918  -0.1670
    -0.1427  -0.1302  -0.1261  -0.0372  -0.0039   0.0173   0.1383   0.1766
     0.2453   0.2911   0.4176   0.4782   0.5059   0.5268   0.5546   0.5819
     0.6339   0.7499   0.7669   0.8989   0.9332   1.0608   1.1022   1.1537
     1.8023   1.8027   1.8726   1.9076   1.9083   3.8233   3.8588   3.9034
     3.9324   3.9669   3.9769   4.1250   4.1459   4.1706   4.1761

          k = 0.0380-0.0419 0.0000 ( 17876 PWs)   bands (ev):

   -55.5823 -55.5786 -55.5583 -55.5532 -55.4505 -55.4305 -55.4237 -55.4052
   -55.3958 -55.3720 -55.3572 -55.3333 -54.9550 -54.8696 -54.5604 -54.5364
   -32.0813 -32.0172 -31.9078 -31.8756 -31.8753 -31.8696 -31.8418 -31.8133
   -31.8078 -31.8032 -31.7935 -31.7847 -31.7580 -31.7531 -31.7490 -31.7367
   -31.7233 -31.6684 -31.6581 -31.6551 -31.6511 -31.6491 -31.6226 -31.6190
   -31.6074 -31.5924 -31.5903 -31.5882 -31.5826 -31.5677 -31.5627 -31.5605
   -31.5571 -31.5390 -31.5267 -31.5234 -31.4240 -31.1962 -31.1865 -31.1699
   -31.1017 -31.0689 -30.9181 -30.8836 -30.8641 -30.7767 -30.7156 -30.6488
   -18.9356 -16.1403 -15.8687 -15.6438 -15.6230 -15.5675 -15.5330 -15.4644
   -15.4063 -15.3503 -15.2456 -15.2142 -15.1853 -15.1801 -15.1450 -15.0842
   -15.0232 -15.0116 -14.9730 -14.9518 -14.9140 -14.9037 -14.8776 -14.8520
   -14.8288 -14.8208 -14.7750 -14.7468 -14.6845 -14.3210 -13.0699 -12.9915
   -12.7062  -8.8755  -6.3258  -4.8329  -3.6788  -3.4615  -3.3497  -3.1650
    -3.1272  -3.0426  -2.9793  -2.9284  -2.9029  -2.8907  -2.7441  -2.6902
    -2.6186  -2.5940  -2.5747  -2.4863  -2.4791  -2.4548  -2.4049  -2.3777
    -2.3360  -2.3189  -2.3058  -2.2748  -2.2448  -2.2224  -2.1692  -2.1313
    -2.0811  -2.0501  -1.9390  -1.9028  -1.8498  -1.7855  -1.7350  -1.6215
    -1.5870  -1.5564  -1.4896  -1.3408  -1.3064  -1.2856  -1.1799  -1.1074
    -1.0444  -1.0165  -0.9978  -0.9294  -0.9020  -0.8455  -0.8317  -0.7712
    -0.7232  -0.6748  -0.6394  -0.5871  -0.5264  -0.5145  -0.4723  -0.4224
    -0.3971  -0.3567  -0.3051  -0.2825  -0.2493  -0.2200  -0.1900  -0.1690
    -0.0903  -0.0493  -0.0358   0.0493   0.0965   0.1137   0.1275   0.1811
     0.2572   0.3433   0.3714   0.4723   0.5209   0.5973   0.6153   0.6792
     0.7247   0.7698   0.8027   0.8453   1.0000   1.0607   1.1810   1.3382
     1.6562   1.7345   1.9003   1.9039   1.9664   3.7242   3.7841   3.8600
     3.9146   3.9572   3.9852   4.0698   4.1061   4.1222   4.1309

          k =-0.0760-0.0000 0.0000 ( 17886 PWs)   bands (ev):

   -55.5873 -55.5838 -55.5533 -55.5479 -55.4552 -55.4354 -55.4190 -55.4006
   -55.4002 -55.3670 -55.3623 -55.3284 -54.9563 -54.8683 -54.5654 -54.5314
   -32.1390 -32.0721 -31.9670 -31.8998 -31.8982 -31.8882 -31.8799 -31.8627
   -31.8313 -31.7812 -31.7694 -31.7673 -31.7630 -31.7338 -31.7245 -31.7233
   -31.6994 -31.6919 -31.6642 -31.6574 -31.6447 -31.6171 -31.6091 -31.6060
   -31.6036 -31.5913 -31.5873 -31.5782 -31.5768 -31.5666 -31.5639 -31.5297
   -31.5169 -31.5091 -31.5021 -31.4758 -31.4609 -31.1995 -31.1876 -31.1488
   -31.1012 -31.0472 -30.9718 -30.8911 -30.8587 -30.7892 -30.7027 -30.5916
   -18.9373 -16.1759 -15.9035 -15.6909 -15.6859 -15.6036 -15.5482 -15.4491
   -15.3886 -15.3629 -15.3116 -15.2942 -15.2691 -15.2590 -15.2143 -15.1610
   -15.1320 -14.9519 -14.9371 -14.8991 -14.8765 -14.8356 -14.8211 -14.7832
   -14.7689 -14.7436 -14.7257 -14.6834 -14.6714 -14.2581 -13.0618 -12.9510
   -12.7017  -8.8748  -6.3264  -4.8337  -3.7222  -3.6177  -3.3427  -3.2531
    -3.1955  -3.1141  -2.9986  -2.9962  -2.8491  -2.8397  -2.8375  -2.8360
    -2.8170  -2.6412  -2.6144  -2.4450  -2.3902  -2.3751  -2.3349  -2.3259
    -2.2275  -2.1637  -2.1465  -2.0888  -2.0693  -2.0056  -1.9829  -1.9306
    -1.9104  -1.8719  -1.8274  -1.8176  -1.7793  -1.7644  -1.7303  -1.7200
    -1.6696  -1.5594  -1.4027  -1.3639  -1.3446  -1.2347  -1.1964  -1.1858
    -1.1720  -1.1528  -1.1397  -1.0526  -1.0207  -0.9753  -0.9583  -0.8970
    -0.8719  -0.8302  -0.7654  -0.7487  -0.7401  -0.6332  -0.5244  -0.4238
    -0.3754  -0.3024  -0.2672  -0.2408  -0.2339  -0.1673  -0.1130  -0.0616
    -0.0428   0.0119   0.0624   0.0916   0.1281   0.1514   0.2114   0.2244
     0.2620   0.3170   0.3765   0.4194   0.4421   0.4984   0.6042   0.6494
     0.6801   0.8573   0.8782   0.9888   1.1039   1.1154   1.3167   1.3976
     1.4895   1.5939   1.7868   1.8046   1.9347   3.5789   3.5819   3.7069
     3.8263   3.8822   3.9630   3.9927   4.0569   4.0798   4.0843

          k =-0.0760 0.0419 0.0000 ( 17914 PWs)   bands (ev):

   -55.5823 -55.5785 -55.5583 -55.5532 -55.4505 -55.4305 -55.4237 -55.4052
   -55.3957 -55.3720 -55.3573 -55.3334 -54.9550 -54.8697 -54.5604 -54.5364
   -32.0816 -32.0182 -31.9142 -31.8756 -31.8753 -31.8699 -31.8431 -31.8134
   -31.8124 -31.8027 -31.7944 -31.7672 -31.7582 -31.7531 -31.7493 -31.7274
   -31.7212 -31.6879 -31.6580 -31.6523 -31.6491 -31.6223 -31.6217 -31.6185
   -31.6075 -31.5959 -31.5904 -31.5870 -31.5820 -31.5802 -31.5676 -31.5610
   -31.5594 -31.5391 -31.5299 -31.5266 -31.4233 -31.1980 -31.1866 -31.1699
   -31.1023 -31.0690 -30.9179 -30.8864 -30.8634 -30.7767 -30.7156 -30.6489
   -18.9355 -16.0563 -15.7889 -15.6052 -15.5802 -15.5650 -15.4690 -15.4486
   -15.3504 -15.3449 -15.3252 -15.2471 -15.2389 -15.2368 -15.1837 -15.1405
   -15.1091 -15.0097 -14.9909 -14.9718 -14.9296 -14.9280 -14.8734 -14.8559
   -14.8316 -14.7956 -14.7740 -14.7560 -14.6810 -14.3186 -13.0678 -12.9918
   -12.7056  -8.8752  -6.3250  -4.8265  -3.6928  -3.4465  -3.3364  -3.0980
    -2.9373  -2.8985  -2.8158  -2.7146  -2.7040  -2.6789  -2.6438  -2.6352
    -2.6029  -2.5833  -2.5488  -2.5364  -2.4623  -2.4106  -2.3743  -2.3658
    -2.3377  -2.3024  -2.2777  -2.2652  -2.2021  -2.1676  -2.0999  -2.0790
    -2.0664  -1.9939  -1.9213  -1.8108  -1.7871  -1.7108  -1.7009  -1.6508
    -1.5871  -1.5477  -1.5154  -1.3743  -1.2697  -1.2087  -1.1991  -1.1483
    -1.1340  -1.0778  -1.0576  -1.0067  -0.9673  -0.9025  -0.8814  -0.8680
    -0.8138  -0.8066  -0.7626  -0.7459  -0.7120  -0.6542  -0.6282  -0.5901
    -0.5514  -0.5401  -0.4281  -0.3771  -0.3384  -0.3294  -0.2960  -0.2555
    -0.2143  -0.1790  -0.1164  -0.0382  -0.0128   0.0847   0.1161   0.2404
     0.2567   0.3367   0.4470   0.4677   0.5542   0.6506   0.6761   0.7385
     0.7784   0.8308   0.8608   0.9266   0.9676   0.9992   1.1736   1.2124
     1.6709   1.7372   1.8273   1.8616   1.9550   3.7104   3.7733   3.7824
     3.8700   3.8991   3.9093   4.0328   4.1153   4.1383   4.1902

          k =-0.0760-0.0839 0.0000 ( 17948 PWs)   bands (ev):

   -55.5706 -55.5701 -55.5663 -55.5655 -55.4427 -55.4316 -55.4212 -55.4145
   -55.3840 -55.3837 -55.3460 -55.3448 -54.9537 -54.8711 -54.5485 -54.5484
   -31.9421 -31.9403 -31.8859 -31.8854 -31.8659 -31.8652 -31.8382 -31.8380
   -31.8036 -31.7912 -31.7668 -31.7606 -31.7263 -31.7182 -31.7032 -31.7007
   -31.6988 -31.6956 -31.6900 -31.6897 -31.6862 -31.6836 -31.6560 -31.6483
   -31.6299 -31.6272 -31.6208 -31.6147 -31.5845 -31.5831 -31.5777 -31.5763
   -31.5616 -31.5611 -31.5607 -31.5589 -31.3661 -31.2322 -31.1964 -31.1632
   -31.1033 -31.0915 -30.8748 -30.8747 -30.7855 -30.7853 -30.7463 -30.7462
   -18.9338 -15.7723 -15.7576 -15.5315 -15.5161 -15.5050 -15.4960 -15.3487
   -15.3217 -15.2837 -15.2807 -15.2087 -15.1632 -15.1469 -15.1313 -15.1286
   -15.1101 -15.1020 -15.0536 -15.0465 -15.0455 -15.0276 -15.0210 -14.9066
   -14.9026 -14.8946 -14.8422 -14.7930 -14.6760 -14.3916 -13.0535 -13.0534
   -12.7094  -8.8758  -6.3235  -4.8205  -3.6659  -3.3320  -3.0600  -3.0487
    -2.7588  -2.7480  -2.7456  -2.7025  -2.5101  -2.5052  -2.4911  -2.4591
    -2.4256  -2.4144  -2.4045  -2.3903  -2.3848  -2.3361  -2.3141  -2.2690
    -2.2560  -2.2527  -2.2514  -2.2160  -2.2057  -2.1635  -2.1529  -2.1297
    -2.1175  -2.0854  -2.0545  -1.9077  -1.8215  -1.8024  -1.7286  -1.7218
    -1.6895  -1.6525  -1.6389  -1.5940  -1.5593  -1.4426  -1.3305  -1.2885
    -1.2740  -1.1739  -1.1376  -1.0993  -1.0468  -0.9726  -0.9645  -0.9355
    -0.8694  -0.7973  -0.7809  -0.7582  -0.6940  -0.6698  -0.5962  -0.5750
    -0.5502  -0.5453  -0.4886  -0.4229  -0.4071  -0.3556  -0.3474  -0.3064
    -0.2719  -0.2428  -0.2233  -0.0840  -0.0826  -0.0423   0.0924   0.1483
     0.3808   0.4301   0.4500   0.5217   0.6215   0.6700   0.6834   0.7250
     0.7345   0.7497   0.8098   0.9396   0.9451   1.0138   1.0547   1.1564
     1.8205   1.8209   1.8929   1.8930   1.9061   3.8391   3.8655   3.8782
     3.9020   4.0498   4.0597   4.0794   4.0801   4.2003   4.2210

     the Fermi energy is     3.5444 ev

!    total energy              =   -2939.15590000 Ry
     estimated scf accuracy    <       0.00000003 Ry
     smearing contrib. (-TS)   =      -0.02147260 Ry
     internal energy E=F+TS    =   -2939.13442740 Ry

     The total energy is F=E-TS. E is the sum of the following terms:
     one-electron contribution =  -24212.83385237 Ry
     hartree contribution      =   12196.25697152 Ry
     xc contribution           =    -485.25499230 Ry
     ewald contribution        =    9562.69507908 Ry
     electric field correction =       0.00236666 Ry

     convergence has been achieved in  67 iterations

     Forces acting on atoms (cartesian axes, Ry/au):

     atom    1 type  1   force =     0.00008851   -0.00018044    0.09642775
     atom    2 type  1   force =    -0.00019015   -0.00072727   -0.17537187
     atom    3 type  2   force =     0.00004398   -0.00013197   -0.02409258
     atom    4 type  2   force =     0.00007641   -0.00140945    0.05266600
     atom    5 type  2   force =    -0.01130142   -0.00007361    0.00339337
     atom    6 type  2   force =     0.01295176    0.00064065    0.00223903
     atom    7 type  1   force =    -0.00120149    0.00047109   -0.01223503
     atom    8 type  1   force =     0.00043189    0.00232497    0.02518869
     atom    9 type  2   force =    -0.00025340    0.00018648    0.00001563
     atom   10 type  2   force =    -0.00120565    0.00198635   -0.01304067
     atom   11 type  2   force =     0.00057367    0.00015706    0.00024402
     atom   12 type  2   force =    -0.00049476    0.00006335    0.00011908
     atom   13 type  1   force =    -0.00049694    0.00027671    0.00017938
     atom   14 type  1   force =     0.00061408   -0.00036928   -0.00027907
     atom   15 type  2   force =    -0.00005450    0.00029142    0.00004105
     atom   16 type  2   force =    -0.00002206    0.00018127    0.00057344
     atom   17 type  2   force =    -0.00051423   -0.00002867   -0.00006081
     atom   18 type  2   force =     0.00018017   -0.00012441   -0.00031242
     atom   19 type  1   force =     0.00011977    0.00076154    0.00048521
     atom   20 type  1   force =    -0.00000002    0.00032076   -0.00012396
     atom   21 type  2   force =     0.00009871   -0.00012217    0.10313734
     atom   22 type  2   force =    -0.00025014    0.00016319    0.00008733
     atom   23 type  2   force =    -0.07149800   -0.00020993   -0.02772440
     atom   24 type  2   force =     0.07149940    0.00025245   -0.02773221
     atom   25 type  1   force =     0.00012035   -0.00026084    0.09594767
     atom   26 type  1   force =    -0.00011371   -0.00044375   -0.17552245
     atom   27 type  2   force =     0.00009594   -0.00012617   -0.02333780
     atom   28 type  2   force =     0.00010989   -0.00121614    0.05262955
     atom   29 type  2   force =    -0.01154978   -0.00029882    0.00347638
     atom   30 type  2   force =     0.01313438    0.00016403    0.00228300
     atom   31 type  1   force =    -0.00120283    0.00345963   -0.01234727
     atom   32 type  1   force =     0.00054439   -0.00379384    0.02547095
     atom   33 type  2   force =     0.00002597   -0.00016894   -0.00003918
     atom   34 type  2   force =    -0.00098653    0.00046728   -0.02167639
     atom   35 type  2   force =     0.00013903    0.00000926    0.00018986
     atom   36 type  2   force =    -0.00014084    0.00002254    0.00007392
     atom   37 type  1   force =    -0.00044528   -0.00032211    0.00014926
     atom   38 type  1   force =     0.00044028    0.00027563   -0.00028655
     atom   39 type  2   force =    -0.00002558   -0.00045314    0.00030976
     atom   40 type  2   force =    -0.00012967   -0.00008471    0.00012453
     atom   41 type  2   force =    -0.00080199   -0.00017618   -0.00025854
     atom   42 type  2   force =     0.00088265    0.00002178   -0.00002685
     atom   43 type  1   force =    -0.00001794   -0.00077250    0.00011166
     atom   44 type  1   force =    -0.00002519    0.00004916    0.00015491
     atom   45 type  2   force =     0.00010301   -0.00010832    0.10317256
     atom   46 type  2   force =    -0.07149784   -0.00015192   -0.02771276
     atom   47 type  2   force =     0.07150489    0.00029183   -0.02771942
     atom   48 type  3   force =     0.00013654   -0.00147674   -0.00076737
     atom   49 type  3   force =     0.00051597   -0.00012637   -0.00023077
     atom   50 type  4   force =    -0.00075041    0.00101807    0.00039504
     atom   51 type  5   force =     0.00079416   -0.00073578    0.00095716
     atom   52 type  5   force =     0.00018289   -0.00058202    0.00038193
     atom   53 type  5   force =    -0.00023835    0.00081900    0.00027289

     Total force =     0.366694     Total SCF correction =     0.000536
  @ DRIVER MODE: Message from server: STATUS
  @ DRIVER MODE: Message from server: GETFORCE
  @ DRIVER MODE: Returning v,forces,stress,ensemble 

     Writing output data file ./calc.save/
  @ DRIVER MODE: Message from server: EXIT
  @ DRIVE MODE: Exiting  
 
     init_run     :     10.90s CPU     11.22s WALL (       1 calls)
     electrons    :   1041.97s CPU   1058.08s WALL (       1 calls)
     forces       :      2.27s CPU      2.39s WALL (       1 calls)

     Called by init_run:
     wfcinit      :      4.87s CPU      4.97s WALL (       1 calls)
     potinit      :      5.37s CPU      5.46s WALL (       1 calls)
     hinit0       :      0.32s CPU      0.34s WALL (       1 calls)

     Called by electrons:
     c_bands      :    884.13s CPU    890.73s WALL (      67 calls)
     sum_band     :    106.28s CPU    110.05s WALL (      67 calls)
     v_of_rho     :     38.53s CPU     40.67s WALL (      68 calls)
     newd         :     15.36s CPU     18.81s WALL (      68 calls)
     mix_rho      :      1.87s CPU      1.94s WALL (      67 calls)
     vdW_kernel   :      4.54s CPU      4.56s WALL (       1 calls)

     Called by c_bands:
     init_us_2    :      6.00s CPU      6.04s WALL (    1360 calls)
     cegterg      :    865.98s CPU    872.24s WALL (     681 calls)

     Called by *egterg:
     cdiaghg      :    142.20s CPU    143.04s WALL (    7037 calls)
     h_psi        :    461.40s CPU    465.63s WALL (    7047 calls)
     s_psi        :     61.52s CPU     61.72s WALL (    7047 calls)
     g_psi        :      1.66s CPU      1.67s WALL (    6356 calls)

     Called by h_psi:
     h_psi:calbec :     58.36s CPU     58.66s WALL (    7047 calls)
     vloc_psi     :    338.30s CPU    341.66s WALL (    7047 calls)
     add_vuspsi   :     61.74s CPU     62.12s WALL (    7047 calls)

     General routines
     calbec       :     77.15s CPU     77.51s WALL (    7757 calls)
     fft          :     19.71s CPU     19.95s WALL (    4284 calls)
     ffts         :      0.17s CPU      0.18s WALL (     135 calls)
     fftw         :    380.60s CPU    384.43s WALL (  903666 calls)
     interpolate  :      0.49s CPU      0.50s WALL (      68 calls)
     davcio       :      0.00s CPU      0.86s WALL (      10 calls)
 
     Parallel routines
 
     PWSCF        :  17m35.92s CPU  18m36.50s WALL

 
   This run was terminated on:   0:41:22  11Sep2021            

=------------------------------------------------------------------------------=
   JOB DONE.
=------------------------------------------------------------------------------=
