
     Program PWSCF v.6.7GPU starts on 25Sep2021 at 21:52:38 

     This program is part of the open-source Quantum ESPRESSO suite
     for quantum simulation of materials; please cite
         "P. Giannozzi et al., J. Phys.:Condens. Matter 21 395502 (2009);
         "P. Giannozzi et al., J. Phys.:Condens. Matter 29 465901 (2017);
         "P. Giannozzi et al., J. Chem. Phys. 152 154105 (2020);
          URL http://www.quantum-espresso.org", 
     in publications or presentations arising from this work. More details at
     http://www.quantum-espresso.org/quote

     Parallel version (MPI), running on     8 processors

     MPI processes distributed on     1 nodes
     R & G space division:  proc/nbgrp/npool/nimage =       8
     Reading input from /storage/home/hcoda1/3/ntian30/research/carbon/CxH_vib/H2O_calc/ads_slab/CH2OHN2HO_a/out_0013/pw.inp
Warning: card &CELL ignored
Warning: card   CELL_DYNAMICS='IPI', ignored
Warning: card / ignored

     Current dimensions of program PWSCF are:
     Max number of different atomic species (ntypx) = 10
     Max number of k-points (npk) =  40000
     Max angular momentum in pseudopotentials (lmaxx) =  3
     Presently no symmetry can be used with electric field

     Message from routine cell_base_init:
     DEPRECATED: use true lattice parameter, not A to a.u. conversion factor

     **************************************************************************
     Initializing libbeef V0.1.2 with the BEEF-vdW functional.
     Citation: Wellendorff et al., PRB 85, 235149 (2012).
     **************************************************************************


     IMPORTANT: XC functional enforced from input :
     Exchange-correlation= BEEF-VDW
                           (   1   4  43  14   2   0   0)
     Any further DFT definition will be discarded
     Please, verify this is what you really want


     Subspace diagonalization in iterative solution of the eigenvalue problem:
     one sub-group per band group will be used
     scalapack distributed-memory algorithm (size of sub-group:  2*  2 procs)

  @ DRIVER MODE: Connecting to 
 qe_1139763_2971670.sched-torque.pace.gatech.eduv9kzit1s_scratch
  using UNIX socket
  @ DRIVER MODE: Message from server: STATUS
  @ DRIVER MODE: Message from server: INIT
  @ DRIVER MODE: Receiving replica           0          -1
  @ DRIVER MODE: Receiving encoded integer          25
  @ DRIVER MODE:  SCF:  T  FORCE:  T  STRESS:  F  VC:  F  ENSEMBLE:  F
  @ DRIVER MODE:  SCF:  T  FORCE:  T  STRESS:  F  VC:  F  ENSEMBLE:  F
 
     Parallelization info
     --------------------
     sticks:   dense  smooth     PW     G-vecs:    dense   smooth      PW
     Min         409     164     47                70857    17926    2743
     Max         411     165     48                70858    17931    2751
     Sum        3275    1317    379               566857   143421   21985
 
     Using Slab Decomposition
 


     bravais-lattice index     =            0
     lattice parameter (alat)  =       1.8897  a.u.
     unit-cell volume          =    6658.9804 (a.u.)^3
     number of atoms/cell      =           56
     number of atomic types    =            5
     number of electrons       =       408.00
     number of Kohn-Sham states=          214
     kinetic-energy cutoff     =      29.3995  Ry
     charge density cutoff     =     293.9946  Ry
     scf convergence threshold =      7.3E-08
     mixing beta               =       0.0500
     number of iterations used =            8  plain     mixing
     Exchange-correlation= BEEF-VDW
                           (   1   4  43  14   2   0   0)

     celldm(1)=   1.889726  celldm(2)=   0.000000  celldm(3)=   0.000000
     celldm(4)=   0.000000  celldm(5)=   0.000000  celldm(6)=   0.000000

     crystal axes: (cart. coord. in units of alat)
               a(1) = (   6.579727   0.000000   0.000000 )  
               a(2) = (  -0.000775   5.961596   0.000000 )  
               a(3) = (   0.000000   0.000000  25.155947 )  

     reciprocal axes: (cart. coord. in units 2 pi/alat)
               b(1) = (  0.151982  0.000020  0.000000 )  
               b(2) = (  0.000000  0.167740  0.000000 )  
               b(3) = (  0.000000  0.000000  0.039752 )  


     PseudoPot. # 1 for C  read from file:
     /storage/coda1/p-amedford6/0/shared/rich_project_chbe-medford/medford-share/data/pseudos_module/espresso/nninc/pbe/van/C.UPF
     MD5 check sum: 1a69bf6b8db32088f5b2163dbdb77a27
     Pseudo is Ultrasoft, Zval =  4.0
     Generated by new atomic code, or converted to UPF format
     Using radial grid of  721 points,  4 beta functions with: 
                l(1) =   0
                l(2) =   0
                l(3) =   1
                l(4) =   1
     Q(r) pseudized with  8 coefficients,  rinner =    0.800   0.800   0.800


     PseudoPot. # 2 for H  read from file:
     /storage/coda1/p-amedford6/0/shared/rich_project_chbe-medford/medford-share/data/pseudos_module/espresso/nninc/pbe/van/H.UPF
     MD5 check sum: b5ee9d7bfd3a09ee7748110bda690ff7
     Pseudo is Ultrasoft, Zval =  1.0
     Generated by new atomic code, or converted to UPF format
     Using radial grid of  615 points,  1 beta functions with: 
                l(1) =   0
     Q(r) pseudized with  8 coefficients,  rinner =    0.800

     PseudoPot. # 3 for O  read from file:
     /storage/coda1/p-amedford6/0/shared/rich_project_chbe-medford/medford-share/data/pseudos_module/espresso/nninc/pbe/van/O.UPF
     MD5 check sum: 78c19812648e8988a0fe644b0f25305e
     Pseudo is Ultrasoft, Zval =  6.0
     Generated by new atomic code, or converted to UPF format
     Using radial grid of  737 points,  4 beta functions with: 
                l(1) =   0
                l(2) =   0
                l(3) =   1
                l(4) =   1
     Q(r) pseudized with  8 coefficients,  rinner =    0.800   0.800   0.800


     PseudoPot. # 4 for Ti read from file:
     /storage/coda1/p-amedford6/0/shared/rich_project_chbe-medford/medford-share/data/pseudos_module/espresso/nninc/pbe/van/Ti.UPF
     MD5 check sum: 8e4df49b7f0d34bbd5052bf3f5ea0213
     Pseudo is Ultrasoft, Zval = 12.0
     Generated by new atomic code, or converted to UPF format
     Using radial grid of  851 points,  6 beta functions with: 
                l(1) =   0
                l(2) =   0
                l(3) =   1
                l(4) =   1
                l(5) =   2
                l(6) =   2
     Q(r) pseudized with  8 coefficients,  rinner =    1.000   1.000   1.000
                                                       1.000   1.000

     PseudoPot. # 5 for N  read from file:
     /storage/coda1/p-amedford6/0/shared/rich_project_chbe-medford/medford-share/data/pseudos_module/espresso/nninc/pbe/van/N.UPF
     MD5 check sum: 90d10febe142ad51ac9d5be1deb811c4
     Pseudo is Ultrasoft, Zval =  5.0
     Generated by new atomic code, or converted to UPF format
     Using radial grid of  729 points,  4 beta functions with: 
                l(1) =   0
                l(2) =   0
                l(3) =   1
                l(4) =   1
     Q(r) pseudized with  8 coefficients,  rinner =    0.800   0.800   0.800


     atomic species   valence    mass     pseudopotential
        C1             4.00    12.01100     C ( 1.00)
        H1             1.00     1.00800     H ( 1.00)
        O1             6.00    15.99900     O ( 1.00)
        Ti1           12.00    47.86700     Ti( 1.00)
        N1             5.00    14.00700     N ( 1.00)

     No symmetry found



   Cartesian axes

     site n.     atom                  positions (alat units)
         1           C1  tau(   1) = (   4.4694424   3.1333252  19.5683752  )
         2           H1  tau(   2) = (   3.5225350   3.1610456  19.0510688  )
         3           H1  tau(   3) = (   5.8501665   2.9975095  17.9951248  )
         4           H1  tau(   4) = (   4.8161173   2.2403860  20.0673745  )
         5           O1  tau(   5) = (   0.0006271   0.0005054   7.9858123  )
         6           O1  tau(   6) = (   3.2906025   0.0005020   7.3038282  )
         7           O1  tau(   7) = (   4.5942328   1.4918067   9.2879030  )
         8           O1  tau(   8) = (   1.9868534   1.4903216   9.2879459  )
         9           O1  tau(   9) = (   3.2658522   0.0207364  11.3165592  )
        10           O1  tau(  10) = (   0.0022773   0.0111808  10.5833539  )
        11           O1  tau(  11) = (   1.2584498   1.5025451  12.6333345  )
        12           O1  tau(  12) = (   5.2827793   1.4879884  12.6049259  )
        13           O1  tau(  13) = (   6.5229081   0.0016576  14.6697044  )
        14           O1  tau(  14) = (   3.2671471   5.9223268  13.9212949  )
        15           O1  tau(  15) = (   4.5038562   1.5078053  16.0770842  )
        16           O1  tau(  16) = (   1.9713840   1.5400684  15.9915579  )
        17           O1  tau(  17) = (   3.2904802   0.0005063   4.7018136  )
        18           O1  tau(  18) = (   0.0083768   5.9574009  17.1899481  )
        19           O1  tau(  19) = (   1.3043587   1.4918075   6.0039043  )
        20           O1  tau(  20) = (   5.2767064   1.4903225   6.0039473  )
        21           O1  tau(  21) = (   0.0002396   2.9813036   7.9858123  )
        22           O1  tau(  22) = (   3.2902150   2.9813002   7.3038282  )
        23           O1  tau(  23) = (   4.5938453   4.4726049   9.2879030  )
        24           O1  tau(  24) = (   1.9864658   4.4711199   9.2879459  )
        25           O1  tau(  25) = (   3.2699439   2.9592623  11.2883102  )
        26           O1  tau(  26) = (   0.0014687   2.9942081  10.5424492  )
        27           O1  tau(  27) = (   1.2624719   4.4656417  12.6394791  )
        28           O1  tau(  28) = (   5.2897987   4.4902883  12.6063686  )
        29           O1  tau(  29) = (   6.5205774   2.9949485  14.6561412  )
        30           O1  tau(  30) = (   3.3050662   2.9767913  13.8748461  )
        31           O1  tau(  31) = (   4.4950179   4.4323158  16.0974573  )
        32           O1  tau(  32) = (   1.9671975   4.4064719  15.9829847  )
        33           O1  tau(  33) = (   3.2900926   2.9813045   4.7018136  )
        34           O1  tau(  34) = (   1.3039711   4.4726057   6.0039043  )
        35           O1  tau(  35) = (   5.2763189   4.4711207   6.0039473  )
        36           O1  tau(  36) = (   6.5424668   2.9800173  17.2949776  )
        37           Ti1 tau(  37) = (   0.0004258   2.9801865   6.0000000  )
        38           Ti1 tau(  38) = (   3.2906075   1.4906267   6.0002472  )
        39           Ti1 tau(  39) = (   3.3167600   3.1006338   9.2159236  )
        40           Ti1 tau(  40) = (   0.0391818   1.5627686   9.3440282  )
        41           Ti1 tau(  41) = (   6.5783755   3.0458713  12.7937554  )
        42           Ti1 tau(  42) = (   3.2318486   1.5634082  12.4209175  )
        43           Ti1 tau(  43) = (   3.2670811   2.9501284  15.6494465  )
        44           Ti1 tau(  44) = (   0.0280251   1.4030395  16.0254105  )
        45           Ti1 tau(  45) = (   0.0000382   5.9609847   6.0000000  )
        46           Ti1 tau(  46) = (   3.2902200   4.4714249   6.0002472  )
        47           Ti1 tau(  47) = (   3.3194908   0.1157174   9.1781592  )
        48           Ti1 tau(  48) = (   0.0398790   4.5135925   9.3581580  )
        49           Ti1 tau(  49) = (   6.5007586   0.0629955  12.6074658  )
        50           Ti1 tau(  50) = (   3.2410718   4.6571100  12.6672192  )
        51           Ti1 tau(  51) = (   3.3282601   5.9350673  16.2366838  )
        52           Ti1 tau(  52) = (   0.0495319   4.5308688  15.9870001  )
        53           N1  tau(  53) = (   5.2748021   5.2735043  20.4272172  )
        54           N1  tau(  54) = (   4.8779203   4.2732533  20.0576380  )
        55           O1  tau(  55) = (   3.0402417   5.9484128  18.0530970  )
        56           H1  tau(  56) = (   2.1234608   0.1014992  18.3542784  )

     number of k points=    10  Fermi-Dirac smearing, width (Ry)=  0.0073
                       cart. coord. in units 2pi/alat
        k(    1) = (   0.0000000   0.0000000   0.0000000), wk =   0.1250000
        k(    2) = (   0.0000000   0.0419351   0.0000000), wk =   0.2500000
        k(    3) = (   0.0000000  -0.0838702   0.0000000), wk =   0.1250000
        k(    4) = (   0.0379955   0.0000049   0.0000000), wk =   0.2500000
        k(    5) = (   0.0379955   0.0419400   0.0000000), wk =   0.2500000
        k(    6) = (   0.0379955  -0.0838652   0.0000000), wk =   0.2500000
        k(    7) = (   0.0379955  -0.0419301   0.0000000), wk =   0.2500000
        k(    8) = (  -0.0759910  -0.0000099   0.0000000), wk =   0.1250000
        k(    9) = (  -0.0759910   0.0419252   0.0000000), wk =   0.2500000
        k(   10) = (  -0.0759910  -0.0838800   0.0000000), wk =   0.1250000

     Dense  grid:   566857 G-vectors     FFT dimensions: (  72,  64, 270)

     Smooth grid:   143421 G-vectors     FFT dimensions: (  45,  40, 180)

     Estimated max dynamical RAM per process >     462.28 MB

     Estimated total dynamical RAM >       3.61 GB
     Cannot read rho : file not found

     Initial potential from superposition of free atoms

     starting charge  391.99915, renormalised to  408.00000

     negative rho (up, down):  1.413E-02 0.000E+00


     %%%%%%%%%%%%%%%%%%%%%%%%%%%%%%%%%%%%%%%%%%%%%%%%%%%%%%%%%%%%%%%%%%%%%%%%
     %                                                                      %
     % You are using vdW-DF, which was implemented by the Thonhauser group. %
     % Please cite the following two papers that made this development      %
     % possible and the two reviews that describe the various versions:     %
     %                                                                      %
     %   T. Thonhauser et al., PRL 115, 136402 (2015).                      %
     %   T. Thonhauser et al., PRB 76, 125112 (2007).                       %
     %   K. Berland et al., Rep. Prog. Phys. 78, 066501 (2015).             %
     %   D.C. Langreth et al., J. Phys.: Condens. Matter 21, 084203 (2009). %
     %                                                                      %
     %                                                                      %
     % If you are calculating the stress with vdW-DF, please also cite:     %
     %                                                                      %
     %   R. Sabatini et al., J. Phys.: Condens. Matter 24, 424209 (2012).   %
     %                                                                      %
     %%%%%%%%%%%%%%%%%%%%%%%%%%%%%%%%%%%%%%%%%%%%%%%%%%%%%%%%%%%%%%%%%%%%%%%%


 
     Adding external electric field

     Computed dipole along edir(3) : 
        Dipole              -15.5929 Ry au,        -39.6331 Debye
        Dipole field         -0.0294 Ry au, 
 
        Potential amp.        2.7277 Ry
        Total length         46.3494 bohr
 
     Starting wfcs are  308 atomic wfcs
  @ DRIVER MODE: Message from server: STATUS
  @ DRIVER MODE: Message from server: POSDATA
  @ DRIVER MODE: Reading and sharing cell 
  @ DRIVER MODE: Reading and sharing positions 
  @ DRIVER MODE: Received positions 

     total cpu time spent up to now is       21.6 secs

     Self-consistent Calculation

     iteration #  1     ecut=    29.40 Ry     beta= 0.05
     Davidson diagonalization with overlap
     c_bands:  3 eigenvalues not converged
     c_bands:  1 eigenvalues not converged
     c_bands:  1 eigenvalues not converged
     c_bands:  4 eigenvalues not converged
     c_bands:  2 eigenvalues not converged
     ethr =  1.00E-05,  avg # of iterations = 30.0

     negative rho (up, down):  7.954E-03 0.000E+00
 
     Adding external electric field

     Computed dipole along edir(3) : 
        Dipole               61.2084 Ry au,        155.5763 Debye
        Dipole field          0.1155 Ry au, 
 
        Potential amp.      -10.7075 Ry
        Total length         46.3494 bohr
 

     total cpu time spent up to now is      125.8 secs

     total energy              =   -2234.24916390 Ry
     estimated scf accuracy    <    8817.72083788 Ry

     iteration #  2     ecut=    29.40 Ry     beta= 0.05
     Davidson diagonalization with overlap
     ethr =  1.00E-02,  avg # of iterations = 33.1

     negative rho (up, down):  2.176E-04 0.000E+00
 
     Adding external electric field

     Computed dipole along edir(3) : 
        Dipole                0.3757 Ry au,          0.9550 Debye
        Dipole field          0.0007 Ry au, 
 
        Potential amp.       -0.0657 Ry
        Total length         46.3494 bohr
 

     total cpu time spent up to now is      248.1 secs

     total energy              =   -2456.94841770 Ry
     estimated scf accuracy    <   80275.78880258 Ry

     iteration #  3     ecut=    29.40 Ry     beta= 0.05
     Davidson diagonalization with overlap
     ethr =  1.00E-02,  avg # of iterations = 17.0

     negative rho (up, down):  2.574E-04 0.000E+00
 
     Adding external electric field

     Computed dipole along edir(3) : 
        Dipole               -3.0737 Ry au,         -7.8127 Debye
        Dipole field         -0.0058 Ry au, 
 
        Potential amp.        0.5377 Ry
        Total length         46.3494 bohr
 

     total cpu time spent up to now is      311.5 secs

     total energy              =   -2994.33167034 Ry
     estimated scf accuracy    <    8071.21994346 Ry

     iteration #  4     ecut=    29.40 Ry     beta= 0.05
     Davidson diagonalization with overlap
     ethr =  1.00E-02,  avg # of iterations = 12.1

     negative rho (up, down):  2.674E-04 0.000E+00
 
     Adding external electric field

     Computed dipole along edir(3) : 
        Dipole               -4.4951 Ry au,        -11.4255 Debye
        Dipole field         -0.0085 Ry au, 
 
        Potential amp.        0.7864 Ry
        Total length         46.3494 bohr
 

     total cpu time spent up to now is      343.1 secs

     total energy              =   -3003.35186934 Ry
     estimated scf accuracy    <    2233.25282782 Ry

     iteration #  5     ecut=    29.40 Ry     beta= 0.05
     Davidson diagonalization with overlap
     ethr =  1.00E-02,  avg # of iterations =  3.2

     negative rho (up, down):  2.978E-04 0.000E+00
 
     Adding external electric field

     Computed dipole along edir(3) : 
        Dipole               -6.7230 Ry au,        -17.0883 Debye
        Dipole field         -0.0127 Ry au, 
 
        Potential amp.        1.1761 Ry
        Total length         46.3494 bohr
 

     total cpu time spent up to now is      357.4 secs

     total energy              =   -2969.98900777 Ry
     estimated scf accuracy    <    2078.87002312 Ry

     iteration #  6     ecut=    29.40 Ry     beta= 0.05
     Davidson diagonalization with overlap
     ethr =  1.00E-02,  avg # of iterations = 14.0

     negative rho (up, down):  2.953E-04 0.000E+00
 
     Adding external electric field

     Computed dipole along edir(3) : 
        Dipole               -5.3699 Ry au,        -13.6490 Debye
        Dipole field         -0.0101 Ry au, 
 
        Potential amp.        0.9394 Ry
        Total length         46.3494 bohr
 

     total cpu time spent up to now is      391.9 secs

     total energy              =   -3009.87740951 Ry
     estimated scf accuracy    <      32.79759451 Ry

     iteration #  7     ecut=    29.40 Ry     beta= 0.05
     Davidson diagonalization with overlap
     ethr =  8.04E-03,  avg # of iterations =  1.8

     negative rho (up, down):  3.005E-04 0.000E+00
 
     Adding external electric field

     Computed dipole along edir(3) : 
        Dipole               -3.8821 Ry au,         -9.8673 Debye
        Dipole field         -0.0073 Ry au, 
 
        Potential amp.        0.6791 Ry
        Total length         46.3494 bohr
 

     total cpu time spent up to now is      405.6 secs

     total energy              =   -3008.86897704 Ry
     estimated scf accuracy    <      22.25555694 Ry

     iteration #  8     ecut=    29.40 Ry     beta= 0.05
     Davidson diagonalization with overlap
     ethr =  5.45E-03,  avg # of iterations =  4.3

     negative rho (up, down):  3.490E-04 0.000E+00
 
     Adding external electric field

     Computed dipole along edir(3) : 
        Dipole                1.5099 Ry au,          3.8378 Debye
        Dipole field          0.0028 Ry au, 
 
        Potential amp.       -0.2641 Ry
        Total length         46.3494 bohr
 

     total cpu time spent up to now is      420.2 secs

     total energy              =   -3006.29646708 Ry
     estimated scf accuracy    <      18.49504605 Ry

     iteration #  9     ecut=    29.40 Ry     beta= 0.05
     Davidson diagonalization with overlap
     ethr =  4.53E-03,  avg # of iterations = 15.5

     negative rho (up, down):  3.643E-04 0.000E+00
 
     Adding external electric field

     Computed dipole along edir(3) : 
        Dipole               -0.0621 Ry au,         -0.1579 Debye
        Dipole field         -0.0001 Ry au, 
 
        Potential amp.        0.0109 Ry
        Total length         46.3494 bohr
 

     total cpu time spent up to now is      450.5 secs

     total energy              =   -3023.04946843 Ry
     estimated scf accuracy    <    3637.56205212 Ry

     iteration # 10     ecut=    29.40 Ry     beta= 0.05
     Davidson diagonalization with overlap
     ethr =  4.53E-03,  avg # of iterations =  1.4

     negative rho (up, down):  4.309E-04 0.000E+00
 
     Adding external electric field

     Computed dipole along edir(3) : 
        Dipole                2.1717 Ry au,          5.5200 Debye
        Dipole field          0.0041 Ry au, 
 
        Potential amp.       -0.3799 Ry
        Total length         46.3494 bohr
 

     total cpu time spent up to now is      463.7 secs

     total energy              =   -3044.46996249 Ry
     estimated scf accuracy    <    3160.13624340 Ry

     iteration # 11     ecut=    29.40 Ry     beta= 0.05
     Davidson diagonalization with overlap
     ethr =  4.53E-03,  avg # of iterations =  1.1

     negative rho (up, down):  5.914E-04 0.000E+00
 
     Adding external electric field

     Computed dipole along edir(3) : 
        Dipole                0.8136 Ry au,          2.0679 Debye
        Dipole field          0.0015 Ry au, 
 
        Potential amp.       -0.1423 Ry
        Total length         46.3494 bohr
 

     total cpu time spent up to now is      476.7 secs

     total energy              =   -3008.42418810 Ry
     estimated scf accuracy    <    3571.09207672 Ry

     iteration # 12     ecut=    29.40 Ry     beta= 0.05
     Davidson diagonalization with overlap
     ethr =  4.53E-03,  avg # of iterations = 11.6

     negative rho (up, down):  5.932E-04 0.000E+00
 
     Adding external electric field

     Computed dipole along edir(3) : 
        Dipole                0.3782 Ry au,          0.9614 Debye
        Dipole field          0.0007 Ry au, 
 
        Potential amp.       -0.0662 Ry
        Total length         46.3494 bohr
 

     total cpu time spent up to now is      509.2 secs

     total energy              =   -3012.16707045 Ry
     estimated scf accuracy    <    1701.87923056 Ry

     iteration # 13     ecut=    29.40 Ry     beta= 0.05
     Davidson diagonalization with overlap
     ethr =  4.53E-03,  avg # of iterations =  1.1

     negative rho (up, down):  6.100E-04 0.000E+00
 
     Adding external electric field

     Computed dipole along edir(3) : 
        Dipole                0.0168 Ry au,          0.0428 Debye
        Dipole field          0.0000 Ry au, 
 
        Potential amp.       -0.0029 Ry
        Total length         46.3494 bohr
 

     total cpu time spent up to now is      522.1 secs

     total energy              =   -3009.04907198 Ry
     estimated scf accuracy    <    1670.72023335 Ry

     iteration # 14     ecut=    29.40 Ry     beta= 0.05
     Davidson diagonalization with overlap
     ethr =  4.53E-03,  avg # of iterations =  2.0

     negative rho (up, down):  6.283E-04 0.000E+00
 
     Adding external electric field

     Computed dipole along edir(3) : 
        Dipole               -1.6924 Ry au,         -4.3017 Debye
        Dipole field         -0.0032 Ry au, 
 
        Potential amp.        0.2961 Ry
        Total length         46.3494 bohr
 

     total cpu time spent up to now is      535.5 secs

     total energy              =   -2992.12055824 Ry
     estimated scf accuracy    <    1603.26184617 Ry

     iteration # 15     ecut=    29.40 Ry     beta= 0.05
     Davidson diagonalization with overlap
     ethr =  4.53E-03,  avg # of iterations = 16.2

     negative rho (up, down):  6.271E-04 0.000E+00
 
     Adding external electric field

     Computed dipole along edir(3) : 
        Dipole               -0.2773 Ry au,         -0.7048 Debye
        Dipole field         -0.0005 Ry au, 
 
        Potential amp.        0.0485 Ry
        Total length         46.3494 bohr
 

     total cpu time spent up to now is      566.6 secs

     total energy              =   -3005.36957664 Ry
     estimated scf accuracy    <       4.51452497 Ry

     iteration # 16     ecut=    29.40 Ry     beta= 0.05
     Davidson diagonalization with overlap
     c_bands:  2 eigenvalues not converged
     ethr =  1.11E-03,  avg # of iterations =  8.2

     negative rho (up, down):  6.193E-04 0.000E+00
 
     Adding external electric field

     Computed dipole along edir(3) : 
        Dipole               -0.6309 Ry au,         -1.6035 Debye
        Dipole field         -0.0012 Ry au, 
 
        Potential amp.        0.1104 Ry
        Total length         46.3494 bohr
 

     total cpu time spent up to now is      583.2 secs

     total energy              =   -3005.65381633 Ry
     estimated scf accuracy    <     126.23784739 Ry

     iteration # 17     ecut=    29.40 Ry     beta= 0.05
     Davidson diagonalization with overlap
     ethr =  1.11E-03,  avg # of iterations =  1.3

     negative rho (up, down):  6.262E-04 0.000E+00
 
     Adding external electric field

     Computed dipole along edir(3) : 
        Dipole               -0.1968 Ry au,         -0.5003 Debye
        Dipole field         -0.0004 Ry au, 
 
        Potential amp.        0.0344 Ry
        Total length         46.3494 bohr
 

     total cpu time spent up to now is      597.5 secs

     total energy              =   -3005.92167371 Ry
     estimated scf accuracy    <      45.39064770 Ry

     iteration # 18     ecut=    29.40 Ry     beta= 0.05
     Davidson diagonalization with overlap
     ethr =  1.11E-03,  avg # of iterations =  5.1

     negative rho (up, down):  6.367E-04 0.000E+00
 
     Adding external electric field

     Computed dipole along edir(3) : 
        Dipole               -0.2787 Ry au,         -0.7084 Debye
        Dipole field         -0.0005 Ry au, 
 
        Potential amp.        0.0488 Ry
        Total length         46.3494 bohr
 

     total cpu time spent up to now is      612.3 secs

     total energy              =   -3005.25324084 Ry
     estimated scf accuracy    <     108.45927537 Ry

     iteration # 19     ecut=    29.40 Ry     beta= 0.05
     Davidson diagonalization with overlap
     ethr =  1.11E-03,  avg # of iterations =  4.6

     negative rho (up, down):  6.509E-04 0.000E+00
 
     Adding external electric field

     Computed dipole along edir(3) : 
        Dipole                0.0995 Ry au,          0.2530 Debye
        Dipole field          0.0002 Ry au, 
 
        Potential amp.       -0.0174 Ry
        Total length         46.3494 bohr
 

     total cpu time spent up to now is      627.4 secs

     total energy              =   -3005.83931969 Ry
     estimated scf accuracy    <      15.88226842 Ry

     iteration # 20     ecut=    29.40 Ry     beta= 0.05
     Davidson diagonalization with overlap
     c_bands:  5 eigenvalues not converged
     c_bands:  4 eigenvalues not converged
     ethr =  1.11E-03,  avg # of iterations =  7.5

     negative rho (up, down):  6.619E-04 0.000E+00
 
     Adding external electric field

     Computed dipole along edir(3) : 
        Dipole               -0.5828 Ry au,         -1.4813 Debye
        Dipole field         -0.0011 Ry au, 
 
        Potential amp.        0.1019 Ry
        Total length         46.3494 bohr
 

     total cpu time spent up to now is      643.2 secs

     total energy              =   -3004.93329257 Ry
     estimated scf accuracy    <     145.56198901 Ry

     iteration # 21     ecut=    29.40 Ry     beta= 0.05
     Davidson diagonalization with overlap
     ethr =  1.11E-03,  avg # of iterations =  2.8

     negative rho (up, down):  7.901E-04 0.000E+00
 
     Adding external electric field

     Computed dipole along edir(3) : 
        Dipole               -1.2869 Ry au,         -3.2709 Debye
        Dipole field         -0.0024 Ry au, 
 
        Potential amp.        0.2251 Ry
        Total length         46.3494 bohr
 

     total cpu time spent up to now is      657.4 secs

     total energy              =   -3004.98159101 Ry
     estimated scf accuracy    <       3.10774276 Ry

     iteration # 22     ecut=    29.40 Ry     beta= 0.05
     Davidson diagonalization with overlap
     c_bands:  2 eigenvalues not converged
     ethr =  7.62E-04,  avg # of iterations =  9.6

     negative rho (up, down):  1.179E-03 0.000E+00
 
     Adding external electric field

     Computed dipole along edir(3) : 
        Dipole               -1.3664 Ry au,         -3.4730 Debye
        Dipole field         -0.0026 Ry au, 
 
        Potential amp.        0.2390 Ry
        Total length         46.3494 bohr
 

     total cpu time spent up to now is      675.3 secs

     total energy              =   -3005.16749286 Ry
     estimated scf accuracy    <       0.91261374 Ry

     iteration # 23     ecut=    29.40 Ry     beta= 0.05
     Davidson diagonalization with overlap
     ethr =  2.24E-04,  avg # of iterations = 15.0

     negative rho (up, down):  1.044E-03 0.000E+00
 
     Adding external electric field

     Computed dipole along edir(3) : 
        Dipole               -0.9550 Ry au,         -2.4273 Debye
        Dipole field         -0.0018 Ry au, 
 
        Potential amp.        0.1671 Ry
        Total length         46.3494 bohr
 

     total cpu time spent up to now is      701.8 secs

     total energy              =   -3005.15962130 Ry
     estimated scf accuracy    <      22.76360926 Ry

     iteration # 24     ecut=    29.40 Ry     beta= 0.05
     Davidson diagonalization with overlap
     ethr =  2.24E-04,  avg # of iterations =  2.6

     negative rho (up, down):  9.247E-04 0.000E+00
 
     Adding external electric field

     Computed dipole along edir(3) : 
        Dipole               -0.2566 Ry au,         -0.6523 Debye
        Dipole field         -0.0005 Ry au, 
 
        Potential amp.        0.0449 Ry
        Total length         46.3494 bohr
 

     total cpu time spent up to now is      716.0 secs

     total energy              =   -3004.94474130 Ry
     estimated scf accuracy    <       2.00577663 Ry

     iteration # 25     ecut=    29.40 Ry     beta= 0.05
     Davidson diagonalization with overlap
     c_bands:  1 eigenvalues not converged
     c_bands:  1 eigenvalues not converged
     c_bands:  2 eigenvalues not converged
     c_bands:  3 eigenvalues not converged
     c_bands:  2 eigenvalues not converged
     ethr =  2.24E-04,  avg # of iterations = 21.4

     negative rho (up, down):  1.247E-03 0.000E+00
 
     Adding external electric field

     Computed dipole along edir(3) : 
        Dipole               -0.4479 Ry au,         -1.1385 Debye
        Dipole field         -0.0008 Ry au, 
 
        Potential amp.        0.0784 Ry
        Total length         46.3494 bohr
 

     total cpu time spent up to now is      745.2 secs

     total energy              =   -3005.11456110 Ry
     estimated scf accuracy    <       0.64355698 Ry

     iteration # 26     ecut=    29.40 Ry     beta= 0.05
     Davidson diagonalization with overlap
     c_bands:  2 eigenvalues not converged
     ethr =  1.58E-04,  avg # of iterations = 12.6

     negative rho (up, down):  1.568E-03 0.000E+00
 
     Adding external electric field

     Computed dipole along edir(3) : 
        Dipole               -0.1621 Ry au,         -0.4121 Debye
        Dipole field         -0.0003 Ry au, 
 
        Potential amp.        0.0284 Ry
        Total length         46.3494 bohr
 

     total cpu time spent up to now is      783.2 secs

     total energy              =   -3005.18609670 Ry
     estimated scf accuracy    <       0.77387045 Ry

     iteration # 27     ecut=    29.40 Ry     beta= 0.05
     Davidson diagonalization with overlap
     ethr =  1.58E-04,  avg # of iterations =  2.0

     negative rho (up, down):  2.078E-03 0.000E+00
 
     Adding external electric field

     Computed dipole along edir(3) : 
        Dipole                0.2416 Ry au,          0.6140 Debye
        Dipole field          0.0005 Ry au, 
 
        Potential amp.       -0.0423 Ry
        Total length         46.3494 bohr
 

     total cpu time spent up to now is      797.2 secs

     total energy              =   -3005.09169051 Ry
     estimated scf accuracy    <       0.46354553 Ry

     iteration # 28     ecut=    29.40 Ry     beta= 0.05
     Davidson diagonalization with overlap
     ethr =  1.14E-04,  avg # of iterations =  9.0

     negative rho (up, down):  2.120E-03 0.000E+00
 
     Adding external electric field

     Computed dipole along edir(3) : 
        Dipole                0.2607 Ry au,          0.6626 Debye
        Dipole field          0.0005 Ry au, 
 
        Potential amp.       -0.0456 Ry
        Total length         46.3494 bohr
 

     total cpu time spent up to now is      816.0 secs

     total energy              =   -3005.15614575 Ry
     estimated scf accuracy    <       0.11505043 Ry

     iteration # 29     ecut=    29.40 Ry     beta= 0.05
     Davidson diagonalization with overlap
     c_bands:  1 eigenvalues not converged
     c_bands:  2 eigenvalues not converged
     ethr =  2.82E-05,  avg # of iterations = 14.5

     negative rho (up, down):  2.335E-03 0.000E+00
 
     Adding external electric field

     Computed dipole along edir(3) : 
        Dipole                0.2682 Ry au,          0.6816 Debye
        Dipole field          0.0005 Ry au, 
 
        Potential amp.       -0.0469 Ry
        Total length         46.3494 bohr
 

     total cpu time spent up to now is      836.5 secs

     total energy              =   -3005.15485776 Ry
     estimated scf accuracy    <       0.10535229 Ry

     iteration # 30     ecut=    29.40 Ry     beta= 0.05
     Davidson diagonalization with overlap
     ethr =  2.58E-05,  avg # of iterations =  6.9

     negative rho (up, down):  3.460E-03 0.000E+00
 
     Adding external electric field

     Computed dipole along edir(3) : 
        Dipole                0.6429 Ry au,          1.6340 Debye
        Dipole field          0.0012 Ry au, 
 
        Potential amp.       -0.1125 Ry
        Total length         46.3494 bohr
 

     total cpu time spent up to now is      854.9 secs

     total energy              =   -3005.13175758 Ry
     estimated scf accuracy    <       0.15563407 Ry

     iteration # 31     ecut=    29.40 Ry     beta= 0.05
     Davidson diagonalization with overlap
     c_bands:  3 eigenvalues not converged
     ethr =  2.58E-05,  avg # of iterations = 11.7

     negative rho (up, down):  4.034E-03 0.000E+00
 
     Adding external electric field

     Computed dipole along edir(3) : 
        Dipole                0.5850 Ry au,          1.4869 Debye
        Dipole field          0.0011 Ry au, 
 
        Potential amp.       -0.1023 Ry
        Total length         46.3494 bohr
 

     total cpu time spent up to now is      879.5 secs

     total energy              =   -3005.15979035 Ry
     estimated scf accuracy    <       0.06137132 Ry

     iteration # 32     ecut=    29.40 Ry     beta= 0.05
     Davidson diagonalization with overlap
     c_bands:  1 eigenvalues not converged
     c_bands:  1 eigenvalues not converged
     ethr =  1.50E-05,  avg # of iterations =  8.2

     negative rho (up, down):  5.191E-03 0.000E+00
 
     Adding external electric field

     Computed dipole along edir(3) : 
        Dipole                0.5118 Ry au,          1.3008 Debye
        Dipole field          0.0010 Ry au, 
 
        Potential amp.       -0.0895 Ry
        Total length         46.3494 bohr
 

     total cpu time spent up to now is      896.6 secs

     total energy              =   -3005.15387450 Ry
     estimated scf accuracy    <       0.06436645 Ry

     iteration # 33     ecut=    29.40 Ry     beta= 0.05
     Davidson diagonalization with overlap
     c_bands:  2 eigenvalues not converged
     c_bands:  2 eigenvalues not converged
     c_bands:  3 eigenvalues not converged
     c_bands:  4 eigenvalues not converged
     c_bands:  2 eigenvalues not converged
     c_bands:  4 eigenvalues not converged
     c_bands:  1 eigenvalues not converged
     c_bands:  2 eigenvalues not converged
     ethr =  1.50E-05,  avg # of iterations = 19.0

     negative rho (up, down):  6.275E-03 0.000E+00
 
     Adding external electric field

     Computed dipole along edir(3) : 
        Dipole                0.5227 Ry au,          1.3285 Debye
        Dipole field          0.0010 Ry au, 
 
        Potential amp.       -0.0914 Ry
        Total length         46.3494 bohr
 

     total cpu time spent up to now is      920.1 secs

     total energy              =   -3005.14848498 Ry
     estimated scf accuracy    <       0.02856891 Ry

     iteration # 34     ecut=    29.40 Ry     beta= 0.05
     Davidson diagonalization with overlap
     c_bands:  1 eigenvalues not converged
     c_bands:  3 eigenvalues not converged
     c_bands:  2 eigenvalues not converged
     c_bands:  3 eigenvalues not converged
     c_bands:  3 eigenvalues not converged
     c_bands:  4 eigenvalues not converged
     c_bands:  2 eigenvalues not converged
     ethr =  7.00E-06,  avg # of iterations = 17.8

     negative rho (up, down):  6.337E-03 0.000E+00
 
     Adding external electric field

     Computed dipole along edir(3) : 
        Dipole                0.4522 Ry au,          1.1495 Debye
        Dipole field          0.0009 Ry au, 
 
        Potential amp.       -0.0791 Ry
        Total length         46.3494 bohr
 

     total cpu time spent up to now is      952.4 secs

     total energy              =   -3005.15918808 Ry
     estimated scf accuracy    <       0.04584825 Ry

     iteration # 35     ecut=    29.40 Ry     beta= 0.05
     Davidson diagonalization with overlap
     c_bands:  1 eigenvalues not converged
     ethr =  7.00E-06,  avg # of iterations =  6.3

     negative rho (up, down):  7.942E-03 0.000E+00
 
     Adding external electric field

     Computed dipole along edir(3) : 
        Dipole                0.3614 Ry au,          0.9187 Debye
        Dipole field          0.0007 Ry au, 
 
        Potential amp.       -0.0632 Ry
        Total length         46.3494 bohr
 

     total cpu time spent up to now is      967.8 secs

     total energy              =   -3005.15077385 Ry
     estimated scf accuracy    <       0.03168477 Ry

     iteration # 36     ecut=    29.40 Ry     beta= 0.05
     Davidson diagonalization with overlap
     c_bands:  2 eigenvalues not converged
     c_bands:  2 eigenvalues not converged
     ethr =  7.00E-06,  avg # of iterations = 12.4

     negative rho (up, down):  8.313E-03 0.000E+00
 
     Adding external electric field

     Computed dipole along edir(3) : 
        Dipole                0.4471 Ry au,          1.1365 Debye
        Dipole field          0.0008 Ry au, 
 
        Potential amp.       -0.0782 Ry
        Total length         46.3494 bohr
 

     total cpu time spent up to now is      993.0 secs

     total energy              =   -3005.15726363 Ry
     estimated scf accuracy    <       0.00755136 Ry

     iteration # 37     ecut=    29.40 Ry     beta= 0.05
     Davidson diagonalization with overlap
     c_bands:  2 eigenvalues not converged
     c_bands:  1 eigenvalues not converged
     c_bands:  1 eigenvalues not converged
     c_bands:  1 eigenvalues not converged
     ethr =  1.85E-06,  avg # of iterations = 13.1

     negative rho (up, down):  9.285E-03 0.000E+00
 
     Adding external electric field

     Computed dipole along edir(3) : 
        Dipole                0.5382 Ry au,          1.3680 Debye
        Dipole field          0.0010 Ry au, 
 
        Potential amp.       -0.0942 Ry
        Total length         46.3494 bohr
 

     total cpu time spent up to now is     1012.0 secs

     total energy              =   -3005.15736189 Ry
     estimated scf accuracy    <       0.00416884 Ry

     iteration # 38     ecut=    29.40 Ry     beta= 0.05
     Davidson diagonalization with overlap
     c_bands:  1 eigenvalues not converged
     ethr =  1.02E-06,  avg # of iterations = 11.9

     negative rho (up, down):  1.207E-02 0.000E+00
 
     Adding external electric field

     Computed dipole along edir(3) : 
        Dipole                0.5042 Ry au,          1.2816 Debye
        Dipole field          0.0010 Ry au, 
 
        Potential amp.       -0.0882 Ry
        Total length         46.3494 bohr
 

     total cpu time spent up to now is     1036.2 secs

     total energy              =   -3005.15786373 Ry
     estimated scf accuracy    <       0.00320034 Ry

     iteration # 39     ecut=    29.40 Ry     beta= 0.05
     Davidson diagonalization with overlap
     ethr =  7.84E-07,  avg # of iterations =  4.4

     negative rho (up, down):  1.351E-02 0.000E+00
 
     Adding external electric field

     Computed dipole along edir(3) : 
        Dipole                0.4831 Ry au,          1.2279 Debye
        Dipole field          0.0009 Ry au, 
 
        Potential amp.       -0.0845 Ry
        Total length         46.3494 bohr
 

     total cpu time spent up to now is     1051.7 secs

     total energy              =   -3005.15813957 Ry
     estimated scf accuracy    <       0.00070276 Ry

     iteration # 40     ecut=    29.40 Ry     beta= 0.05
     Davidson diagonalization with overlap
     ethr =  1.72E-07,  avg # of iterations =  6.8

     negative rho (up, down):  1.340E-02 0.000E+00
 
     Adding external electric field

     Computed dipole along edir(3) : 
        Dipole                0.4784 Ry au,          1.2160 Debye
        Dipole field          0.0009 Ry au, 
 
        Potential amp.       -0.0837 Ry
        Total length         46.3494 bohr
 

     total cpu time spent up to now is     1074.0 secs

     total energy              =   -3005.15846879 Ry
     estimated scf accuracy    <       0.00048311 Ry

     iteration # 41     ecut=    29.40 Ry     beta= 0.05
     Davidson diagonalization with overlap
     ethr =  1.18E-07,  avg # of iterations =  2.0

     negative rho (up, down):  1.438E-02 0.000E+00
 
     Adding external electric field

     Computed dipole along edir(3) : 
        Dipole                0.4752 Ry au,          1.2078 Debye
        Dipole field          0.0009 Ry au, 
 
        Potential amp.       -0.0831 Ry
        Total length         46.3494 bohr
 

     total cpu time spent up to now is     1088.1 secs

     total energy              =   -3005.15852563 Ry
     estimated scf accuracy    <       0.00074236 Ry

     iteration # 42     ecut=    29.40 Ry     beta= 0.05
     Davidson diagonalization with overlap
     ethr =  1.18E-07,  avg # of iterations =  5.0

     negative rho (up, down):  1.479E-02 0.000E+00
 
     Adding external electric field

     Computed dipole along edir(3) : 
        Dipole                0.4821 Ry au,          1.2254 Debye
        Dipole field          0.0009 Ry au, 
 
        Potential amp.       -0.0843 Ry
        Total length         46.3494 bohr
 

     total cpu time spent up to now is     1105.3 secs

     total energy              =   -3005.15853889 Ry
     estimated scf accuracy    <       0.00088552 Ry

     iteration # 43     ecut=    29.40 Ry     beta= 0.05
     Davidson diagonalization with overlap
     ethr =  1.18E-07,  avg # of iterations =  4.8

     negative rho (up, down):  1.487E-02 0.000E+00
 
     Adding external electric field

     Computed dipole along edir(3) : 
        Dipole                0.5026 Ry au,          1.2774 Debye
        Dipole field          0.0009 Ry au, 
 
        Potential amp.       -0.0879 Ry
        Total length         46.3494 bohr
 

     total cpu time spent up to now is     1123.5 secs

     total energy              =   -3005.15852097 Ry
     estimated scf accuracy    <       0.00086743 Ry

     iteration # 44     ecut=    29.40 Ry     beta= 0.05
     Davidson diagonalization with overlap
     ethr =  1.18E-07,  avg # of iterations =  4.5

     negative rho (up, down):  1.490E-02 0.000E+00
 
     Adding external electric field

     Computed dipole along edir(3) : 
        Dipole                0.5161 Ry au,          1.3117 Debye
        Dipole field          0.0010 Ry au, 
 
        Potential amp.       -0.0903 Ry
        Total length         46.3494 bohr
 

     total cpu time spent up to now is     1138.8 secs

     total energy              =   -3005.15851438 Ry
     estimated scf accuracy    <       0.00034535 Ry

     iteration # 45     ecut=    29.40 Ry     beta= 0.05
     Davidson diagonalization with overlap
     ethr =  8.46E-08,  avg # of iterations =  6.0

     negative rho (up, down):  1.503E-02 0.000E+00
 
     Adding external electric field

     Computed dipole along edir(3) : 
        Dipole                0.5017 Ry au,          1.2753 Debye
        Dipole field          0.0009 Ry au, 
 
        Potential amp.       -0.0878 Ry
        Total length         46.3494 bohr
 

     total cpu time spent up to now is     1159.0 secs

     total energy              =   -3005.15858617 Ry
     estimated scf accuracy    <       0.00022533 Ry

     iteration # 46     ecut=    29.40 Ry     beta= 0.05
     Davidson diagonalization with overlap
     ethr =  5.52E-08,  avg # of iterations =  5.1

     negative rho (up, down):  1.477E-02 0.000E+00
 
     Adding external electric field

     Computed dipole along edir(3) : 
        Dipole                0.5012 Ry au,          1.2740 Debye
        Dipole field          0.0009 Ry au, 
 
        Potential amp.       -0.0877 Ry
        Total length         46.3494 bohr
 

     total cpu time spent up to now is     1176.2 secs

     total energy              =   -3005.15864046 Ry
     estimated scf accuracy    <       0.00009496 Ry

     iteration # 47     ecut=    29.40 Ry     beta= 0.05
     Davidson diagonalization with overlap
     ethr =  2.33E-08,  avg # of iterations =  5.0

     negative rho (up, down):  1.484E-02 0.000E+00
 
     Adding external electric field

     Computed dipole along edir(3) : 
        Dipole                0.5024 Ry au,          1.2769 Debye
        Dipole field          0.0009 Ry au, 
 
        Potential amp.       -0.0879 Ry
        Total length         46.3494 bohr
 

     total cpu time spent up to now is     1194.2 secs

     total energy              =   -3005.15867463 Ry
     estimated scf accuracy    <       0.00007553 Ry

     iteration # 48     ecut=    29.40 Ry     beta= 0.05
     Davidson diagonalization with overlap
     ethr =  1.85E-08,  avg # of iterations =  5.0

     negative rho (up, down):  1.486E-02 0.000E+00
 
     Adding external electric field

     Computed dipole along edir(3) : 
        Dipole                0.5017 Ry au,          1.2752 Debye
        Dipole field          0.0009 Ry au, 
 
        Potential amp.       -0.0878 Ry
        Total length         46.3494 bohr
 

     total cpu time spent up to now is     1209.9 secs

     total energy              =   -3005.15869669 Ry
     estimated scf accuracy    <       0.00006614 Ry

     iteration # 49     ecut=    29.40 Ry     beta= 0.05
     Davidson diagonalization with overlap
     ethr =  1.62E-08,  avg # of iterations =  4.8

     negative rho (up, down):  1.463E-02 0.000E+00
 
     Adding external electric field

     Computed dipole along edir(3) : 
        Dipole                0.4999 Ry au,          1.2707 Debye
        Dipole field          0.0009 Ry au, 
 
        Potential amp.       -0.0875 Ry
        Total length         46.3494 bohr
 

     total cpu time spent up to now is     1229.3 secs

     total energy              =   -3005.15870955 Ry
     estimated scf accuracy    <       0.00008627 Ry

     iteration # 50     ecut=    29.40 Ry     beta= 0.05
     Davidson diagonalization with overlap
     ethr =  1.62E-08,  avg # of iterations =  4.6

     negative rho (up, down):  1.471E-02 0.000E+00
 
     Adding external electric field

     Computed dipole along edir(3) : 
        Dipole                0.4987 Ry au,          1.2675 Debye
        Dipole field          0.0009 Ry au, 
 
        Potential amp.       -0.0872 Ry
        Total length         46.3494 bohr
 

     total cpu time spent up to now is     1246.7 secs

     total energy              =   -3005.15873712 Ry
     estimated scf accuracy    <       0.00002034 Ry

     iteration # 51     ecut=    29.40 Ry     beta= 0.05
     Davidson diagonalization with overlap
     ethr =  4.99E-09,  avg # of iterations =  5.7

     negative rho (up, down):  1.474E-02 0.000E+00
 
     Adding external electric field

     Computed dipole along edir(3) : 
        Dipole                0.4986 Ry au,          1.2673 Debye
        Dipole field          0.0009 Ry au, 
 
        Potential amp.       -0.0872 Ry
        Total length         46.3494 bohr
 

     total cpu time spent up to now is     1270.8 secs

     total energy              =   -3005.15876599 Ry
     estimated scf accuracy    <       0.00007980 Ry

     iteration # 52     ecut=    29.40 Ry     beta= 0.05
     Davidson diagonalization with overlap
     ethr =  4.99E-09,  avg # of iterations =  1.4

     negative rho (up, down):  1.477E-02 0.000E+00
 
     Adding external electric field

     Computed dipole along edir(3) : 
        Dipole                0.4984 Ry au,          1.2669 Debye
        Dipole field          0.0009 Ry au, 
 
        Potential amp.       -0.0872 Ry
        Total length         46.3494 bohr
 

     total cpu time spent up to now is     1284.1 secs

     total energy              =   -3005.15876850 Ry
     estimated scf accuracy    <       0.00005693 Ry

     iteration # 53     ecut=    29.40 Ry     beta= 0.05
     Davidson diagonalization with overlap
     ethr =  4.99E-09,  avg # of iterations =  8.0

     negative rho (up, down):  1.475E-02 0.000E+00
 
     Adding external electric field

     Computed dipole along edir(3) : 
        Dipole                0.4991 Ry au,          1.2685 Debye
        Dipole field          0.0009 Ry au, 
 
        Potential amp.       -0.0873 Ry
        Total length         46.3494 bohr
 

     total cpu time spent up to now is     1308.6 secs

     total energy              =   -3005.15879392 Ry
     estimated scf accuracy    <       0.00001134 Ry

     iteration # 54     ecut=    29.40 Ry     beta= 0.05
     Davidson diagonalization with overlap
     ethr =  2.78E-09,  avg # of iterations =  2.0

     negative rho (up, down):  1.459E-02 0.000E+00
 
     Adding external electric field

     Computed dipole along edir(3) : 
        Dipole                0.5000 Ry au,          1.2708 Debye
        Dipole field          0.0009 Ry au, 
 
        Potential amp.       -0.0875 Ry
        Total length         46.3494 bohr
 

     total cpu time spent up to now is     1322.6 secs

     total energy              =   -3005.15880889 Ry
     estimated scf accuracy    <       0.00000788 Ry

     iteration # 55     ecut=    29.40 Ry     beta= 0.05
     Davidson diagonalization with overlap
     ethr =  1.93E-09,  avg # of iterations =  6.4

     negative rho (up, down):  1.459E-02 0.000E+00
 
     Adding external electric field

     Computed dipole along edir(3) : 
        Dipole                0.4990 Ry au,          1.2684 Debye
        Dipole field          0.0009 Ry au, 
 
        Potential amp.       -0.0873 Ry
        Total length         46.3494 bohr
 

     total cpu time spent up to now is     1346.8 secs

     total energy              =   -3005.15882143 Ry
     estimated scf accuracy    <       0.00004070 Ry

     iteration # 56     ecut=    29.40 Ry     beta= 0.05
     Davidson diagonalization with overlap
     ethr =  1.93E-09,  avg # of iterations =  3.3

     negative rho (up, down):  1.460E-02 0.000E+00
 
     Adding external electric field

     Computed dipole along edir(3) : 
        Dipole                0.5005 Ry au,          1.2722 Debye
        Dipole field          0.0009 Ry au, 
 
        Potential amp.       -0.0876 Ry
        Total length         46.3494 bohr
 

     total cpu time spent up to now is     1364.3 secs

     total energy              =   -3005.15883427 Ry
     estimated scf accuracy    <       0.00002614 Ry

     iteration # 57     ecut=    29.40 Ry     beta= 0.05
     Davidson diagonalization with overlap
     ethr =  1.93E-09,  avg # of iterations =  2.3

     negative rho (up, down):  1.465E-02 0.000E+00
 
     Adding external electric field

     Computed dipole along edir(3) : 
        Dipole                0.4990 Ry au,          1.2684 Debye
        Dipole field          0.0009 Ry au, 
 
        Potential amp.       -0.0873 Ry
        Total length         46.3494 bohr
 

     total cpu time spent up to now is     1378.5 secs

     total energy              =   -3005.15884610 Ry
     estimated scf accuracy    <       0.00002734 Ry

     iteration # 58     ecut=    29.40 Ry     beta= 0.05
     Davidson diagonalization with overlap
     ethr =  1.93E-09,  avg # of iterations =  2.6

     negative rho (up, down):  1.464E-02 0.000E+00
 
     Adding external electric field

     Computed dipole along edir(3) : 
        Dipole                0.5013 Ry au,          1.2742 Debye
        Dipole field          0.0009 Ry au, 
 
        Potential amp.       -0.0877 Ry
        Total length         46.3494 bohr
 

     total cpu time spent up to now is     1393.2 secs

     total energy              =   -3005.15885484 Ry
     estimated scf accuracy    <       0.00003217 Ry

     iteration # 59     ecut=    29.40 Ry     beta= 0.05
     Davidson diagonalization with overlap
     ethr =  1.93E-09,  avg # of iterations =  1.9

     negative rho (up, down):  1.463E-02 0.000E+00
 
     Adding external electric field

     Computed dipole along edir(3) : 
        Dipole                0.4992 Ry au,          1.2690 Debye
        Dipole field          0.0009 Ry au, 
 
        Potential amp.       -0.0873 Ry
        Total length         46.3494 bohr
 

     total cpu time spent up to now is     1406.7 secs

     total energy              =   -3005.15886432 Ry
     estimated scf accuracy    <       0.00003036 Ry

     iteration # 60     ecut=    29.40 Ry     beta= 0.05
     Davidson diagonalization with overlap
     ethr =  1.93E-09,  avg # of iterations =  1.3

     negative rho (up, down):  1.456E-02 0.000E+00
 
     Adding external electric field

     Computed dipole along edir(3) : 
        Dipole                0.4964 Ry au,          1.2618 Debye
        Dipole field          0.0009 Ry au, 
 
        Potential amp.       -0.0868 Ry
        Total length         46.3494 bohr
 

     total cpu time spent up to now is     1420.0 secs

     total energy              =   -3005.15886826 Ry
     estimated scf accuracy    <       0.00003333 Ry

     iteration # 61     ecut=    29.40 Ry     beta= 0.05
     Davidson diagonalization with overlap
     ethr =  1.93E-09,  avg # of iterations =  3.3

     negative rho (up, down):  1.459E-02 0.000E+00
 
     Adding external electric field

     Computed dipole along edir(3) : 
        Dipole                0.5012 Ry au,          1.2740 Debye
        Dipole field          0.0009 Ry au, 
 
        Potential amp.       -0.0877 Ry
        Total length         46.3494 bohr
 

     total cpu time spent up to now is     1435.7 secs

     total energy              =   -3005.15886727 Ry
     estimated scf accuracy    <       0.00002185 Ry

     iteration # 62     ecut=    29.40 Ry     beta= 0.05
     Davidson diagonalization with overlap
     ethr =  1.93E-09,  avg # of iterations =  7.2

     negative rho (up, down):  1.456E-02 0.000E+00
 
     Adding external electric field

     Computed dipole along edir(3) : 
        Dipole                0.4963 Ry au,          1.2614 Debye
        Dipole field          0.0009 Ry au, 
 
        Potential amp.       -0.0868 Ry
        Total length         46.3494 bohr
 

     total cpu time spent up to now is     1463.1 secs

     total energy              =   -3005.15887747 Ry
     estimated scf accuracy    <       0.00002502 Ry

     iteration # 63     ecut=    29.40 Ry     beta= 0.05
     Davidson diagonalization with overlap
     ethr =  1.93E-09,  avg # of iterations =  5.0

     negative rho (up, down):  1.454E-02 0.000E+00
 
     Adding external electric field

     Computed dipole along edir(3) : 
        Dipole                0.4982 Ry au,          1.2663 Debye
        Dipole field          0.0009 Ry au, 
 
        Potential amp.       -0.0871 Ry
        Total length         46.3494 bohr
 

     total cpu time spent up to now is     1485.3 secs

     total energy              =   -3005.15888472 Ry
     estimated scf accuracy    <       0.00000540 Ry

     iteration # 64     ecut=    29.40 Ry     beta= 0.05
     Davidson diagonalization with overlap
     ethr =  1.32E-09,  avg # of iterations =  5.4

     negative rho (up, down):  1.454E-02 0.000E+00
 
     Adding external electric field

     Computed dipole along edir(3) : 
        Dipole                0.4974 Ry au,          1.2643 Debye
        Dipole field          0.0009 Ry au, 
 
        Potential amp.       -0.0870 Ry
        Total length         46.3494 bohr
 

     total cpu time spent up to now is     1503.3 secs

     total energy              =   -3005.15889056 Ry
     estimated scf accuracy    <       0.00000089 Ry

     iteration # 65     ecut=    29.40 Ry     beta= 0.05
     Davidson diagonalization with overlap
     ethr =  2.19E-10,  avg # of iterations =  5.0

     negative rho (up, down):  1.448E-02 0.000E+00
 
     Adding external electric field

     Computed dipole along edir(3) : 
        Dipole                0.4977 Ry au,          1.2650 Debye
        Dipole field          0.0009 Ry au, 
 
        Potential amp.       -0.0871 Ry
        Total length         46.3494 bohr
 

     total cpu time spent up to now is     1524.6 secs

     total energy              =   -3005.15889547 Ry
     estimated scf accuracy    <       0.00000074 Ry

     iteration # 66     ecut=    29.40 Ry     beta= 0.05
     Davidson diagonalization with overlap
     ethr =  1.81E-10,  avg # of iterations =  5.0

     negative rho (up, down):  1.443E-02 0.000E+00
 
     Adding external electric field

     Computed dipole along edir(3) : 
        Dipole                0.4965 Ry au,          1.2620 Debye
        Dipole field          0.0009 Ry au, 
 
        Potential amp.       -0.0869 Ry
        Total length         46.3494 bohr
 

     total cpu time spent up to now is     1540.3 secs

     total energy              =   -3005.15889972 Ry
     estimated scf accuracy    <       0.00000046 Ry

     iteration # 67     ecut=    29.40 Ry     beta= 0.05
     Davidson diagonalization with overlap
     ethr =  1.12E-10,  avg # of iterations =  2.3

     negative rho (up, down):  1.441E-02 0.000E+00
 
     Adding external electric field

     Computed dipole along edir(3) : 
        Dipole                0.4963 Ry au,          1.2614 Debye
        Dipole field          0.0009 Ry au, 
 
        Potential amp.       -0.0868 Ry
        Total length         46.3494 bohr
 

     total cpu time spent up to now is     1555.3 secs

     total energy              =   -3005.15890350 Ry
     estimated scf accuracy    <       0.00000027 Ry

     iteration # 68     ecut=    29.40 Ry     beta= 0.05
     Davidson diagonalization with overlap
     ethr =  6.61E-11,  avg # of iterations =  5.0

     negative rho (up, down):  1.442E-02 0.000E+00
 
     Adding external electric field

     Computed dipole along edir(3) : 
        Dipole                0.4965 Ry au,          1.2619 Debye
        Dipole field          0.0009 Ry au, 
 
        Potential amp.       -0.0868 Ry
        Total length         46.3494 bohr
 

     total cpu time spent up to now is     1576.2 secs

     total energy              =   -3005.15890692 Ry
     estimated scf accuracy    <       0.00000043 Ry

     iteration # 69     ecut=    29.40 Ry     beta= 0.05
     Davidson diagonalization with overlap
     ethr =  6.61E-11,  avg # of iterations =  2.6

     negative rho (up, down):  1.441E-02 0.000E+00
 
     Adding external electric field

     Computed dipole along edir(3) : 
        Dipole                0.4969 Ry au,          1.2630 Debye
        Dipole field          0.0009 Ry au, 
 
        Potential amp.       -0.0869 Ry
        Total length         46.3494 bohr
 

     total cpu time spent up to now is     1590.5 secs

     total energy              =   -3005.15890991 Ry
     estimated scf accuracy    <       0.00000040 Ry

     iteration # 70     ecut=    29.40 Ry     beta= 0.05
     Davidson diagonalization with overlap
     ethr =  6.61E-11,  avg # of iterations =  5.0

     negative rho (up, down):  1.441E-02 0.000E+00
 
     Adding external electric field

     Computed dipole along edir(3) : 
        Dipole                0.4970 Ry au,          1.2632 Debye
        Dipole field          0.0009 Ry au, 
 
        Potential amp.       -0.0869 Ry
        Total length         46.3494 bohr
 

     total cpu time spent up to now is     1607.4 secs

     total energy              =   -3005.15891265 Ry
     estimated scf accuracy    <       0.00000021 Ry

     iteration # 71     ecut=    29.40 Ry     beta= 0.05
     Davidson diagonalization with overlap
     ethr =  5.03E-11,  avg # of iterations =  2.7

     negative rho (up, down):  1.440E-02 0.000E+00
 
     Adding external electric field

     Computed dipole along edir(3) : 
        Dipole                0.4969 Ry au,          1.2631 Debye
        Dipole field          0.0009 Ry au, 
 
        Potential amp.       -0.0869 Ry
        Total length         46.3494 bohr
 

     total cpu time spent up to now is     1621.9 secs

     total energy              =   -3005.15891512 Ry
     estimated scf accuracy    <       0.00000010 Ry

     iteration # 72     ecut=    29.40 Ry     beta= 0.05
     Davidson diagonalization with overlap
     ethr =  2.41E-11,  avg # of iterations =  8.0

     negative rho (up, down):  1.440E-02 0.000E+00
 
     Adding external electric field

     Computed dipole along edir(3) : 
        Dipole                0.4969 Ry au,          1.2630 Debye
        Dipole field          0.0009 Ry au, 
 
        Potential amp.       -0.0869 Ry
        Total length         46.3494 bohr
 

     total cpu time spent up to now is     1645.8 secs

     total energy              =   -3005.15891737 Ry
     estimated scf accuracy    <       0.00000013 Ry

     iteration # 73     ecut=    29.40 Ry     beta= 0.05
     Davidson diagonalization with overlap
     ethr =  2.41E-11,  avg # of iterations =  5.0

     negative rho (up, down):  1.446E-02 0.000E+00
 
     Adding external electric field

     Computed dipole along edir(3) : 
        Dipole                0.4959 Ry au,          1.2604 Debye
        Dipole field          0.0009 Ry au, 
 
        Potential amp.       -0.0867 Ry
        Total length         46.3494 bohr
 

     total cpu time spent up to now is     1668.9 secs

     End of self-consistent calculation

          k = 0.0000 0.0000 0.0000 ( 18029 PWs)   bands (ev):

   -56.1951 -56.1487 -55.6507 -55.6443 -55.6279 -55.5812 -55.5695 -55.5291
   -55.5169 -55.4913 -55.4448 -55.4023 -55.3976 -55.2731 -54.8195 -54.7856
   -32.6093 -32.4584 -32.4097 -32.3754 -32.2810 -32.2357 -32.1458 -32.0863
   -32.0765 -32.0214 -31.9545 -31.9423 -31.9409 -31.8855 -31.8841 -31.8769
   -31.8618 -31.8436 -31.8288 -31.8107 -31.8008 -31.7930 -31.7568 -31.7330
   -31.7296 -31.7139 -31.7069 -31.7043 -31.7026 -31.6935 -31.6877 -31.6794
   -31.6690 -31.6506 -31.6473 -31.6061 -31.5971 -31.5897 -31.5642 -31.5269
   -31.4870 -31.4760 -31.2143 -31.1588 -31.1345 -31.0313 -30.9464 -30.8353
   -20.6081 -16.8435 -16.4170 -16.3580 -16.2151 -15.9848 -15.8477 -15.7633
   -15.5326 -15.5162 -15.4031 -15.3945 -15.3513 -15.2392 -15.2250 -15.1882
   -15.1816 -15.1685 -15.1553 -15.1203 -15.1162 -15.1090 -15.0427 -15.0143
   -14.9866 -14.9421 -14.8874 -14.8471 -14.7786 -14.7719 -14.7281 -14.5226
   -13.7529 -13.3201 -13.2111  -6.3501  -5.3679  -4.8361  -4.2693  -4.0109
    -3.8835  -3.6676  -3.5724  -3.5638  -3.3971  -3.3713  -3.2749  -3.0553
    -2.9225  -2.8400  -2.8094  -2.7493  -2.7265  -2.6577  -2.6227  -2.6133
    -2.5728  -2.5222  -2.4715  -2.4569  -2.4439  -2.3996  -2.3896  -2.3538
    -2.3391  -2.3352  -2.2942  -2.1486  -2.1356  -2.0793  -2.0689  -2.0237
    -2.0155  -1.9878  -1.9774  -1.9314  -1.8924  -1.7539  -1.7371  -1.7227
    -1.6553  -1.4376  -1.4025  -1.3056  -1.2460  -1.2101  -1.1159  -1.1140
    -1.0803  -1.0511  -1.0032  -0.9225  -0.8895  -0.8327  -0.7877  -0.7794
    -0.7313  -0.6642  -0.6140  -0.5567  -0.5207  -0.4784  -0.4028  -0.3509
    -0.2848  -0.2662  -0.2148  -0.1756  -0.0850  -0.0514  -0.0220   0.0304
     0.0538   0.1192   0.1234   0.1616   0.1831   0.2607   0.2904   0.3071
     0.3573   0.3840   0.3969   0.4613   0.5245   0.5649   0.6115   0.7139
     0.7596   0.7844   0.8543   0.9311   1.0994   1.1990   1.2278   1.4234
     1.4557   1.7528   1.8008   1.8563   3.1031   3.2679   3.5556   3.6445
     3.6823   3.7135   3.8106   3.8410   3.9962   4.0518

          k = 0.0000 0.0419 0.0000 ( 17933 PWs)   bands (ev):

   -56.1917 -56.1519 -55.6499 -55.6433 -55.6252 -55.5780 -55.5721 -55.5321
   -55.5176 -55.4922 -55.4410 -55.4059 -55.3964 -55.2741 -54.8145 -54.7905
   -32.5563 -32.4561 -32.4114 -32.3629 -32.2934 -32.2912 -32.0997 -32.0322
   -32.0269 -31.9861 -31.9477 -31.9180 -31.8874 -31.8765 -31.8754 -31.8677
   -31.8449 -31.8367 -31.8322 -31.8013 -31.7982 -31.7974 -31.7734 -31.7524
   -31.7500 -31.7403 -31.7334 -31.7265 -31.7237 -31.7113 -31.7042 -31.7028
   -31.6867 -31.6481 -31.6452 -31.6197 -31.6124 -31.5991 -31.5887 -31.5499
   -31.5148 -31.4755 -31.1607 -31.1551 -31.1378 -31.0188 -30.9589 -30.8920
   -20.6077 -16.8076 -16.4064 -16.2306 -16.1027 -15.8848 -15.7540 -15.6799
   -15.5573 -15.4663 -15.4566 -15.4237 -15.3306 -15.3038 -15.2523 -15.1964
   -15.1728 -15.1688 -15.1597 -15.1429 -15.1226 -15.0821 -15.0672 -15.0617
   -15.0074 -14.9366 -14.9179 -14.9026 -14.8518 -14.8357 -14.7864 -14.5832
   -13.7565 -13.3277 -13.2524  -6.3164  -5.3873  -4.8081  -4.2530  -4.0099
    -3.7005  -3.4886  -3.4469  -3.4362  -3.4057  -3.2104  -3.1344  -2.8645
    -2.8102  -2.8024  -2.7857  -2.7248  -2.6920  -2.6624  -2.6511  -2.6353
    -2.6184  -2.5801  -2.5450  -2.5118  -2.4881  -2.4674  -2.4380  -2.4213
    -2.3788  -2.3500  -2.3237  -2.3106  -2.2690  -2.2503  -2.2106  -2.1671
    -2.0134  -1.9955  -1.9713  -1.9157  -1.8765  -1.8425  -1.6868  -1.5412
    -1.4456  -1.4062  -1.3570  -1.2985  -1.1766  -1.0958  -1.0346  -0.9628
    -0.9360  -0.9118  -0.8884  -0.8621  -0.8443  -0.7788  -0.7176  -0.6702
    -0.6505  -0.6042  -0.5815  -0.5519  -0.5238  -0.4914  -0.4492  -0.4190
    -0.3936  -0.3719  -0.3270  -0.2685  -0.2463  -0.1965  -0.1697  -0.0468
    -0.0080   0.0384   0.1002   0.1193   0.1506   0.1700   0.1894   0.2194
     0.2512   0.3436   0.3723   0.4154   0.5225   0.5572   0.5745   0.5966
     0.6325   0.7153   0.7330   0.7928   0.8746   1.0053   1.3025   1.4100
     1.5324   1.6971   1.7180   1.8252   3.3687   3.3721   3.5472   3.7681
     3.8238   3.8594   3.8693   3.9335   3.9467   3.9788

          k = 0.0000-0.0839 0.0000 ( 17884 PWs)   bands (ev):

   -56.1878 -56.1557 -55.6491 -55.6423 -55.6223 -55.5750 -55.5744 -55.5357
   -55.5182 -55.4931 -55.4363 -55.4106 -55.3953 -55.2752 -54.8026 -54.8022
   -32.4536 -32.4386 -32.4137 -32.4113 -32.3417 -32.3146 -32.0339 -31.9479
   -31.9474 -31.9391 -31.9194 -31.8839 -31.8775 -31.8679 -31.8676 -31.8523
   -31.8420 -31.8277 -31.8163 -31.8075 -31.8053 -31.7927 -31.7903 -31.7868
   -31.7825 -31.7818 -31.7646 -31.7537 -31.7516 -31.7477 -31.7217 -31.7042
   -31.7030 -31.6755 -31.6490 -31.6356 -31.6251 -31.6228 -31.5894 -31.5871
   -31.5265 -31.4750 -31.1463 -31.1462 -31.0298 -31.0281 -30.9885 -30.9877
   -20.6073 -16.7713 -16.3996 -15.9091 -15.9037 -15.8623 -15.7761 -15.6216
   -15.6167 -15.5223 -15.4655 -15.4167 -15.3950 -15.3130 -15.3124 -15.2437
   -15.2145 -15.1518 -15.1098 -15.0994 -15.0562 -15.0531 -15.0491 -15.0421
   -15.0238 -14.9924 -14.9831 -14.9690 -14.9287 -14.9183 -14.8552 -14.6759
   -13.7600 -13.3155 -13.3145  -6.2809  -5.4091  -4.7813  -4.2356  -4.0095
    -3.4928  -3.2421  -3.2409  -3.1094  -3.0968  -3.0631  -3.0298  -3.0091
    -2.9957  -2.8843  -2.8779  -2.7936  -2.7827  -2.7713  -2.7406  -2.7317
    -2.7064  -2.6485  -2.6245  -2.5866  -2.5770  -2.5421  -2.4850  -2.4195
    -2.3723  -2.3465  -2.3133  -2.2978  -2.2490  -2.2251  -2.0549  -2.0398
    -1.8790  -1.8122  -1.7803  -1.7658  -1.6969  -1.6361  -1.5900  -1.5168
    -1.4911  -1.4750  -1.4081  -1.2764  -1.2212  -1.1836  -1.1330  -1.1188
    -1.0908  -1.0737  -1.0475  -1.0197  -0.9900  -0.9161  -0.8152  -0.6374
    -0.5815  -0.5577  -0.4431  -0.4322  -0.3982  -0.3725  -0.3504  -0.3205
    -0.2879  -0.2790  -0.2536  -0.2387  -0.2128  -0.1944  -0.1630  -0.1365
    -0.1109  -0.0721  -0.0255   0.0317   0.0420   0.1139   0.1244   0.1496
     0.1732   0.2153   0.2747   0.2790   0.3096   0.3829   0.4808   0.5079
     0.5305   0.6015   0.6275   0.8350   0.9230   1.0388   1.1196   1.5541
     1.5746   1.6391   1.6497   1.7948   3.5708   3.5990   3.7038   3.7249
     3.7960   3.8134   3.8332   3.9061   3.9932   4.0191

          k = 0.0380 0.0000 0.0000 ( 17913 PWs)   bands (ev):

   -56.1950 -56.1486 -55.6505 -55.6442 -55.6279 -55.5811 -55.5694 -55.5290
   -55.5168 -55.4912 -55.4447 -55.4022 -55.3975 -55.2730 -54.8194 -54.7855
   -32.6099 -32.4582 -32.4096 -32.3735 -32.2807 -32.2354 -32.1461 -32.0865
   -32.0784 -32.0263 -31.9469 -31.9448 -31.9411 -31.8852 -31.8817 -31.8734
   -31.8611 -31.8435 -31.8334 -31.8008 -31.7937 -31.7891 -31.7566 -31.7304
   -31.7235 -31.7138 -31.7102 -31.7023 -31.7014 -31.6935 -31.6874 -31.6800
   -31.6688 -31.6679 -31.6474 -31.6062 -31.5970 -31.5937 -31.5639 -31.5268
   -31.4869 -31.4770 -31.2139 -31.1612 -31.1327 -31.0311 -30.9463 -30.8351
   -20.6080 -16.8333 -16.4092 -16.2624 -16.1301 -15.9123 -15.8089 -15.7538
   -15.6735 -15.5835 -15.4316 -15.3643 -15.3548 -15.3159 -15.3121 -15.2959
   -15.2214 -15.2036 -15.1836 -15.1369 -15.0864 -15.0305 -15.0101 -14.9552
   -14.9401 -14.8898 -14.8523 -14.8462 -14.8297 -14.7959 -14.7725 -14.5206
   -13.7529 -13.3174 -13.2108  -6.3504  -5.3686  -4.8392  -4.2691  -4.0014
    -3.6017  -3.4921  -3.3970  -3.3775  -3.3213  -3.3072  -3.2027  -3.0797
    -3.0355  -3.0132  -2.9452  -2.9272  -2.8670  -2.7609  -2.6534  -2.5942
    -2.5175  -2.4714  -2.4251  -2.4060  -2.3511  -2.3347  -2.3154  -2.3003
    -2.2566  -2.2004  -2.1633  -2.1221  -2.0960  -2.0899  -2.0653  -2.0367
    -2.0104  -1.9182  -1.8750  -1.8013  -1.7253  -1.7020  -1.6791  -1.5919
    -1.4991  -1.4712  -1.4150  -1.3394  -1.3227  -1.2985  -1.1965  -1.1621
    -1.1390  -1.0958  -1.0493  -1.0048  -0.9915  -0.9685  -0.9368  -0.8443
    -0.8046  -0.7671  -0.6992  -0.5836  -0.5225  -0.4672  -0.4053  -0.3664
    -0.2951  -0.2428  -0.2100  -0.1340  -0.1102  -0.0555  -0.0277  -0.0129
     0.0229   0.0460   0.0723   0.1059   0.1369   0.1712   0.2165   0.2314
     0.2620   0.2883   0.3967   0.4387   0.4986   0.5546   0.5686   0.6062
     0.6545   0.7016   0.7458   0.9313   1.0049   1.2107   1.2233   1.3094
     1.4287   1.6441   1.7103   1.8547   3.2504   3.2889   3.5649   3.7086
     3.7317   3.7735   3.8402   3.8764   3.9042   3.9231

          k = 0.0380 0.0419 0.0000 ( 17878 PWs)   bands (ev):

   -56.1917 -56.1518 -55.6497 -55.6432 -55.6253 -55.5779 -55.5721 -55.5321
   -55.5175 -55.4921 -55.4410 -55.4059 -55.3964 -55.2740 -54.8144 -54.7904
   -32.5569 -32.4559 -32.4114 -32.3614 -32.2931 -32.2912 -32.1000 -32.0326
   -32.0286 -31.9906 -31.9386 -31.9191 -31.8949 -31.8752 -31.8733 -31.8660
   -31.8451 -31.8371 -31.8333 -31.7986 -31.7939 -31.7870 -31.7732 -31.7524
   -31.7500 -31.7342 -31.7276 -31.7263 -31.7239 -31.7095 -31.7073 -31.7029
   -31.6866 -31.6623 -31.6475 -31.6176 -31.6156 -31.5991 -31.5920 -31.5497
   -31.5148 -31.4772 -31.1604 -31.1569 -31.1369 -31.0186 -30.9590 -30.8919
   -20.6076 -16.8016 -16.4016 -16.1388 -16.0238 -15.8170 -15.7268 -15.6545
   -15.6487 -15.5224 -15.4229 -15.3841 -15.3630 -15.3395 -15.3233 -15.2734
   -15.2552 -15.2028 -15.1642 -15.1340 -15.1039 -15.0822 -15.0623 -14.9896
   -14.9806 -14.9561 -14.9136 -14.8890 -14.8716 -14.8521 -14.8412 -14.5808
   -13.7564 -13.3258 -13.2526  -6.3168  -5.3882  -4.8105  -4.2553  -3.9975
    -3.4466  -3.4229  -3.3222  -3.2370  -3.1892  -3.1378  -3.0570  -2.9239
    -2.8591  -2.8258  -2.7786  -2.7530  -2.7011  -2.6735  -2.6271  -2.5975
    -2.5822  -2.5245  -2.5082  -2.4703  -2.4533  -2.4271  -2.4006  -2.3863
    -2.3648  -2.3441  -2.3228  -2.2881  -2.2288  -2.2110  -2.1331  -2.1151
    -1.9827  -1.9564  -1.9315  -1.8967  -1.8084  -1.7674  -1.6708  -1.6073
    -1.4598  -1.3758  -1.3394  -1.2610  -1.1977  -1.1614  -1.1213  -1.0927
    -1.0390  -1.0163  -0.9522  -0.8983  -0.8747  -0.8417  -0.8186  -0.7894
    -0.7355  -0.6856  -0.6585  -0.6288  -0.6026  -0.5765  -0.5235  -0.4814
    -0.4320  -0.4158  -0.3888  -0.3373  -0.3149  -0.2337  -0.2171  -0.1386
    -0.0755  -0.0296  -0.0157   0.0104   0.0651   0.0993   0.1438   0.1815
     0.2589   0.3321   0.3905   0.4810   0.5094   0.5449   0.5812   0.6234
     0.6676   0.6920   0.7186   0.7591   0.8521   0.9868   1.2416   1.4226
     1.5370   1.6223   1.6863   1.8254   3.3549   3.5117   3.6035   3.7567
     3.7947   3.8615   3.9101   3.9354   3.9730   3.9973

          k = 0.0380-0.0839 0.0000 ( 17916 PWs)   bands (ev):

   -56.1878 -56.1558 -55.6490 -55.6423 -55.6224 -55.5750 -55.5744 -55.5357
   -55.5183 -55.4931 -55.4363 -55.4107 -55.3953 -55.2752 -54.8027 -54.8022
   -32.4536 -32.4392 -32.4138 -32.4119 -32.3410 -32.3139 -32.0346 -31.9496
   -31.9490 -31.9330 -31.9197 -31.8841 -31.8803 -31.8711 -31.8654 -31.8526
   -31.8386 -31.8299 -31.8165 -31.8089 -31.8064 -31.7965 -31.7914 -31.7892
   -31.7820 -31.7758 -31.7756 -31.7529 -31.7392 -31.7225 -31.7173 -31.7109
   -31.7034 -31.6755 -31.6492 -31.6444 -31.6321 -31.6245 -31.5914 -31.5882
   -31.5265 -31.4773 -31.1470 -31.1468 -31.0298 -31.0281 -30.9886 -30.9877
   -20.6073 -16.7691 -16.3958 -15.8534 -15.8350 -15.8097 -15.7168 -15.5734
   -15.5656 -15.4871 -15.4678 -15.4216 -15.4065 -15.3900 -15.3778 -15.2531
   -15.2469 -15.1594 -15.1378 -15.1200 -15.1042 -15.0906 -15.0504 -15.0400
   -15.0244 -15.0149 -14.9981 -14.9932 -14.9702 -14.9360 -14.8458 -14.6686
   -13.7601 -13.3154 -13.3144  -6.2815  -5.4101  -4.7832  -4.2380  -3.9967
    -3.4918  -3.0490  -3.0308  -3.0227  -2.9430  -2.8933  -2.8698  -2.8518
    -2.8267  -2.8079  -2.7817  -2.7467  -2.6975  -2.6723  -2.6636  -2.6483
    -2.6217  -2.6003  -2.5800  -2.5431  -2.5160  -2.5092  -2.4544  -2.4287
    -2.3884  -2.3492  -2.3260  -2.2957  -2.2901  -2.2832  -1.9813  -1.9182
    -1.8902  -1.8422  -1.7980  -1.7287  -1.7044  -1.6647  -1.6366  -1.6100
    -1.5180  -1.5048  -1.4601  -1.4308  -1.4149  -1.3747  -1.3574  -1.2979
    -1.2592  -1.1936  -1.1524  -1.0163  -0.9209  -0.8852  -0.7710  -0.7162
    -0.6850  -0.6607  -0.6052  -0.5645  -0.5307  -0.5182  -0.5053  -0.4799
    -0.4256  -0.4137  -0.3866  -0.3626  -0.3454  -0.3231  -0.3064  -0.2316
    -0.1414  -0.1047  -0.0774   0.0009   0.0347   0.1111   0.1490   0.2126
     0.2248   0.3432   0.3630   0.3853   0.4007   0.4460   0.4804   0.5631
     0.5905   0.6226   0.6443   0.8445   0.8975   1.0250   1.0675   1.5646
     1.5821   1.6261   1.6346   1.7945   3.5795   3.5918   3.7401   3.7483
     3.8484   3.9162   3.9616   3.9810   3.9852   4.0677

          k = 0.0380-0.0419 0.0000 ( 17876 PWs)   bands (ev):

   -56.1917 -56.1518 -55.6497 -55.6432 -55.6253 -55.5779 -55.5721 -55.5321
   -55.5175 -55.4921 -55.4410 -55.4059 -55.3964 -55.2740 -54.8144 -54.7904
   -32.5569 -32.4559 -32.4114 -32.3614 -32.2931 -32.2912 -32.1000 -32.0326
   -32.0286 -31.9912 -31.9380 -31.9184 -31.8948 -31.8753 -31.8728 -31.8673
   -31.8446 -31.8365 -31.8320 -31.7987 -31.7968 -31.7872 -31.7731 -31.7522
   -31.7498 -31.7338 -31.7281 -31.7270 -31.7233 -31.7092 -31.7070 -31.7027
   -31.6866 -31.6619 -31.6475 -31.6178 -31.6155 -31.5991 -31.5923 -31.5497
   -31.5148 -31.4771 -31.1604 -31.1569 -31.1368 -31.0186 -30.9590 -30.8919
   -20.6076 -16.8014 -16.4017 -16.1388 -16.0237 -15.8172 -15.7257 -15.6552
   -15.6497 -15.5233 -15.4206 -15.3845 -15.3734 -15.3332 -15.3213 -15.2727
   -15.2535 -15.2021 -15.1649 -15.1354 -15.1022 -15.0821 -15.0609 -14.9903
   -14.9768 -14.9597 -14.9134 -14.8888 -14.8733 -14.8525 -14.8413 -14.5807
   -13.7564 -13.3258 -13.2526  -6.3170  -5.3880  -4.8111  -4.2533  -3.9999
    -3.4456  -3.4221  -3.3204  -3.2414  -3.1822  -3.1363  -3.0581  -2.9226
    -2.8605  -2.8220  -2.7772  -2.7548  -2.7076  -2.6633  -2.6335  -2.6057
    -2.5853  -2.5366  -2.5014  -2.4757  -2.4616  -2.4233  -2.4015  -2.3853
    -2.3631  -2.3461  -2.3217  -2.2809  -2.2297  -2.2042  -2.1421  -2.1060
    -1.9927  -1.9511  -1.9381  -1.8745  -1.8157  -1.7623  -1.6668  -1.6010
    -1.4691  -1.3699  -1.3405  -1.2729  -1.2109  -1.1598  -1.1285  -1.1014
    -1.0398  -1.0173  -0.9421  -0.8969  -0.8687  -0.8429  -0.7982  -0.7682
    -0.7230  -0.6910  -0.6629  -0.6409  -0.5964  -0.5683  -0.5245  -0.4813
    -0.4448  -0.4008  -0.3677  -0.3378  -0.3125  -0.2432  -0.2235  -0.1648
    -0.0831  -0.0600  -0.0088   0.0296   0.0501   0.1113   0.1343   0.1764
     0.2393   0.3160   0.3953   0.4775   0.5097   0.5586   0.6076   0.6330
     0.6500   0.7025   0.7169   0.7703   0.8529   0.9933   1.2391   1.4220
     1.5386   1.6212   1.6876   1.8227   3.3589   3.5121   3.6036   3.7479
     3.7746   3.8790   3.9039   3.9381   3.9757   4.0072

          k =-0.0760-0.0000 0.0000 ( 17886 PWs)   bands (ev):

   -56.1949 -56.1486 -55.6503 -55.6441 -55.6280 -55.5810 -55.5694 -55.5290
   -55.5168 -55.4912 -55.4447 -55.4022 -55.3975 -55.2729 -54.8193 -54.7855
   -32.6106 -32.4581 -32.4095 -32.3716 -32.2809 -32.2354 -32.1464 -32.0868
   -32.0803 -32.0311 -31.9526 -31.9434 -31.9301 -31.8846 -31.8811 -31.8679
   -31.8602 -31.8446 -31.8408 -31.8007 -31.7852 -31.7708 -31.7564 -31.7301
   -31.7149 -31.7137 -31.7119 -31.7014 -31.6984 -31.6975 -31.6933 -31.6861
   -31.6808 -31.6684 -31.6474 -31.6069 -31.5990 -31.5969 -31.5639 -31.5268
   -31.4870 -31.4782 -31.2136 -31.1634 -31.1316 -31.0310 -30.9461 -30.8352
   -20.6080 -16.8238 -16.4037 -16.0824 -16.0477 -15.8994 -15.7676 -15.7565
   -15.6727 -15.6470 -15.4907 -15.4732 -15.4199 -15.3851 -15.3742 -15.3557
   -15.2024 -15.1843 -15.1802 -15.1376 -15.0751 -15.0188 -15.0045 -14.9671
   -14.9539 -14.9138 -14.8424 -14.8379 -14.8101 -14.7734 -14.7598 -14.5200
   -13.7528 -13.3148 -13.2105  -6.3509  -5.3692  -4.8422  -4.2687  -3.9908
    -3.4266  -3.3940  -3.3647  -3.2185  -3.2033  -3.1481  -3.1377  -3.1068
    -3.0081  -2.9826  -2.9762  -2.9412  -2.9021  -2.6679  -2.6258  -2.5215
    -2.4917  -2.4539  -2.4057  -2.3014  -2.2847  -2.2590  -2.2512  -2.2058
    -2.1689  -2.1646  -2.1464  -2.0912  -2.0654  -2.0359  -2.0278  -2.0133
    -2.0039  -1.9944  -1.9465  -1.8352  -1.7954  -1.7683  -1.5697  -1.5388
    -1.4832  -1.4328  -1.4100  -1.3809  -1.3506  -1.3227  -1.2973  -1.2131
    -1.2033  -1.1602  -1.1292  -1.0754  -1.0485  -0.9891  -0.9732  -0.9289
    -0.8863  -0.7691  -0.7238  -0.6791  -0.6158  -0.5189  -0.4786  -0.3771
    -0.3539  -0.2984  -0.2873  -0.2291  -0.1960  -0.1832  -0.1281  -0.0676
    -0.0460  -0.0100   0.0177   0.0542   0.1004   0.1701   0.1964   0.2662
     0.3176   0.3485   0.3569   0.4023   0.4526   0.4757   0.5552   0.5835
     0.6378   0.7857   0.8662   0.8677   0.9711   1.0217   1.2307   1.2640
     1.4083   1.5196   1.6394   1.8534   3.2393   3.3927   3.4654   3.5731
     3.6934   3.7121   3.7846   3.8542   3.8601   3.9545

          k =-0.0760 0.0419 0.0000 ( 17914 PWs)   bands (ev):

   -56.1917 -56.1518 -55.6496 -55.6432 -55.6254 -55.5779 -55.5721 -55.5321
   -55.5176 -55.4921 -55.4410 -55.4060 -55.3964 -55.2741 -54.8144 -54.7905
   -32.5577 -32.4560 -32.4114 -32.3601 -32.2930 -32.2915 -32.1004 -32.0333
   -32.0304 -31.9957 -31.9269 -31.9203 -31.9018 -31.8752 -31.8707 -31.8639
   -31.8480 -31.8379 -31.8347 -31.7986 -31.7905 -31.7727 -31.7699 -31.7527
   -31.7504 -31.7341 -31.7277 -31.7239 -31.7143 -31.7137 -31.7051 -31.7019
   -31.6865 -31.6835 -31.6475 -31.6196 -31.6165 -31.5991 -31.5962 -31.5497
   -31.5148 -31.4789 -31.1602 -31.1590 -31.1362 -31.0187 -30.9590 -30.8919
   -20.6076 -16.7957 -16.3975 -15.9607 -15.9511 -15.7952 -15.7133 -15.6946
   -15.5866 -15.5677 -15.4613 -15.4236 -15.4073 -15.3787 -15.3678 -15.3349
   -15.2465 -15.2240 -15.1820 -15.1588 -15.0810 -15.0683 -15.0649 -15.0304
   -14.9896 -14.9622 -14.9311 -14.8797 -14.8621 -14.8559 -14.8365 -14.5798
   -13.7565 -13.3239 -13.2529  -6.3175  -5.3890  -4.8133  -4.2553  -3.9870
    -3.4454  -3.2555  -3.2278  -3.0027  -2.9179  -2.9080  -2.8923  -2.8834
    -2.8288  -2.8214  -2.7583  -2.7291  -2.7074  -2.6676  -2.6119  -2.5943
    -2.5638  -2.5518  -2.4806  -2.4616  -2.4416  -2.3854  -2.3592  -2.3489
    -2.3229  -2.2761  -2.2559  -2.2283  -2.2094  -2.1946  -2.1320  -2.1027
    -1.9707  -1.9363  -1.7851  -1.7704  -1.7462  -1.7247  -1.6650  -1.6008
    -1.5169  -1.4871  -1.3045  -1.2906  -1.2652  -1.2357  -1.1885  -1.1721
    -1.1506  -1.1286  -1.0805  -1.0376  -1.0029  -0.9639  -0.9172  -0.8923
    -0.8519  -0.8244  -0.7972  -0.7507  -0.7250  -0.6558  -0.6265  -0.5758
    -0.5097  -0.4979  -0.4579  -0.3848  -0.3617  -0.3269  -0.2764  -0.2428
    -0.1490  -0.1191  -0.0597  -0.0346   0.0338   0.0681   0.1504   0.1962
     0.2948   0.3498   0.3806   0.4594   0.5205   0.5588   0.6219   0.6909
     0.6972   0.7596   0.7763   0.8739   0.9108   0.9769   1.0200   1.4369
     1.5417   1.5507   1.6669   1.8231   3.3561   3.5342   3.5558   3.6751
     3.7360   3.8081   3.8706   3.9528   4.0166   4.0307

          k =-0.0760-0.0839 0.0000 ( 17948 PWs)   bands (ev):

   -56.1878 -56.1558 -55.6489 -55.6423 -55.6225 -55.5750 -55.5744 -55.5357
   -55.5183 -55.4931 -55.4364 -55.4107 -55.3953 -55.2752 -54.8027 -54.8023
   -32.4537 -32.4398 -32.4140 -32.4124 -32.3403 -32.3131 -32.0352 -31.9516
   -31.9512 -31.9237 -31.9200 -31.8854 -31.8840 -31.8726 -31.8626 -31.8528
   -31.8431 -31.8313 -31.8167 -31.8109 -31.8024 -31.7995 -31.7912 -31.7880
   -31.7824 -31.7819 -31.7696 -31.7529 -31.7235 -31.7198 -31.7131 -31.7034
   -31.7002 -31.6754 -31.6588 -31.6485 -31.6438 -31.6237 -31.5945 -31.5885
   -31.5266 -31.4795 -31.1476 -31.1474 -31.0298 -31.0281 -30.9886 -30.9877
   -20.6073 -16.7671 -16.3922 -15.7988 -15.6693 -15.6616 -15.6608 -15.6255
   -15.5844 -15.5317 -15.5051 -15.4504 -15.3821 -15.3561 -15.3374 -15.3127
   -15.2668 -15.2385 -15.2227 -15.1499 -15.1123 -15.1000 -15.0841 -15.0779
   -15.0318 -15.0282 -15.0090 -15.0022 -14.9940 -14.9382 -14.8406 -14.6630
   -13.7601 -13.3152 -13.3142  -6.2821  -5.4110  -4.7849  -4.2400  -3.9840
    -3.4908  -3.0264  -2.9252  -2.8465  -2.8394  -2.7513  -2.7105  -2.6793
    -2.6596  -2.6414  -2.6145  -2.5659  -2.5440  -2.5058  -2.4959  -2.4925
    -2.4760  -2.4696  -2.4492  -2.4249  -2.4102  -2.3962  -2.3825  -2.3590
    -2.3473  -2.3384  -2.3227  -2.2922  -2.2455  -2.2262  -2.0496  -2.0186
    -2.0110  -2.0106  -1.9432  -1.9388  -1.8823  -1.8081  -1.7917  -1.7701
    -1.7522  -1.6366  -1.5017  -1.4553  -1.3975  -1.3748  -1.3065  -1.2550
    -1.1590  -1.1393  -1.1292  -1.1116  -1.0671  -1.0632  -0.9774  -0.9223
    -0.8802  -0.8764  -0.8555  -0.8098  -0.6924  -0.6855  -0.6423  -0.6241
    -0.6077  -0.5051  -0.4736  -0.4548  -0.4394  -0.4269  -0.3222  -0.2745
    -0.2299  -0.1791  -0.1184  -0.0598   0.0620   0.0880   0.1811   0.2120
     0.2537   0.3864   0.4124   0.4653   0.4937   0.5508   0.5881   0.6026
     0.7320   0.7850   0.8044   0.8714   0.8912   0.9284   0.9519   1.5915
     1.5976   1.6048   1.6072   1.7942   3.6454   3.6718   3.6780   3.7125
     3.8966   3.9255   4.0037   4.0272   4.0422   4.0536

     the Fermi energy is     2.5629 ev

!    total energy              =   -3005.15893800 Ry
     estimated scf accuracy    <       0.00000005 Ry
     smearing contrib. (-TS)   =      -0.00024024 Ry
     internal energy E=F+TS    =   -3005.15869776 Ry

     The total energy is F=E-TS. E is the sum of the following terms:
     one-electron contribution =  -22952.20501761 Ry
     hartree contribution      =   11572.01844423 Ry
     xc contribution           =    -500.30636211 Ry
     ewald contribution        =    8875.33377367 Ry
     electric field correction =       0.00046407 Ry

     convergence has been achieved in  73 iterations

     Forces acting on atoms (cartesian axes, Ry/au):

     atom    1 type  1   force =     0.00060096   -0.00030712    0.00017904
     atom    2 type  2   force =    -0.00021044    0.00020992   -0.00007019
     atom    3 type  2   force =    -0.00002631    0.00000774   -0.00027334
     atom    4 type  2   force =    -0.00039927   -0.00011275    0.00011545
     atom    5 type  3   force =     0.00028089   -0.00316570   -0.05387079
     atom    6 type  3   force =     0.00043752    0.00120041    0.04055401
     atom    7 type  3   force =    -0.00980840   -0.00221359    0.00043042
     atom    8 type  3   force =     0.00887489   -0.00512167   -0.00068130
     atom    9 type  3   force =    -0.00028024    0.00004074    0.00002086
     atom   10 type  3   force =     0.00005685    0.00003393   -0.00002899
     atom   11 type  3   force =     0.00042679    0.00007236   -0.00012553
     atom   12 type  3   force =     0.00038345    0.00019961    0.00004717
     atom   13 type  3   force =     0.00016937    0.00001666    0.00001038
     atom   14 type  3   force =    -0.00050548   -0.00009310    0.00033153
     atom   15 type  3   force =    -0.00002703    0.00009420    0.00010323
     atom   16 type  3   force =    -0.00001882   -0.00011172   -0.00001227
     atom   17 type  3   force =    -0.00007036    0.00016471    0.09946970
     atom   18 type  3   force =     0.00009513   -0.00005816    0.00003534
     atom   19 type  3   force =    -0.08024399    0.00059153   -0.03415341
     atom   20 type  3   force =     0.08000940    0.00110637   -0.03418093
     atom   21 type  3   force =     0.00052267    0.00001872   -0.05294221
     atom   22 type  3   force =     0.00037744    0.00049199    0.04231239
     atom   23 type  3   force =    -0.01095879    0.00574671    0.00229431
     atom   24 type  3   force =     0.01004021    0.00213098    0.00124342
     atom   25 type  3   force =    -0.00014762    0.00004508    0.00009294
     atom   26 type  3   force =     0.00013112    0.00008261    0.00004191
     atom   27 type  3   force =     0.00028673    0.00042739   -0.00008843
     atom   28 type  3   force =     0.00091484   -0.00005076    0.00015740
     atom   29 type  3   force =     0.00031390   -0.00011213   -0.00003829
     atom   30 type  3   force =    -0.00024769   -0.00000600    0.00001632
     atom   31 type  3   force =     0.00007555   -0.00004199   -0.00003094
     atom   32 type  3   force =    -0.00005036   -0.00019733    0.00009199
     atom   33 type  3   force =    -0.00008433    0.00025523    0.09903893
     atom   34 type  3   force =    -0.08024185   -0.00144938   -0.03415454
     atom   35 type  3   force =     0.08001915   -0.00092649   -0.03420351
     atom   36 type  3   force =     0.00006639   -0.00013546    0.00000361
     atom   37 type  4   force =     0.00019826    0.00017289    0.13338052
     atom   38 type  4   force =     0.00002585    0.00798727   -0.15912360
     atom   39 type  4   force =     0.00003125   -0.00006254    0.00000007
     atom   40 type  4   force =    -0.00010760    0.00015058    0.00001810
     atom   41 type  4   force =    -0.00301762   -0.00037347   -0.00000341
     atom   42 type  4   force =     0.00041149    0.00008195   -0.00007123
     atom   43 type  4   force =     0.00023523   -0.00004013   -0.00001539
     atom   44 type  4   force =     0.00016805   -0.00007934   -0.00005657
     atom   45 type  4   force =    -0.00024441   -0.00008935    0.14215402
     atom   46 type  4   force =    -0.00018515   -0.00648251   -0.15859099
     atom   47 type  4   force =     0.00018507   -0.00008126    0.00005504
     atom   48 type  4   force =    -0.00027850    0.00019137    0.00009482
     atom   49 type  4   force =    -0.00265436   -0.00018694    0.00007961
     atom   50 type  4   force =     0.00373899   -0.00010097   -0.00002248
     atom   51 type  4   force =     0.00026974    0.00006158    0.00017334
     atom   52 type  4   force =     0.00000687   -0.00001989    0.00018920
     atom   53 type  5   force =     0.00023176   -0.00000481   -0.00041170
     atom   54 type  5   force =    -0.00000932    0.00012451    0.00053814
     atom   55 type  3   force =    -0.00013431    0.00032646   -0.00046039
     atom   56 type  2   force =     0.00036646   -0.00040898    0.00033722

     Total force =     0.385093     Total SCF correction =     0.000838
  @ DRIVER MODE: Message from server: STATUS
  @ DRIVER MODE: Message from server: GETFORCE
  @ DRIVER MODE: Returning v,forces,stress,ensemble 

     Writing output data file ./calc.save/
  @ DRIVER MODE: Message from server: EXIT
  @ DRIVE MODE: Exiting  
 
     init_run     :     15.68s CPU     18.28s WALL (       1 calls)
     electrons    :   1604.55s CPU   1647.29s WALL (       1 calls)
     forces       :      2.85s CPU      2.99s WALL (       1 calls)

     Called by init_run:
     wfcinit      :      8.09s CPU      9.15s WALL (       1 calls)
     potinit      :      6.81s CPU      8.11s WALL (       1 calls)
     hinit0       :      0.37s CPU      0.39s WALL (       1 calls)

     Called by electrons:
     c_bands      :   1373.43s CPU   1399.95s WALL (      73 calls)
     sum_band     :    164.78s CPU    173.29s WALL (      73 calls)
     v_of_rho     :     50.33s CPU     53.53s WALL (      74 calls)
     newd         :     19.97s CPU     25.62s WALL (      74 calls)
     mix_rho      :      1.90s CPU      1.99s WALL (      73 calls)
     vdW_kernel   :      5.87s CPU      7.11s WALL (       1 calls)

     Called by c_bands:
     init_us_2    :      7.57s CPU      7.63s WALL (    1480 calls)
     cegterg      :   1348.45s CPU   1374.42s WALL (     750 calls)

     Called by *egterg:
     cdiaghg      :    209.10s CPU    210.85s WALL (    6166 calls)
     h_psi        :    742.34s CPU    760.30s WALL (    6183 calls)
     s_psi        :     89.43s CPU     89.88s WALL (    6183 calls)
     g_psi        :      2.58s CPU      2.60s WALL (    5423 calls)

     Called by h_psi:
     h_psi:calbec :     86.87s CPU     88.33s WALL (    6183 calls)
     vloc_psi     :    562.95s CPU    574.51s WALL (    6183 calls)
     add_vuspsi   :     89.61s CPU     92.08s WALL (    6183 calls)

     General routines
     calbec       :    114.17s CPU    115.83s WALL (    6953 calls)
     fft          :     25.68s CPU     25.81s WALL (    4662 calls)
     ffts         :      0.19s CPU      0.19s WALL (     147 calls)
     fftw         :    633.49s CPU    647.05s WALL ( 1089700 calls)
     interpolate  :      0.55s CPU      0.55s WALL (      74 calls)
     davcio       :      0.01s CPU      0.78s WALL (      10 calls)
 
     Parallel routines
 
     PWSCF        :  27m 5.97s CPU  27m53.11s WALL

 
   This run was terminated on:  22:20:31  25Sep2021            

=------------------------------------------------------------------------------=
   JOB DONE.
=------------------------------------------------------------------------------=
