
     Program PWSCF v.6.7GPU starts on 24Aug2021 at 17:52:10 

     This program is part of the open-source Quantum ESPRESSO suite
     for quantum simulation of materials; please cite
         "P. Giannozzi et al., J. Phys.:Condens. Matter 21 395502 (2009);
         "P. Giannozzi et al., J. Phys.:Condens. Matter 29 465901 (2017);
         "P. Giannozzi et al., J. Chem. Phys. 152 154105 (2020);
          URL http://www.quantum-espresso.org", 
     in publications or presentations arising from this work. More details at
     http://www.quantum-espresso.org/quote

     Parallel version (MPI), running on     6 processors

     MPI processes distributed on     1 nodes
     R & G space division:  proc/nbgrp/npool/nimage =       6
     Reading input from /storage/home/hcoda1/3/ntian30/research/carbon/CH3_vib_end_on/ads_slab/CH3N2H2_f/out_0002/pw.inp
Warning: card &CELL ignored
Warning: card   CELL_DYNAMICS='IPI', ignored
Warning: card / ignored

     Current dimensions of program PWSCF are:
     Max number of different atomic species (ntypx) = 10
     Max number of k-points (npk) =  40000
     Max angular momentum in pseudopotentials (lmaxx) =  3
     Presently no symmetry can be used with electric field

     Message from routine cell_base_init:
     DEPRECATED: use true lattice parameter, not A to a.u. conversion factor

     **************************************************************************
     Initializing libbeef V0.1.2 with the BEEF-vdW functional.
     Citation: Wellendorff et al., PRB 85, 235149 (2012).
     **************************************************************************


     IMPORTANT: XC functional enforced from input :
     Exchange-correlation= BEEF-VDW
                           (   1   4  43  14   2   0   0)
     Any further DFT definition will be discarded
     Please, verify this is what you really want


     Subspace diagonalization in iterative solution of the eigenvalue problem:
     one sub-group per band group will be used
     scalapack distributed-memory algorithm (size of sub-group:  2*  2 procs)

  @ DRIVER MODE: Connecting to 
 qe_1139763_2643870.sched-torque.pace.gatech.eduja3ppsrb_scratch
  using UNIX socket
  @ DRIVER MODE: Message from server: STATUS
  @ DRIVER MODE: Message from server: INIT
  @ DRIVER MODE: Receiving replica           0          -1
  @ DRIVER MODE: Receiving encoded integer          25
  @ DRIVER MODE:  SCF:  T  FORCE:  T  STRESS:  F  VC:  F  ENSEMBLE:  F
  @ DRIVER MODE:  SCF:  T  FORCE:  T  STRESS:  F  VC:  F  ENSEMBLE:  F
 
     Parallelization info
     --------------------
     sticks:   dense  smooth     PW     G-vecs:    dense   smooth      PW
     Min         545     219     63                94473    23902    3663
     Max         546     222     64                94484    23905    3665
     Sum        3275    1317    379               566857   143421   21985
 
     Using Slab Decomposition
 


     bravais-lattice index     =            0
     lattice parameter (alat)  =       1.8897  a.u.
     unit-cell volume          =    6658.9804 (a.u.)^3
     number of atoms/cell      =           55
     number of atomic types    =            5
     number of electrons       =       397.00
     number of Kohn-Sham states=          208
     kinetic-energy cutoff     =      29.3995  Ry
     charge density cutoff     =     293.9946  Ry
     scf convergence threshold =      7.3E-08
     mixing beta               =       0.0500
     number of iterations used =            8  plain     mixing
     Exchange-correlation= BEEF-VDW
                           (   1   4  43  14   2   0   0)

     celldm(1)=   1.889726  celldm(2)=   0.000000  celldm(3)=   0.000000
     celldm(4)=   0.000000  celldm(5)=   0.000000  celldm(6)=   0.000000

     crystal axes: (cart. coord. in units of alat)
               a(1) = (   6.579727   0.000000   0.000000 )  
               a(2) = (  -0.000775   5.961596   0.000000 )  
               a(3) = (   0.000000   0.000000  25.155947 )  

     reciprocal axes: (cart. coord. in units 2 pi/alat)
               b(1) = (  0.151982  0.000020  0.000000 )  
               b(2) = (  0.000000  0.167740  0.000000 )  
               b(3) = (  0.000000  0.000000  0.039752 )  


     PseudoPot. # 1 for Ti read from file:
     /storage/coda1/p-amedford6/0/shared/rich_project_chbe-medford/medford-share/data/pseudos_module/espresso/nninc/pbe/van/Ti.UPF
     MD5 check sum: 8e4df49b7f0d34bbd5052bf3f5ea0213
     Pseudo is Ultrasoft, Zval = 12.0
     Generated by new atomic code, or converted to UPF format
     Using radial grid of  851 points,  6 beta functions with: 
                l(1) =   0
                l(2) =   0
                l(3) =   1
                l(4) =   1
                l(5) =   2
                l(6) =   2
     Q(r) pseudized with  8 coefficients,  rinner =    1.000   1.000   1.000
                                                       1.000   1.000

     PseudoPot. # 2 for O  read from file:
     /storage/coda1/p-amedford6/0/shared/rich_project_chbe-medford/medford-share/data/pseudos_module/espresso/nninc/pbe/van/O.UPF
     MD5 check sum: 78c19812648e8988a0fe644b0f25305e
     Pseudo is Ultrasoft, Zval =  6.0
     Generated by new atomic code, or converted to UPF format
     Using radial grid of  737 points,  4 beta functions with: 
                l(1) =   0
                l(2) =   0
                l(3) =   1
                l(4) =   1
     Q(r) pseudized with  8 coefficients,  rinner =    0.800   0.800   0.800


     PseudoPot. # 3 for N  read from file:
     /storage/coda1/p-amedford6/0/shared/rich_project_chbe-medford/medford-share/data/pseudos_module/espresso/nninc/pbe/van/N.UPF
     MD5 check sum: 90d10febe142ad51ac9d5be1deb811c4
     Pseudo is Ultrasoft, Zval =  5.0
     Generated by new atomic code, or converted to UPF format
     Using radial grid of  729 points,  4 beta functions with: 
                l(1) =   0
                l(2) =   0
                l(3) =   1
                l(4) =   1
     Q(r) pseudized with  8 coefficients,  rinner =    0.800   0.800   0.800


     PseudoPot. # 4 for C  read from file:
     /storage/coda1/p-amedford6/0/shared/rich_project_chbe-medford/medford-share/data/pseudos_module/espresso/nninc/pbe/van/C.UPF
     MD5 check sum: 1a69bf6b8db32088f5b2163dbdb77a27
     Pseudo is Ultrasoft, Zval =  4.0
     Generated by new atomic code, or converted to UPF format
     Using radial grid of  721 points,  4 beta functions with: 
                l(1) =   0
                l(2) =   0
                l(3) =   1
                l(4) =   1
     Q(r) pseudized with  8 coefficients,  rinner =    0.800   0.800   0.800


     PseudoPot. # 5 for H  read from file:
     /storage/coda1/p-amedford6/0/shared/rich_project_chbe-medford/medford-share/data/pseudos_module/espresso/nninc/pbe/van/H.UPF
     MD5 check sum: b5ee9d7bfd3a09ee7748110bda690ff7
     Pseudo is Ultrasoft, Zval =  1.0
     Generated by new atomic code, or converted to UPF format
     Using radial grid of  615 points,  1 beta functions with: 
                l(1) =   0
     Q(r) pseudized with  8 coefficients,  rinner =    0.800

     atomic species   valence    mass     pseudopotential
        Ti1           12.00    47.86700     Ti( 1.00)
        O1             6.00    15.99900     O ( 1.00)
        N1             5.00    14.00700     N ( 1.00)
        C1             4.00    12.01100     C ( 1.00)
        H1             1.00     1.00800     H ( 1.00)

     No symmetry found



   Cartesian axes

     site n.     atom                  positions (alat units)
         1           Ti1 tau(   1) = (   0.0004258   2.9801865   6.0000000  )
         2           Ti1 tau(   2) = (   3.2906075   1.4906267   6.0002472  )
         3           O1  tau(   3) = (   0.0006271   0.0005054   7.9858123  )
         4           O1  tau(   4) = (   3.2906025   0.0005020   7.3038282  )
         5           O1  tau(   5) = (   4.5942328   1.4918067   9.2879030  )
         6           O1  tau(   6) = (   1.9868534   1.4903216   9.2879459  )
         7           Ti1 tau(   7) = (   3.2907910   2.8959150   9.1758416  )
         8           Ti1 tau(   8) = (   0.0015273   1.4827037   9.2680791  )
         9           O1  tau(   9) = (   3.2830128   5.9597860  11.3344455  )
        10           O1  tau(  10) = (   0.0116148   5.9584955  10.6183126  )
        11           O1  tau(  11) = (   1.2885291   1.4855062  12.6376555  )
        12           O1  tau(  12) = (   5.2724004   1.4911608  12.5936499  )
        13           Ti1 tau(  13) = (   0.0410009   3.0319447  12.6084003  )
        14           Ti1 tau(  14) = (   3.3739341   1.4916561  12.4823474  )
        15           O1  tau(  15) = (   6.4862162   0.0153916  14.6455093  )
        16           O1  tau(  16) = (   3.3439542   5.9611638  13.9051029  )
        17           O1  tau(  17) = (   4.4933269   1.5483200  16.1231154  )
        18           O1  tau(  18) = (   1.9964937   1.4536654  15.9127221  )
        19           Ti1 tau(  19) = (   3.1412959   3.0017366  15.7441667  )
        20           Ti1 tau(  20) = (   6.4823597   1.5369342  15.8006069  )
        21           O1  tau(  21) = (   3.2904802   0.0005063   4.7018136  )
        22           O1  tau(  22) = (   6.5709111   0.0522475  17.2082838  )
        23           O1  tau(  23) = (   1.3043587   1.4918075   6.0039043  )
        24           O1  tau(  24) = (   5.2767064   1.4903225   6.0039473  )
        25           Ti1 tau(  25) = (   0.0000382   5.9609847   6.0000000  )
        26           Ti1 tau(  26) = (   3.2902200   4.4714249   6.0002472  )
        27           O1  tau(  27) = (   0.0002396   2.9813036   7.9858123  )
        28           O1  tau(  28) = (   3.2902150   2.9813002   7.3038282  )
        29           O1  tau(  29) = (   4.5938453   4.4726049   9.2879030  )
        30           O1  tau(  30) = (   1.9864658   4.4711199   9.2879459  )
        31           Ti1 tau(  31) = (   3.2891106   5.8743827   9.1763621  )
        32           Ti1 tau(  32) = (   0.0006254   4.4649316   9.2693709  )
        33           O1  tau(  33) = (   3.2833609   2.9822938  11.3349093  )
        34           O1  tau(  34) = (   0.0092240   2.9805883  10.6323155  )
        35           O1  tau(  35) = (   1.2838611   4.4860338  12.6468719  )
        36           O1  tau(  36) = (   5.2760156   4.4607002  12.6015494  )
        37           Ti1 tau(  37) = (   0.0673138   0.0440259  12.5461749  )
        38           Ti1 tau(  38) = (   3.3712377   4.4654930  12.4933830  )
        39           O1  tau(  39) = (   6.5217465   2.9589972  14.6412948  )
        40           O1  tau(  40) = (   3.2809526   2.9956502  13.9333893  )
        41           O1  tau(  41) = (   4.4911989   4.4583117  16.1637052  )
        42           O1  tau(  42) = (   1.9937212   4.5427850  15.9740970  )
        43           Ti1 tau(  43) = (   3.2955853   0.0167752  15.6963065  )
        44           Ti1 tau(  44) = (   6.5082246   4.6715011  16.1069148  )
        45           O1  tau(  45) = (   3.2900926   2.9813045   4.7018136  )
        46           O1  tau(  46) = (   1.3039711   4.4726057   6.0039043  )
        47           O1  tau(  47) = (   5.2763189   4.4711207   6.0039473  )
        48           N1  tau(  48) = (   1.4045086   2.8365607  18.1849301  )
        49           N1  tau(  49) = (   0.1777896   2.9650562  17.4211889  )
        50           C1  tau(  50) = (   1.4118813   3.7128676  19.3556819  )
        51           H1  tau(  51) = (   0.5171711   3.5996102  19.9880000  )
        52           H1  tau(  52) = (   2.2935099   3.4681107  19.9517681  )
        53           H1  tau(  53) = (   1.4703795   4.7520035  19.0319817  )
        54           H1  tau(  54) = (   1.4579882   1.8621926  18.4823179  )
        55           H1  tau(  55) = (   5.9558665   2.8747675  18.0551794  )

     number of k points=    10  Fermi-Dirac smearing, width (Ry)=  0.0073
                       cart. coord. in units 2pi/alat
        k(    1) = (   0.0000000   0.0000000   0.0000000), wk =   0.1250000
        k(    2) = (   0.0000000   0.0419351   0.0000000), wk =   0.2500000
        k(    3) = (   0.0000000  -0.0838702   0.0000000), wk =   0.1250000
        k(    4) = (   0.0379955   0.0000049   0.0000000), wk =   0.2500000
        k(    5) = (   0.0379955   0.0419400   0.0000000), wk =   0.2500000
        k(    6) = (   0.0379955  -0.0838652   0.0000000), wk =   0.2500000
        k(    7) = (   0.0379955  -0.0419301   0.0000000), wk =   0.2500000
        k(    8) = (  -0.0759910  -0.0000099   0.0000000), wk =   0.1250000
        k(    9) = (  -0.0759910   0.0419252   0.0000000), wk =   0.2500000
        k(   10) = (  -0.0759910  -0.0838800   0.0000000), wk =   0.1250000

     Dense  grid:   566857 G-vectors     FFT dimensions: (  72,  64, 270)

     Smooth grid:   143421 G-vectors     FFT dimensions: (  45,  40, 180)

     Estimated max dynamical RAM per process >     601.58 MB

     Estimated total dynamical RAM >       3.52 GB
     Cannot read rho : file not found

     Initial potential from superposition of free atoms

     starting charge  380.99914, renormalised to  397.00000

     negative rho (up, down):  1.540E-02 0.000E+00


     %%%%%%%%%%%%%%%%%%%%%%%%%%%%%%%%%%%%%%%%%%%%%%%%%%%%%%%%%%%%%%%%%%%%%%%%
     %                                                                      %
     % You are using vdW-DF, which was implemented by the Thonhauser group. %
     % Please cite the following two papers that made this development      %
     % possible and the two reviews that describe the various versions:     %
     %                                                                      %
     %   T. Thonhauser et al., PRL 115, 136402 (2015).                      %
     %   T. Thonhauser et al., PRB 76, 125112 (2007).                       %
     %   K. Berland et al., Rep. Prog. Phys. 78, 066501 (2015).             %
     %   D.C. Langreth et al., J. Phys.: Condens. Matter 21, 084203 (2009). %
     %                                                                      %
     %                                                                      %
     % If you are calculating the stress with vdW-DF, please also cite:     %
     %                                                                      %
     %   R. Sabatini et al., J. Phys.: Condens. Matter 24, 424209 (2012).   %
     %                                                                      %
     %%%%%%%%%%%%%%%%%%%%%%%%%%%%%%%%%%%%%%%%%%%%%%%%%%%%%%%%%%%%%%%%%%%%%%%%


 
     Adding external electric field

     Computed dipole along edir(3) : 
        Dipole               -9.6180 Ry au,        -24.4465 Debye
        Dipole field         -0.0182 Ry au, 
 
        Potential amp.        1.6825 Ry
        Total length         46.3494 bohr
 
     Starting wfcs are  301 atomic wfcs
  @ DRIVER MODE: Message from server: STATUS
  @ DRIVER MODE: Message from server: POSDATA
  @ DRIVER MODE: Reading and sharing cell 
  @ DRIVER MODE: Reading and sharing positions 
  @ DRIVER MODE: Received positions 

     total cpu time spent up to now is       19.6 secs

     Self-consistent Calculation

     iteration #  1     ecut=    29.40 Ry     beta= 0.05
     Davidson diagonalization with overlap
     c_bands:  1 eigenvalues not converged
     c_bands:  1 eigenvalues not converged
     c_bands:  1 eigenvalues not converged
     c_bands:  1 eigenvalues not converged
     c_bands:  1 eigenvalues not converged
     c_bands:  1 eigenvalues not converged
     c_bands:  2 eigenvalues not converged
     ethr =  1.00E-05,  avg # of iterations = 18.8

     negative rho (up, down):  1.192E-02 0.000E+00
 
     Adding external electric field

     Computed dipole along edir(3) : 
        Dipole               43.0106 Ry au,        109.3222 Debye
        Dipole field          0.0812 Ry au, 
 
        Potential amp.       -7.5241 Ry
        Total length         46.3494 bohr
 

     total cpu time spent up to now is       86.5 secs

     total energy              =   -2533.68648201 Ry
     estimated scf accuracy    <    4538.34608087 Ry

     iteration #  2     ecut=    29.40 Ry     beta= 0.05
     Davidson diagonalization with overlap
     ethr =  1.00E-02,  avg # of iterations = 24.1

     negative rho (up, down):  3.079E-03 0.000E+00
 
     Adding external electric field

     Computed dipole along edir(3) : 
        Dipole               -2.4144 Ry au,         -6.1368 Debye
        Dipole field         -0.0046 Ry au, 
 
        Potential amp.        0.4224 Ry
        Total length         46.3494 bohr
 

     total cpu time spent up to now is      209.6 secs

     total energy              =   -2464.91147527 Ry
     estimated scf accuracy    <   66284.40200060 Ry

     iteration #  3     ecut=    29.40 Ry     beta= 0.05
     Davidson diagonalization with overlap
     ethr =  1.00E-02,  avg # of iterations = 14.8

     negative rho (up, down):  3.151E-03 0.000E+00
 
     Adding external electric field

     Computed dipole along edir(3) : 
        Dipole               -4.5256 Ry au,        -11.5030 Debye
        Dipole field         -0.0085 Ry au, 
 
        Potential amp.        0.7917 Ry
        Total length         46.3494 bohr
 

     total cpu time spent up to now is      288.0 secs

     total energy              =   -2924.76482735 Ry
     estimated scf accuracy    <    4266.49446331 Ry

     iteration #  4     ecut=    29.40 Ry     beta= 0.05
     Davidson diagonalization with overlap
     c_bands:  2 eigenvalues not converged
     ethr =  1.00E-02,  avg # of iterations = 15.9

     negative rho (up, down):  3.202E-03 0.000E+00
 
     Adding external electric field

     Computed dipole along edir(3) : 
        Dipole               -6.0561 Ry au,        -15.3931 Debye
        Dipole field         -0.0114 Ry au, 
 
        Potential amp.        1.0594 Ry
        Total length         46.3494 bohr
 

     total cpu time spent up to now is      321.0 secs

     total energy              =   -2929.42883699 Ry
     estimated scf accuracy    <    1362.30018570 Ry

     iteration #  5     ecut=    29.40 Ry     beta= 0.05
     Davidson diagonalization with overlap
     c_bands:  4 eigenvalues not converged
     ethr =  1.00E-02,  avg # of iterations = 16.1

     negative rho (up, down):  3.212E-03 0.000E+00
 
     Adding external electric field

     Computed dipole along edir(3) : 
        Dipole               -5.5480 Ry au,        -14.1017 Debye
        Dipole field         -0.0105 Ry au, 
 
        Potential amp.        0.9705 Ry
        Total length         46.3494 bohr
 

     total cpu time spent up to now is      351.1 secs

     total energy              =   -2944.11810830 Ry
     estimated scf accuracy    <      35.73734891 Ry

     iteration #  6     ecut=    29.40 Ry     beta= 0.05
     Davidson diagonalization with overlap
     ethr =  9.00E-03,  avg # of iterations =  1.1

     negative rho (up, down):  3.254E-03 0.000E+00
 
     Adding external electric field

     Computed dipole along edir(3) : 
        Dipole               -4.8733 Ry au,        -12.3868 Debye
        Dipole field         -0.0092 Ry au, 
 
        Potential amp.        0.8525 Ry
        Total length         46.3494 bohr
 

     total cpu time spent up to now is      368.6 secs

     total energy              =   -2943.54015954 Ry
     estimated scf accuracy    <      31.79869960 Ry

     iteration #  7     ecut=    29.40 Ry     beta= 0.05
     Davidson diagonalization with overlap
     ethr =  8.01E-03,  avg # of iterations =  1.0

     negative rho (up, down):  3.663E-03 0.000E+00
 
     Adding external electric field

     Computed dipole along edir(3) : 
        Dipole               -1.9678 Ry au,         -5.0017 Debye
        Dipole field         -0.0037 Ry au, 
 
        Potential amp.        0.3442 Ry
        Total length         46.3494 bohr
 

     total cpu time spent up to now is      386.0 secs

     total energy              =   -2941.38082695 Ry
     estimated scf accuracy    <      30.40524521 Ry

     iteration #  8     ecut=    29.40 Ry     beta= 0.05
     Davidson diagonalization with overlap
     ethr =  7.66E-03,  avg # of iterations =  2.0

     negative rho (up, down):  3.767E-03 0.000E+00
 
     Adding external electric field

     Computed dipole along edir(3) : 
        Dipole               -1.6596 Ry au,         -4.2182 Debye
        Dipole field         -0.0031 Ry au, 
 
        Potential amp.        0.2903 Ry
        Total length         46.3494 bohr
 

     total cpu time spent up to now is      404.8 secs

     total energy              =   -2945.19295779 Ry
     estimated scf accuracy    <     632.11258113 Ry

     iteration #  9     ecut=    29.40 Ry     beta= 0.05
     Davidson diagonalization with overlap
     ethr =  7.66E-03,  avg # of iterations =  1.0

     negative rho (up, down):  4.047E-03 0.000E+00
 
     Adding external electric field

     Computed dipole along edir(3) : 
        Dipole               -1.5245 Ry au,         -3.8750 Debye
        Dipole field         -0.0029 Ry au, 
 
        Potential amp.        0.2667 Ry
        Total length         46.3494 bohr
 

     total cpu time spent up to now is      422.0 secs

     total energy              =   -2943.32549703 Ry
     estimated scf accuracy    <     672.64553625 Ry

     iteration # 10     ecut=    29.40 Ry     beta= 0.05
     Davidson diagonalization with overlap
     ethr =  7.66E-03,  avg # of iterations =  1.0

     negative rho (up, down):  4.328E-03 0.000E+00
 
     Adding external electric field

     Computed dipole along edir(3) : 
        Dipole               -2.3445 Ry au,         -5.9592 Debye
        Dipole field         -0.0044 Ry au, 
 
        Potential amp.        0.4101 Ry
        Total length         46.3494 bohr
 

     total cpu time spent up to now is      439.3 secs

     total energy              =   -2938.03520238 Ry
     estimated scf accuracy    <     502.95014510 Ry

     iteration # 11     ecut=    29.40 Ry     beta= 0.05
     Davidson diagonalization with overlap
     ethr =  7.66E-03,  avg # of iterations =  1.5

     negative rho (up, down):  4.237E-03 0.000E+00
 
     Adding external electric field

     Computed dipole along edir(3) : 
        Dipole               -2.4348 Ry au,         -6.1886 Debye
        Dipole field         -0.0046 Ry au, 
 
        Potential amp.        0.4259 Ry
        Total length         46.3494 bohr
 

     total cpu time spent up to now is      456.9 secs

     total energy              =   -2941.32055391 Ry
     estimated scf accuracy    <      20.15672298 Ry

     iteration # 12     ecut=    29.40 Ry     beta= 0.05
     Davidson diagonalization with overlap
     ethr =  5.08E-03,  avg # of iterations =  1.5

     negative rho (up, down):  4.102E-03 0.000E+00
 
     Adding external electric field

     Computed dipole along edir(3) : 
        Dipole               -2.0727 Ry au,         -5.2682 Debye
        Dipole field         -0.0039 Ry au, 
 
        Potential amp.        0.3626 Ry
        Total length         46.3494 bohr
 

     total cpu time spent up to now is      474.5 secs

     total energy              =   -2941.73358610 Ry
     estimated scf accuracy    <      17.20862284 Ry

     iteration # 13     ecut=    29.40 Ry     beta= 0.05
     Davidson diagonalization with overlap
     ethr =  4.33E-03,  avg # of iterations =  1.0

     negative rho (up, down):  3.849E-03 0.000E+00
 
     Adding external electric field

     Computed dipole along edir(3) : 
        Dipole               -1.4882 Ry au,         -3.7826 Debye
        Dipole field         -0.0028 Ry au, 
 
        Potential amp.        0.2603 Ry
        Total length         46.3494 bohr
 

     total cpu time spent up to now is      491.6 secs

     total energy              =   -2941.63615435 Ry
     estimated scf accuracy    <      17.39697616 Ry

     iteration # 14     ecut=    29.40 Ry     beta= 0.05
     Davidson diagonalization with overlap
     ethr =  4.33E-03,  avg # of iterations =  1.4

     negative rho (up, down):  3.978E-03 0.000E+00
 
     Adding external electric field

     Computed dipole along edir(3) : 
        Dipole               -2.3577 Ry au,         -5.9928 Debye
        Dipole field         -0.0044 Ry au, 
 
        Potential amp.        0.4125 Ry
        Total length         46.3494 bohr
 

     total cpu time spent up to now is      509.1 secs

     total energy              =   -2939.76714806 Ry
     estimated scf accuracy    <     129.52593871 Ry

     iteration # 15     ecut=    29.40 Ry     beta= 0.05
     Davidson diagonalization with overlap
     ethr =  4.33E-03,  avg # of iterations =  2.8

     negative rho (up, down):  4.374E-03 0.000E+00
 
     Adding external electric field

     Computed dipole along edir(3) : 
        Dipole               -2.4246 Ry au,         -6.1628 Debye
        Dipole field         -0.0046 Ry au, 
 
        Potential amp.        0.4241 Ry
        Total length         46.3494 bohr
 

     total cpu time spent up to now is      527.3 secs

     total energy              =   -2941.18069351 Ry
     estimated scf accuracy    <       5.50274193 Ry

     iteration # 16     ecut=    29.40 Ry     beta= 0.05
     Davidson diagonalization with overlap
     c_bands:  2 eigenvalues not converged
     c_bands:  1 eigenvalues not converged
     c_bands:  5 eigenvalues not converged
     ethr =  1.39E-03,  avg # of iterations =  9.9

     negative rho (up, down):  4.370E-03 0.000E+00
 
     Adding external electric field

     Computed dipole along edir(3) : 
        Dipole               -2.6426 Ry au,         -6.7167 Debye
        Dipole field         -0.0050 Ry au, 
 
        Potential amp.        0.4623 Ry
        Total length         46.3494 bohr
 

     total cpu time spent up to now is      551.6 secs

     total energy              =   -2941.92690222 Ry
     estimated scf accuracy    <       2.01268600 Ry

     iteration # 17     ecut=    29.40 Ry     beta= 0.05
     Davidson diagonalization with overlap
     ethr =  5.07E-04,  avg # of iterations =  4.0

     negative rho (up, down):  4.266E-03 0.000E+00
 
     Adding external electric field

     Computed dipole along edir(3) : 
        Dipole               -2.4794 Ry au,         -6.3019 Debye
        Dipole field         -0.0047 Ry au, 
 
        Potential amp.        0.4337 Ry
        Total length         46.3494 bohr
 

     total cpu time spent up to now is      571.3 secs

     total energy              =   -2941.83301192 Ry
     estimated scf accuracy    <       3.84345036 Ry

     iteration # 18     ecut=    29.40 Ry     beta= 0.05
     Davidson diagonalization with overlap
     ethr =  5.07E-04,  avg # of iterations =  2.9

     negative rho (up, down):  4.292E-03 0.000E+00
 
     Adding external electric field

     Computed dipole along edir(3) : 
        Dipole               -2.5731 Ry au,         -6.5401 Debye
        Dipole field         -0.0049 Ry au, 
 
        Potential amp.        0.4501 Ry
        Total length         46.3494 bohr
 

     total cpu time spent up to now is      590.1 secs

     total energy              =   -2942.02352044 Ry
     estimated scf accuracy    <       2.26429481 Ry

     iteration # 19     ecut=    29.40 Ry     beta= 0.05
     Davidson diagonalization with overlap
     ethr =  5.07E-04,  avg # of iterations =  1.6

     negative rho (up, down):  4.409E-03 0.000E+00
 
     Adding external electric field

     Computed dipole along edir(3) : 
        Dipole               -2.1497 Ry au,         -5.4640 Debye
        Dipole field         -0.0041 Ry au, 
 
        Potential amp.        0.3761 Ry
        Total length         46.3494 bohr
 

     total cpu time spent up to now is      607.9 secs

     total energy              =   -2941.63307785 Ry
     estimated scf accuracy    <       3.34076136 Ry

     iteration # 20     ecut=    29.40 Ry     beta= 0.05
     Davidson diagonalization with overlap
     ethr =  5.07E-04,  avg # of iterations =  6.5

     negative rho (up, down):  5.141E-03 0.000E+00
 
     Adding external electric field

     Computed dipole along edir(3) : 
        Dipole               -1.3566 Ry au,         -3.4481 Debye
        Dipole field         -0.0026 Ry au, 
 
        Potential amp.        0.2373 Ry
        Total length         46.3494 bohr
 

     total cpu time spent up to now is      628.9 secs

     total energy              =   -2941.74777983 Ry
     estimated scf accuracy    <       1.27207623 Ry

     iteration # 21     ecut=    29.40 Ry     beta= 0.05
     Davidson diagonalization with overlap
     c_bands:  3 eigenvalues not converged
     c_bands:  3 eigenvalues not converged
     c_bands:  2 eigenvalues not converged
     ethr =  3.20E-04,  avg # of iterations = 15.7

     negative rho (up, down):  5.173E-03 0.000E+00
 
     Adding external electric field

     Computed dipole along edir(3) : 
        Dipole               -1.2329 Ry au,         -3.1338 Debye
        Dipole field         -0.0023 Ry au, 
 
        Potential amp.        0.2157 Ry
        Total length         46.3494 bohr
 

     total cpu time spent up to now is      657.8 secs

     total energy              =   -2941.79223591 Ry
     estimated scf accuracy    <       7.45067384 Ry

     iteration # 22     ecut=    29.40 Ry     beta= 0.05
     Davidson diagonalization with overlap
     c_bands:  1 eigenvalues not converged
     ethr =  3.20E-04,  avg # of iterations =  7.5

     negative rho (up, down):  5.248E-03 0.000E+00
 
     Adding external electric field

     Computed dipole along edir(3) : 
        Dipole               -0.9224 Ry au,         -2.3446 Debye
        Dipole field         -0.0017 Ry au, 
 
        Potential amp.        0.1614 Ry
        Total length         46.3494 bohr
 

     total cpu time spent up to now is      679.2 secs

     total energy              =   -2941.74766593 Ry
     estimated scf accuracy    <       4.83450035 Ry

     iteration # 23     ecut=    29.40 Ry     beta= 0.05
     Davidson diagonalization with overlap
     ethr =  3.20E-04,  avg # of iterations =  4.5

     negative rho (up, down):  5.608E-03 0.000E+00
 
     Adding external electric field

     Computed dipole along edir(3) : 
        Dipole               -0.6262 Ry au,         -1.5916 Debye
        Dipole field         -0.0012 Ry au, 
 
        Potential amp.        0.1095 Ry
        Total length         46.3494 bohr
 

     total cpu time spent up to now is      698.7 secs

     total energy              =   -2941.77527968 Ry
     estimated scf accuracy    <       1.52576374 Ry

     iteration # 24     ecut=    29.40 Ry     beta= 0.05
     Davidson diagonalization with overlap
     ethr =  3.20E-04,  avg # of iterations =  3.2

     negative rho (up, down):  5.999E-03 0.000E+00
 
     Adding external electric field

     Computed dipole along edir(3) : 
        Dipole               -0.0865 Ry au,         -0.2198 Debye
        Dipole field         -0.0002 Ry au, 
 
        Potential amp.        0.0151 Ry
        Total length         46.3494 bohr
 

     total cpu time spent up to now is      717.0 secs

     total energy              =   -2941.64834879 Ry
     estimated scf accuracy    <       1.90470877 Ry

     iteration # 25     ecut=    29.40 Ry     beta= 0.05
     Davidson diagonalization with overlap
     ethr =  3.20E-04,  avg # of iterations =  3.8

     negative rho (up, down):  5.975E-03 0.000E+00
 
     Adding external electric field

     Computed dipole along edir(3) : 
        Dipole                0.2940 Ry au,          0.7474 Debye
        Dipole field          0.0006 Ry au, 
 
        Potential amp.       -0.0514 Ry
        Total length         46.3494 bohr
 

     total cpu time spent up to now is      736.4 secs

     total energy              =   -2941.60982139 Ry
     estimated scf accuracy    <       0.47890007 Ry

     iteration # 26     ecut=    29.40 Ry     beta= 0.05
     Davidson diagonalization with overlap
     c_bands:  3 eigenvalues not converged
     c_bands:  1 eigenvalues not converged
     c_bands:  2 eigenvalues not converged
     c_bands:  3 eigenvalues not converged
     c_bands:  2 eigenvalues not converged
     c_bands:  1 eigenvalues not converged
     c_bands:  1 eigenvalues not converged
     c_bands:  1 eigenvalues not converged
     ethr =  1.21E-04,  avg # of iterations = 19.1

     negative rho (up, down):  5.902E-03 0.000E+00
 
     Adding external electric field

     Computed dipole along edir(3) : 
        Dipole                0.1037 Ry au,          0.2637 Debye
        Dipole field          0.0002 Ry au, 
 
        Potential amp.       -0.0181 Ry
        Total length         46.3494 bohr
 

     total cpu time spent up to now is      771.2 secs

     total energy              =   -2941.64517945 Ry
     estimated scf accuracy    <       0.36193614 Ry

     iteration # 27     ecut=    29.40 Ry     beta= 0.05
     Davidson diagonalization with overlap
     ethr =  9.12E-05,  avg # of iterations =  7.4

     negative rho (up, down):  5.825E-03 0.000E+00
 
     Adding external electric field

     Computed dipole along edir(3) : 
        Dipole                0.0413 Ry au,          0.1049 Debye
        Dipole field          0.0001 Ry au, 
 
        Potential amp.       -0.0072 Ry
        Total length         46.3494 bohr
 

     total cpu time spent up to now is      792.1 secs

     total energy              =   -2941.66016276 Ry
     estimated scf accuracy    <       0.18961945 Ry

     iteration # 28     ecut=    29.40 Ry     beta= 0.05
     Davidson diagonalization with overlap
     c_bands:  2 eigenvalues not converged
     ethr =  4.78E-05,  avg # of iterations =  9.3

     negative rho (up, down):  5.960E-03 0.000E+00
 
     Adding external electric field

     Computed dipole along edir(3) : 
        Dipole                0.0904 Ry au,          0.2297 Debye
        Dipole field          0.0002 Ry au, 
 
        Potential amp.       -0.0158 Ry
        Total length         46.3494 bohr
 

     total cpu time spent up to now is      814.7 secs

     total energy              =   -2941.65710811 Ry
     estimated scf accuracy    <       0.18849985 Ry

     iteration # 29     ecut=    29.40 Ry     beta= 0.05
     Davidson diagonalization with overlap
     ethr =  4.75E-05,  avg # of iterations =  5.1

     negative rho (up, down):  7.380E-03 0.000E+00
 
     Adding external electric field

     Computed dipole along edir(3) : 
        Dipole                0.5084 Ry au,          1.2922 Debye
        Dipole field          0.0010 Ry au, 
 
        Potential amp.       -0.0889 Ry
        Total length         46.3494 bohr
 

     total cpu time spent up to now is      834.3 secs

     total energy              =   -2941.65578277 Ry
     estimated scf accuracy    <       0.10225546 Ry

     iteration # 30     ecut=    29.40 Ry     beta= 0.05
     Davidson diagonalization with overlap
     c_bands:  2 eigenvalues not converged
     c_bands:  1 eigenvalues not converged
     c_bands:  1 eigenvalues not converged
     c_bands:  1 eigenvalues not converged
     c_bands:  1 eigenvalues not converged
     c_bands:  1 eigenvalues not converged
     c_bands:  1 eigenvalues not converged
     ethr =  2.58E-05,  avg # of iterations = 18.5

     negative rho (up, down):  7.475E-03 0.000E+00
 
     Adding external electric field

     Computed dipole along edir(3) : 
        Dipole                0.4676 Ry au,          1.1886 Debye
        Dipole field          0.0009 Ry au, 
 
        Potential amp.       -0.0818 Ry
        Total length         46.3494 bohr
 

     total cpu time spent up to now is      867.4 secs

     total energy              =   -2941.65740350 Ry
     estimated scf accuracy    <       0.27142138 Ry

     iteration # 31     ecut=    29.40 Ry     beta= 0.05
     Davidson diagonalization with overlap
     c_bands:  2 eigenvalues not converged
     c_bands:  2 eigenvalues not converged
     ethr =  2.58E-05,  avg # of iterations =  8.7

     negative rho (up, down):  7.612E-03 0.000E+00
 
     Adding external electric field

     Computed dipole along edir(3) : 
        Dipole                0.5825 Ry au,          1.4807 Debye
        Dipole field          0.0011 Ry au, 
 
        Potential amp.       -0.1019 Ry
        Total length         46.3494 bohr
 

     total cpu time spent up to now is      889.3 secs

     total energy              =   -2941.67201917 Ry
     estimated scf accuracy    <       0.06303470 Ry

     iteration # 32     ecut=    29.40 Ry     beta= 0.05
     Davidson diagonalization with overlap
     c_bands:  1 eigenvalues not converged
     ethr =  1.59E-05,  avg # of iterations = 10.6

     negative rho (up, down):  7.552E-03 0.000E+00
 
     Adding external electric field

     Computed dipole along edir(3) : 
        Dipole                0.4650 Ry au,          1.1820 Debye
        Dipole field          0.0009 Ry au, 
 
        Potential amp.       -0.0813 Ry
        Total length         46.3494 bohr
 

     total cpu time spent up to now is      912.6 secs

     total energy              =   -2941.67432552 Ry
     estimated scf accuracy    <       0.40722539 Ry

     iteration # 33     ecut=    29.40 Ry     beta= 0.05
     Davidson diagonalization with overlap
     c_bands:  1 eigenvalues not converged
     ethr =  1.59E-05,  avg # of iterations =  8.9

     negative rho (up, down):  1.350E-02 0.000E+00
 
     Adding external electric field

     Computed dipole along edir(3) : 
        Dipole                0.9870 Ry au,          2.5086 Debye
        Dipole field          0.0019 Ry au, 
 
        Potential amp.       -0.1727 Ry
        Total length         46.3494 bohr
 

     total cpu time spent up to now is      934.7 secs

     total energy              =   -2941.65363125 Ry
     estimated scf accuracy    <       0.23383705 Ry

     iteration # 34     ecut=    29.40 Ry     beta= 0.05
     Davidson diagonalization with overlap
     c_bands:  4 eigenvalues not converged
     c_bands:  1 eigenvalues not converged
     c_bands:  2 eigenvalues not converged
     ethr =  1.59E-05,  avg # of iterations = 18.2

     negative rho (up, down):  1.077E-02 0.000E+00
 
     Adding external electric field

     Computed dipole along edir(3) : 
        Dipole                0.8807 Ry au,          2.2386 Debye
        Dipole field          0.0017 Ry au, 
 
        Potential amp.       -0.1541 Ry
        Total length         46.3494 bohr
 

     total cpu time spent up to now is      970.5 secs

     total energy              =   -2941.66252284 Ry
     estimated scf accuracy    <       0.26134506 Ry

     iteration # 35     ecut=    29.40 Ry     beta= 0.05
     Davidson diagonalization with overlap
     ethr =  1.59E-05,  avg # of iterations =  8.3

     negative rho (up, down):  1.136E-02 0.000E+00
 
     Adding external electric field

     Computed dipole along edir(3) : 
        Dipole                0.8788 Ry au,          2.2337 Debye
        Dipole field          0.0017 Ry au, 
 
        Potential amp.       -0.1537 Ry
        Total length         46.3494 bohr
 

     total cpu time spent up to now is      991.4 secs

     total energy              =   -2941.66225859 Ry
     estimated scf accuracy    <       0.12977460 Ry

     iteration # 36     ecut=    29.40 Ry     beta= 0.05
     Davidson diagonalization with overlap
     ethr =  1.59E-05,  avg # of iterations = 11.5

     negative rho (up, down):  1.173E-02 0.000E+00
 
     Adding external electric field

     Computed dipole along edir(3) : 
        Dipole                0.8690 Ry au,          2.2087 Debye
        Dipole field          0.0016 Ry au, 
 
        Potential amp.       -0.1520 Ry
        Total length         46.3494 bohr
 

     total cpu time spent up to now is     1014.3 secs

     total energy              =   -2941.65888327 Ry
     estimated scf accuracy    <       0.09796764 Ry

     iteration # 37     ecut=    29.40 Ry     beta= 0.05
     Davidson diagonalization with overlap
     c_bands:  1 eigenvalues not converged
     c_bands:  1 eigenvalues not converged
     c_bands:  2 eigenvalues not converged
     ethr =  1.59E-05,  avg # of iterations = 14.5

     negative rho (up, down):  1.474E-02 0.000E+00
 
     Adding external electric field

     Computed dipole along edir(3) : 
        Dipole                0.8961 Ry au,          2.2777 Debye
        Dipole field          0.0017 Ry au, 
 
        Potential amp.       -0.1568 Ry
        Total length         46.3494 bohr
 

     total cpu time spent up to now is     1039.6 secs

     total energy              =   -2941.65786299 Ry
     estimated scf accuracy    <       0.02521385 Ry

     iteration # 38     ecut=    29.40 Ry     beta= 0.05
     Davidson diagonalization with overlap
     c_bands:  3 eigenvalues not converged
     c_bands:  4 eigenvalues not converged
     c_bands:  1 eigenvalues not converged
     c_bands:  2 eigenvalues not converged
     c_bands:  1 eigenvalues not converged
     c_bands:  3 eigenvalues not converged
     ethr =  6.35E-06,  avg # of iterations = 18.5

     negative rho (up, down):  1.490E-02 0.000E+00
 
     Adding external electric field

     Computed dipole along edir(3) : 
        Dipole                0.9159 Ry au,          2.3279 Debye
        Dipole field          0.0017 Ry au, 
 
        Potential amp.       -0.1602 Ry
        Total length         46.3494 bohr
 

     total cpu time spent up to now is     1070.8 secs

     total energy              =   -2941.66108996 Ry
     estimated scf accuracy    <       0.01895565 Ry

     iteration # 39     ecut=    29.40 Ry     beta= 0.05
     Davidson diagonalization with overlap
     c_bands:  1 eigenvalues not converged
     ethr =  4.77E-06,  avg # of iterations =  4.8

     negative rho (up, down):  1.461E-02 0.000E+00
 
     Adding external electric field

     Computed dipole along edir(3) : 
        Dipole                0.9606 Ry au,          2.4417 Debye
        Dipole field          0.0018 Ry au, 
 
        Potential amp.       -0.1680 Ry
        Total length         46.3494 bohr
 

     total cpu time spent up to now is     1089.9 secs

     total energy              =   -2941.66001193 Ry
     estimated scf accuracy    <       0.00949591 Ry

     iteration # 40     ecut=    29.40 Ry     beta= 0.05
     Davidson diagonalization with overlap
     c_bands:  1 eigenvalues not converged
     c_bands:  1 eigenvalues not converged
     c_bands:  3 eigenvalues not converged
     c_bands:  2 eigenvalues not converged
     c_bands:  4 eigenvalues not converged
     c_bands:  1 eigenvalues not converged
     ethr =  2.39E-06,  avg # of iterations = 18.3

     negative rho (up, down):  1.539E-02 0.000E+00
 
     Adding external electric field

     Computed dipole along edir(3) : 
        Dipole                0.9724 Ry au,          2.4715 Debye
        Dipole field          0.0018 Ry au, 
 
        Potential amp.       -0.1701 Ry
        Total length         46.3494 bohr
 

     total cpu time spent up to now is     1119.4 secs

     total energy              =   -2941.66096670 Ry
     estimated scf accuracy    <       0.00702998 Ry

     iteration # 41     ecut=    29.40 Ry     beta= 0.05
     Davidson diagonalization with overlap
     ethr =  1.77E-06,  avg # of iterations =  5.9

     negative rho (up, down):  1.645E-02 0.000E+00
 
     Adding external electric field

     Computed dipole along edir(3) : 
        Dipole                0.9595 Ry au,          2.4389 Debye
        Dipole field          0.0018 Ry au, 
 
        Potential amp.       -0.1679 Ry
        Total length         46.3494 bohr
 

     total cpu time spent up to now is     1139.6 secs

     total energy              =   -2941.66082684 Ry
     estimated scf accuracy    <       0.00348952 Ry

     iteration # 42     ecut=    29.40 Ry     beta= 0.05
     Davidson diagonalization with overlap
     c_bands:  1 eigenvalues not converged
     c_bands:  2 eigenvalues not converged
     c_bands:  1 eigenvalues not converged
     ethr =  8.79E-07,  avg # of iterations = 16.5

     negative rho (up, down):  1.594E-02 0.000E+00
 
     Adding external electric field

     Computed dipole along edir(3) : 
        Dipole                0.9450 Ry au,          2.4018 Debye
        Dipole field          0.0018 Ry au, 
 
        Potential amp.       -0.1653 Ry
        Total length         46.3494 bohr
 

     total cpu time spent up to now is     1168.1 secs

     total energy              =   -2941.66108702 Ry
     estimated scf accuracy    <       0.00467959 Ry

     iteration # 43     ecut=    29.40 Ry     beta= 0.05
     Davidson diagonalization with overlap
     ethr =  8.79E-07,  avg # of iterations =  6.8

     negative rho (up, down):  1.597E-02 0.000E+00
 
     Adding external electric field

     Computed dipole along edir(3) : 
        Dipole                0.9341 Ry au,          2.3742 Debye
        Dipole field          0.0018 Ry au, 
 
        Potential amp.       -0.1634 Ry
        Total length         46.3494 bohr
 

     total cpu time spent up to now is     1188.7 secs

     total energy              =   -2941.66124613 Ry
     estimated scf accuracy    <       0.00148653 Ry

     iteration # 44     ecut=    29.40 Ry     beta= 0.05
     Davidson diagonalization with overlap
     ethr =  3.74E-07,  avg # of iterations = 11.1

     negative rho (up, down):  1.540E-02 0.000E+00
 
     Adding external electric field

     Computed dipole along edir(3) : 
        Dipole                0.9279 Ry au,          2.3586 Debye
        Dipole field          0.0018 Ry au, 
 
        Potential amp.       -0.1623 Ry
        Total length         46.3494 bohr
 

     total cpu time spent up to now is     1212.1 secs

     total energy              =   -2941.66117211 Ry
     estimated scf accuracy    <       0.00166505 Ry

     iteration # 45     ecut=    29.40 Ry     beta= 0.05
     Davidson diagonalization with overlap
     ethr =  3.74E-07,  avg # of iterations =  5.0

     negative rho (up, down):  1.521E-02 0.000E+00
 
     Adding external electric field

     Computed dipole along edir(3) : 
        Dipole                0.9258 Ry au,          2.3531 Debye
        Dipole field          0.0017 Ry au, 
 
        Potential amp.       -0.1620 Ry
        Total length         46.3494 bohr
 

     total cpu time spent up to now is     1232.0 secs

     total energy              =   -2941.66123148 Ry
     estimated scf accuracy    <       0.00047719 Ry

     iteration # 46     ecut=    29.40 Ry     beta= 0.05
     Davidson diagonalization with overlap
     ethr =  1.20E-07,  avg # of iterations = 13.6

     negative rho (up, down):  1.533E-02 0.000E+00
 
     Adding external electric field

     Computed dipole along edir(3) : 
        Dipole                0.9301 Ry au,          2.3641 Debye
        Dipole field          0.0018 Ry au, 
 
        Potential amp.       -0.1627 Ry
        Total length         46.3494 bohr
 

     total cpu time spent up to now is     1256.5 secs

     total energy              =   -2941.66126030 Ry
     estimated scf accuracy    <       0.00024321 Ry

     iteration # 47     ecut=    29.40 Ry     beta= 0.05
     Davidson diagonalization with overlap
     ethr =  6.13E-08,  avg # of iterations =  8.2

     negative rho (up, down):  1.610E-02 0.000E+00
 
     Adding external electric field

     Computed dipole along edir(3) : 
        Dipole                0.9477 Ry au,          2.4088 Debye
        Dipole field          0.0018 Ry au, 
 
        Potential amp.       -0.1658 Ry
        Total length         46.3494 bohr
 

     total cpu time spent up to now is     1278.1 secs

     total energy              =   -2941.66130774 Ry
     estimated scf accuracy    <       0.00013371 Ry

     iteration # 48     ecut=    29.40 Ry     beta= 0.05
     Davidson diagonalization with overlap
     c_bands:  1 eigenvalues not converged
     ethr =  3.37E-08,  avg # of iterations = 11.8

     negative rho (up, down):  1.603E-02 0.000E+00
 
     Adding external electric field

     Computed dipole along edir(3) : 
        Dipole                0.9479 Ry au,          2.4094 Debye
        Dipole field          0.0018 Ry au, 
 
        Potential amp.       -0.1658 Ry
        Total length         46.3494 bohr
 

     total cpu time spent up to now is     1306.6 secs

     total energy              =   -2941.66133773 Ry
     estimated scf accuracy    <       0.00010529 Ry

     iteration # 49     ecut=    29.40 Ry     beta= 0.05
     Davidson diagonalization with overlap
     ethr =  2.65E-08,  avg # of iterations =  2.8

     negative rho (up, down):  1.589E-02 0.000E+00
 
     Adding external electric field

     Computed dipole along edir(3) : 
        Dipole                0.9465 Ry au,          2.4058 Debye
        Dipole field          0.0018 Ry au, 
 
        Potential amp.       -0.1656 Ry
        Total length         46.3494 bohr
 

     total cpu time spent up to now is     1325.6 secs

     total energy              =   -2941.66134403 Ry
     estimated scf accuracy    <       0.00005594 Ry

     iteration # 50     ecut=    29.40 Ry     beta= 0.05
     Davidson diagonalization with overlap
     ethr =  1.41E-08,  avg # of iterations = 10.0

     negative rho (up, down):  1.614E-02 0.000E+00
 
     Adding external electric field

     Computed dipole along edir(3) : 
        Dipole                0.9465 Ry au,          2.4058 Debye
        Dipole field          0.0018 Ry au, 
 
        Potential amp.       -0.1656 Ry
        Total length         46.3494 bohr
 

     total cpu time spent up to now is     1355.4 secs

     total energy              =   -2941.66136292 Ry
     estimated scf accuracy    <       0.00004000 Ry

     iteration # 51     ecut=    29.40 Ry     beta= 0.05
     Davidson diagonalization with overlap
     ethr =  1.01E-08,  avg # of iterations =  9.8

     negative rho (up, down):  1.614E-02 0.000E+00
 
     Adding external electric field

     Computed dipole along edir(3) : 
        Dipole                0.9476 Ry au,          2.4086 Debye
        Dipole field          0.0018 Ry au, 
 
        Potential amp.       -0.1658 Ry
        Total length         46.3494 bohr
 

     total cpu time spent up to now is     1385.5 secs

     total energy              =   -2941.66138248 Ry
     estimated scf accuracy    <       0.00004028 Ry

     iteration # 52     ecut=    29.40 Ry     beta= 0.05
     Davidson diagonalization with overlap
     ethr =  1.01E-08,  avg # of iterations =  2.2

     negative rho (up, down):  1.610E-02 0.000E+00
 
     Adding external electric field

     Computed dipole along edir(3) : 
        Dipole                0.9475 Ry au,          2.4083 Debye
        Dipole field          0.0018 Ry au, 
 
        Potential amp.       -0.1657 Ry
        Total length         46.3494 bohr
 

     total cpu time spent up to now is     1404.8 secs

     total energy              =   -2941.66139225 Ry
     estimated scf accuracy    <       0.00001741 Ry

     iteration # 53     ecut=    29.40 Ry     beta= 0.05
     Davidson diagonalization with overlap
     ethr =  4.39E-09,  avg # of iterations = 10.0

     negative rho (up, down):  1.610E-02 0.000E+00
 
     Adding external electric field

     Computed dipole along edir(3) : 
        Dipole                0.9474 Ry au,          2.4081 Debye
        Dipole field          0.0018 Ry au, 
 
        Potential amp.       -0.1657 Ry
        Total length         46.3494 bohr
 

     total cpu time spent up to now is     1434.6 secs

     total energy              =   -2941.66140531 Ry
     estimated scf accuracy    <       0.00000882 Ry

     iteration # 54     ecut=    29.40 Ry     beta= 0.05
     Davidson diagonalization with overlap
     ethr =  2.22E-09,  avg # of iterations =  1.3

     negative rho (up, down):  1.610E-02 0.000E+00
 
     Adding external electric field

     Computed dipole along edir(3) : 
        Dipole                0.9473 Ry au,          2.4077 Debye
        Dipole field          0.0018 Ry au, 
 
        Potential amp.       -0.1657 Ry
        Total length         46.3494 bohr
 

     total cpu time spent up to now is     1452.4 secs

     total energy              =   -2941.66141292 Ry
     estimated scf accuracy    <       0.00000757 Ry

     iteration # 55     ecut=    29.40 Ry     beta= 0.05
     Davidson diagonalization with overlap
     ethr =  1.91E-09,  avg # of iterations =  7.7

     negative rho (up, down):  1.605E-02 0.000E+00
 
     Adding external electric field

     Computed dipole along edir(3) : 
        Dipole                0.9459 Ry au,          2.4042 Debye
        Dipole field          0.0018 Ry au, 
 
        Potential amp.       -0.1655 Ry
        Total length         46.3494 bohr
 

     total cpu time spent up to now is     1476.1 secs

     total energy              =   -2941.66142216 Ry
     estimated scf accuracy    <       0.00000280 Ry

     iteration # 56     ecut=    29.40 Ry     beta= 0.05
     Davidson diagonalization with overlap
     ethr =  7.05E-10,  avg # of iterations = 12.9

     negative rho (up, down):  1.606E-02 0.000E+00
 
     Adding external electric field

     Computed dipole along edir(3) : 
        Dipole                0.9454 Ry au,          2.4029 Debye
        Dipole field          0.0018 Ry au, 
 
        Potential amp.       -0.1654 Ry
        Total length         46.3494 bohr
 

     total cpu time spent up to now is     1506.6 secs

     total energy              =   -2941.66142959 Ry
     estimated scf accuracy    <       0.00000202 Ry

     iteration # 57     ecut=    29.40 Ry     beta= 0.05
     Davidson diagonalization with overlap
     ethr =  5.09E-10,  avg # of iterations =  7.7

     negative rho (up, down):  1.607E-02 0.000E+00
 
     Adding external electric field

     Computed dipole along edir(3) : 
        Dipole                0.9452 Ry au,          2.4024 Debye
        Dipole field          0.0018 Ry au, 
 
        Potential amp.       -0.1653 Ry
        Total length         46.3494 bohr
 

     total cpu time spent up to now is     1528.4 secs

     total energy              =   -2941.66143574 Ry
     estimated scf accuracy    <       0.00000135 Ry

     iteration # 58     ecut=    29.40 Ry     beta= 0.05
     Davidson diagonalization with overlap
     ethr =  3.40E-10,  avg # of iterations = 12.1

     negative rho (up, down):  1.606E-02 0.000E+00
 
     Adding external electric field

     Computed dipole along edir(3) : 
        Dipole                0.9451 Ry au,          2.4021 Debye
        Dipole field          0.0018 Ry au, 
 
        Potential amp.       -0.1653 Ry
        Total length         46.3494 bohr
 

     total cpu time spent up to now is     1554.3 secs

     total energy              =   -2941.66144152 Ry
     estimated scf accuracy    <       0.00000048 Ry

     iteration # 59     ecut=    29.40 Ry     beta= 0.05
     Davidson diagonalization with overlap
     ethr =  1.21E-10,  avg # of iterations =  6.1

     negative rho (up, down):  1.604E-02 0.000E+00
 
     Adding external electric field

     Computed dipole along edir(3) : 
        Dipole                0.9447 Ry au,          2.4011 Debye
        Dipole field          0.0018 Ry au, 
 
        Potential amp.       -0.1653 Ry
        Total length         46.3494 bohr
 

     total cpu time spent up to now is     1577.5 secs

     total energy              =   -2941.66144673 Ry
     estimated scf accuracy    <       0.00000022 Ry

     iteration # 60     ecut=    29.40 Ry     beta= 0.05
     Davidson diagonalization with overlap
     ethr =  5.58E-11,  avg # of iterations = 13.2

     negative rho (up, down):  1.604E-02 0.000E+00
 
     Adding external electric field

     Computed dipole along edir(3) : 
        Dipole                0.9445 Ry au,          2.4008 Debye
        Dipole field          0.0018 Ry au, 
 
        Potential amp.       -0.1652 Ry
        Total length         46.3494 bohr
 

     total cpu time spent up to now is     1609.1 secs

     total energy              =   -2941.66145137 Ry
     estimated scf accuracy    <       0.00000050 Ry

     iteration # 61     ecut=    29.40 Ry     beta= 0.05
     Davidson diagonalization with overlap
     ethr =  5.58E-11,  avg # of iterations =  5.7

     negative rho (up, down):  1.602E-02 0.000E+00
 
     Adding external electric field

     Computed dipole along edir(3) : 
        Dipole                0.9443 Ry au,          2.4001 Debye
        Dipole field          0.0018 Ry au, 
 
        Potential amp.       -0.1652 Ry
        Total length         46.3494 bohr
 

     total cpu time spent up to now is     1630.0 secs

     total energy              =   -2941.66145555 Ry
     estimated scf accuracy    <       0.00000018 Ry

     iteration # 62     ecut=    29.40 Ry     beta= 0.05
     Davidson diagonalization with overlap
     ethr =  4.53E-11,  avg # of iterations = 13.1

     negative rho (up, down):  1.602E-02 0.000E+00
 
     Adding external electric field

     Computed dipole along edir(3) : 
        Dipole                0.9442 Ry au,          2.4000 Debye
        Dipole field          0.0018 Ry au, 
 
        Potential amp.       -0.1652 Ry
        Total length         46.3494 bohr
 

     total cpu time spent up to now is     1663.4 secs

     total energy              =   -2941.66145935 Ry
     estimated scf accuracy    <       0.00000017 Ry

     iteration # 63     ecut=    29.40 Ry     beta= 0.05
     Davidson diagonalization with overlap
     ethr =  4.30E-11,  avg # of iterations =  2.0

     negative rho (up, down):  1.603E-02 0.000E+00
 
     Adding external electric field

     Computed dipole along edir(3) : 
        Dipole                0.9442 Ry au,          2.3999 Debye
        Dipole field          0.0018 Ry au, 
 
        Potential amp.       -0.1652 Ry
        Total length         46.3494 bohr
 

     total cpu time spent up to now is     1682.2 secs

     total energy              =   -2941.66146273 Ry
     estimated scf accuracy    <       0.00000007 Ry

     iteration # 64     ecut=    29.40 Ry     beta= 0.05
     Davidson diagonalization with overlap
     ethr =  1.89E-11,  avg # of iterations =  9.3

     negative rho (up, down):  1.608E-02 0.000E+00
 
     Adding external electric field

     Computed dipole along edir(3) : 
        Dipole                0.9446 Ry au,          2.4010 Debye
        Dipole field          0.0018 Ry au, 
 
        Potential amp.       -0.1652 Ry
        Total length         46.3494 bohr
 

     total cpu time spent up to now is     1711.2 secs

     End of self-consistent calculation

          k = 0.0000 0.0000 0.0000 ( 18029 PWs)   bands (ev):

   -55.6850 -55.6683 -55.6509 -55.6317 -55.5912 -55.5368 -55.5298 -55.4997
   -55.4937 -55.4657 -55.4637 -55.4296 -55.2569 -55.0339 -54.6655 -54.6315
   -32.2192 -32.1680 -32.0414 -32.0313 -31.9980 -31.9833 -31.9779 -31.9541
   -31.9291 -31.8974 -31.8951 -31.8888 -31.8458 -31.8373 -31.8238 -31.8220
   -31.8053 -31.7899 -31.7814 -31.7462 -31.7422 -31.7354 -31.7199 -31.7164
   -31.6934 -31.6888 -31.6862 -31.6785 -31.6643 -31.6622 -31.6546 -31.6453
   -31.6398 -31.6301 -31.6168 -31.6072 -31.5759 -31.5073 -31.4632 -31.2998
   -31.2906 -31.2362 -31.0727 -30.9843 -30.9619 -30.8895 -30.8030 -30.6919
   -16.7237 -16.4150 -16.1609 -15.9302 -15.8404 -15.8102 -15.6579 -15.5264
   -15.4171 -15.3352 -15.2501 -15.2312 -15.2239 -15.2129 -15.1872 -15.1813
   -15.1343 -15.1296 -15.1101 -15.0972 -15.0472 -15.0306 -15.0271 -14.9324
   -14.8683 -14.8330 -14.8184 -14.7837 -14.7464 -14.3324 -13.1679 -13.0514
   -11.8069  -8.9918  -5.4069  -4.3503  -3.8391  -3.7874  -3.6433  -3.5928
    -3.5325  -3.4938  -3.3161  -3.2135  -2.9408  -2.8838  -2.8542  -2.8451
    -2.7884  -2.7572  -2.6001  -2.5740  -2.5032  -2.4937  -2.4787  -2.4499
    -2.4407  -2.4329  -2.3962  -2.3745  -2.3460  -2.2419  -2.1008  -2.0913
    -2.0696  -2.0368  -1.9991  -1.9507  -1.9343  -1.9135  -1.8955  -1.8828
    -1.8703  -1.7349  -1.7003  -1.5838  -1.4946  -1.4466  -1.3647  -1.2973
    -1.2594  -1.1564  -1.1169  -1.1011  -1.0889  -1.0794  -0.9798  -0.8743
    -0.8563  -0.8179  -0.7625  -0.7081  -0.6378  -0.5927  -0.5421  -0.4894
    -0.4647  -0.4498  -0.4470  -0.4121  -0.3224  -0.1791  -0.1273  -0.0928
    -0.0706   0.0061   0.0410   0.0974   0.1214   0.1453   0.1809   0.2339
     0.2774   0.2841   0.2975   0.3120   0.3167   0.4910   0.5411   0.5824
     0.6155   0.6618   0.8228   0.8447   0.9667   1.0384   1.1970   1.2822
     1.3567   1.4343   1.5484   1.5895   1.9280   1.9737   3.4455   3.5331
     3.5777   3.5915   3.6868   3.7287   3.8984   3.9288   3.9431   4.0032

          k = 0.0000 0.0419 0.0000 ( 17933 PWs)   bands (ev):

   -55.6799 -55.6631 -55.6558 -55.6367 -55.5883 -55.5395 -55.5250 -55.4985
   -55.4945 -55.4706 -55.4588 -55.4344 -55.2563 -55.0343 -54.6605 -54.6364
   -32.1621 -32.1141 -31.9890 -31.9768 -31.9732 -31.9695 -31.9674 -31.9115
   -31.9094 -31.9016 -31.8995 -31.8822 -31.8536 -31.8481 -31.8465 -31.8314
   -31.8234 -31.8114 -31.7681 -31.7561 -31.7370 -31.7356 -31.7315 -31.7078
   -31.7044 -31.7028 -31.6966 -31.6929 -31.6890 -31.6772 -31.6677 -31.6604
   -31.6521 -31.6361 -31.6341 -31.6311 -31.6194 -31.5064 -31.4605 -31.3246
   -31.2906 -31.2514 -31.0186 -30.9808 -30.9649 -30.8769 -30.8156 -30.7490
   -16.7103 -16.2821 -16.0420 -15.8271 -15.7332 -15.7102 -15.6218 -15.5415
   -15.4565 -15.4463 -15.2789 -15.2512 -15.2242 -15.2086 -15.1846 -15.1642
   -15.1549 -15.1477 -15.1384 -15.1239 -15.0774 -15.0361 -14.9971 -14.9404
   -14.9204 -14.8863 -14.8755 -14.8044 -14.7976 -14.4062 -13.1719 -13.0909
   -11.8095  -8.9993  -5.4177  -4.3443  -3.7914  -3.5972  -3.4770  -3.4168
    -3.3775  -3.3406  -3.1591  -2.9850  -2.8991  -2.8565  -2.7686  -2.7494
    -2.7328  -2.6912  -2.6503  -2.6443  -2.6111  -2.5854  -2.5483  -2.5307
    -2.5022  -2.4514  -2.4363  -2.4056  -2.3730  -2.3544  -2.2864  -2.2393
    -2.1846  -2.1706  -2.1510  -2.1071  -1.9875  -1.9557  -1.9242  -1.8703
    -1.8107  -1.6528  -1.6169  -1.5018  -1.4474  -1.3712  -1.3466  -1.3208
    -1.2848  -1.0753  -1.0402  -1.0003  -0.9692  -0.9075  -0.9007  -0.7925
    -0.7137  -0.6965  -0.6655  -0.6395  -0.6226  -0.5876  -0.5669  -0.5257
    -0.5038  -0.4518  -0.3917  -0.3246  -0.3020  -0.2612  -0.2145  -0.1776
    -0.1707  -0.1500  -0.0352   0.0308   0.0713   0.0933   0.1126   0.1428
     0.1512   0.1888   0.2563   0.3134   0.3476   0.4132   0.4696   0.5237
     0.5871   0.6387   0.6500   0.6792   0.8026   0.9561   0.9742   1.0729
     1.3093   1.5455   1.5972   1.6296   1.8821   1.8855   3.6378   3.6860
     3.7024   3.7688   3.8014   3.8454   3.9099   3.9302   3.9514   4.0029

          k = 0.0000-0.0839 0.0000 ( 17884 PWs)   bands (ev):

   -55.6682 -55.6674 -55.6536 -55.6462 -55.5851 -55.5426 -55.5171 -55.5062
   -55.4833 -55.4818 -55.4494 -55.4437 -55.2557 -55.0349 -54.6484 -54.6483
   -32.0278 -32.0181 -31.9821 -31.9815 -31.9636 -31.9628 -31.9427 -31.9363
   -31.8821 -31.8678 -31.8612 -31.8537 -31.8494 -31.8469 -31.8365 -31.8302
   -31.8020 -31.7955 -31.7927 -31.7902 -31.7893 -31.7700 -31.7646 -31.7479
   -31.7362 -31.7352 -31.7169 -31.7154 -31.7051 -31.7042 -31.6814 -31.6744
   -31.6565 -31.6541 -31.6287 -31.6258 -31.6140 -31.5056 -31.4597 -31.3622
   -31.2907 -31.2621 -30.9726 -30.9726 -30.8856 -30.8855 -30.8463 -30.8463
   -16.6984 -15.9646 -15.9117 -15.7728 -15.7353 -15.6029 -15.5743 -15.5145
   -15.4683 -15.4600 -15.4353 -15.4117 -15.3628 -15.2463 -15.2453 -15.1278
   -15.0784 -15.0703 -15.0646 -15.0613 -15.0285 -15.0228 -15.0215 -15.0136
   -14.9854 -14.9467 -14.9379 -14.9320 -14.7785 -14.5091 -13.1536 -13.1536
   -11.8121  -9.0069  -5.4285  -4.3392  -3.7544  -3.1614  -3.1115  -3.0842
    -3.0772  -3.0576  -3.0276  -2.9783  -2.9769  -2.9453  -2.9263  -2.8409
    -2.8132  -2.7862  -2.7652  -2.7210  -2.7049  -2.6495  -2.6332  -2.5688
    -2.5456  -2.5103  -2.5064  -2.4448  -2.4075  -2.3823  -2.2885  -2.2797
    -2.2479  -2.1282  -2.1070  -2.0686  -2.0359  -2.0032  -1.9624  -1.7622
    -1.6767  -1.5973  -1.5441  -1.4821  -1.3811  -1.3622  -1.3302  -1.2237
    -1.1209  -1.1078  -1.1040  -1.0806  -1.0446  -1.0401  -0.9427  -0.9196
    -0.8571  -0.8226  -0.7941  -0.6743  -0.5844  -0.5116  -0.4217  -0.3491
    -0.3315  -0.3247  -0.3014  -0.2630  -0.2253  -0.2046  -0.1703  -0.1632
    -0.1330  -0.1248  -0.0851  -0.0523  -0.0402   0.0070   0.0237   0.0364
     0.1026   0.1121   0.1349   0.1644   0.1957   0.2219   0.2771   0.3798
     0.5476   0.5515   0.5652   0.5899   0.8793   0.9205   0.9963   1.0282
     1.0400   1.6064   1.6886   1.6896   1.8189   1.8195   3.7604   3.7687
     3.8229   3.8643   3.8779   3.8928   3.9581   4.0096   4.0364   4.0455

          k = 0.0380 0.0000 0.0000 ( 17913 PWs)   bands (ev):

   -55.6849 -55.6681 -55.6508 -55.6315 -55.5910 -55.5367 -55.5297 -55.4994
   -55.4936 -55.4656 -55.4638 -55.4295 -55.2569 -55.0338 -54.6654 -54.6314
   -32.2193 -32.1689 -32.0429 -32.0372 -31.9982 -31.9832 -31.9777 -31.9588
   -31.9291 -31.8957 -31.8922 -31.8764 -31.8457 -31.8343 -31.8188 -31.8148
   -31.8049 -31.7896 -31.7611 -31.7529 -31.7454 -31.7420 -31.7282 -31.7077
   -31.6930 -31.6858 -31.6819 -31.6787 -31.6642 -31.6614 -31.6607 -31.6543
   -31.6451 -31.6300 -31.6170 -31.6062 -31.5762 -31.5096 -31.4632 -31.2996
   -31.2911 -31.2361 -31.0722 -30.9876 -30.9598 -30.8893 -30.8029 -30.6916
   -16.7163 -16.3417 -16.0787 -15.8555 -15.8301 -15.7392 -15.6598 -15.5687
   -15.4153 -15.3914 -15.3785 -15.3319 -15.3247 -15.3103 -15.2463 -15.2345
   -15.2037 -15.0584 -15.0480 -15.0095 -14.9548 -14.9503 -14.9318 -14.9182
   -14.8803 -14.8750 -14.8703 -14.8443 -14.7630 -14.3302 -13.1646 -13.0511
   -11.8071  -8.9920  -5.4115  -4.3611  -3.8052  -3.6986  -3.4319  -3.3862
    -3.3153  -3.2815  -3.2362  -3.1995  -3.1441  -2.9401  -2.9340  -2.8409
    -2.7966  -2.7657  -2.7328  -2.6454  -2.5263  -2.5092  -2.4409  -2.3992
    -2.3853  -2.3658  -2.2923  -2.2595  -2.2521  -2.2143  -2.1667  -2.0888
    -2.0550  -2.0314  -1.9593  -1.9235  -1.8900  -1.8785  -1.8597  -1.7208
    -1.6589  -1.6394  -1.6148  -1.5368  -1.4978  -1.4802  -1.4188  -1.2936
    -1.2794  -1.2248  -1.1776  -1.1218  -1.1183  -1.0873  -1.0086  -0.9773
    -0.9609  -0.9487  -0.8619  -0.8257  -0.7253  -0.6105  -0.5841  -0.5100
    -0.4870  -0.4674  -0.4158  -0.4013  -0.2877  -0.2208  -0.1392  -0.1184
    -0.0973  -0.0357  -0.0091   0.0454   0.0536   0.0950   0.1250   0.1477
     0.1543   0.1856   0.2068   0.2380   0.3670   0.3965   0.4641   0.4904
     0.5804   0.6459   0.6630   0.7052   0.9294   1.0012   1.1877   1.2835
     1.3047   1.3686   1.5179   1.6086   1.8164   1.8909   3.4769   3.5060
     3.7965   3.8132   3.8296   3.8677   3.8710   3.8998   3.9145   3.9651

          k = 0.0380 0.0419 0.0000 ( 17878 PWs)   bands (ev):

   -55.6798 -55.6630 -55.6558 -55.6366 -55.5882 -55.5395 -55.5250 -55.4984
   -55.4943 -55.4705 -55.4589 -55.4344 -55.2563 -55.0343 -54.6604 -54.6364
   -32.1623 -32.1149 -31.9905 -31.9838 -31.9730 -31.9694 -31.9676 -31.9119
   -31.9102 -31.9040 -31.9011 -31.8692 -31.8535 -31.8482 -31.8466 -31.8209
   -31.8207 -31.8073 -31.7557 -31.7510 -31.7468 -31.7370 -31.7351 -31.7087
   -31.7032 -31.6964 -31.6943 -31.6914 -31.6887 -31.6772 -31.6677 -31.6615
   -31.6568 -31.6512 -31.6332 -31.6275 -31.6241 -31.5087 -31.4606 -31.3245
   -31.2913 -31.2513 -31.0182 -30.9834 -30.9639 -30.8768 -30.8156 -30.7488
   -16.7062 -16.2143 -15.9659 -15.7597 -15.7244 -15.6393 -15.6183 -15.5422
   -15.4939 -15.4477 -15.3438 -15.3206 -15.2961 -15.2813 -15.2437 -15.1977
   -15.1815 -15.1219 -15.0907 -15.0734 -15.0179 -15.0115 -14.9801 -14.9505
   -14.9398 -14.9257 -14.9033 -14.8806 -14.7822 -14.4041 -13.1697 -13.0912
   -11.8100  -8.9988  -5.4204  -4.3467  -3.7794  -3.5207  -3.2680  -3.2222
    -3.1419  -3.1144  -3.0803  -2.9925  -2.9645  -2.8369  -2.7912  -2.7267
    -2.7016  -2.6768  -2.6535  -2.6047  -2.5684  -2.5408  -2.5164  -2.4891
    -2.4329  -2.4198  -2.4014  -2.3854  -2.3453  -2.3310  -2.3125  -2.2732
    -2.1778  -2.1692  -2.1198  -2.0269  -1.9601  -1.9180  -1.8742  -1.8187
    -1.6922  -1.6747  -1.6356  -1.5160  -1.4638  -1.4106  -1.3748  -1.2748
    -1.1515  -1.1318  -1.1074  -1.0746  -1.0056  -0.9963  -0.9409  -0.9317
    -0.8764  -0.8197  -0.7709  -0.7386  -0.6643  -0.6285  -0.6147  -0.5844
    -0.5142  -0.4946  -0.4395  -0.4045  -0.3841  -0.3525  -0.3242  -0.2967
    -0.2685  -0.2101  -0.1407  -0.1209  -0.0634  -0.0055   0.0105   0.0368
     0.1009   0.1826   0.2413   0.2883   0.3803   0.4088   0.4896   0.5322
     0.5867   0.6379   0.6919   0.7150   0.7529   0.8924   0.9550   1.0793
     1.2457   1.5562   1.6101   1.6342   1.8046   1.8664   3.6306   3.6883
     3.7558   3.8255   3.8474   3.9018   3.9650   3.9898   4.0142   4.0424

          k = 0.0380-0.0839 0.0000 ( 17916 PWs)   bands (ev):

   -55.6682 -55.6675 -55.6536 -55.6462 -55.5851 -55.5426 -55.5172 -55.5063
   -55.4832 -55.4817 -55.4495 -55.4438 -55.2558 -55.0349 -54.6484 -54.6484
   -32.0281 -32.0184 -31.9829 -31.9822 -31.9636 -31.9628 -31.9428 -31.9364
   -31.8828 -31.8761 -31.8683 -31.8651 -31.8504 -31.8315 -31.8248 -31.8157
   -31.8025 -31.7962 -31.7907 -31.7891 -31.7882 -31.7806 -31.7760 -31.7457
   -31.7249 -31.7162 -31.7136 -31.7125 -31.7116 -31.7043 -31.6813 -31.6742
   -31.6565 -31.6541 -31.6404 -31.6376 -31.6136 -31.5077 -31.4598 -31.3621
   -31.2917 -31.2621 -30.9736 -30.9736 -30.8855 -30.8854 -30.8463 -30.8463
   -16.6967 -15.9197 -15.8641 -15.7216 -15.6837 -15.5676 -15.5434 -15.5125
   -15.4431 -15.4408 -15.3999 -15.3891 -15.3619 -15.2607 -15.2561 -15.1688
   -15.1399 -15.1128 -15.1042 -15.0945 -15.0783 -15.0631 -15.0447 -15.0319
   -15.0009 -14.9919 -14.9795 -14.9076 -14.7716 -14.5043 -13.1534 -13.1533
   -11.8128  -9.0065  -5.4248  -4.3384  -3.7591  -3.1546  -3.0709  -2.9370
    -2.9143  -2.8709  -2.8634  -2.8358  -2.7977  -2.7710  -2.7603  -2.7394
    -2.7229  -2.7012  -2.6719  -2.6500  -2.6400  -2.5551  -2.5432  -2.5312
    -2.5135  -2.4969  -2.4906  -2.4125  -2.3973  -2.3754  -2.3343  -2.2900
    -2.2657  -2.1772  -2.1661  -2.1038  -1.9196  -1.8253  -1.7848  -1.7605
    -1.6488  -1.6021  -1.5777  -1.5326  -1.5076  -1.4626  -1.4336  -1.4086
    -1.3497  -1.3275  -1.2996  -1.2525  -1.1763  -1.1309  -0.9878  -0.9195
    -0.8646  -0.8106  -0.7555  -0.7323  -0.7017  -0.6194  -0.5997  -0.5030
    -0.4821  -0.4507  -0.4368  -0.4160  -0.3999  -0.3627  -0.3270  -0.2991
    -0.2740  -0.2398  -0.2276  -0.1816  -0.1580  -0.0970  -0.0634  -0.0019
     0.0955   0.1484   0.2297   0.3040   0.3939   0.4057   0.4310   0.4621
     0.4754   0.5427   0.6498   0.6779   0.8330   0.8394   0.9675   1.0351
     1.0790   1.6030   1.7019   1.7028   1.8081   1.8089   3.7339   3.7511
     3.8302   3.8499   3.8671   3.8879   4.0261   4.0461   4.0734   4.0767

          k = 0.0380-0.0419 0.0000 ( 17876 PWs)   bands (ev):

   -55.6798 -55.6630 -55.6558 -55.6366 -55.5882 -55.5395 -55.5250 -55.4984
   -55.4943 -55.4705 -55.4589 -55.4344 -55.2563 -55.0343 -54.6604 -54.6364
   -32.1622 -32.1149 -31.9903 -31.9839 -31.9730 -31.9694 -31.9676 -31.9119
   -31.9103 -31.9040 -31.9011 -31.8694 -31.8532 -31.8481 -31.8466 -31.8212
   -31.8209 -31.8077 -31.7557 -31.7509 -31.7463 -31.7370 -31.7350 -31.7090
   -31.7031 -31.6958 -31.6950 -31.6914 -31.6886 -31.6773 -31.6677 -31.6612
   -31.6573 -31.6512 -31.6332 -31.6273 -31.6241 -31.5084 -31.4605 -31.3244
   -31.2914 -31.2514 -31.0182 -30.9834 -30.9639 -30.8768 -30.8156 -30.7488
   -16.7061 -16.2140 -15.9657 -15.7581 -15.7241 -15.6395 -15.6178 -15.5433
   -15.4948 -15.4483 -15.3443 -15.3294 -15.2958 -15.2842 -15.2451 -15.1930
   -15.1798 -15.1201 -15.0821 -15.0718 -15.0147 -15.0097 -14.9848 -14.9562
   -14.9395 -14.9267 -14.9033 -14.8795 -14.7820 -14.4044 -13.1697 -13.0912
   -11.8099  -8.9995  -5.4156  -4.3515  -3.7813  -3.5220  -3.2635  -3.2215
    -3.1413  -3.1121  -3.0794  -2.9954  -2.9656  -2.8348  -2.7920  -2.7290
    -2.6914  -2.6799  -2.6525  -2.6141  -2.5751  -2.5582  -2.5242  -2.4899
    -2.4370  -2.4247  -2.4028  -2.3895  -2.3527  -2.3331  -2.2996  -2.2652
    -2.1799  -2.1676  -2.0704  -2.0229  -1.9579  -1.9220  -1.8777  -1.8242
    -1.6920  -1.6699  -1.6386  -1.4981  -1.4434  -1.4101  -1.3813  -1.2806
    -1.1482  -1.1361  -1.1162  -1.0730  -1.0185  -0.9942  -0.9442  -0.9077
    -0.8797  -0.8206  -0.7827  -0.7154  -0.6800  -0.6533  -0.6194  -0.5679
    -0.5486  -0.5007  -0.4666  -0.4019  -0.3708  -0.3608  -0.3321  -0.2936
    -0.2556  -0.2027  -0.1460  -0.1169  -0.0336  -0.0081   0.0154   0.0434
     0.1047   0.1815   0.2519   0.2624   0.3696   0.4215   0.4979   0.5212
     0.5945   0.6409   0.6843   0.7107   0.7494   0.8935   0.9554   1.0947
     1.2460   1.5563   1.6019   1.6340   1.8044   1.8670   3.6268   3.6871
     3.7532   3.8254   3.8550   3.8900   3.9673   3.9934   4.0202   4.0340

          k =-0.0760-0.0000 0.0000 ( 17886 PWs)   bands (ev):

   -55.6848 -55.6680 -55.6508 -55.6315 -55.5910 -55.5367 -55.5297 -55.4992
   -55.4936 -55.4655 -55.4639 -55.4295 -55.2568 -55.0337 -54.6654 -54.6314
   -32.2195 -32.1698 -32.0444 -32.0427 -31.9983 -31.9830 -31.9775 -31.9634
   -31.9292 -31.8955 -31.8917 -31.8536 -31.8456 -31.8314 -31.8141 -31.8086
   -31.8047 -31.7896 -31.7765 -31.7454 -31.7423 -31.7322 -31.7159 -31.7070
   -31.7037 -31.6921 -31.6858 -31.6789 -31.6757 -31.6640 -31.6607 -31.6542
   -31.6452 -31.6299 -31.6178 -31.6055 -31.5768 -31.5124 -31.4633 -31.2996
   -31.2918 -31.2361 -31.0718 -30.9909 -30.9585 -30.8893 -30.8028 -30.6917
   -16.7096 -16.2414 -16.0044 -15.7989 -15.7846 -15.6773 -15.6403 -15.5502
   -15.4715 -15.4616 -15.4119 -15.3932 -15.3855 -15.3684 -15.3252 -15.3224
   -15.1978 -15.0744 -15.0510 -15.0201 -14.9784 -14.9532 -14.9351 -14.9116
   -14.8840 -14.8602 -14.8423 -14.7824 -14.7612 -14.3284 -13.1616 -13.0508
   -11.8074  -8.9923  -5.4155  -4.3696  -3.7914  -3.6752  -3.3785  -3.2741
    -3.1850  -3.0964  -3.0675  -3.0430  -2.9483  -2.9433  -2.9353  -2.9180
    -2.8558  -2.7294  -2.7077  -2.5207  -2.5006  -2.4814  -2.3867  -2.3782
    -2.3239  -2.2643  -2.2287  -2.1871  -2.1820  -2.1627  -2.0895  -2.0365
    -2.0002  -1.9898  -1.9464  -1.9334  -1.9201  -1.9161  -1.8894  -1.8486
    -1.8067  -1.7106  -1.6595  -1.4691  -1.4136  -1.3579  -1.3265  -1.2979
    -1.2897  -1.2741  -1.2707  -1.2474  -1.1919  -1.1506  -1.0587  -1.0333
    -0.9980  -0.9674  -0.9275  -0.8653  -0.8522  -0.8290  -0.6939  -0.6269
    -0.5102  -0.4466  -0.3758  -0.3719  -0.3379  -0.3287  -0.2775  -0.2070
    -0.1720  -0.1333  -0.0876  -0.0324  -0.0031   0.0317   0.0486   0.1159
     0.1226   0.1533   0.1909   0.2794   0.3434   0.3597   0.4275   0.5027
     0.5442   0.5740   0.7524   0.7890   0.9011   1.0043   1.0282   1.1880
     1.2962   1.3898   1.4935   1.6292   1.6872   1.8353   3.4815   3.4862
     3.6138   3.7240   3.7827   3.8763   3.8975   3.9477   3.9784   3.9847

          k =-0.0760 0.0419 0.0000 ( 17914 PWs)   bands (ev):

   -55.6798 -55.6630 -55.6558 -55.6367 -55.5882 -55.5395 -55.5250 -55.4985
   -55.4942 -55.4705 -55.4590 -55.4344 -55.2563 -55.0343 -54.6604 -54.6364
   -32.1626 -32.1159 -31.9920 -31.9905 -31.9730 -31.9695 -31.9679 -31.9133
   -31.9118 -31.9066 -31.9009 -31.8542 -31.8517 -31.8483 -31.8469 -31.8188
   -31.8112 -31.8038 -31.7650 -31.7556 -31.7376 -31.7349 -31.7174 -31.7099
   -31.7028 -31.6984 -31.6966 -31.6939 -31.6879 -31.6791 -31.6760 -31.6675
   -31.6583 -31.6503 -31.6330 -31.6308 -31.6274 -31.5110 -31.4607 -31.3245
   -31.2923 -31.2514 -31.0180 -30.9862 -30.9632 -30.8768 -30.8157 -30.7489
   -16.7022 -16.1230 -15.8910 -15.7108 -15.6830 -15.6198 -15.5629 -15.5389
   -15.4527 -15.4437 -15.4231 -15.3699 -15.3388 -15.3298 -15.3150 -15.2724
   -15.2182 -15.1399 -15.0748 -15.0713 -15.0543 -15.0283 -14.9733 -14.9629
   -14.9580 -14.9413 -14.8746 -14.8721 -14.7787 -14.4027 -13.1676 -13.0915
   -11.8105  -8.9991  -5.4181  -4.3530  -3.7759  -3.5053  -3.2176  -3.0125
    -2.9758  -2.8879  -2.8296  -2.8078  -2.7898  -2.7673  -2.7374  -2.7272
    -2.7038  -2.6662  -2.6348  -2.6171  -2.5854  -2.5530  -2.4690  -2.4664
    -2.4046  -2.3907  -2.3695  -2.3339  -2.2889  -2.2632  -2.2538  -2.1813
    -2.1646  -2.1604  -2.1217  -2.0465  -1.8954  -1.8357  -1.7958  -1.7837
    -1.7489  -1.6595  -1.6205  -1.5767  -1.4729  -1.3714  -1.2962  -1.2804
    -1.2443  -1.2248  -1.1818  -1.1414  -1.0896  -1.0506  -1.0034  -0.9807
    -0.9604  -0.9348  -0.9103  -0.8794  -0.8602  -0.8384  -0.7599  -0.7259
    -0.6784  -0.6519  -0.6341  -0.5559  -0.4552  -0.4461  -0.4111  -0.3644
    -0.3386  -0.3139  -0.2380  -0.2031  -0.1511  -0.1057  -0.0023   0.0174
     0.1412   0.1780   0.2572   0.3203   0.3718   0.4984   0.5598   0.5853
     0.6419   0.6859   0.7305   0.7611   0.8273   0.8761   0.9012   1.0820
     1.1035   1.5711   1.6161   1.6375   1.7279   1.8557   3.6157   3.6746
     3.6852   3.7728   3.7968   3.8113   3.9412   3.9711   4.0412   4.0917

          k =-0.0760-0.0839 0.0000 ( 17948 PWs)   bands (ev):

   -55.6682 -55.6675 -55.6536 -55.6462 -55.5851 -55.5427 -55.5172 -55.5063
   -55.4832 -55.4817 -55.4496 -55.4439 -55.2558 -55.0349 -54.6485 -54.6484
   -32.0284 -32.0187 -31.9836 -31.9830 -31.9637 -31.9628 -31.9429 -31.9365
   -31.8837 -31.8830 -31.8727 -31.8676 -31.8507 -31.8327 -31.8080 -31.8033
   -31.7989 -31.7953 -31.7888 -31.7886 -31.7872 -31.7869 -31.7832 -31.7435
   -31.7352 -31.7237 -31.7154 -31.7043 -31.6836 -31.6827 -31.6806 -31.6739
   -31.6640 -31.6600 -31.6566 -31.6541 -31.6131 -31.5097 -31.4599 -31.3621
   -31.2927 -31.2622 -30.9746 -30.9745 -30.8855 -30.8854 -30.8463 -30.8463
   -16.6950 -15.8631 -15.8020 -15.6443 -15.6090 -15.5894 -15.5543 -15.4937
   -15.4104 -15.3833 -15.3787 -15.3315 -15.3058 -15.2728 -15.2350 -15.2205
   -15.2134 -15.1946 -15.1823 -15.1485 -15.1390 -15.1274 -15.1202 -15.0447
   -15.0071 -15.0027 -14.9972 -14.8935 -14.7670 -14.5003 -13.1532 -13.1531
   -11.8135  -9.0061  -5.4210  -4.3375  -3.7639  -3.1559  -3.0688  -2.8941
    -2.8385  -2.8098  -2.7938  -2.6278  -2.6166  -2.6020  -2.5550  -2.5343
    -2.5256  -2.5159  -2.5071  -2.4861  -2.4733  -2.4369  -2.4282  -2.3936
    -2.3792  -2.3615  -2.3446  -2.3272  -2.3078  -2.2932  -2.2751  -2.2363
    -2.2154  -2.2054  -2.1848  -2.1413  -1.9310  -1.8806  -1.8334  -1.8253
    -1.8206  -1.8001  -1.7456  -1.7408  -1.7066  -1.6541  -1.5774  -1.4326
    -1.3872  -1.3708  -1.2778  -1.2561  -1.2032  -1.1312  -1.0853  -1.0683
    -1.0329  -0.9692  -0.9338  -0.8958  -0.8290  -0.8049  -0.7991  -0.7048
    -0.6839  -0.6483  -0.6416  -0.5627  -0.5106  -0.4495  -0.4342  -0.4179
    -0.3868  -0.3527  -0.3348  -0.2645  -0.1746  -0.1736  -0.1515  -0.0414
     0.0504   0.2776   0.3402   0.3774   0.4219   0.5159   0.5840   0.6090
     0.6248   0.6462   0.6657   0.7138   0.8410   0.8509   0.8852   0.9980
     1.0952   1.6029   1.7201   1.7210   1.7935   1.7936   3.7471   3.7653
     3.7859   3.8323   3.9515   3.9585   3.9808   3.9829   4.1056   4.1199

     the Fermi energy is     3.4471 ev

!    total energy              =   -2941.66149404 Ry
     estimated scf accuracy    <       0.00000004 Ry
     smearing contrib. (-TS)   =      -0.02152123 Ry
     internal energy E=F+TS    =   -2941.63997281 Ry

     The total energy is F=E-TS. E is the sum of the following terms:
     one-electron contribution =  -24275.86624764 Ry
     hartree contribution      =   12228.40875302 Ry
     xc contribution           =    -486.86684565 Ry
     ewald contribution        =    9592.68268357 Ry
     electric field correction =       0.00168390 Ry

     convergence has been achieved in  64 iterations

     Forces acting on atoms (cartesian axes, Ry/au):

     atom    1 type  1   force =     0.00017157   -0.00011562    0.09633306
     atom    2 type  1   force =    -0.00021977   -0.00064002   -0.17553424
     atom    3 type  2   force =    -0.00004156   -0.00003419   -0.02418846
     atom    4 type  2   force =     0.00005053   -0.00143829    0.05290794
     atom    5 type  2   force =    -0.01181115   -0.00049291    0.00396737
     atom    6 type  2   force =     0.01312476    0.00023708    0.00230547
[...]
    -0.0987  -0.0369  -0.0105   0.0440   0.0522   0.0935   0.1235   0.1462
     0.1530   0.1843   0.2055   0.2368   0.3656   0.3956   0.4626   0.4888
     0.5790   0.6445   0.6624   0.7032   0.9292   0.9996   1.1923   1.2819
     1.3033   1.3667   1.5161   1.6438   1.8146   1.8891   3.4754   3.5044
     3.7949   3.8116   3.8281   3.8663   3.8695   3.8981   3.9130   3.9636

          k = 0.0380 0.0419 0.0000 ( 17878 PWs)   bands (ev):

   -55.6816 -55.6645 -55.6576 -55.6382 -55.5894 -55.5408 -55.5265 -55.5000
   -55.4958 -55.4720 -55.4602 -55.4357 -55.2585 -55.0354 -54.6621 -54.6380
   -32.1638 -32.1167 -31.9917 -31.9854 -31.9747 -31.9708 -31.9692 -31.9134
   -31.9117 -31.9053 -31.9025 -31.8708 -31.8550 -31.8497 -31.8485 -31.8226
   -31.8223 -31.8086 -31.7574 -31.7524 -31.7483 -31.7385 -31.7365 -31.7100
   -31.7047 -31.6980 -31.6959 -31.6929 -31.6900 -31.6787 -31.6691 -31.6630
   -31.6582 -31.6530 -31.6347 -31.6288 -31.6254 -31.5107 -31.4629 -31.3260
   -31.2923 -31.2528 -31.0199 -30.9850 -30.9655 -30.8784 -30.8173 -30.7506
   -16.7541 -16.2160 -15.9673 -15.7617 -15.7259 -15.6409 -15.6198 -15.5437
   -15.4953 -15.4491 -15.3453 -15.3222 -15.2977 -15.2828 -15.2452 -15.1992
   -15.1829 -15.1234 -15.0916 -15.0748 -15.0194 -15.0129 -14.9817 -14.9520
   -14.9413 -14.9271 -14.9047 -14.8822 -14.7838 -14.4057 -13.1716 -13.0931
   -11.7926  -8.9778  -5.4267  -4.3588  -3.7838  -3.5222  -3.2695  -3.2237
    -3.1434  -3.1161  -3.0817  -2.9940  -2.9660  -2.8385  -2.7927  -2.7280
    -2.7029  -2.6783  -2.6549  -2.6062  -2.5696  -2.5420  -2.5180  -2.4909
    -2.4347  -2.4215  -2.4027  -2.3870  -2.3467  -2.3330  -2.3148  -2.2748
    -2.1792  -2.1711  -2.1214  -2.0291  -1.9642  -1.9241  -1.8764  -1.8206
    -1.6938  -1.6767  -1.6375  -1.5192  -1.4666  -1.4126  -1.3766  -1.2766
    -1.1536  -1.1346  -1.1093  -1.0774  -1.0084  -0.9988  -0.9425  -0.9334
    -0.8785  -0.8212  -0.7725  -0.7415  -0.6657  -0.6298  -0.6167  -0.5859
    -0.5157  -0.4961  -0.4409  -0.4059  -0.3854  -0.3530  -0.3257  -0.2979
    -0.2697  -0.2113  -0.1424  -0.1224  -0.0647  -0.0070   0.0091   0.0354
     0.0991   0.1808   0.2399   0.2866   0.3789   0.4073   0.4882   0.5307
     0.5849   0.6367   0.6903   0.7138   0.7513   0.8915   0.9541   1.0836
     1.2444   1.5544   1.6307   1.6485   1.8027   1.8646   3.6290   3.6868
     3.7543   3.8240   3.8460   3.9002   3.9636   3.9883   4.0126   4.0409

          k = 0.0380-0.0839 0.0000 ( 17916 PWs)   bands (ev):

   -55.6700 -55.6693 -55.6551 -55.6477 -55.5863 -55.5440 -55.5187 -55.5078
   -55.4847 -55.4832 -55.4509 -55.4451 -55.2580 -55.0360 -54.6501 -54.6501
   -32.0295 -32.0199 -31.9846 -31.9841 -31.9653 -31.9646 -31.9442 -31.9378
   -31.8842 -31.8777 -31.8698 -31.8666 -31.8518 -31.8329 -31.8263 -31.8173
   -31.8040 -31.7977 -31.7919 -31.7907 -31.7900 -31.7819 -31.7773 -31.7471
   -31.7264 -31.7177 -31.7151 -31.7139 -31.7130 -31.7059 -31.6827 -31.6756
   -31.6580 -31.6556 -31.6418 -31.6390 -31.6157 -31.5097 -31.4621 -31.3636
   -31.2928 -31.2635 -30.9752 -30.9752 -30.8872 -30.8871 -30.8479 -30.8479
   -16.7453 -15.9212 -15.8657 -15.7230 -15.6852 -15.5691 -15.5450 -15.5140
   -15.4446 -15.4423 -15.4015 -15.3905 -15.3634 -15.2621 -15.2575 -15.1702
   -15.1413 -15.1143 -15.1056 -15.0960 -15.0796 -15.0646 -15.0461 -15.0333
   -15.0023 -14.9933 -14.9810 -14.9092 -14.7734 -14.5058 -13.1554 -13.1553
   -11.7953  -8.9855  -5.4311  -4.3502  -3.7640  -3.1561  -3.0724  -2.9385
    -2.9157  -2.8725  -2.8650  -2.8373  -2.7991  -2.7724  -2.7618  -2.7409
    -2.7254  -2.7025  -2.6734  -2.6515  -2.6414  -2.5557  -2.5446  -2.5327
    -2.5148  -2.4981  -2.4911  -2.4138  -2.3987  -2.3768  -2.3360  -2.2918
    -2.2671  -2.1808  -2.1678  -2.1101  -1.9301  -1.8268  -1.7876  -1.7637
    -1.6506  -1.6037  -1.5792  -1.5340  -1.5092  -1.4641  -1.4353  -1.4101
    -1.3514  -1.3289  -1.3014  -1.2540  -1.1776  -1.1324  -0.9901  -0.9209
    -0.8653  -0.8121  -0.7574  -0.7348  -0.7045  -0.6210  -0.6010  -0.5045
    -0.4836  -0.4524  -0.4383  -0.4174  -0.4013  -0.3647  -0.3283  -0.3005
    -0.2757  -0.2412  -0.2290  -0.1836  -0.1591  -0.0984  -0.0654  -0.0035
     0.0925   0.1470   0.2278   0.3027   0.3923   0.4043   0.4294   0.4605
     0.4739   0.5413   0.6484   0.6764   0.8318   0.8382   0.9664   1.0340
     1.0832   1.6406   1.7001   1.7010   1.8063   1.8071   3.7325   3.7496
     3.8287   3.8484   3.8656   3.8864   4.0246   4.0448   4.0728   4.0750

          k = 0.0380-0.0419 0.0000 ( 17876 PWs)   bands (ev):

   -55.6816 -55.6645 -55.6576 -55.6382 -55.5894 -55.5408 -55.5265 -55.5000
   -55.4958 -55.4720 -55.4602 -55.4357 -55.2585 -55.0354 -54.6621 -54.6380
   -32.1637 -32.1167 -31.9915 -31.9854 -31.9747 -31.9708 -31.9692 -31.9134
   -31.9117 -31.9053 -31.9025 -31.8710 -31.8547 -31.8495 -31.8484 -31.8227
   -31.8227 -31.8089 -31.7574 -31.7523 -31.7478 -31.7385 -31.7364 -31.7103
   -31.7047 -31.6974 -31.6966 -31.6928 -31.6900 -31.6788 -31.6691 -31.6626
   -31.6587 -31.6531 -31.6347 -31.6286 -31.6254 -31.5104 -31.4629 -31.3259
   -31.2924 -31.2528 -31.0199 -30.9850 -30.9655 -30.8784 -30.8173 -30.7506
   -16.7540 -16.2157 -15.9672 -15.7601 -15.7256 -15.6410 -15.6193 -15.5448
   -15.4962 -15.4497 -15.3458 -15.3309 -15.2973 -15.2857 -15.2466 -15.1946
   -15.1813 -15.1216 -15.0831 -15.0731 -15.0162 -15.0112 -14.9864 -14.9577
   -14.9410 -14.9281 -14.9047 -14.8810 -14.7836 -14.4060 -13.1716 -13.0931
   -11.7925  -8.9784  -5.4219  -4.3634  -3.7863  -3.5235  -3.2650  -3.2230
    -3.1428  -3.1135  -3.0808  -2.9969  -2.9670  -2.8363  -2.7934  -2.7304
    -2.6931  -2.6814  -2.6537  -2.6152  -2.5763  -2.5596  -2.5257  -2.4913
    -2.4384  -2.4267  -2.4041  -2.3911  -2.3548  -2.3348  -2.3011  -2.2676
    -2.1816  -2.1692  -2.0719  -2.0251  -1.9629  -1.9275  -1.8792  -1.8258
    -1.6942  -1.6725  -1.6403  -1.5022  -1.4451  -1.4118  -1.3833  -1.2824
    -1.1516  -1.1381  -1.1182  -1.0766  -1.0210  -0.9963  -0.9461  -0.9097
    -0.8812  -0.8220  -0.7843  -0.7183  -0.6813  -0.6547  -0.6210  -0.5692
    -0.5499  -0.5021  -0.4680  -0.4033  -0.3722  -0.3615  -0.3336  -0.2950
    -0.2569  -0.2039  -0.1474  -0.1189  -0.0351  -0.0094   0.0140   0.0420
     0.1031   0.1788   0.2508   0.2610   0.3682   0.4200   0.4965   0.5201
     0.5930   0.6395   0.6828   0.7097   0.7477   0.8929   0.9546   1.0976
     1.2446   1.5545   1.6305   1.6411   1.8026   1.8652   3.6252   3.6856
     3.7518   3.8239   3.8535   3.8885   3.9659   3.9921   4.0188   4.0330

          k =-0.0760-0.0000 0.0000 ( 17886 PWs)   bands (ev):

   -55.6866 -55.6696 -55.6526 -55.6330 -55.5922 -55.5380 -55.5313 -55.5006
   -55.4952 -55.4670 -55.4652 -55.4309 -55.2591 -55.0349 -54.6670 -54.6330
   -32.2210 -32.1716 -32.0457 -32.0443 -31.9998 -31.9844 -31.9792 -31.9647
   -31.9308 -31.8969 -31.8931 -31.8551 -31.8471 -31.8332 -31.8154 -31.8101
   -31.8062 -31.7914 -31.7780 -31.7469 -31.7441 -31.7338 -31.7173 -31.7083
   -31.7054 -31.6935 -31.6873 -31.6804 -31.6771 -31.6654 -31.6625 -31.6554
   -31.6468 -31.6313 -31.6192 -31.6069 -31.5781 -31.5144 -31.4656 -31.3011
   -31.2928 -31.2376 -31.0736 -30.9925 -30.9601 -30.8909 -30.8044 -30.6934
   -16.7576 -16.2429 -16.0058 -15.8006 -15.7862 -15.6788 -15.6417 -15.5517
   -15.4732 -15.4631 -15.4133 -15.3946 -15.3870 -15.3698 -15.3268 -15.3242
   -15.1992 -15.0760 -15.0523 -15.0217 -14.9798 -14.9542 -14.9366 -14.9130
   -14.8854 -14.8618 -14.8438 -14.7839 -14.7627 -14.3301 -13.1635 -13.0527
   -11.7901  -8.9711  -5.4217  -4.3818  -3.7956  -3.6767  -3.3799  -3.2757
    -3.1864  -3.0978  -3.0691  -3.0442  -2.9498  -2.9447  -2.9368  -2.9194
    -2.8585  -2.7295  -2.7091  -2.5221  -2.5020  -2.4828  -2.3891  -2.3797
    -2.3255  -2.2657  -2.2301  -2.1886  -2.1838  -2.1676  -2.0911  -2.0382
    -2.0018  -1.9911  -1.9480  -1.9353  -1.9223  -1.9176  -1.8906  -1.8509
    -1.8085  -1.7179  -1.6615  -1.4711  -1.4171  -1.3621  -1.3280  -1.2993
    -1.2919  -1.2778  -1.2722  -1.2491  -1.1934  -1.1521  -1.0608  -1.0346
    -0.9994  -0.9692  -0.9288  -0.8667  -0.8553  -0.8311  -0.7010  -0.6273
    -0.5117  -0.4478  -0.3771  -0.3728  -0.3388  -0.3301  -0.2785  -0.2084
    -0.1732  -0.1348  -0.0889  -0.0336  -0.0042   0.0306   0.0472   0.1146
     0.1212   0.1520   0.1895   0.2779   0.3417   0.3582   0.4276   0.5023
     0.5427   0.5727   0.7519   0.7874   0.8999   1.0027   1.0267   1.1915
     1.2945   1.3879   1.4917   1.6651   1.6854   1.8335   3.4800   3.4846
     3.6122   3.7225   3.7810   3.8748   3.8958   3.9462   3.9772   3.9832

          k =-0.0760 0.0419 0.0000 ( 17914 PWs)   bands (ev):

   -55.6817 -55.6645 -55.6576 -55.6382 -55.5895 -55.5408 -55.5266 -55.5000
   -55.4957 -55.4719 -55.4604 -55.4358 -55.2586 -55.0355 -54.6621 -54.6381
   -32.1641 -32.1177 -31.9933 -31.9921 -31.9747 -31.9710 -31.9695 -31.9146
   -31.9133 -31.9079 -31.9024 -31.8557 -31.8532 -31.8498 -31.8487 -31.8205
   -31.8127 -31.8050 -31.7665 -31.7574 -31.7390 -31.7363 -31.7189 -31.7112
   -31.7043 -31.7000 -31.6980 -31.6955 -31.6893 -31.6805 -31.6775 -31.6689
   -31.6598 -31.6522 -31.6345 -31.6321 -31.6288 -31.5130 -31.4630 -31.3260
   -31.2933 -31.2529 -31.0197 -30.9878 -30.9648 -30.8784 -30.8173 -30.7506
   -16.7506 -16.1245 -15.8925 -15.7123 -15.6846 -15.6213 -15.5644 -15.5404
   -15.4542 -15.4450 -15.4246 -15.3714 -15.3402 -15.3312 -15.3165 -15.2742
   -15.2196 -15.1415 -15.0764 -15.0727 -15.0552 -15.0297 -14.9747 -14.9644
   -14.9595 -14.9428 -14.8762 -14.8736 -14.7803 -14.4043 -13.1695 -13.0935
   -11.7931  -8.9781  -5.4244  -4.3652  -3.7802  -3.5067  -3.2190  -3.0141
    -2.9772  -2.8895  -2.8309  -2.8092  -2.7915  -2.7687  -2.7391  -2.7289
    -2.7052  -2.6676  -2.6362  -2.6185  -2.5864  -2.5540  -2.4704  -2.4680
    -2.4063  -2.3921  -2.3709  -2.3375  -2.2906  -2.2652  -2.2566  -2.1827
    -2.1661  -2.1617  -2.1241  -2.0492  -1.8990  -1.8390  -1.7975  -1.7859
    -1.7511  -1.6624  -1.6218  -1.5817  -1.4744  -1.3744  -1.2986  -1.2827
    -1.2457  -1.2262  -1.1833  -1.1430  -1.0912  -1.0533  -1.0049  -0.9821
    -0.9614  -0.9363  -0.9118  -0.8808  -0.8634  -0.8406  -0.7631  -0.7273
    -0.6799  -0.6537  -0.6355  -0.5574  -0.4568  -0.4474  -0.4125  -0.3654
    -0.3401  -0.3156  -0.2396  -0.2043  -0.1521  -0.1074  -0.0040   0.0159
     0.1397   0.1762   0.2558   0.3190   0.3703   0.4969   0.5595   0.5843
     0.6410   0.6846   0.7292   0.7597   0.8257   0.8745   0.8998   1.0808
     1.1071   1.5693   1.6340   1.6551   1.7260   1.8539   3.6141   3.6730
     3.6837   3.7713   3.7953   3.8097   3.9396   3.9697   4.0398   4.0903

          k =-0.0760-0.0839 0.0000 ( 17948 PWs)   bands (ev):

   -55.6700 -55.6693 -55.6551 -55.6477 -55.5864 -55.5440 -55.5188 -55.5078
   -55.4846 -55.4831 -55.4510 -55.4452 -55.2580 -55.0360 -54.6501 -54.6501
   -32.0299 -32.0202 -31.9854 -31.9849 -31.9653 -31.9646 -31.9444 -31.9379
   -31.8851 -31.8845 -31.8743 -31.8690 -31.8520 -31.8340 -31.8096 -31.8047
   -31.8004 -31.7968 -31.7901 -31.7900 -31.7889 -31.7885 -31.7846 -31.7449
   -31.7368 -31.7252 -31.7170 -31.7059 -31.6850 -31.6841 -31.6820 -31.6753
   -31.6653 -31.6613 -31.6581 -31.6556 -31.6152 -31.5118 -31.4622 -31.3635
   -31.2938 -31.2636 -30.9762 -30.9761 -30.8872 -30.8871 -30.8480 -30.8479
   -16.7437 -15.8646 -15.8035 -15.6457 -15.6104 -15.5908 -15.5558 -15.4953
   -15.4121 -15.3847 -15.3802 -15.3332 -15.3070 -15.2743 -15.2364 -15.2221
   -15.2149 -15.1960 -15.1834 -15.1499 -15.1404 -15.1288 -15.1216 -15.0462
   -15.0085 -15.0041 -14.9987 -14.8951 -14.7689 -14.5017 -13.1551 -13.1551
   -11.7960  -8.9851  -5.4273  -4.3497  -3.7684  -3.1573  -3.0703  -2.8956
    -2.8400  -2.8112  -2.7954  -2.6292  -2.6183  -2.6035  -2.5565  -2.5361
    -2.5259  -2.5173  -2.5087  -2.4876  -2.4748  -2.4401  -2.4300  -2.3948
    -2.3803  -2.3629  -2.3460  -2.3291  -2.3092  -2.2950  -2.2786  -2.2377
    -2.2179  -2.2071  -2.1863  -2.1426  -1.9325  -1.8825  -1.8374  -1.8332
    -1.8220  -1.8026  -1.7477  -1.7427  -1.7086  -1.6580  -1.5785  -1.4341
    -1.3887  -1.3722  -1.2792  -1.2576  -1.2049  -1.1326  -1.0870  -1.0700
    -1.0351  -0.9706  -0.9344  -0.8974  -0.8309  -0.8063  -0.8004  -0.7069
    -0.6860  -0.6498  -0.6431  -0.5644  -0.5140  -0.4510  -0.4356  -0.4192
    -0.3877  -0.3541  -0.3360  -0.2693  -0.1762  -0.1751  -0.1520  -0.0428
     0.0474   0.2760   0.3388   0.3757   0.4209   0.5144   0.5827   0.6073
     0.6233   0.6446   0.6643   0.7126   0.8395   0.8496   0.8838   0.9967
     1.1009   1.6403   1.7184   1.7192   1.7917   1.7918   3.7456   3.7639
     3.7844   3.8308   3.9500   3.9571   3.9791   3.9812   4.1039   4.1176

     the Fermi energy is     3.4456 ev

!    total energy              =   -2941.66153446 Ry
     estimated scf accuracy    <       0.00000004 Ry
     smearing contrib. (-TS)   =      -0.02151887 Ry
     internal energy E=F+TS    =   -2941.64001559 Ry

     The total energy is F=E-TS. E is the sum of the following terms:
     one-electron contribution =  -24275.48001090 Ry
     hartree contribution      =   12228.19629410 Ry
     xc contribution           =    -486.86832231 Ry
     ewald contribution        =    9592.51034781 Ry
     electric field correction =       0.00167572 Ry

     convergence has been achieved in  58 iterations

     Forces acting on atoms (cartesian axes, Ry/au):

     atom    1 type  1   force =     0.00017596   -0.00011233    0.09637161
     atom    2 type  1   force =    -0.00021118   -0.00063511   -0.17548938
     atom    3 type  2   force =    -0.00004197   -0.00003329   -0.02420023
     atom    4 type  2   force =     0.00005040   -0.00143839    0.05289882
     atom    5 type  2   force =    -0.01182266   -0.00048971    0.00395255
     atom    6 type  2   force =     0.01313442    0.00023910    0.00229130
     atom    7 type  1   force =    -0.00140576    0.00080882   -0.01149306
     atom    8 type  1   force =     0.00053445    0.00920597    0.02521466
     atom    9 type  2   force =    -0.00010729    0.00017523    0.00038831
     atom   10 type  2   force =    -0.00086525    0.00148754   -0.01580986
     atom   11 type  2   force =    -0.00019701   -0.00049550    0.00038627
     atom   12 type  2   force =    -0.00012902   -0.00025827    0.00002284
     atom   13 type  1   force =     0.00055181   -0.00090812    0.00004072
     atom   14 type  1   force =    -0.00008336   -0.00040616    0.00024968
     atom   15 type  2   force =     0.00017541    0.00005461   -0.00025255
     atom   16 type  2   force =     0.00006156    0.00024646    0.00001451
     atom   17 type  2   force =    -0.00057511    0.00028878    0.00041330
     atom   18 type  2   force =     0.00006022    0.00012491    0.00028757
     atom   19 type  1   force =     0.00022208   -0.00057220    0.00033130
     atom   20 type  1   force =    -0.00004546    0.00025498    0.00074096
     atom   21 type  2   force =     0.00007323   -0.00008001    0.10318757
     atom   22 type  2   force =    -0.00041359   -0.00033052    0.00019239
     atom   23 type  2   force =    -0.07148423   -0.00018874   -0.02770506
     atom   24 type  2   force =     0.07140752    0.00024255   -0.02770432
     atom   25 type  1   force =     0.00003103   -0.00027623    0.09583563
     atom   26 type  1   force =    -0.00014658   -0.00022482   -0.17566074
     atom   27 type  2   force =     0.00009279   -0.00012538   -0.02329676
     atom   28 type  2   force =     0.00007942   -0.00129644    0.05332814
     atom   29 type  2   force =    -0.01195194   -0.00005557    0.00375083
     atom   30 type  2   force =     0.01320220    0.00043233    0.00212924
     atom   31 type  1   force =    -0.00141819    0.00345133   -0.01082092
     atom   32 type  1   force =     0.00064122   -0.01010279    0.02561921
     atom   33 type  2   force =    -0.00038899    0.00005176    0.00004700
     atom   34 type  2   force =     0.00074936    0.00090247   -0.02307487
     atom   35 type  2   force =    -0.00011590    0.00029273   -0.00002486
     atom   36 type  2   force =    -0.00021861    0.00059362   -0.00029325
     atom   37 type  1   force =    -0.00082723   -0.00102110   -0.00014952
     atom   38 type  1   force =    -0.00002568   -0.00010158   -0.00001638
     atom   39 type  2   force =    -0.00031579    0.00005357    0.00066086
     atom   40 type  2   force =     0.00048572    0.00025240    0.00023652
     atom   41 type  2   force =     0.00000967    0.00056460    0.00021784
     atom   42 type  2   force =     0.00000948    0.00026228   -0.00017767
     atom   43 type  1   force =     0.00028488    0.00010210   -0.00013255
     atom   44 type  1   force =    -0.00045076   -0.00050129    0.00011548
     atom   45 type  2   force =     0.00006780   -0.00008723    0.10320931
     atom   46 type  2   force =    -0.07148622   -0.00015910   -0.02770596
     atom   47 type  2   force =     0.07141234    0.00031292   -0.02771825
     atom   48 type  3   force =     0.00036976   -0.00006206   -0.00043526
     atom   49 type  3   force =    -0.00606528   -0.00117248    0.00763628
     atom   50 type  4   force =     0.00084168   -0.00005260    0.00074976
     atom   51 type  5   force =     0.00104842    0.00035446   -0.00061841
     atom   52 type  5   force =    -0.00030702    0.00072565   -0.00067319
     atom   53 type  5   force =    -0.00024624   -0.00167532    0.00056014
     atom   54 type  5   force =     0.00004474    0.00070478   -0.00047487
     atom   55 type  5   force =     0.00552877    0.00067637   -0.00715267

     Total force =     0.367542     Total SCF correction =     0.000683
  @ DRIVER MODE: Message from server: STATUS
  @ DRIVER MODE: Message from server: GETFORCE
  @ DRIVER MODE: Returning v,forces,stress,ensemble 

     Writing output data file ./calc.save/
  @ DRIVER MODE: Message from server: EXIT
  @ DRIVE MODE: Exiting  
 
     init_run     :     13.50s CPU     13.96s WALL (       1 calls)
     electrons    :   1184.17s CPU   1214.94s WALL (       1 calls)
     forces       :      2.72s CPU      2.83s WALL (       1 calls)

     Called by init_run:
     wfcinit      :      5.97s CPU      6.21s WALL (       1 calls)
     potinit      :      6.75s CPU      6.86s WALL (       1 calls)
     hinit0       :      0.36s CPU      0.39s WALL (       1 calls)

     Called by electrons:
     c_bands      :   1014.79s CPU   1032.46s WALL (      58 calls)
     sum_band     :    118.82s CPU    124.40s WALL (      58 calls)
     v_of_rho     :     39.52s CPU     42.26s WALL (      59 calls)
     newd         :     15.64s CPU     20.17s WALL (      59 calls)
     mix_rho      :      1.45s CPU      1.60s WALL (      58 calls)
     vdW_kernel   :      5.84s CPU      5.86s WALL (       1 calls)

     Called by c_bands:
     init_us_2    :      5.91s CPU      5.96s WALL (    1180 calls)
     cegterg      :    996.26s CPU   1013.51s WALL (     595 calls)

     Called by *egterg:
     cdiaghg      :    185.98s CPU    191.12s WALL (    6321 calls)
     h_psi        :    531.05s CPU    538.73s WALL (    6331 calls)
     s_psi        :     68.78s CPU     69.01s WALL (    6331 calls)
     g_psi        :      1.88s CPU      1.89s WALL (    5726 calls)

     Called by h_psi:
     h_psi:calbec :     63.30s CPU     64.18s WALL (    6331 calls)
     vloc_psi     :    396.79s CPU    400.30s WALL (    6331 calls)
     add_vuspsi   :     68.90s CPU     70.27s WALL (    6331 calls)

     General routines
     calbec       :     83.39s CPU     84.33s WALL (    6951 calls)
     fft          :     18.49s CPU     19.72s WALL (    3717 calls)
     ffts         :      0.15s CPU      0.16s WALL (     117 calls)
     fftw         :    442.73s CPU    446.61s WALL (  797090 calls)
     interpolate  :      0.39s CPU      0.42s WALL (      59 calls)
     davcio       :      0.00s CPU      0.10s WALL (      10 calls)
 
     Parallel routines
 
     PWSCF        :  20m 0.72s CPU  21m 6.04s WALL

 
   This run was terminated on:  17:55:48  25Aug2021            

=------------------------------------------------------------------------------=
   JOB DONE.
=------------------------------------------------------------------------------=
