
     Program PWSCF v.6.7GPU starts on 23Sep2021 at 10:27:17 

     This program is part of the open-source Quantum ESPRESSO suite
     for quantum simulation of materials; please cite
         "P. Giannozzi et al., J. Phys.:Condens. Matter 21 395502 (2009);
         "P. Giannozzi et al., J. Phys.:Condens. Matter 29 465901 (2017);
         "P. Giannozzi et al., J. Chem. Phys. 152 154105 (2020);
          URL http://www.quantum-espresso.org", 
     in publications or presentations arising from this work. More details at
     http://www.quantum-espresso.org/quote

     Parallel version (MPI), running on    10 processors

     MPI processes distributed on     1 nodes
     R & G space division:  proc/nbgrp/npool/nimage =      10
     Reading input from /storage/home/hcoda1/3/ntian30/research/carbon/CxH_vib/H2O_calc/ads_slab/CH2NHNHH2O_b/out_0052/pw.inp
Warning: card &CELL ignored
Warning: card   CELL_DYNAMICS='IPI', ignored
Warning: card / ignored

     Current dimensions of program PWSCF are:
     Max number of different atomic species (ntypx) = 10
     Max number of k-points (npk) =  40000
     Max angular momentum in pseudopotentials (lmaxx) =  3
     Presently no symmetry can be used with electric field

     Message from routine cell_base_init:
     DEPRECATED: use true lattice parameter, not A to a.u. conversion factor

     **************************************************************************
     Initializing libbeef V0.1.2 with the BEEF-vdW functional.
     Citation: Wellendorff et al., PRB 85, 235149 (2012).
     **************************************************************************


     IMPORTANT: XC functional enforced from input :
     Exchange-correlation= BEEF-VDW
                           (   1   4  43  14   2   0   0)
     Any further DFT definition will be discarded
     Please, verify this is what you really want


     Subspace diagonalization in iterative solution of the eigenvalue problem:
     one sub-group per band group will be used
     scalapack distributed-memory algorithm (size of sub-group:  3*  3 procs)

  @ DRIVER MODE: Connecting to 
 qe_1139763_2937310.sched-torque.pace.gatech.edup1uglbun_scratch
  using UNIX socket
  @ DRIVER MODE: Message from server: STATUS
  @ DRIVER MODE: Message from server: INIT
  @ DRIVER MODE: Receiving replica           0          -1
  @ DRIVER MODE: Receiving encoded integer          25
  @ DRIVER MODE:  SCF:  T  FORCE:  T  STRESS:  F  VC:  F  ENSEMBLE:  F
  @ DRIVER MODE:  SCF:  T  FORCE:  T  STRESS:  F  VC:  F  ENSEMBLE:  F
 
     Parallelization info
     --------------------
     sticks:   dense  smooth     PW     G-vecs:    dense   smooth      PW
     Min         327     131     37                56683    14340    2191
     Max         328     133     38                56694    14346    2206
     Sum        3275    1317    379               566857   143421   21985
 
     Using Slab Decomposition
 


     bravais-lattice index     =            0
     lattice parameter (alat)  =       1.8897  a.u.
     unit-cell volume          =    6658.9804 (a.u.)^3
     number of atoms/cell      =           57
     number of atomic types    =            5
     number of electrons       =       404.00
     number of Kohn-Sham states=          212
     kinetic-energy cutoff     =      29.3995  Ry
     charge density cutoff     =     293.9946  Ry
     scf convergence threshold =      7.3E-08
     mixing beta               =       0.0500
     number of iterations used =            8  plain     mixing
     Exchange-correlation= BEEF-VDW
                           (   1   4  43  14   2   0   0)

     celldm(1)=   1.889726  celldm(2)=   0.000000  celldm(3)=   0.000000
     celldm(4)=   0.000000  celldm(5)=   0.000000  celldm(6)=   0.000000

     crystal axes: (cart. coord. in units of alat)
               a(1) = (   6.579727   0.000000   0.000000 )  
               a(2) = (  -0.000775   5.961596   0.000000 )  
               a(3) = (   0.000000   0.000000  25.155947 )  

     reciprocal axes: (cart. coord. in units 2 pi/alat)
               b(1) = (  0.151982  0.000020  0.000000 )  
               b(2) = (  0.000000  0.167740  0.000000 )  
               b(3) = (  0.000000  0.000000  0.039752 )  


     PseudoPot. # 1 for Ti read from file:
     /storage/coda1/p-amedford6/0/shared/rich_project_chbe-medford/medford-share/data/pseudos_module/espresso/nninc/pbe/van/Ti.UPF
     MD5 check sum: 8e4df49b7f0d34bbd5052bf3f5ea0213
     Pseudo is Ultrasoft, Zval = 12.0
     Generated by new atomic code, or converted to UPF format
     Using radial grid of  851 points,  6 beta functions with: 
                l(1) =   0
                l(2) =   0
                l(3) =   1
                l(4) =   1
                l(5) =   2
                l(6) =   2
     Q(r) pseudized with  8 coefficients,  rinner =    1.000   1.000   1.000
                                                       1.000   1.000

     PseudoPot. # 2 for O  read from file:
     /storage/coda1/p-amedford6/0/shared/rich_project_chbe-medford/medford-share/data/pseudos_module/espresso/nninc/pbe/van/O.UPF
     MD5 check sum: 78c19812648e8988a0fe644b0f25305e
     Pseudo is Ultrasoft, Zval =  6.0
     Generated by new atomic code, or converted to UPF format
     Using radial grid of  737 points,  4 beta functions with: 
                l(1) =   0
                l(2) =   0
                l(3) =   1
                l(4) =   1
     Q(r) pseudized with  8 coefficients,  rinner =    0.800   0.800   0.800


     PseudoPot. # 3 for N  read from file:
     /storage/coda1/p-amedford6/0/shared/rich_project_chbe-medford/medford-share/data/pseudos_module/espresso/nninc/pbe/van/N.UPF
     MD5 check sum: 90d10febe142ad51ac9d5be1deb811c4
     Pseudo is Ultrasoft, Zval =  5.0
     Generated by new atomic code, or converted to UPF format
     Using radial grid of  729 points,  4 beta functions with: 
                l(1) =   0
                l(2) =   0
                l(3) =   1
                l(4) =   1
     Q(r) pseudized with  8 coefficients,  rinner =    0.800   0.800   0.800


     PseudoPot. # 4 for C  read from file:
     /storage/coda1/p-amedford6/0/shared/rich_project_chbe-medford/medford-share/data/pseudos_module/espresso/nninc/pbe/van/C.UPF
     MD5 check sum: 1a69bf6b8db32088f5b2163dbdb77a27
     Pseudo is Ultrasoft, Zval =  4.0
     Generated by new atomic code, or converted to UPF format
     Using radial grid of  721 points,  4 beta functions with: 
                l(1) =   0
                l(2) =   0
                l(3) =   1
                l(4) =   1
     Q(r) pseudized with  8 coefficients,  rinner =    0.800   0.800   0.800


     PseudoPot. # 5 for H  read from file:
     /storage/coda1/p-amedford6/0/shared/rich_project_chbe-medford/medford-share/data/pseudos_module/espresso/nninc/pbe/van/H.UPF
     MD5 check sum: b5ee9d7bfd3a09ee7748110bda690ff7
     Pseudo is Ultrasoft, Zval =  1.0
     Generated by new atomic code, or converted to UPF format
     Using radial grid of  615 points,  1 beta functions with: 
                l(1) =   0
     Q(r) pseudized with  8 coefficients,  rinner =    0.800

     atomic species   valence    mass     pseudopotential
        Ti1           12.00    47.86700     Ti( 1.00)
        O1             6.00    15.99900     O ( 1.00)
        N1             5.00    14.00700     N ( 1.00)
        C1             4.00    12.01100     C ( 1.00)
        H1             1.00     1.00800     H ( 1.00)

     No symmetry found



   Cartesian axes

     site n.     atom                  positions (alat units)
         1           Ti1 tau(   1) = (   0.0004258   2.9801865   6.0000000  )
         2           Ti1 tau(   2) = (   3.2906075   1.4906267   6.0002472  )
         3           O1  tau(   3) = (   0.0006271   0.0005054   7.9858123  )
         4           O1  tau(   4) = (   3.2906025   0.0005020   7.3038282  )
         5           O1  tau(   5) = (   4.5942328   1.4918067   9.2879030  )
         6           O1  tau(   6) = (   1.9868534   1.4903216   9.2879459  )
         7           Ti1 tau(   7) = (   3.2907910   2.8959150   9.1758416  )
         8           Ti1 tau(   8) = (   0.0015273   1.4827037   9.2680791  )
         9           O1  tau(   9) = (   3.2740695   5.9399032  11.3612631  )
        10           O1  tau(  10) = (   0.0116148   5.9584955  10.6183126  )
        11           O1  tau(  11) = (   1.2665466   1.4659349  12.6457467  )
        12           O1  tau(  12) = (   5.2636777   1.4644475  12.6520517  )
        13           Ti1 tau(  13) = (   0.0254019   2.9535957  12.5508080  )
        14           Ti1 tau(  14) = (   3.3235577   1.4585364  12.5144190  )
        15           O1  tau(  15) = (   0.0066209   5.9388471  14.7046414  )
        16           O1  tau(  16) = (   3.2471877   5.9405099  14.0100224  )
        17           O1  tau(  17) = (   4.5302733   1.5208160  16.0462967  )
        18           O1  tau(  18) = (   1.9955500   1.4995475  16.2009832  )
        19           Ti1 tau(  19) = (   3.2567830   2.9699832  15.6929747  )
        20           Ti1 tau(  20) = (   6.4949666   1.4732860  15.8443191  )
        21           O1  tau(  21) = (   3.2904802   0.0005063   4.7018136  )
        22           O1  tau(  22) = (   6.4419287   5.8812218  17.2824568  )
        23           O1  tau(  23) = (   1.3043587   1.4918075   6.0039043  )
        24           O1  tau(  24) = (   5.2767064   1.4903225   6.0039473  )
        25           Ti1 tau(  25) = (   0.0000382   5.9609847   6.0000000  )
        26           Ti1 tau(  26) = (   3.2902200   4.4714249   6.0002472  )
        27           O1  tau(  27) = (   0.0002396   2.9813036   7.9858123  )
        28           O1  tau(  28) = (   3.2902150   2.9813002   7.3038282  )
        29           O1  tau(  29) = (   4.5938453   4.4726049   9.2879030  )
        30           O1  tau(  30) = (   1.9864658   4.4711199   9.2879459  )
        31           Ti1 tau(  31) = (   3.2891106   5.8743827   9.1763621  )
        32           Ti1 tau(  32) = (   0.0006254   4.4649316   9.2693709  )
        33           O1  tau(  33) = (   3.2800166   2.9600013  11.3546200  )
        34           O1  tau(  34) = (   0.0092240   2.9805883  10.6323155  )
        35           O1  tau(  35) = (   1.2663080   4.4508225  12.6496728  )
        36           O1  tau(  36) = (   5.2650692   4.4524444  12.6537221  )
        37           Ti1 tau(  37) = (   0.0180281   5.9297397  12.5120547  )
        38           Ti1 tau(  38) = (   3.3242103   4.4456960  12.5094407  )
        39           O1  tau(  39) = (   0.0028395   2.9305241  14.7702868  )
        40           O1  tau(  40) = (   3.2369197   2.9632653  13.9133312  )
        41           O1  tau(  41) = (   4.5259019   4.3784886  16.1008109  )
        42           O1  tau(  42) = (   2.0017919   4.4285960  16.1845674  )
        43           Ti1 tau(  43) = (   3.2453488   5.9423767  15.8283900  )
        44           Ti1 tau(  44) = (   6.5728488   4.6138345  16.0446011  )
        45           O1  tau(  45) = (   3.2900926   2.9813045   4.7018136  )
        46           O1  tau(  46) = (   1.3039711   4.4726057   6.0039043  )
        47           O1  tau(  47) = (   5.2763189   4.4711207   6.0039473  )
        48           N1  tau(  48) = (   0.9567011   2.5879941  18.4848429  )
        49           N1  tau(  49) = (   6.5185693   2.8362889  17.6364570  )
        50           C1  tau(  50) = (   1.0658718   2.8740630  19.7563100  )
        51           H1  tau(  51) = (   1.9437682   2.5238050  20.2723566  )
        52           H1  tau(  52) = (   0.2809834   3.4210577  20.2544045  )
        53           H1  tau(  53) = (   1.7014144   2.0656717  17.9989220  )
        54           H1  tau(  54) = (   5.6742842   3.0275795  18.1730567  )
        55           O1  tau(  55) = (   3.7618585   0.1297276  18.3074903  )
        56           H1  tau(  56) = (   4.7330396   0.0641995  18.1289380  )
        57           H1  tau(  57) = (   3.4892521   5.2388606  18.6788193  )

     number of k points=    10  Fermi-Dirac smearing, width (Ry)=  0.0073
                       cart. coord. in units 2pi/alat
        k(    1) = (   0.0000000   0.0000000   0.0000000), wk =   0.1250000
        k(    2) = (   0.0000000   0.0419351   0.0000000), wk =   0.2500000
        k(    3) = (   0.0000000  -0.0838702   0.0000000), wk =   0.1250000
        k(    4) = (   0.0379955   0.0000049   0.0000000), wk =   0.2500000
        k(    5) = (   0.0379955   0.0419400   0.0000000), wk =   0.2500000
        k(    6) = (   0.0379955  -0.0838652   0.0000000), wk =   0.2500000
        k(    7) = (   0.0379955  -0.0419301   0.0000000), wk =   0.2500000
        k(    8) = (  -0.0759910  -0.0000099   0.0000000), wk =   0.1250000
        k(    9) = (  -0.0759910   0.0419252   0.0000000), wk =   0.2500000
        k(   10) = (  -0.0759910  -0.0838800   0.0000000), wk =   0.1250000

     Dense  grid:   566857 G-vectors     FFT dimensions: (  72,  64, 270)

     Smooth grid:   143421 G-vectors     FFT dimensions: (  45,  40, 180)

     Estimated max dynamical RAM per process >     367.81 MB

     Estimated total dynamical RAM >       3.59 GB
     Cannot read rho : file not found

     Initial potential from superposition of free atoms

     starting charge  387.99913, renormalised to  404.00000

     negative rho (up, down):  1.394E-02 0.000E+00


     %%%%%%%%%%%%%%%%%%%%%%%%%%%%%%%%%%%%%%%%%%%%%%%%%%%%%%%%%%%%%%%%%%%%%%%%
     %                                                                      %
     % You are using vdW-DF, which was implemented by the Thonhauser group. %
     % Please cite the following two papers that made this development      %
     % possible and the two reviews that describe the various versions:     %
     %                                                                      %
     %   T. Thonhauser et al., PRL 115, 136402 (2015).                      %
     %   T. Thonhauser et al., PRB 76, 125112 (2007).                       %
     %   K. Berland et al., Rep. Prog. Phys. 78, 066501 (2015).             %
     %   D.C. Langreth et al., J. Phys.: Condens. Matter 21, 084203 (2009). %
     %                                                                      %
     %                                                                      %
     % If you are calculating the stress with vdW-DF, please also cite:     %
     %                                                                      %
     %   R. Sabatini et al., J. Phys.: Condens. Matter 24, 424209 (2012).   %
     %                                                                      %
     %%%%%%%%%%%%%%%%%%%%%%%%%%%%%%%%%%%%%%%%%%%%%%%%%%%%%%%%%%%%%%%%%%%%%%%%


 
     Adding external electric field

     Computed dipole along edir(3) : 
        Dipole              -14.1772 Ry au,        -36.0349 Debye
        Dipole field         -0.0268 Ry au, 
 
        Potential amp.        2.4801 Ry
        Total length         46.3494 bohr
 
     Starting wfcs are  306 atomic wfcs
  @ DRIVER MODE: Message from server: STATUS
  @ DRIVER MODE: Message from server: POSDATA
  @ DRIVER MODE: Reading and sharing cell 
  @ DRIVER MODE: Reading and sharing positions 
  @ DRIVER MODE: Received positions 

     total cpu time spent up to now is       11.5 secs

     Self-consistent Calculation

     iteration #  1     ecut=    29.40 Ry     beta= 0.05
     Davidson diagonalization with overlap
     c_bands:  4 eigenvalues not converged
     c_bands:  5 eigenvalues not converged
     c_bands:  2 eigenvalues not converged
     c_bands:  2 eigenvalues not converged
     c_bands:  1 eigenvalues not converged
     c_bands:  1 eigenvalues not converged
     c_bands:  4 eigenvalues not converged
     c_bands:  1 eigenvalues not converged
     c_bands:  1 eigenvalues not converged
     ethr =  1.00E-05,  avg # of iterations = 28.9

     negative rho (up, down):  7.830E-03 0.000E+00
 
     Adding external electric field

     Computed dipole along edir(3) : 
        Dipole               58.6728 Ry au,        149.1314 Debye
        Dipole field          0.1107 Ry au, 
 
        Potential amp.      -10.2639 Ry
        Total length         46.3494 bohr
 

     total cpu time spent up to now is       61.4 secs

     total energy              =   -2249.25065948 Ry
     estimated scf accuracy    <    8255.76993195 Ry

     iteration #  2     ecut=    29.40 Ry     beta= 0.05
     Davidson diagonalization with overlap
     ethr =  1.00E-02,  avg # of iterations = 27.9

     negative rho (up, down):  2.955E-04 0.000E+00
 
     Adding external electric field

     Computed dipole along edir(3) : 
        Dipole                0.2047 Ry au,          0.5203 Debye
        Dipole field          0.0004 Ry au, 
 
        Potential amp.       -0.0358 Ry
        Total length         46.3494 bohr
 

     total cpu time spent up to now is      148.8 secs

     total energy              =   -2474.09596307 Ry
     estimated scf accuracy    <   74914.94225460 Ry

     iteration #  3     ecut=    29.40 Ry     beta= 0.05
     Davidson diagonalization with overlap
     c_bands:  1 eigenvalues not converged
     ethr =  1.00E-02,  avg # of iterations = 17.2

     negative rho (up, down):  3.443E-04 0.000E+00
 
     Adding external electric field

     Computed dipole along edir(3) : 
        Dipole               -3.3819 Ry au,         -8.5959 Debye
        Dipole field         -0.0064 Ry au, 
 
        Potential amp.        0.5916 Ry
        Total length         46.3494 bohr
 

     total cpu time spent up to now is      199.6 secs

     total energy              =   -2960.51813229 Ry
     estimated scf accuracy    <    7534.15039726 Ry

     iteration #  4     ecut=    29.40 Ry     beta= 0.05
     Davidson diagonalization with overlap
     ethr =  1.00E-02,  avg # of iterations = 10.9

     negative rho (up, down):  3.690E-04 0.000E+00
 
     Adding external electric field

     Computed dipole along edir(3) : 
        Dipole               -5.3847 Ry au,        -13.6865 Debye
        Dipole field         -0.0102 Ry au, 
 
        Potential amp.        0.9420 Ry
        Total length         46.3494 bohr
 

     total cpu time spent up to now is      222.6 secs

     total energy              =   -2963.24103211 Ry
     estimated scf accuracy    <    2333.12767139 Ry

     iteration #  5     ecut=    29.40 Ry     beta= 0.05
     Davidson diagonalization with overlap
     c_bands:  4 eigenvalues not converged
     ethr =  1.00E-02,  avg # of iterations = 10.3

     negative rho (up, down):  4.188E-04 0.000E+00
 
     Adding external electric field

     Computed dipole along edir(3) : 
        Dipole               -7.4744 Ry au,        -18.9981 Debye
        Dipole field         -0.0141 Ry au, 
 
        Potential amp.        1.3075 Ry
        Total length         46.3494 bohr
 

     total cpu time spent up to now is      237.7 secs

     total energy              =   -2950.68673862 Ry
     estimated scf accuracy    <    1246.09080072 Ry

     iteration #  6     ecut=    29.40 Ry     beta= 0.05
     Davidson diagonalization with overlap
     ethr =  1.00E-02,  avg # of iterations = 11.8

     negative rho (up, down):  4.032E-04 0.000E+00
 
     Adding external electric field

     Computed dipole along edir(3) : 
        Dipole               -6.0659 Ry au,        -15.4179 Debye
        Dipole field         -0.0114 Ry au, 
 
        Potential amp.        1.0611 Ry
        Total length         46.3494 bohr
 

     total cpu time spent up to now is      260.8 secs

     total energy              =   -2979.28803364 Ry
     estimated scf accuracy    <      52.21366585 Ry

     iteration #  7     ecut=    29.40 Ry     beta= 0.05
     Davidson diagonalization with overlap
     ethr =  1.00E-02,  avg # of iterations =  1.5

     negative rho (up, down):  4.072E-04 0.000E+00
 
     Adding external electric field

     Computed dipole along edir(3) : 
        Dipole               -5.3188 Ry au,        -13.5190 Debye
        Dipole field         -0.0100 Ry au, 
 
        Potential amp.        0.9304 Ry
        Total length         46.3494 bohr
 

     total cpu time spent up to now is      271.7 secs

     total energy              =   -2979.06992071 Ry
     estimated scf accuracy    <      18.63930082 Ry

     iteration #  8     ecut=    29.40 Ry     beta= 0.05
     Davidson diagonalization with overlap
     ethr =  4.61E-03,  avg # of iterations =  2.1

     negative rho (up, down):  4.135E-04 0.000E+00
 
     Adding external electric field

     Computed dipole along edir(3) : 
        Dipole               -4.5885 Ry au,        -11.6629 Debye
        Dipole field         -0.0087 Ry au, 
 
        Potential amp.        0.8027 Ry
        Total length         46.3494 bohr
 

     total cpu time spent up to now is      282.1 secs

     total energy              =   -2978.77600898 Ry
     estimated scf accuracy    <      16.79291208 Ry

     iteration #  9     ecut=    29.40 Ry     beta= 0.05
     Davidson diagonalization with overlap
     ethr =  4.16E-03,  avg # of iterations =  2.3

     negative rho (up, down):  4.138E-04 0.000E+00
 
     Adding external electric field

     Computed dipole along edir(3) : 
        Dipole               -5.1332 Ry au,        -13.0472 Debye
        Dipole field         -0.0097 Ry au, 
 
        Potential amp.        0.8980 Ry
        Total length         46.3494 bohr
 

     total cpu time spent up to now is      292.5 secs

     total energy              =   -2979.19402576 Ry
     estimated scf accuracy    <      17.02111607 Ry

     iteration # 10     ecut=    29.40 Ry     beta= 0.05
     Davidson diagonalization with overlap
     ethr =  4.16E-03,  avg # of iterations =  1.0

     negative rho (up, down):  5.808E-04 0.000E+00
 
     Adding external electric field

     Computed dipole along edir(3) : 
        Dipole                5.3025 Ry au,         13.4775 Debye
        Dipole field          0.0100 Ry au, 
 
        Potential amp.       -0.9276 Ry
        Total length         46.3494 bohr
 

     total cpu time spent up to now is      302.4 secs

     total energy              =   -2975.60208867 Ry
     estimated scf accuracy    <      21.69299679 Ry

     iteration # 11     ecut=    29.40 Ry     beta= 0.05
     Davidson diagonalization with overlap
     ethr =  4.16E-03,  avg # of iterations = 15.5

     negative rho (up, down):  6.363E-04 0.000E+00
 
     Adding external electric field

     Computed dipole along edir(3) : 
        Dipole                3.1342 Ry au,          7.9664 Debye
        Dipole field          0.0059 Ry au, 
 
        Potential amp.       -0.5483 Ry
        Total length         46.3494 bohr
 

     total cpu time spent up to now is      326.9 secs

     total energy              =   -3013.97801541 Ry
     estimated scf accuracy    <    5911.57748579 Ry

     iteration # 12     ecut=    29.40 Ry     beta= 0.05
     Davidson diagonalization with overlap
     ethr =  4.16E-03,  avg # of iterations =  9.8

     negative rho (up, down):  6.852E-04 0.000E+00
 
     Adding external electric field

     Computed dipole along edir(3) : 
        Dipole                3.7573 Ry au,          9.5501 Debye
        Dipole field          0.0071 Ry au, 
 
        Potential amp.       -0.6573 Ry
        Total length         46.3494 bohr
 

     total cpu time spent up to now is      341.9 secs

     total energy              =   -3030.12975463 Ry
     estimated scf accuracy    <    3910.33422630 Ry

     iteration # 13     ecut=    29.40 Ry     beta= 0.05
     Davidson diagonalization with overlap
     ethr =  4.16E-03,  avg # of iterations =  1.1

     negative rho (up, down):  7.173E-04 0.000E+00
 
     Adding external electric field

     Computed dipole along edir(3) : 
        Dipole                5.4481 Ry au,         13.8476 Debye
        Dipole field          0.0103 Ry au, 
 
        Potential amp.       -0.9531 Ry
        Total length         46.3494 bohr
 

     total cpu time spent up to now is      351.9 secs

     total energy              =   -3046.94763348 Ry
     estimated scf accuracy    <    4253.06887387 Ry

     iteration # 14     ecut=    29.40 Ry     beta= 0.05
     Davidson diagonalization with overlap
     ethr =  4.16E-03,  avg # of iterations =  1.1

     negative rho (up, down):  5.733E-04 0.000E+00
 
     Adding external electric field

     Computed dipole along edir(3) : 
        Dipole               -1.7555 Ry au,         -4.4620 Debye
        Dipole field         -0.0033 Ry au, 
 
        Potential amp.        0.3071 Ry
        Total length         46.3494 bohr
 

     total cpu time spent up to now is      361.9 secs

     total energy              =   -2954.00223409 Ry
     estimated scf accuracy    <    5211.32693758 Ry

     iteration # 15     ecut=    29.40 Ry     beta= 0.05
     Davidson diagonalization with overlap
     c_bands:  1 eigenvalues not converged
     c_bands:  4 eigenvalues not converged
     c_bands:  2 eigenvalues not converged
     c_bands:  1 eigenvalues not converged
     ethr =  4.16E-03,  avg # of iterations = 19.9

     negative rho (up, down):  5.861E-04 0.000E+00
 
     Adding external electric field

     Computed dipole along edir(3) : 
        Dipole               -1.1788 Ry au,         -2.9962 Debye
        Dipole field         -0.0022 Ry au, 
 
        Potential amp.        0.2062 Ry
        Total length         46.3494 bohr
 

     total cpu time spent up to now is      390.1 secs

     total energy              =   -2978.77437075 Ry
     estimated scf accuracy    <     307.77637894 Ry

     iteration # 16     ecut=    29.40 Ry     beta= 0.05
     Davidson diagonalization with overlap
     ethr =  4.16E-03,  avg # of iterations =  2.1

     negative rho (up, down):  6.252E-04 0.000E+00
 
     Adding external electric field

     Computed dipole along edir(3) : 
        Dipole                0.1425 Ry au,          0.3621 Debye
        Dipole field          0.0003 Ry au, 
 
        Potential amp.       -0.0249 Ry
        Total length         46.3494 bohr
 

     total cpu time spent up to now is      400.5 secs

     total energy              =   -2985.39216098 Ry
     estimated scf accuracy    <     364.78416811 Ry

     iteration # 17     ecut=    29.40 Ry     beta= 0.05
     Davidson diagonalization with overlap
     ethr =  4.16E-03,  avg # of iterations =  4.4

     negative rho (up, down):  6.656E-04 0.000E+00
 
     Adding external electric field

     Computed dipole along edir(3) : 
        Dipole               -2.4802 Ry au,         -6.3041 Debye
        Dipole field         -0.0047 Ry au, 
 
        Potential amp.        0.4339 Ry
        Total length         46.3494 bohr
 

     total cpu time spent up to now is      412.1 secs

     total energy              =   -2971.02820171 Ry
     estimated scf accuracy    <    1474.71689351 Ry

     iteration # 18     ecut=    29.40 Ry     beta= 0.05
     Davidson diagonalization with overlap
     ethr =  4.16E-03,  avg # of iterations =  2.0

     negative rho (up, down):  6.916E-04 0.000E+00
 
     Adding external electric field

     Computed dipole along edir(3) : 
        Dipole               -2.3812 Ry au,         -6.0523 Debye
        Dipole field         -0.0045 Ry au, 
 
        Potential amp.        0.4166 Ry
        Total length         46.3494 bohr
 

     total cpu time spent up to now is      422.9 secs

     total energy              =   -2968.72859925 Ry
     estimated scf accuracy    <     277.35643174 Ry

     iteration # 19     ecut=    29.40 Ry     beta= 0.05
     Davidson diagonalization with overlap
     c_bands:  3 eigenvalues not converged
     c_bands:  1 eigenvalues not converged
     ethr =  4.16E-03,  avg # of iterations = 17.5

     negative rho (up, down):  7.651E-04 0.000E+00
 
     Adding external electric field

     Computed dipole along edir(3) : 
        Dipole               -1.9529 Ry au,         -4.9638 Debye
        Dipole field         -0.0037 Ry au, 
 
        Potential amp.        0.3416 Ry
        Total length         46.3494 bohr
 

     total cpu time spent up to now is      443.3 secs

     total energy              =   -2975.75354260 Ry
     estimated scf accuracy    <       9.44594946 Ry

     iteration # 20     ecut=    29.40 Ry     beta= 0.05
     Davidson diagonalization with overlap
     ethr =  2.34E-03,  avg # of iterations =  2.6

     negative rho (up, down):  1.126E-03 0.000E+00
 
     Adding external electric field

     Computed dipole along edir(3) : 
        Dipole               -0.7054 Ry au,         -1.7930 Debye
        Dipole field         -0.0013 Ry au, 
 
        Potential amp.        0.1234 Ry
        Total length         46.3494 bohr
 

     total cpu time spent up to now is      454.1 secs

     total energy              =   -2975.16634007 Ry
     estimated scf accuracy    <       8.10750824 Ry

     iteration # 21     ecut=    29.40 Ry     beta= 0.05
     Davidson diagonalization with overlap
     ethr =  2.01E-03,  avg # of iterations =  4.5

     negative rho (up, down):  1.094E-03 0.000E+00
 
     Adding external electric field

     Computed dipole along edir(3) : 
        Dipole               -0.8379 Ry au,         -2.1297 Debye
        Dipole field         -0.0016 Ry au, 
 
        Potential amp.        0.1466 Ry
        Total length         46.3494 bohr
 

     total cpu time spent up to now is      465.6 secs

     total energy              =   -2975.42212383 Ry
     estimated scf accuracy    <       5.20951300 Ry

     iteration # 22     ecut=    29.40 Ry     beta= 0.05
     Davidson diagonalization with overlap
     ethr =  1.29E-03,  avg # of iterations =  1.5

     negative rho (up, down):  1.201E-03 0.000E+00
 
     Adding external electric field

     Computed dipole along edir(3) : 
        Dipole               -0.4687 Ry au,         -1.1912 Debye
        Dipole field         -0.0009 Ry au, 
 
        Potential amp.        0.0820 Ry
        Total length         46.3494 bohr
 

     total cpu time spent up to now is      476.0 secs

     total energy              =   -2975.27949869 Ry
     estimated scf accuracy    <       4.42021497 Ry

     iteration # 23     ecut=    29.40 Ry     beta= 0.05
     Davidson diagonalization with overlap
     c_bands:  2 eigenvalues not converged
     c_bands:  2 eigenvalues not converged
     c_bands:  2 eigenvalues not converged
     c_bands:  1 eigenvalues not converged
     ethr =  1.09E-03,  avg # of iterations = 15.8

     negative rho (up, down):  1.146E-03 0.000E+00
 
     Adding external electric field

     Computed dipole along edir(3) : 
        Dipole               -0.6125 Ry au,         -1.5568 Debye
        Dipole field         -0.0012 Ry au, 
 
        Potential amp.        0.1071 Ry
        Total length         46.3494 bohr
 

     total cpu time spent up to now is      491.7 secs

     total energy              =   -2975.47815494 Ry
     estimated scf accuracy    <       6.87947021 Ry

     iteration # 24     ecut=    29.40 Ry     beta= 0.05
     Davidson diagonalization with overlap
     ethr =  1.09E-03,  avg # of iterations =  4.1

     negative rho (up, down):  1.121E-03 0.000E+00
 
     Adding external electric field

     Computed dipole along edir(3) : 
        Dipole               -0.7931 Ry au,         -2.0159 Debye
        Dipole field         -0.0015 Ry au, 
 
        Potential amp.        0.1387 Ry
        Total length         46.3494 bohr
 

     total cpu time spent up to now is      502.6 secs

     total energy              =   -2975.47827460 Ry
     estimated scf accuracy    <       3.65674369 Ry

     iteration # 25     ecut=    29.40 Ry     beta= 0.05
     Davidson diagonalization with overlap
     ethr =  9.05E-04,  avg # of iterations =  1.1

     negative rho (up, down):  1.130E-03 0.000E+00
 
     Adding external electric field

     Computed dipole along edir(3) : 
        Dipole               -1.2070 Ry au,         -3.0680 Debye
        Dipole field         -0.0023 Ry au, 
 
        Potential amp.        0.2112 Ry
        Total length         46.3494 bohr
 

     total cpu time spent up to now is      512.6 secs

     total energy              =   -2975.34016851 Ry
     estimated scf accuracy    <       3.27519076 Ry

     iteration # 26     ecut=    29.40 Ry     beta= 0.05
     Davidson diagonalization with overlap
     ethr =  8.11E-04,  avg # of iterations =  1.9

     negative rho (up, down):  1.203E-03 0.000E+00
 
     Adding external electric field

     Computed dipole along edir(3) : 
        Dipole               -1.2000 Ry au,         -3.0501 Debye
        Dipole field         -0.0023 Ry au, 
 
        Potential amp.        0.2099 Ry
        Total length         46.3494 bohr
 

     total cpu time spent up to now is      523.3 secs

     total energy              =   -2975.40612109 Ry
     estimated scf accuracy    <       3.08133965 Ry

     iteration # 27     ecut=    29.40 Ry     beta= 0.05
     Davidson diagonalization with overlap
     ethr =  7.63E-04,  avg # of iterations =  1.4

     negative rho (up, down):  1.326E-03 0.000E+00
 
     Adding external electric field

     Computed dipole along edir(3) : 
        Dipole               -1.1482 Ry au,         -2.9186 Debye
        Dipole field         -0.0022 Ry au, 
 
        Potential amp.        0.2009 Ry
        Total length         46.3494 bohr
 

     total cpu time spent up to now is      533.6 secs

     total energy              =   -2975.34413224 Ry
     estimated scf accuracy    <       3.36868334 Ry

     iteration # 28     ecut=    29.40 Ry     beta= 0.05
     Davidson diagonalization with overlap
     ethr =  7.63E-04,  avg # of iterations =  4.9

     negative rho (up, down):  1.569E-03 0.000E+00
 
     Adding external electric field

     Computed dipole along edir(3) : 
        Dipole               -0.0343 Ry au,         -0.0872 Debye
        Dipole field         -0.0001 Ry au, 
 
        Potential amp.        0.0060 Ry
        Total length         46.3494 bohr
 

     total cpu time spent up to now is      545.1 secs

     total energy              =   -2975.34902718 Ry
     estimated scf accuracy    <       3.24155325 Ry

     iteration # 29     ecut=    29.40 Ry     beta= 0.05
     Davidson diagonalization with overlap
     ethr =  7.63E-04,  avg # of iterations =  2.0

     negative rho (up, down):  1.996E-03 0.000E+00
 
     Adding external electric field

     Computed dipole along edir(3) : 
        Dipole                0.7620 Ry au,          1.9368 Debye
        Dipole field          0.0014 Ry au, 
 
        Potential amp.       -0.1333 Ry
        Total length         46.3494 bohr
 

     total cpu time spent up to now is      556.0 secs

     total energy              =   -2975.48091741 Ry
     estimated scf accuracy    <       3.02408693 Ry

     iteration # 30     ecut=    29.40 Ry     beta= 0.05
     Davidson diagonalization with overlap
     ethr =  7.49E-04,  avg # of iterations =  9.2

     negative rho (up, down):  2.058E-03 0.000E+00
 
     Adding external electric field

     Computed dipole along edir(3) : 
        Dipole                0.6466 Ry au,          1.6434 Debye
        Dipole field          0.0012 Ry au, 
 
        Potential amp.       -0.1131 Ry
        Total length         46.3494 bohr
 

     total cpu time spent up to now is      569.3 secs

     total energy              =   -2975.45968714 Ry
     estimated scf accuracy    <       4.30093830 Ry

     iteration # 31     ecut=    29.40 Ry     beta= 0.05
     Davidson diagonalization with overlap
     ethr =  7.49E-04,  avg # of iterations =  3.1

     negative rho (up, down):  2.075E-03 0.000E+00
 
     Adding external electric field

     Computed dipole along edir(3) : 
        Dipole                0.6201 Ry au,          1.5761 Debye
        Dipole field          0.0012 Ry au, 
 
        Potential amp.       -0.1085 Ry
        Total length         46.3494 bohr
 

     total cpu time spent up to now is      580.1 secs

     total energy              =   -2975.45113172 Ry
     estimated scf accuracy    <       2.99939974 Ry

     iteration # 32     ecut=    29.40 Ry     beta= 0.05
     Davidson diagonalization with overlap
     ethr =  7.42E-04,  avg # of iterations =  2.0

     negative rho (up, down):  1.920E-03 0.000E+00
 
     Adding external electric field

     Computed dipole along edir(3) : 
        Dipole                0.2090 Ry au,          0.5313 Debye
        Dipole field          0.0004 Ry au, 
 
        Potential amp.       -0.0366 Ry
        Total length         46.3494 bohr
 

     total cpu time spent up to now is      590.4 secs

     total energy              =   -2974.93608691 Ry
     estimated scf accuracy    <       2.80523194 Ry

     iteration # 33     ecut=    29.40 Ry     beta= 0.05
     Davidson diagonalization with overlap
     c_bands:  1 eigenvalues not converged
     c_bands:  1 eigenvalues not converged
     ethr =  6.94E-04,  avg # of iterations = 17.2

     negative rho (up, down):  1.949E-03 0.000E+00
 
     Adding external electric field

     Computed dipole along edir(3) : 
        Dipole                0.4026 Ry au,          1.0233 Debye
        Dipole field          0.0008 Ry au, 
 
        Potential amp.       -0.0704 Ry
        Total length         46.3494 bohr
 

     total cpu time spent up to now is      610.0 secs

     total energy              =   -2975.31835080 Ry
     estimated scf accuracy    <       2.98909763 Ry

     iteration # 34     ecut=    29.40 Ry     beta= 0.05
     Davidson diagonalization with overlap
     ethr =  6.94E-04,  avg # of iterations =  1.0

     negative rho (up, down):  1.959E-03 0.000E+00
 
     Adding external electric field

     Computed dipole along edir(3) : 
        Dipole                0.5027 Ry au,          1.2777 Debye
        Dipole field          0.0009 Ry au, 
 
        Potential amp.       -0.0879 Ry
        Total length         46.3494 bohr
 

     total cpu time spent up to now is      619.9 secs

     total energy              =   -2975.29520599 Ry
     estimated scf accuracy    <       2.22858779 Ry

     iteration # 35     ecut=    29.40 Ry     beta= 0.05
     Davidson diagonalization with overlap
     ethr =  5.52E-04,  avg # of iterations =  1.0

     negative rho (up, down):  2.240E-03 0.000E+00
 
     Adding external electric field

     Computed dipole along edir(3) : 
        Dipole                0.8918 Ry au,          2.2668 Debye
        Dipole field          0.0017 Ry au, 
 
        Potential amp.       -0.1560 Ry
        Total length         46.3494 bohr
 

     total cpu time spent up to now is      629.8 secs

     total energy              =   -2975.21040586 Ry
     estimated scf accuracy    <       1.81909823 Ry

     iteration # 36     ecut=    29.40 Ry     beta= 0.05
     Davidson diagonalization with overlap
     ethr =  4.50E-04,  avg # of iterations =  2.3

     negative rho (up, down):  2.750E-03 0.000E+00
 
     Adding external electric field

     Computed dipole along edir(3) : 
        Dipole                1.8807 Ry au,          4.7803 Debye
        Dipole field          0.0035 Ry au, 
 
        Potential amp.       -0.3290 Ry
        Total length         46.3494 bohr
 

     total cpu time spent up to now is      640.6 secs

     total energy              =   -2974.94708221 Ry
     estimated scf accuracy    <       1.22064072 Ry

     iteration # 37     ecut=    29.40 Ry     beta= 0.05
     Davidson diagonalization with overlap
     c_bands:  2 eigenvalues not converged
     c_bands:  3 eigenvalues not converged
     c_bands:  2 eigenvalues not converged
     c_bands:  1 eigenvalues not converged
     c_bands:  1 eigenvalues not converged
     c_bands:  1 eigenvalues not converged
     ethr =  3.02E-04,  avg # of iterations = 19.1

     negative rho (up, down):  2.321E-03 0.000E+00
 
     Adding external electric field

     Computed dipole along edir(3) : 
        Dipole                1.3717 Ry au,          3.4865 Debye
        Dipole field          0.0026 Ry au, 
 
        Potential amp.       -0.2400 Ry
        Total length         46.3494 bohr
 

     total cpu time spent up to now is      663.5 secs

     total energy              =   -2975.32437662 Ry
     estimated scf accuracy    <       4.63842432 Ry

     iteration # 38     ecut=    29.40 Ry     beta= 0.05
     Davidson diagonalization with overlap
     ethr =  3.02E-04,  avg # of iterations =  1.3

     negative rho (up, down):  2.961E-03 0.000E+00
 
     Adding external electric field

     Computed dipole along edir(3) : 
        Dipole                1.8822 Ry au,          4.7840 Debye
        Dipole field          0.0036 Ry au, 
 
        Potential amp.       -0.3293 Ry
        Total length         46.3494 bohr
 

     total cpu time spent up to now is      673.7 secs

     total energy              =   -2975.46543706 Ry
     estimated scf accuracy    <       3.21518339 Ry

     iteration # 39     ecut=    29.40 Ry     beta= 0.05
     Davidson diagonalization with overlap
     ethr =  3.02E-04,  avg # of iterations =  1.1

     negative rho (up, down):  2.944E-03 0.000E+00
 
     Adding external electric field

     Computed dipole along edir(3) : 
        Dipole                2.3785 Ry au,          6.0456 Debye
        Dipole field          0.0045 Ry au, 
 
        Potential amp.       -0.4161 Ry
        Total length         46.3494 bohr
 

     total cpu time spent up to now is      683.7 secs

     total energy              =   -2975.78300179 Ry
     estimated scf accuracy    <       4.46426996 Ry

     iteration # 40     ecut=    29.40 Ry     beta= 0.05
     Davidson diagonalization with overlap
     ethr =  3.02E-04,  avg # of iterations =  4.9

     negative rho (up, down):  2.684E-03 0.000E+00
 
     Adding external electric field

     Computed dipole along edir(3) : 
        Dipole                1.6074 Ry au,          4.0857 Debye
        Dipole field          0.0030 Ry au, 
 
        Potential amp.       -0.2812 Ry
        Total length         46.3494 bohr
 

     total cpu time spent up to now is      695.2 secs

     total energy              =   -2975.11220653 Ry
     estimated scf accuracy    <      17.05100884 Ry

     iteration # 41     ecut=    29.40 Ry     beta= 0.05
     Davidson diagonalization with overlap
     ethr =  3.02E-04,  avg # of iterations =  2.5

     negative rho (up, down):  3.299E-03 0.000E+00
 
     Adding external electric field

     Computed dipole along edir(3) : 
        Dipole                2.0460 Ry au,          5.2003 Debye
        Dipole field          0.0039 Ry au, 
 
        Potential amp.       -0.3579 Ry
        Total length         46.3494 bohr
 

     total cpu time spent up to now is      706.5 secs

     total energy              =   -2975.25172715 Ry
     estimated scf accuracy    <       3.73939487 Ry

     iteration # 42     ecut=    29.40 Ry     beta= 0.05
     Davidson diagonalization with overlap
     ethr =  3.02E-04,  avg # of iterations = 10.7

     negative rho (up, down):  3.480E-03 0.000E+00
 
     Adding external electric field

     Computed dipole along edir(3) : 
        Dipole                2.0761 Ry au,          5.2770 Debye
        Dipole field          0.0039 Ry au, 
 
        Potential amp.       -0.3632 Ry
        Total length         46.3494 bohr
 

     total cpu time spent up to now is      720.6 secs

     total energy              =   -2975.34895437 Ry
     estimated scf accuracy    <      12.41080723 Ry

     iteration # 43     ecut=    29.40 Ry     beta= 0.05
     Davidson diagonalization with overlap
     ethr =  3.02E-04,  avg # of iterations =  1.3

     negative rho (up, down):  2.308E-03 0.000E+00
 
     Adding external electric field

     Computed dipole along edir(3) : 
        Dipole                0.7233 Ry au,          1.8384 Debye
        Dipole field          0.0014 Ry au, 
 
        Potential amp.       -0.1265 Ry
        Total length         46.3494 bohr
 

     total cpu time spent up to now is      730.7 secs

     total energy              =   -2974.85879496 Ry
     estimated scf accuracy    <      11.30344491 Ry

     iteration # 44     ecut=    29.40 Ry     beta= 0.05
     Davidson diagonalization with overlap
     c_bands:  2 eigenvalues not converged
     c_bands:  4 eigenvalues not converged
     c_bands:  1 eigenvalues not converged
     c_bands:  5 eigenvalues not converged
     c_bands:  1 eigenvalues not converged
     c_bands:  2 eigenvalues not converged
     c_bands:  5 eigenvalues not converged
     c_bands:  5 eigenvalues not converged
     c_bands:  1 eigenvalues not converged
     c_bands:  1 eigenvalues not converged
     ethr =  3.02E-04,  avg # of iterations = 20.0

     negative rho (up, down):  3.081E-03 0.000E+00
 
     Adding external electric field

     Computed dipole along edir(3) : 
        Dipole                1.4800 Ry au,          3.7618 Debye
        Dipole field          0.0028 Ry au, 
 
        Potential amp.       -0.2589 Ry
        Total length         46.3494 bohr
 

     total cpu time spent up to now is      749.8 secs

     total energy              =   -2975.11873736 Ry
     estimated scf accuracy    <       1.29509834 Ry

     iteration # 45     ecut=    29.40 Ry     beta= 0.05
     Davidson diagonalization with overlap
     c_bands:  1 eigenvalues not converged
     c_bands:  1 eigenvalues not converged
     c_bands:  2 eigenvalues not converged
     c_bands:  3 eigenvalues not converged
     c_bands:  3 eigenvalues not converged
     c_bands:  1 eigenvalues not converged
     ethr =  3.02E-04,  avg # of iterations = 16.4

     negative rho (up, down):  3.548E-03 0.000E+00
 
     Adding external electric field

     Computed dipole along edir(3) : 
        Dipole                1.5588 Ry au,          3.9622 Debye
        Dipole field          0.0029 Ry au, 
 
        Potential amp.       -0.2727 Ry
        Total length         46.3494 bohr
 

     total cpu time spent up to now is      765.8 secs

     total energy              =   -2975.21797180 Ry
     estimated scf accuracy    <       1.28179077 Ry

     iteration # 46     ecut=    29.40 Ry     beta= 0.05
     Davidson diagonalization with overlap
     c_bands:  2 eigenvalues not converged
     ethr =  3.02E-04,  avg # of iterations =  5.6

     negative rho (up, down):  3.192E-03 0.000E+00
 
     Adding external electric field

     Computed dipole along edir(3) : 
        Dipole                1.2576 Ry au,          3.1965 Debye
        Dipole field          0.0024 Ry au, 
 
        Potential amp.       -0.2200 Ry
        Total length         46.3494 bohr
 

     total cpu time spent up to now is      777.4 secs

     total energy              =   -2975.18256699 Ry
     estimated scf accuracy    <       1.18287034 Ry

     iteration # 47     ecut=    29.40 Ry     beta= 0.05
     Davidson diagonalization with overlap
     ethr =  2.93E-04,  avg # of iterations =  1.9

     negative rho (up, down):  3.225E-03 0.000E+00
 
     Adding external electric field

     Computed dipole along edir(3) : 
        Dipole                1.2684 Ry au,          3.2239 Debye
        Dipole field          0.0024 Ry au, 
 
        Potential amp.       -0.2219 Ry
        Total length         46.3494 bohr
 

     total cpu time spent up to now is      787.9 secs

     total energy              =   -2975.19913522 Ry
     estimated scf accuracy    <       0.09351819 Ry

     iteration # 48     ecut=    29.40 Ry     beta= 0.05
     Davidson diagonalization with overlap
     c_bands:  3 eigenvalues not converged
     c_bands:  3 eigenvalues not converged
     c_bands:  1 eigenvalues not converged
     c_bands:  2 eigenvalues not converged
     c_bands:  1 eigenvalues not converged
     c_bands:  1 eigenvalues not converged
     c_bands:  1 eigenvalues not converged
     c_bands:  4 eigenvalues not converged
     c_bands:  1 eigenvalues not converged
     c_bands:  1 eigenvalues not converged
     ethr =  2.31E-05,  avg # of iterations = 20.0

     negative rho (up, down):  3.222E-03 0.000E+00
 
     Adding external electric field

     Computed dipole along edir(3) : 
        Dipole                1.2684 Ry au,          3.2241 Debye
        Dipole field          0.0024 Ry au, 
 
        Potential amp.       -0.2219 Ry
        Total length         46.3494 bohr
 

     total cpu time spent up to now is      807.3 secs

     total energy              =   -2975.20286634 Ry
     estimated scf accuracy    <       0.07267566 Ry

     iteration # 49     ecut=    29.40 Ry     beta= 0.05
     Davidson diagonalization with overlap
     c_bands:  1 eigenvalues not converged
     c_bands:  2 eigenvalues not converged
     ethr =  1.80E-05,  avg # of iterations =  8.9

     negative rho (up, down):  3.250E-03 0.000E+00
 
     Adding external electric field

     Computed dipole along edir(3) : 
        Dipole                1.2302 Ry au,          3.1269 Debye
        Dipole field          0.0023 Ry au, 
 
        Potential amp.       -0.2152 Ry
        Total length         46.3494 bohr
 

     total cpu time spent up to now is      820.0 secs

     total energy              =   -2975.19652907 Ry
     estimated scf accuracy    <       0.07149815 Ry

     iteration # 50     ecut=    29.40 Ry     beta= 0.05
     Davidson diagonalization with overlap
     c_bands:  1 eigenvalues not converged
     c_bands:  1 eigenvalues not converged
     c_bands:  1 eigenvalues not converged
     ethr =  1.77E-05,  avg # of iterations = 14.3

     negative rho (up, down):  4.592E-03 0.000E+00
 
     Adding external electric field

     Computed dipole along edir(3) : 
        Dipole                1.4739 Ry au,          3.7462 Debye
        Dipole field          0.0028 Ry au, 
 
        Potential amp.       -0.2578 Ry
        Total length         46.3494 bohr
 

     total cpu time spent up to now is      834.9 secs

     total energy              =   -2975.19547816 Ry
     estimated scf accuracy    <       0.06420541 Ry

     iteration # 51     ecut=    29.40 Ry     beta= 0.05
     Davidson diagonalization with overlap
     c_bands:  1 eigenvalues not converged
     c_bands:  2 eigenvalues not converged
     c_bands:  1 eigenvalues not converged
     c_bands:  3 eigenvalues not converged
     c_bands:  1 eigenvalues not converged
     c_bands:  1 eigenvalues not converged
     c_bands:  3 eigenvalues not converged
     c_bands:  1 eigenvalues not converged
     c_bands:  3 eigenvalues not converged
     ethr =  1.59E-05,  avg # of iterations = 20.0

     negative rho (up, down):  5.177E-03 0.000E+00
 
     Adding external electric field

     Computed dipole along edir(3) : 
        Dipole                1.4261 Ry au,          3.6249 Debye
        Dipole field          0.0027 Ry au, 
 
        Potential amp.       -0.2495 Ry
        Total length         46.3494 bohr
 

     total cpu time spent up to now is      857.6 secs

     total energy              =   -2975.20018023 Ry
     estimated scf accuracy    <       0.74561722 Ry

     iteration # 52     ecut=    29.40 Ry     beta= 0.05
     Davidson diagonalization with overlap
     c_bands:  1 eigenvalues not converged
     c_bands:  2 eigenvalues not converged
     c_bands:  1 eigenvalues not converged
     ethr =  1.59E-05,  avg # of iterations = 11.6

     negative rho (up, down):  7.410E-03 0.000E+00
 
     Adding external electric field

     Computed dipole along edir(3) : 
        Dipole                1.4684 Ry au,          3.7322 Debye
        Dipole field          0.0028 Ry au, 
 
        Potential amp.       -0.2569 Ry
        Total length         46.3494 bohr
 

     total cpu time spent up to now is      871.4 secs

     total energy              =   -2975.19267282 Ry
     estimated scf accuracy    <       0.24958510 Ry

     iteration # 53     ecut=    29.40 Ry     beta= 0.05
     Davidson diagonalization with overlap
     c_bands:  2 eigenvalues not converged
     c_bands:  2 eigenvalues not converged
     c_bands:  1 eigenvalues not converged
     c_bands:  3 eigenvalues not converged
     c_bands:  3 eigenvalues not converged
     c_bands:  2 eigenvalues not converged
     c_bands:  3 eigenvalues not converged
     c_bands:  1 eigenvalues not converged
     ethr =  1.59E-05,  avg # of iterations = 20.0

     negative rho (up, down):  7.313E-03 0.000E+00
 
     Adding external electric field

     Computed dipole along edir(3) : 
        Dipole                1.3894 Ry au,          3.5314 Debye
        Dipole field          0.0026 Ry au, 
 
        Potential amp.       -0.2431 Ry
        Total length         46.3494 bohr
 

     total cpu time spent up to now is      894.0 secs

     total energy              =   -2975.20037252 Ry
     estimated scf accuracy    <       0.09712246 Ry

     iteration # 54     ecut=    29.40 Ry     beta= 0.05
     Davidson diagonalization with overlap
     ethr =  1.59E-05,  avg # of iterations =  8.0

     negative rho (up, down):  7.291E-03 0.000E+00
 
     Adding external electric field

     Computed dipole along edir(3) : 
        Dipole                1.3916 Ry au,          3.5370 Debye
        Dipole field          0.0026 Ry au, 
 
        Potential amp.       -0.2434 Ry
        Total length         46.3494 bohr
 

     total cpu time spent up to now is      906.1 secs

     total energy              =   -2975.20278651 Ry
     estimated scf accuracy    <       0.04894539 Ry

     iteration # 55     ecut=    29.40 Ry     beta= 0.05
     Davidson diagonalization with overlap
     ethr =  1.21E-05,  avg # of iterations =  2.1

     negative rho (up, down):  7.358E-03 0.000E+00
 
     Adding external electric field

     Computed dipole along edir(3) : 
        Dipole                1.4106 Ry au,          3.5855 Debye
        Dipole field          0.0027 Ry au, 
 
        Potential amp.       -0.2468 Ry
        Total length         46.3494 bohr
 

     total cpu time spent up to now is      916.4 secs

     total energy              =   -2975.20016207 Ry
     estimated scf accuracy    <       0.05783657 Ry

     iteration # 56     ecut=    29.40 Ry     beta= 0.05
     Davidson diagonalization with overlap
     ethr =  1.21E-05,  avg # of iterations =  8.1

     negative rho (up, down):  9.119E-03 0.000E+00
 
     Adding external electric field

     Computed dipole along edir(3) : 
        Dipole                1.4065 Ry au,          3.5751 Debye
        Dipole field          0.0027 Ry au, 
 
        Potential amp.       -0.2461 Ry
        Total length         46.3494 bohr
 

     total cpu time spent up to now is      928.8 secs

     total energy              =   -2975.19718791 Ry
     estimated scf accuracy    <       0.02714617 Ry

     iteration # 57     ecut=    29.40 Ry     beta= 0.05
     Davidson diagonalization with overlap
     c_bands:  1 eigenvalues not converged
     c_bands:  1 eigenvalues not converged
     c_bands:  4 eigenvalues not converged
     c_bands:  3 eigenvalues not converged
     c_bands:  1 eigenvalues not converged
     c_bands:  2 eigenvalues not converged
     c_bands:  2 eigenvalues not converged
     c_bands:  1 eigenvalues not converged
     ethr =  6.72E-06,  avg # of iterations = 19.7

     negative rho (up, down):  1.020E-02 0.000E+00
 
     Adding external electric field

     Computed dipole along edir(3) : 
        Dipole                1.4165 Ry au,          3.6003 Debye
        Dipole field          0.0027 Ry au, 
 
        Potential amp.       -0.2478 Ry
        Total length         46.3494 bohr
 

     total cpu time spent up to now is      950.2 secs

     total energy              =   -2975.20082188 Ry
     estimated scf accuracy    <       0.01215059 Ry

     iteration # 58     ecut=    29.40 Ry     beta= 0.05
     Davidson diagonalization with overlap
     c_bands:  1 eigenvalues not converged
     c_bands:  1 eigenvalues not converged
     c_bands:  1 eigenvalues not converged
     ethr =  3.01E-06,  avg # of iterations = 14.1

     negative rho (up, down):  1.110E-02 0.000E+00
 
     Adding external electric field

     Computed dipole along edir(3) : 
        Dipole                1.4159 Ry au,          3.5988 Debye
        Dipole field          0.0027 Ry au, 
 
        Potential amp.       -0.2477 Ry
        Total length         46.3494 bohr
 

     total cpu time spent up to now is      965.1 secs

     total energy              =   -2975.20086216 Ry
     estimated scf accuracy    <       0.00341454 Ry

     iteration # 59     ecut=    29.40 Ry     beta= 0.05
     Davidson diagonalization with overlap
     c_bands:  1 eigenvalues not converged
     c_bands:  3 eigenvalues not converged
     c_bands:  1 eigenvalues not converged
     c_bands:  1 eigenvalues not converged
     c_bands:  1 eigenvalues not converged
     c_bands:  3 eigenvalues not converged
     ethr =  8.45E-07,  avg # of iterations = 18.6

     negative rho (up, down):  1.281E-02 0.000E+00
 
     Adding external electric field

     Computed dipole along edir(3) : 
        Dipole                1.4314 Ry au,          3.6384 Debye
        Dipole field          0.0027 Ry au, 
 
        Potential amp.       -0.2504 Ry
        Total length         46.3494 bohr
 

     total cpu time spent up to now is      986.7 secs

     total energy              =   -2975.20179575 Ry
     estimated scf accuracy    <       0.02098335 Ry

     iteration # 60     ecut=    29.40 Ry     beta= 0.05
     Davidson diagonalization with overlap
     c_bands:  2 eigenvalues not converged
     c_bands:  1 eigenvalues not converged
     ethr =  8.45E-07,  avg # of iterations = 13.9

     negative rho (up, down):  1.122E-02 0.000E+00
 
     Adding external electric field

     Computed dipole along edir(3) : 
        Dipole                1.4221 Ry au,          3.6146 Debye
        Dipole field          0.0027 Ry au, 
 
        Potential amp.       -0.2488 Ry
        Total length         46.3494 bohr
 

     total cpu time spent up to now is     1004.1 secs

     total energy              =   -2975.20070964 Ry
     estimated scf accuracy    <       0.02391766 Ry

     iteration # 61     ecut=    29.40 Ry     beta= 0.05
     Davidson diagonalization with overlap
     c_bands:  1 eigenvalues not converged
     c_bands:  2 eigenvalues not converged
     c_bands:  2 eigenvalues not converged
     c_bands:  1 eigenvalues not converged
     ethr =  8.45E-07,  avg # of iterations = 17.5

     negative rho (up, down):  1.294E-02 0.000E+00
 
     Adding external electric field

     Computed dipole along edir(3) : 
        Dipole                1.4373 Ry au,          3.6531 Debye
        Dipole field          0.0027 Ry au, 
 
        Potential amp.       -0.2514 Ry
        Total length         46.3494 bohr
 

     total cpu time spent up to now is     1022.3 secs

     total energy              =   -2975.20145907 Ry
     estimated scf accuracy    <       0.00244302 Ry

     iteration # 62     ecut=    29.40 Ry     beta= 0.05
     Davidson diagonalization with overlap
     ethr =  6.05E-07,  avg # of iterations =  5.3

     negative rho (up, down):  1.379E-02 0.000E+00
 
     Adding external electric field

     Computed dipole along edir(3) : 
        Dipole                1.4413 Ry au,          3.6633 Debye
        Dipole field          0.0027 Ry au, 
 
        Potential amp.       -0.2521 Ry
        Total length         46.3494 bohr
 

     total cpu time spent up to now is     1033.5 secs

     total energy              =   -2975.20152374 Ry
     estimated scf accuracy    <       0.00052904 Ry

     iteration # 63     ecut=    29.40 Ry     beta= 0.05
     Davidson diagonalization with overlap
     c_bands:  1 eigenvalues not converged
     c_bands:  1 eigenvalues not converged
     ethr =  1.31E-07,  avg # of iterations = 14.9

     negative rho (up, down):  1.361E-02 0.000E+00
 
     Adding external electric field

     Computed dipole along edir(3) : 
        Dipole                1.4342 Ry au,          3.6453 Debye
        Dipole field          0.0027 Ry au, 
 
        Potential amp.       -0.2509 Ry
        Total length         46.3494 bohr
 

     total cpu time spent up to now is     1050.0 secs

     total energy              =   -2975.20155038 Ry
     estimated scf accuracy    <       0.00072847 Ry

     iteration # 64     ecut=    29.40 Ry     beta= 0.05
     Davidson diagonalization with overlap
     ethr =  1.31E-07,  avg # of iterations =  6.4

     negative rho (up, down):  1.401E-02 0.000E+00
 
     Adding external electric field

     Computed dipole along edir(3) : 
        Dipole                1.4316 Ry au,          3.6387 Debye
        Dipole field          0.0027 Ry au, 
 
        Potential amp.       -0.2504 Ry
        Total length         46.3494 bohr
 

     total cpu time spent up to now is     1061.8 secs

     total energy              =   -2975.20157132 Ry
     estimated scf accuracy    <       0.00029569 Ry

     iteration # 65     ecut=    29.40 Ry     beta= 0.05
     Davidson diagonalization with overlap
     ethr =  7.32E-08,  avg # of iterations = 10.3

     negative rho (up, down):  1.389E-02 0.000E+00
 
     Adding external electric field

     Computed dipole along edir(3) : 
        Dipole                1.4274 Ry au,          3.6282 Debye
        Dipole field          0.0027 Ry au, 
 
        Potential amp.       -0.2497 Ry
        Total length         46.3494 bohr
 

     total cpu time spent up to now is     1075.1 secs

     total energy              =   -2975.20157590 Ry
     estimated scf accuracy    <       0.00009142 Ry

     iteration # 66     ecut=    29.40 Ry     beta= 0.05
     Davidson diagonalization with overlap
     c_bands:  1 eigenvalues not converged
     c_bands:  1 eigenvalues not converged
     ethr =  2.26E-08,  avg # of iterations = 16.2

     negative rho (up, down):  1.392E-02 0.000E+00
 
     Adding external electric field

     Computed dipole along edir(3) : 
        Dipole                1.4268 Ry au,          3.6266 Debye
        Dipole field          0.0027 Ry au, 
 
        Potential amp.       -0.2496 Ry
        Total length         46.3494 bohr
 

     total cpu time spent up to now is     1095.6 secs

     total energy              =   -2975.20159164 Ry
     estimated scf accuracy    <       0.00009989 Ry

     iteration # 67     ecut=    29.40 Ry     beta= 0.05
     Davidson diagonalization with overlap
     ethr =  2.26E-08,  avg # of iterations =  4.2

     negative rho (up, down):  1.392E-02 0.000E+00
 
     Adding external electric field

     Computed dipole along edir(3) : 
        Dipole                1.4271 Ry au,          3.6272 Debye
        Dipole field          0.0027 Ry au, 
 
        Potential amp.       -0.2496 Ry
        Total length         46.3494 bohr
 

     total cpu time spent up to now is     1106.9 secs

     total energy              =   -2975.20159265 Ry
     estimated scf accuracy    <       0.00003313 Ry

     iteration # 68     ecut=    29.40 Ry     beta= 0.05
     Davidson diagonalization with overlap
     c_bands:  2 eigenvalues not converged
     ethr =  8.20E-09,  avg # of iterations = 18.1

     negative rho (up, down):  1.391E-02 0.000E+00
 
     Adding external electric field

     Computed dipole along edir(3) : 
        Dipole                1.4269 Ry au,          3.6267 Debye
        Dipole field          0.0027 Ry au, 
 
        Potential amp.       -0.2496 Ry
        Total length         46.3494 bohr
 

     total cpu time spent up to now is     1127.2 secs

     total energy              =   -2975.20159995 Ry
     estimated scf accuracy    <       0.00002904 Ry

     iteration # 69     ecut=    29.40 Ry     beta= 0.05
     Davidson diagonalization with overlap
     ethr =  7.19E-09,  avg # of iterations =  7.4

     negative rho (up, down):  1.372E-02 0.000E+00
 
     Adding external electric field

     Computed dipole along edir(3) : 
        Dipole                1.4245 Ry au,          3.6208 Debye
        Dipole field          0.0027 Ry au, 
 
        Potential amp.       -0.2492 Ry
        Total length         46.3494 bohr
 

     total cpu time spent up to now is     1139.4 secs

     total energy              =   -2975.20160148 Ry
     estimated scf accuracy    <       0.00001493 Ry

     iteration # 70     ecut=    29.40 Ry     beta= 0.05
     Davidson diagonalization with overlap
     c_bands:  3 eigenvalues not converged
     c_bands:  2 eigenvalues not converged
     c_bands:  2 eigenvalues not converged
     c_bands:  2 eigenvalues not converged
     ethr =  3.70E-09,  avg # of iterations = 18.0

     negative rho (up, down):  1.371E-02 0.000E+00
 
     Adding external electric field

     Computed dipole along edir(3) : 
        Dipole                1.4247 Ry au,          3.6212 Debye
        Dipole field          0.0027 Ry au, 
 
        Potential amp.       -0.2492 Ry
        Total length         46.3494 bohr
 

     total cpu time spent up to now is     1161.1 secs

     total energy              =   -2975.20160638 Ry
     estimated scf accuracy    <       0.00003262 Ry

     iteration # 71     ecut=    29.40 Ry     beta= 0.05
     Davidson diagonalization with overlap
     ethr =  3.70E-09,  avg # of iterations = 10.1

     negative rho (up, down):  1.373E-02 0.000E+00
 
     Adding external electric field

     Computed dipole along edir(3) : 
        Dipole                1.4242 Ry au,          3.6199 Debye
        Dipole field          0.0027 Ry au, 
 
        Potential amp.       -0.2491 Ry
        Total length         46.3494 bohr
 

     total cpu time spent up to now is     1174.7 secs

     total energy              =   -2975.20160593 Ry
     estimated scf accuracy    <       0.00002009 Ry

     iteration # 72     ecut=    29.40 Ry     beta= 0.05
     Davidson diagonalization with overlap
     c_bands:  2 eigenvalues not converged
     ethr =  3.70E-09,  avg # of iterations = 16.0

     negative rho (up, down):  1.371E-02 0.000E+00
 
     Adding external electric field

     Computed dipole along edir(3) : 
        Dipole                1.4234 Ry au,          3.6180 Debye
        Dipole field          0.0027 Ry au, 
 
        Potential amp.       -0.2490 Ry
        Total length         46.3494 bohr
 

     total cpu time spent up to now is     1196.1 secs

     total energy              =   -2975.20161155 Ry
     estimated scf accuracy    <       0.00000690 Ry

     iteration # 73     ecut=    29.40 Ry     beta= 0.05
     Davidson diagonalization with overlap
     ethr =  1.71E-09,  avg # of iterations =  2.4

     negative rho (up, down):  1.361E-02 0.000E+00
 
     Adding external electric field

     Computed dipole along edir(3) : 
        Dipole                1.4221 Ry au,          3.6147 Debye
        Dipole field          0.0027 Ry au, 
 
        Potential amp.       -0.2488 Ry
        Total length         46.3494 bohr
 

     total cpu time spent up to now is     1207.0 secs

     total energy              =   -2975.20161260 Ry
     estimated scf accuracy    <       0.00000572 Ry

     iteration # 74     ecut=    29.40 Ry     beta= 0.05
     Davidson diagonalization with overlap
     c_bands:  1 eigenvalues not converged
     ethr =  1.42E-09,  avg # of iterations = 15.0

     negative rho (up, down):  1.361E-02 0.000E+00
 
     Adding external electric field

     Computed dipole along edir(3) : 
        Dipole                1.4228 Ry au,          3.6163 Debye
        Dipole field          0.0027 Ry au, 
 
        Potential amp.       -0.2489 Ry
        Total length         46.3494 bohr
 

     total cpu time spent up to now is     1226.9 secs

     total energy              =   -2975.20161500 Ry
     estimated scf accuracy    <       0.00000204 Ry

     iteration # 75     ecut=    29.40 Ry     beta= 0.05
     Davidson diagonalization with overlap
     ethr =  5.04E-10,  avg # of iterations = 11.9

     negative rho (up, down):  1.357E-02 0.000E+00
 
     Adding external electric field

     Computed dipole along edir(3) : 
        Dipole                1.4225 Ry au,          3.6156 Debye
        Dipole field          0.0027 Ry au, 
 
        Potential amp.       -0.2488 Ry
        Total length         46.3494 bohr
 

     total cpu time spent up to now is     1245.1 secs

     total energy              =   -2975.20161691 Ry
     estimated scf accuracy    <       0.00000073 Ry

     iteration # 76     ecut=    29.40 Ry     beta= 0.05
     Davidson diagonalization with overlap
     c_bands:  1 eigenvalues not converged
     ethr =  1.82E-10,  avg # of iterations = 16.0

     negative rho (up, down):  1.357E-02 0.000E+00
 
     Adding external electric field

     Computed dipole along edir(3) : 
        Dipole                1.4225 Ry au,          3.6157 Debye
        Dipole field          0.0027 Ry au, 
 
        Potential amp.       -0.2489 Ry
        Total length         46.3494 bohr
 

     total cpu time spent up to now is     1265.0 secs

     total energy              =   -2975.20161842 Ry
     estimated scf accuracy    <       0.00000107 Ry

     iteration # 77     ecut=    29.40 Ry     beta= 0.05
     Davidson diagonalization with overlap
     ethr =  1.82E-10,  avg # of iterations = 13.6

     negative rho (up, down):  1.355E-02 0.000E+00
 
     Adding external electric field

     Computed dipole along edir(3) : 
        Dipole                1.4223 Ry au,          3.6150 Debye
        Dipole field          0.0027 Ry au, 
 
        Potential amp.       -0.2488 Ry
        Total length         46.3494 bohr
 

     total cpu time spent up to now is     1280.2 secs

     total energy              =   -2975.20161983 Ry
     estimated scf accuracy    <       0.00000075 Ry

     iteration # 78     ecut=    29.40 Ry     beta= 0.05
     Davidson diagonalization with overlap
     ethr =  1.82E-10,  avg # of iterations =  5.7

     negative rho (up, down):  1.354E-02 0.000E+00
 
     Adding external electric field

     Computed dipole along edir(3) : 
        Dipole                1.4222 Ry au,          3.6149 Debye
        Dipole field          0.0027 Ry au, 
 
        Potential amp.       -0.2488 Ry
        Total length         46.3494 bohr
 

     total cpu time spent up to now is     1292.1 secs

     total energy              =   -2975.20162107 Ry
     estimated scf accuracy    <       0.00000024 Ry

     iteration # 79     ecut=    29.40 Ry     beta= 0.05
     Davidson diagonalization with overlap
     c_bands:  1 eigenvalues not converged
     ethr =  5.84E-11,  avg # of iterations = 14.0

     negative rho (up, down):  1.353E-02 0.000E+00
 
     Adding external electric field

     Computed dipole along edir(3) : 
        Dipole                1.4221 Ry au,          3.6147 Debye
        Dipole field          0.0027 Ry au, 
 
        Potential amp.       -0.2488 Ry
        Total length         46.3494 bohr
 

     total cpu time spent up to now is     1308.0 secs

     total energy              =   -2975.20162219 Ry
     estimated scf accuracy    <       0.00000018 Ry

     iteration # 80     ecut=    29.40 Ry     beta= 0.05
     Davidson diagonalization with overlap
     c_bands:  2 eigenvalues not converged
     ethr =  4.50E-11,  avg # of iterations = 15.4

     negative rho (up, down):  1.352E-02 0.000E+00
 
     Adding external electric field

     Computed dipole along edir(3) : 
        Dipole                1.4219 Ry au,          3.6142 Debye
        Dipole field          0.0027 Ry au, 
 
        Potential amp.       -0.2487 Ry
        Total length         46.3494 bohr
 

     total cpu time spent up to now is     1325.2 secs

     total energy              =   -2975.20162322 Ry
     estimated scf accuracy    <       0.00000013 Ry

     iteration # 81     ecut=    29.40 Ry     beta= 0.05
     Davidson diagonalization with overlap
     ethr =  3.21E-11,  avg # of iterations = 12.7

     negative rho (up, down):  1.351E-02 0.000E+00
 
     Adding external electric field

     Computed dipole along edir(3) : 
        Dipole                1.4217 Ry au,          3.6136 Debye
        Dipole field          0.0027 Ry au, 
 
        Potential amp.       -0.2487 Ry
        Total length         46.3494 bohr
 

     total cpu time spent up to now is     1340.0 secs

     total energy              =   -2975.20162411 Ry
     estimated scf accuracy    <       0.00000007 Ry

     iteration # 82     ecut=    29.40 Ry     beta= 0.05
     Davidson diagonalization with overlap
     ethr =  1.85E-11,  avg # of iterations = 13.7

     negative rho (up, down):  1.355E-02 0.000E+00
 
     Adding external electric field

     Computed dipole along edir(3) : 
        Dipole                1.4211 Ry au,          3.6121 Debye
        Dipole field          0.0027 Ry au, 
 
        Potential amp.       -0.2486 Ry
        Total length         46.3494 bohr
 

     total cpu time spent up to now is     1358.1 secs

     End of self-consistent calculation

          k = 0.0000 0.0000 0.0000 ( 18029 PWs)   bands (ev):

   -55.1448 -55.1165 -55.1082 -55.0824 -55.0798 -55.0309 -54.9890 -54.9563
   -54.9412 -54.9252 -54.9210 -54.9179 -54.9082 -54.8358 -54.1291 -54.0950
   -31.7078 -31.6063 -31.5240 -31.4808 -31.4606 -31.4556 -31.4454 -31.4433
   -31.4063 -31.3861 -31.3642 -31.3609 -31.3445 -31.3223 -31.3056 -31.2917
   -31.2859 -31.2692 -31.2667 -31.2574 -31.2278 -31.2148 -31.2110 -31.1861
   -31.1793 -31.1734 -31.1640 -31.1585 -31.1567 -31.1494 -31.1379 -31.1359
   -31.1140 -31.1055 -31.1019 -31.0932 -31.0851 -31.0725 -31.0700 -31.0522
   -31.0493 -31.0160 -30.5377 -30.4454 -30.4233 -30.3542 -30.2675 -30.1565
   -19.2636 -18.5872 -15.9620 -15.6973 -15.5664 -15.4005 -15.3368 -15.1656
   -15.0851 -15.0197 -14.9342 -14.8758 -14.8612 -14.8554 -14.7632 -14.7452
   -14.6925 -14.6797 -14.6731 -14.6422 -14.6339 -14.5765 -14.5718 -14.5667
   -14.5326 -14.5197 -14.4900 -14.3722 -14.2914 -14.2346 -14.0240 -13.6706
   -12.6318 -12.5147 -10.0211  -6.8268  -6.4864  -6.3934  -4.0760  -3.9020
    -3.3133  -3.1705  -3.1520  -3.0680  -3.0456  -2.9126  -2.8656  -2.7036
    -2.5976  -2.5004  -2.4107  -2.3406  -2.3331  -2.3045  -2.1884  -2.1259
    -2.0797  -2.0365  -2.0173  -2.0050  -1.9565  -1.9206  -1.9182  -1.8514
    -1.8498  -1.7122  -1.6181  -1.6135  -1.5794  -1.5634  -1.4747  -1.4519
    -1.4423  -1.4362  -1.4298  -1.4223  -1.3880  -1.3442  -1.3186  -1.2346
    -1.1813  -1.1378  -1.0068  -0.9051  -0.8317  -0.7746  -0.6862  -0.6830
    -0.6152  -0.5497  -0.5356  -0.5336  -0.4731  -0.3520  -0.3061  -0.2550
    -0.2343  -0.2093  -0.1198  -0.1028  -0.0329   0.0396   0.0682   0.0783
     0.0999   0.2730   0.2809   0.3102   0.3290   0.4186   0.4709   0.5127
     0.5190   0.5415   0.6076   0.6464   0.7378   0.7852   0.7960   0.8168
     0.8384   0.8777   0.9544   0.9644   1.0054   1.0286   1.1695   1.2051
     1.2587   1.4749   1.4771   1.8062   1.8463   1.8933   2.0795   2.4677
     2.5151   3.9546   4.0441   4.0833   4.0850   4.1040   4.1896   4.3234
     4.4355   4.4462   4.4582   4.4802

          k = 0.0000 0.0419 0.0000 ( 17933 PWs)   bands (ev):

   -55.1396 -55.1133 -55.1114 -55.0873 -55.0788 -55.0269 -54.9929 -54.9513
   -54.9363 -54.9259 -54.9259 -54.9163 -54.9129 -54.8374 -54.1240 -54.0999
   -31.6507 -31.5523 -31.4692 -31.4451 -31.4313 -31.4190 -31.4044 -31.4015
   -31.3929 -31.3903 -31.3763 -31.3523 -31.3518 -31.3274 -31.3180 -31.2986
   -31.2977 -31.2846 -31.2596 -31.2553 -31.2432 -31.2169 -31.2112 -31.1934
   -31.1875 -31.1818 -31.1722 -31.1700 -31.1682 -31.1639 -31.1599 -31.1382
   -31.1307 -31.1260 -31.1111 -31.1104 -31.1042 -31.1031 -31.0998 -31.0805
   -31.0559 -31.0481 -30.4835 -30.4420 -30.4263 -30.3415 -30.2800 -30.2137
   -19.2625 -18.5871 -15.8302 -15.5807 -15.4598 -15.3275 -15.2292 -15.1270
   -15.0966 -15.0163 -14.9737 -14.9341 -14.9117 -14.8336 -14.7936 -14.7551
   -14.7067 -14.6988 -14.6476 -14.6314 -14.6258 -14.6221 -14.5954 -14.5849
   -14.5756 -14.5312 -14.4944 -14.4289 -14.3475 -14.2936 -14.1065 -13.6762
   -12.6355 -12.5540 -10.0212  -6.8269  -6.4868  -6.3953  -4.0642  -3.8961
    -3.1334  -3.0576  -2.9856  -2.9243  -2.8698  -2.8432  -2.7193  -2.5250
    -2.4791  -2.4031  -2.3673  -2.2749  -2.2692  -2.2443  -2.2016  -2.1721
    -2.1417  -2.1201  -2.1111  -2.0871  -2.0639  -1.9866  -1.9528  -1.9334
    -1.9078  -1.8604  -1.8452  -1.7267  -1.7144  -1.6967  -1.6825  -1.6329
    -1.5736  -1.4585  -1.4451  -1.3862  -1.3492  -1.3012  -1.2056  -1.0878
    -1.0414  -0.9469  -0.9282  -0.8625  -0.8385  -0.6933  -0.6820  -0.6172
    -0.5137  -0.4725  -0.4425  -0.4002  -0.3516  -0.3154  -0.2592  -0.2033
    -0.1440  -0.1275  -0.1035  -0.0833  -0.0396   0.0311   0.0375   0.0610
     0.1219   0.2013   0.2334   0.2715   0.3014   0.3529   0.3854   0.4039
     0.4697   0.5084   0.5551   0.6071   0.6328   0.6652   0.6731   0.6958
     0.8104   0.8362   0.8619   0.9141   0.9804   1.0291   1.0819   1.1114
     1.1571   1.1807   1.3494   1.5046   1.7193   2.0786   2.1576   2.4224
     2.4259   4.1267   4.1652   4.1771   4.2263   4.2602   4.3356   4.3605
     4.3719   4.4186   4.4484   4.4756

          k = 0.0000-0.0839 0.0000 ( 17884 PWs)   bands (ev):

   -55.1299 -55.1228 -55.0995 -55.0992 -55.0779 -55.0217 -54.9980 -54.9418
   -54.9355 -54.9267 -54.9250 -54.9240 -54.9146 -54.8392 -54.1120 -54.1118
   -31.5157 -31.5074 -31.4227 -31.4200 -31.4197 -31.4053 -31.3917 -31.3914
   -31.3642 -31.3562 -31.3442 -31.3425 -31.3281 -31.3240 -31.3216 -31.3112
   -31.2884 -31.2648 -31.2636 -31.2553 -31.2548 -31.2274 -31.2216 -31.2212
   -31.2212 -31.2180 -31.2095 -31.2057 -31.2015 -31.1784 -31.1747 -31.1733
   -31.1661 -31.1585 -31.1389 -31.1091 -31.1073 -31.1057 -31.1046 -31.1030
   -31.0893 -31.0462 -30.4340 -30.4338 -30.3505 -30.3502 -30.3108 -30.3108
   -19.2614 -18.5871 -15.5320 -15.4769 -15.3132 -15.2932 -15.2001 -15.1588
   -15.1091 -15.0574 -14.9754 -14.9697 -14.9249 -14.9051 -14.8233 -14.7637
   -14.7405 -14.7295 -14.7031 -14.6805 -14.6238 -14.5720 -14.5611 -14.5441
   -14.5414 -14.4880 -14.4809 -14.4778 -14.4392 -14.4310 -14.2334 -13.6810
   -12.6167 -12.6167 -10.0214  -6.8271  -6.4871  -6.3976  -4.0547  -3.8913
    -3.0085  -2.7281  -2.6472  -2.6206  -2.5994  -2.5863  -2.5648  -2.5580
    -2.4462  -2.4316  -2.4287  -2.4061  -2.3462  -2.3231  -2.2907  -2.2792
    -2.2686  -2.1890  -2.1548  -2.1374  -2.0817  -2.0499  -2.0037  -1.9836
    -1.9646  -1.9583  -1.9014  -1.8742  -1.8104  -1.7691  -1.7213  -1.5750
    -1.5417  -1.5265  -1.3780  -1.2587  -1.1957  -1.1388  -1.1181  -1.0705
    -0.9317  -0.9164  -0.8922  -0.8656  -0.7281  -0.6509  -0.6288  -0.5835
    -0.5686  -0.5642  -0.5307  -0.5149  -0.4892  -0.4519  -0.3506  -0.2518
    -0.2415  -0.1428  -0.0442  -0.0189   0.1195   0.1450   0.1857   0.2117
     0.2157   0.2276   0.2664   0.2858   0.2996   0.3308   0.3584   0.3841
     0.3857   0.4107   0.4820   0.4944   0.5235   0.5510   0.6118   0.6376
     0.6438   0.6704   0.6997   0.7138   0.9101   1.0275   1.0510   1.0704
     1.0748   1.2365   1.2502   1.4398   1.4695   2.2208   2.2222   2.3584
     2.3587   4.1454   4.2379   4.2478   4.2724   4.3015   4.3532   4.4278
     4.4344   4.5156   4.5484   4.5577

          k = 0.0380 0.0000 0.0000 ( 17913 PWs)   bands (ev):

   -55.1446 -55.1164 -55.1081 -55.0823 -55.0797 -55.0308 -54.9889 -54.9559
   -54.9415 -54.9249 -54.9209 -54.9180 -54.9081 -54.8357 -54.1290 -54.0949
   -31.7079 -31.6072 -31.5293 -31.4833 -31.4609 -31.4554 -31.4496 -31.4437
   -31.4061 -31.3859 -31.3608 -31.3483 -31.3428 -31.3221 -31.2963 -31.2896
   -31.2814 -31.2666 -31.2660 -31.2376 -31.2321 -31.2275 -31.2109 -31.1857
   -31.1793 -31.1733 -31.1639 -31.1575 -31.1565 -31.1422 -31.1380 -31.1360
   -31.1341 -31.1066 -31.1047 -31.0921 -31.0850 -31.0717 -31.0690 -31.0557
   -31.0502 -31.0161 -30.5372 -30.4489 -30.4212 -30.3540 -30.2674 -30.1563
   -19.2630 -18.5872 -15.8867 -15.6102 -15.5077 -15.4009 -15.2388 -15.1783
   -15.1170 -15.0330 -14.9995 -14.9355 -14.9115 -14.8589 -14.8267 -14.8181
   -14.7968 -14.7293 -14.7236 -14.7050 -14.5841 -14.5584 -14.5356 -14.4936
[...]

          k = 0.0380 0.0419 0.0000 ( 17878 PWs)   bands (ev):

   -55.1395 -55.1132 -55.1114 -55.0873 -55.0787 -55.0269 -54.9928 -54.9509
   -54.9366 -54.9259 -54.9257 -54.9164 -54.9129 -54.8374 -54.1239 -54.0999
   -31.6509 -31.5531 -31.4754 -31.4452 -31.4336 -31.4196 -31.4046 -31.4012
   -31.3970 -31.3905 -31.3765 -31.3521 -31.3385 -31.3270 -31.3180 -31.2895
   -31.2889 -31.2847 -31.2596 -31.2525 -31.2273 -31.2253 -31.2170 -31.1914
   -31.1871 -31.1815 -31.1732 -31.1713 -31.1663 -31.1601 -31.1563 -31.1393
   -31.1333 -31.1301 -31.1164 -31.1125 -31.1094 -31.1035 -31.1004 -31.0805
   -31.0564 -31.0522 -30.4831 -30.4447 -30.4252 -30.3414 -30.2801 -30.2135
   -19.2621 -18.5870 -15.7617 -15.4988 -15.4151 -15.3101 -15.1596 -15.1198
   -15.0922 -15.0284 -15.0113 -14.9637 -14.9230 -14.8419 -14.8252 -14.8043
   -14.7968 -14.7518 -14.7310 -14.6739 -14.6373 -14.5903 -14.5630 -14.5323
   -14.5208 -14.4949 -14.4675 -14.4269 -14.4051 -14.3782 -14.1047 -13.6761
   -12.6332 -12.5543 -10.0228  -6.8243  -6.4858  -6.3901  -4.0673  -3.8914
    -3.0479  -2.9438  -2.8561  -2.7479  -2.7173  -2.6205  -2.5854  -2.5275
    -2.4818  -2.4681  -2.3560  -2.3168  -2.2522  -2.2064  -2.1813  -2.1678
    -2.1261  -2.0986  -2.0484  -2.0236  -1.9778  -1.9631  -1.9454  -1.8970
    -1.8809  -1.8348  -1.8283  -1.7712  -1.7095  -1.6809  -1.6526  -1.5824
    -1.5358  -1.4555  -1.3868  -1.3397  -1.2789  -1.2072  -1.1812  -1.1471
    -0.9943  -0.9460  -0.9141  -0.8651  -0.8052  -0.7595  -0.6749  -0.6283
    -0.5952  -0.5515  -0.5284  -0.4742  -0.4630  -0.4105  -0.3419  -0.3145
    -0.2186  -0.1953  -0.1712  -0.1173  -0.1019  -0.0557  -0.0292   0.0280
     0.0994   0.1153   0.1448   0.1841   0.1995   0.2388   0.2805   0.3155
     0.3598   0.3953   0.4433   0.4942   0.5181   0.5942   0.6389   0.6846
     0.7754   0.8230   0.8689   0.9359   0.9825   1.0142   1.0363   1.1017
     1.1509   1.2743   1.3100   1.4566   1.6702   2.0894   2.1612   2.3447
     2.4074   4.1309   4.1411   4.1734   4.2140   4.3076   4.3470   4.3839
     4.3954   4.4479   4.5195   4.5400

          k = 0.0380-0.0839 0.0000 ( 17916 PWs)   bands (ev):

   -55.1299 -55.1229 -55.0995 -55.0992 -55.0779 -55.0218 -54.9980 -54.9416
   -54.9353 -54.9266 -54.9253 -54.9243 -54.9147 -54.8392 -54.1120 -54.1119
   -31.5159 -31.5077 -31.4228 -31.4208 -31.4205 -31.4055 -31.3918 -31.3915
   -31.3651 -31.3591 -31.3582 -31.3462 -31.3421 -31.3119 -31.3000 -31.2952
   -31.2822 -31.2703 -31.2669 -31.2615 -31.2562 -31.2326 -31.2221 -31.2202
   -31.2199 -31.2190 -31.2109 -31.1890 -31.1866 -31.1849 -31.1746 -31.1670
   -31.1660 -31.1546 -31.1397 -31.1191 -31.1157 -31.1105 -31.1061 -31.1043
   -31.0895 -31.0525 -30.4350 -30.4349 -30.3504 -30.3501 -30.3108 -30.3108
   -19.2612 -18.5869 -15.4962 -15.4211 -15.2604 -15.2388 -15.1610 -15.1474
   -15.0905 -15.0279 -14.9821 -14.9565 -14.9202 -14.8722 -14.8295 -14.8032
   -14.7639 -14.7532 -14.7424 -14.6949 -14.6537 -14.6107 -14.5911 -14.5729
   -14.5630 -14.5076 -14.5006 -14.4883 -14.4831 -14.4618 -14.2289 -13.6812
   -12.6165 -12.6165 -10.0227  -6.8239  -6.4892  -6.3906  -4.0531  -3.8900
    -2.9582  -2.7220  -2.5519  -2.5269  -2.4770  -2.4185  -2.4059  -2.3687
    -2.3614  -2.3238  -2.2986  -2.2503  -2.2288  -2.2271  -2.2139  -2.2075
    -2.1746  -2.1365  -2.0960  -2.0874  -2.0369  -2.0241  -2.0111  -1.9758
    -1.9576  -1.8939  -1.8776  -1.8459  -1.8081  -1.7468  -1.7349  -1.6318
    -1.4636  -1.3839  -1.3300  -1.2562  -1.2165  -1.1428  -1.1042  -1.0783
    -1.0544  -1.0336  -0.9870  -0.9761  -0.8874  -0.8448  -0.8226  -0.8046
    -0.7159  -0.6797  -0.5730  -0.5224  -0.4824  -0.4385  -0.3722  -0.3379
    -0.2664  -0.2174  -0.1782  -0.1502  -0.0765  -0.0433   0.0285   0.0397
     0.0483   0.0727   0.0821   0.1584   0.2080   0.2268   0.2600   0.2939
     0.3290   0.3483   0.3761   0.4158   0.4503   0.5973   0.6113   0.6613
     0.7807   0.7905   0.9062   0.9292   0.9373   0.9685   1.0430   1.0965
     1.1211   1.2134   1.2288   1.4309   1.4588   2.2341   2.2356   2.3485
     2.3492   4.1325   4.1606   4.2129   4.2841   4.3069   4.3574   4.4060
     4.4295   4.5422   4.5606   4.6031

          k = 0.0380-0.0419 0.0000 ( 17876 PWs)   bands (ev):

   -55.1395 -55.1132 -55.1114 -55.0873 -55.0787 -55.0269 -54.9928 -54.9509
   -54.9366 -54.9259 -54.9257 -54.9164 -54.9129 -54.8374 -54.1239 -54.0999
   -31.6509 -31.5531 -31.4753 -31.4453 -31.4334 -31.4196 -31.4046 -31.4012
   -31.3970 -31.3905 -31.3765 -31.3521 -31.3385 -31.3270 -31.3179 -31.2902
   -31.2890 -31.2847 -31.2595 -31.2525 -31.2272 -31.2253 -31.2170 -31.1916
   -31.1871 -31.1815 -31.1732 -31.1718 -31.1612 -31.1601 -31.1562 -31.1397
   -31.1384 -31.1300 -31.1164 -31.1113 -31.1095 -31.1034 -31.1001 -31.0805
   -31.0586 -31.0502 -30.4831 -30.4447 -30.4252 -30.3414 -30.2801 -30.2135
   -19.2621 -18.5871 -15.7617 -15.4992 -15.4148 -15.3141 -15.1577 -15.1224
   -15.0959 -15.0312 -15.0025 -14.9550 -14.9208 -14.8446 -14.8270 -14.8056
   -14.7982 -14.7582 -14.7266 -14.6739 -14.6367 -14.5898 -14.5628 -14.5326
   -14.5199 -14.4945 -14.4669 -14.4270 -14.4055 -14.3785 -14.1057 -13.6767
   -12.6332 -12.5543 -10.0239  -6.8215  -6.4898  -6.3892  -4.0629  -3.8906
    -3.0548  -2.9662  -2.8298  -2.7483  -2.7014  -2.6183  -2.5832  -2.5311
    -2.4784  -2.4644  -2.3623  -2.3209  -2.2601  -2.2025  -2.1881  -2.1642
    -2.1280  -2.0886  -2.0488  -2.0233  -1.9816  -1.9644  -1.9481  -1.8977
    -1.8754  -1.8335  -1.8274  -1.7682  -1.7069  -1.6575  -1.6433  -1.5910
    -1.5330  -1.4620  -1.4095  -1.3385  -1.3058  -1.2090  -1.1962  -1.1421
    -0.9711  -0.9596  -0.9313  -0.8646  -0.7875  -0.7380  -0.6870  -0.6388
    -0.5840  -0.5509  -0.5323  -0.4813  -0.4562  -0.3998  -0.3397  -0.3139
    -0.2457  -0.2049  -0.1516  -0.1166  -0.1000  -0.0503  -0.0367   0.0316
     0.0910   0.1060   0.1382   0.1841   0.1973   0.2375   0.2708   0.3170
     0.3539   0.4051   0.4418   0.4910   0.5134   0.5928   0.6396   0.6853
     0.7618   0.8516   0.8674   0.9313   0.9784   1.0264   1.0545   1.1168
     1.1520   1.2738   1.3117   1.4566   1.6699   2.0895   2.1612   2.3445
     2.4080   4.1241   4.1470   4.1774   4.2520   4.3081   4.3548   4.3777
     4.3941   4.4470   4.5232   4.5405

          k =-0.0760-0.0000 0.0000 ( 17886 PWs)   bands (ev):

   -55.1445 -55.1163 -55.1081 -55.0823 -55.0796 -55.0308 -54.9889 -54.9554
   -54.9418 -54.9247 -54.9209 -54.9182 -54.9081 -54.8357 -54.1289 -54.0949
   -31.7081 -31.6081 -31.5343 -31.4860 -31.4614 -31.4553 -31.4537 -31.4439
   -31.4059 -31.3858 -31.3608 -31.3452 -31.3222 -31.3192 -31.2890 -31.2863
   -31.2763 -31.2669 -31.2629 -31.2586 -31.2275 -31.2109 -31.1982 -31.1865
   -31.1793 -31.1738 -31.1733 -31.1641 -31.1568 -31.1563 -31.1380 -31.1359
   -31.1353 -31.1092 -31.1086 -31.0914 -31.0855 -31.0712 -31.0677 -31.0583
   -31.0516 -31.0163 -30.5368 -30.4523 -30.4199 -30.3539 -30.2672 -30.1563
   -19.2625 -18.5873 -15.7799 -15.5615 -15.4025 -15.3684 -15.2421 -15.1243
   -15.1183 -15.0534 -15.0318 -14.9901 -14.9461 -14.9090 -14.9017 -14.8720
   -14.8575 -14.8328 -14.7077 -14.6704 -14.5851 -14.5486 -14.5412 -14.5335
   -14.4898 -14.4403 -14.3984 -14.3952 -14.2904 -14.2894 -14.0211 -13.6712
   -12.6254 -12.5141 -10.0271  -6.8174  -6.4867  -6.3842  -4.0831  -3.8850
    -3.1811  -3.0015  -2.9046  -2.7852  -2.6916  -2.6343  -2.6311  -2.6155
    -2.6064  -2.5228  -2.5040  -2.4311  -2.4000  -2.3856  -2.2063  -2.0602
    -2.0449  -1.9744  -1.9416  -1.8507  -1.7847  -1.7705  -1.7588  -1.7224
    -1.7001  -1.6569  -1.6369  -1.6066  -1.5735  -1.5190  -1.4999  -1.4781
    -1.4441  -1.4331  -1.4057  -1.3614  -1.3602  -1.2771  -1.2515  -1.1370
    -1.0641  -0.9665  -0.9189  -0.8266  -0.7832  -0.7739  -0.7626  -0.7292
    -0.7157  -0.6701  -0.6268  -0.6024  -0.5841  -0.4969  -0.4743  -0.4651
    -0.3988  -0.3899  -0.3318  -0.2481  -0.0952  -0.0657   0.0156   0.0477
     0.0721   0.1264   0.1573   0.2177   0.2578   0.3048   0.3591   0.3925
     0.4174   0.4740   0.5049   0.5284   0.5638   0.6102   0.6328   0.6605
     0.7163   0.7466   0.7923   0.8063   0.8592   1.0202   1.1158   1.1756
     1.2512   1.3767   1.4284   1.5411   1.8173   1.9265   2.0238   2.2256
     2.3771   3.9728   4.0074   4.0988   4.2197   4.2436   4.2491   4.3290
     4.3954   4.4398   4.4655   4.4816

          k =-0.0760 0.0419 0.0000 ( 17914 PWs)   bands (ev):

   -55.1395 -55.1132 -55.1114 -55.0873 -55.0787 -55.0269 -54.9929 -54.9506
   -54.9369 -54.9258 -54.9256 -54.9165 -54.9131 -54.8374 -54.1240 -54.0999
   -31.6512 -31.5542 -31.4813 -31.4458 -31.4357 -31.4203 -31.4049 -31.4016
   -31.4013 -31.3905 -31.3766 -31.3523 -31.3282 -31.3190 -31.3174 -31.2850
   -31.2812 -31.2798 -31.2598 -31.2503 -31.2469 -31.2170 -31.1909 -31.1870
   -31.1865 -31.1842 -31.1768 -31.1759 -31.1719 -31.1662 -31.1599 -31.1390
   -31.1305 -31.1285 -31.1216 -31.1160 -31.1152 -31.1054 -31.1015 -31.0806
   -31.0609 -31.0528 -30.4829 -30.4476 -30.4245 -30.3414 -30.2801 -30.2136
   -19.2618 -18.5870 -15.6664 -15.4548 -15.3099 -15.2884 -15.1831 -15.0749
   -15.0625 -15.0464 -15.0078 -14.9456 -14.9262 -14.9091 -14.8796 -14.8545
   -14.8392 -14.8033 -14.7578 -14.7208 -14.6487 -14.5872 -14.5697 -14.5606
   -14.5241 -14.4848 -14.4779 -14.4372 -14.3955 -14.3793 -14.1044 -13.6767
   -12.6311 -12.5546 -10.0255  -6.8191  -6.4888  -6.3842  -4.0664  -3.8869
    -3.0284  -2.9157  -2.7997  -2.5592  -2.5244  -2.5051  -2.4189  -2.3923
    -2.3680  -2.3292  -2.2991  -2.2657  -2.2385  -2.1882  -2.1648  -2.1564
    -2.0989  -2.0646  -2.0461  -1.9794  -1.9578  -1.8876  -1.8682  -1.8551
    -1.8222  -1.7707  -1.7614  -1.7146  -1.6867  -1.6834  -1.6286  -1.6151
    -1.4938  -1.4116  -1.3241  -1.3062  -1.2854  -1.2502  -1.1697  -1.1324
    -1.0324  -0.9250  -0.9180  -0.8469  -0.8107  -0.7569  -0.7273  -0.7144
    -0.6552  -0.6307  -0.6172  -0.5417  -0.5313  -0.4905  -0.4496  -0.4183
    -0.3630  -0.3615  -0.3547  -0.3037  -0.2556  -0.2127  -0.1899  -0.1021
    -0.0711  -0.0096   0.0559   0.0873   0.0934   0.1654   0.1707   0.2278
     0.2979   0.3205   0.4013   0.4576   0.5509   0.6010   0.6264   0.6749
     0.7356   0.8359   0.8704   0.9391   1.0325   1.0657   1.1531   1.1693
     1.2444   1.3065   1.3518   1.3900   1.5306   2.1045   2.1635   2.2672
     2.3966   4.1239   4.1378   4.1744   4.1885   4.2258   4.2727   4.3470
     4.3539   4.4460   4.4557   4.5833

          k =-0.0760-0.0839 0.0000 ( 17948 PWs)   bands (ev):

   -55.1299 -55.1228 -55.0995 -55.0992 -55.0779 -55.0218 -54.9980 -54.9414
   -54.9350 -54.9266 -54.9255 -54.9246 -54.9148 -54.8393 -54.1121 -54.1119
   -31.5162 -31.5080 -31.4228 -31.4216 -31.4213 -31.4059 -31.3919 -31.3915
   -31.3674 -31.3652 -31.3601 -31.3534 -31.3423 -31.3120 -31.2821 -31.2754
   -31.2747 -31.2742 -31.2698 -31.2643 -31.2573 -31.2392 -31.2250 -31.2225
   -31.2194 -31.2189 -31.2186 -31.1973 -31.1747 -31.1661 -31.1646 -31.1552
   -31.1492 -31.1468 -31.1447 -31.1438 -31.1423 -31.1125 -31.1062 -31.1044
   -31.0900 -31.0596 -30.4360 -30.4359 -30.3503 -30.3501 -30.3109 -30.3108
   -19.2610 -18.5867 -15.4563 -15.2994 -15.2860 -15.1349 -15.1201 -15.1118
   -15.0875 -15.0121 -14.9930 -14.9290 -14.9165 -14.8723 -14.8462 -14.8334
   -14.8223 -14.7290 -14.7216 -14.7154 -14.6995 -14.6489 -14.6368 -14.6197
   -14.5964 -14.5923 -14.5556 -14.4910 -14.4878 -14.4560 -14.2250 -13.6814
   -12.6163 -12.6163 -10.0240  -6.8207  -6.4911  -6.3839  -4.0517  -3.8889
    -2.9168  -2.7212  -2.5287  -2.5071  -2.4649  -2.3675  -2.3263  -2.2856
    -2.1895  -2.1401  -2.1245  -2.1026  -2.0889  -2.0298  -2.0254  -2.0228
    -1.9863  -1.9780  -1.9638  -1.9389  -1.9162  -1.8829  -1.8686  -1.8579
    -1.8451  -1.8060  -1.7862  -1.7579  -1.7448  -1.7155  -1.6991  -1.6304
    -1.5261  -1.4961  -1.4427  -1.3500  -1.3317  -1.3259  -1.2409  -1.2086
    -1.1951  -1.1800  -1.1661  -1.1038  -0.9692  -0.8801  -0.8700  -0.8183
    -0.7527  -0.7189  -0.6763  -0.6494  -0.6217  -0.5673  -0.5178  -0.4936
    -0.4201  -0.3666  -0.3604  -0.3280  -0.1820  -0.1581  -0.1108  -0.1086
    -0.0941  -0.0854   0.0044   0.0212   0.0656   0.0854   0.1253   0.1438
     0.2166   0.2331   0.3526   0.4221   0.4841   0.5904   0.7310   0.7443
     0.8162   0.8774   0.9165   0.9822   1.0398   1.0728   1.1554   1.1656
     1.1815   1.2832   1.3326   1.3392   1.3560   2.2519   2.2535   2.3351
     2.3352   4.1169   4.1395   4.2286   4.2423   4.2945   4.3773   4.4667
     4.4933   4.5282   4.5324   4.6103

     the Fermi energy is     4.0027 ev

!    total energy              =   -2975.20163203 Ry
     estimated scf accuracy    <       0.00000006 Ry
     smearing contrib. (-TS)   =      -0.03820646 Ry
     internal energy E=F+TS    =   -2975.16342557 Ry

     The total energy is F=E-TS. E is the sum of the following terms:
     one-electron contribution =  -23646.34530637 Ry
     hartree contribution      =   11921.34081788 Ry
     xc contribution           =    -494.97561180 Ry
     ewald contribution        =    9244.81286352 Ry
     electric field correction =       0.00381119 Ry

     convergence has been achieved in  82 iterations

     Forces acting on atoms (cartesian axes, Ry/au):

     atom    1 type  1   force =     0.00013836   -0.00013337    0.09419673
     atom    2 type  1   force =    -0.00023122   -0.00027044   -0.17729868
     atom    3 type  2   force =     0.00001631   -0.00026284   -0.02171025
     atom    4 type  2   force =    -0.00004175   -0.00184730    0.05694494
     atom    5 type  2   force =    -0.01106576   -0.00172034    0.00686304
     atom    6 type  2   force =     0.01215414   -0.00091471    0.00493031
     atom    7 type  1   force =    -0.00121877    0.00155362   -0.01218701
     atom    8 type  1   force =     0.00072545    0.00496616    0.00604644
     atom    9 type  2   force =     0.00026707    0.00051553    0.00031532
     atom   10 type  2   force =    -0.00307154   -0.00067441   -0.00507476
     atom   11 type  2   force =     0.00082489    0.00021564   -0.00024273
     atom   12 type  2   force =    -0.00008098    0.00051471    0.00000488
     atom   13 type  1   force =    -0.00021551    0.00010593   -0.00008705
     atom   14 type  1   force =    -0.00001365    0.00011804   -0.00010176
     atom   15 type  2   force =    -0.00006360    0.00004084    0.00025229
     atom   16 type  2   force =     0.00040749    0.00036738   -0.00013617
     atom   17 type  2   force =     0.00020580   -0.00011131    0.00041084
     atom   18 type  2   force =     0.00008932   -0.00018547    0.00014284
     atom   19 type  1   force =     0.00029175    0.00042927   -0.00011181
     atom   20 type  1   force =     0.00011039    0.00045229    0.00013932
     atom   21 type  2   force =     0.00005008    0.00002611    0.10368676
     atom   22 type  2   force =     0.00058441    0.00017622   -0.00019411
     atom   23 type  2   force =    -0.07083757   -0.00009142   -0.02718141
     atom   24 type  2   force =     0.07067283    0.00039232   -0.02721834
     atom   25 type  1   force =    -0.00006345   -0.00027854    0.09391847
     atom   26 type  1   force =    -0.00031127   -0.00035297   -0.17746861
     atom   27 type  2   force =     0.00000829   -0.00023037   -0.02075380
     atom   28 type  2   force =     0.00003535   -0.00148841    0.05597377
     atom   29 type  2   force =    -0.01133643   -0.00052945    0.00689800
     atom   30 type  2   force =     0.01229702   -0.00025213    0.00491524
     atom   31 type  1   force =    -0.00121505    0.00505861   -0.01497334
     atom   32 type  1   force =     0.00092607   -0.00602281    0.00587538
     atom   33 type  2   force =     0.00035613   -0.00014389    0.00011082
     atom   34 type  2   force =    -0.00261005   -0.00151263   -0.00577782
     atom   35 type  2   force =     0.00037408    0.00029771   -0.00030666
     atom   36 type  2   force =     0.00043977    0.00039973   -0.00007004
     atom   37 type  1   force =    -0.00016567   -0.00015402   -0.00017045
     atom   38 type  1   force =     0.00004908    0.00033326    0.00044139
     atom   39 type  2   force =     0.00008264    0.00087293   -0.00077406
     atom   40 type  2   force =     0.00003814   -0.00009530    0.00002985
     atom   41 type  2   force =     0.00090677    0.00038646    0.00047492
     atom   42 type  2   force =    -0.00081923    0.00021125   -0.00006802
     atom   43 type  1   force =     0.00044668   -0.00083786    0.00013806
     atom   44 type  1   force =     0.00007048    0.00002090   -0.00045452
     atom   45 type  2   force =     0.00001939   -0.00002320    0.10366968
     atom   46 type  2   force =    -0.07082954   -0.00000328   -0.02719495
     atom   47 type  2   force =     0.07065709    0.00040185   -0.02719215
     atom   48 type  3   force =    -0.00068482    0.00014196    0.00034500
     atom   49 type  3   force =     0.00024017    0.00004742   -0.00085638
     atom   50 type  4   force =     0.00022983   -0.00016706    0.00013150
     atom   51 type  5   force =    -0.00010890   -0.00009705    0.00018754
     atom   52 type  5   force =     0.00030912   -0.00063294   -0.00018451
     atom   53 type  5   force =    -0.00049632    0.00062149    0.00038108
     atom   54 type  5   force =     0.00092204    0.00054704    0.00019710
     atom   55 type  2   force =    -0.00213124    0.00196861   -0.00009237
     atom   56 type  5   force =     0.00133051   -0.00220463   -0.00014366
     atom   57 type  5   force =     0.00133539    0.00005485    0.00040389

     Total force =     0.365690     Total SCF correction =     0.000530
  @ DRIVER MODE: Message from server: STATUS
  @ DRIVER MODE: Message from server: GETFORCE
  @ DRIVER MODE: Returning v,forces,stress,ensemble 

     Writing output data file ./calc.save/
  @ DRIVER MODE: Message from server: EXIT
  @ DRIVE MODE: Exiting  
 
     init_run     :     10.90s CPU     11.19s WALL (       1 calls)
     electrons    :   1327.48s CPU   1346.67s WALL (       1 calls)
     forces       :      2.37s CPU      2.47s WALL (       1 calls)

     Called by init_run:
     wfcinit      :      4.83s CPU      4.92s WALL (       1 calls)
     potinit      :      5.31s CPU      5.39s WALL (       1 calls)
     hinit0       :      0.42s CPU      0.44s WALL (       1 calls)

     Called by electrons:
     c_bands      :   1133.71s CPU   1141.95s WALL (      82 calls)
     sum_band     :    131.84s CPU    136.09s WALL (      82 calls)
     v_of_rho     :     45.69s CPU     48.02s WALL (      83 calls)
     newd         :     18.96s CPU     23.15s WALL (      83 calls)
     mix_rho      :      1.67s CPU      1.78s WALL (      82 calls)
     vdW_kernel   :      4.54s CPU      4.56s WALL (       1 calls)

     Called by c_bands:
     init_us_2    :      7.65s CPU      7.71s WALL (    1660 calls)
     cegterg      :   1111.33s CPU   1119.14s WALL (     837 calls)

     Called by *egterg:
     cdiaghg      :    200.80s CPU    202.05s WALL (    8750 calls)
     h_psi        :    578.72s CPU    583.81s WALL (    8765 calls)
     s_psi        :     78.05s CPU     78.30s WALL (    8765 calls)
     g_psi        :      2.10s CPU      2.12s WALL (    7918 calls)

     Called by h_psi:
     h_psi:calbec :     73.53s CPU     73.88s WALL (    8765 calls)
     vloc_psi     :    423.13s CPU    427.15s WALL (    8765 calls)
     add_vuspsi   :     78.28s CPU     78.76s WALL (    8765 calls)

     General routines
     calbec       :     96.77s CPU     97.18s WALL (    9625 calls)
     fft          :     23.42s CPU     23.62s WALL (    5229 calls)
     ffts         :      0.16s CPU      0.16s WALL (     165 calls)
     fftw         :    475.06s CPU    479.56s WALL ( 1137344 calls)
     interpolate  :      0.50s CPU      0.50s WALL (      83 calls)
     davcio       :      0.00s CPU      0.29s WALL (      10 calls)
 
     Parallel routines
 
     PWSCF        :  22m20.97s CPU  22m41.17s WALL

 
   This run was terminated on:  10:49:58  23Sep2021            

=------------------------------------------------------------------------------=
   JOB DONE.
=------------------------------------------------------------------------------=
