
     Program PWSCF v.6.7GPU starts on 19Oct2021 at  6:12:36 

     This program is part of the open-source Quantum ESPRESSO suite
     for quantum simulation of materials; please cite
         "P. Giannozzi et al., J. Phys.:Condens. Matter 21 395502 (2009);
         "P. Giannozzi et al., J. Phys.:Condens. Matter 29 465901 (2017);
         "P. Giannozzi et al., J. Chem. Phys. 152 154105 (2020);
          URL http://www.quantum-espresso.org", 
     in publications or presentations arising from this work. More details at
     http://www.quantum-espresso.org/quote

     Parallel version (MPI), running on     8 processors

     MPI processes distributed on     1 nodes
     R & G space division:  proc/nbgrp/npool/nimage =       8
     Reading input from /storage/home/hcoda1/3/ntian30/research/carbon/CxH_vib/Thiel_calc/ads_slab/NH3NH2H_perslab/out_0037/pw.inp
Warning: card &CELL ignored
Warning: card   CELL_DYNAMICS='IPI', ignored
Warning: card / ignored

     Current dimensions of program PWSCF are:
     Max number of different atomic species (ntypx) = 10
     Max number of k-points (npk) =  40000
     Max angular momentum in pseudopotentials (lmaxx) =  3
     Presently no symmetry can be used with electric field

     Message from routine cell_base_init:
     DEPRECATED: use true lattice parameter, not A to a.u. conversion factor

     **************************************************************************
     Initializing libbeef V0.1.2 with the BEEF-vdW functional.
     Citation: Wellendorff et al., PRB 85, 235149 (2012).
     **************************************************************************


     IMPORTANT: XC functional enforced from input :
     Exchange-correlation= BEEF-VDW
                           (   1   4  43  14   2   0   0)
     Any further DFT definition will be discarded
     Please, verify this is what you really want


     Subspace diagonalization in iterative solution of the eigenvalue problem:
     one sub-group per band group will be used
     scalapack distributed-memory algorithm (size of sub-group:  2*  2 procs)

  @ DRIVER MODE: Connecting to 
 qe_1139763_3255139.sched-torque.pace.gatech.edue98dwky8_scratch
  using UNIX socket
  @ DRIVER MODE: Message from server: STATUS
  @ DRIVER MODE: Message from server: INIT
  @ DRIVER MODE: Receiving replica           0          -1
  @ DRIVER MODE: Receiving encoded integer          25
  @ DRIVER MODE:  SCF:  T  FORCE:  T  STRESS:  F  VC:  F  ENSEMBLE:  F
  @ DRIVER MODE:  SCF:  T  FORCE:  T  STRESS:  F  VC:  F  ENSEMBLE:  F
 
     Parallelization info
     --------------------
     sticks:   dense  smooth     PW     G-vecs:    dense   smooth      PW
     Min         614     246     69               106272    26887    3981
     Max         615     248     70               106275    26893    3990
     Sum        4915    1977    553               850181   215109   31863
 
     Using Slab Decomposition
 


     bravais-lattice index     =            0
     lattice parameter (alat)  =       1.8897  a.u.
     unit-cell volume          =    9988.4706 (a.u.)^3
     number of atoms/cell      =           61
     number of atomic types    =            4
     number of electrons       =       442.00
     number of Kohn-Sham states=          231
     kinetic-energy cutoff     =      29.3995  Ry
     charge density cutoff     =     293.9946  Ry
     scf convergence threshold =      7.3E-08
     mixing beta               =       0.0500
     number of iterations used =            8  plain     mixing
     Exchange-correlation= BEEF-VDW
                           (   1   4  43  14   2   0   0)

     celldm(1)=   1.889726  celldm(2)=   0.000000  celldm(3)=   0.000000
     celldm(4)=   0.000000  celldm(5)=   0.000000  celldm(6)=   0.000000

     crystal axes: (cart. coord. in units of alat)
               a(1) = (   6.579727   0.000000   0.000000 )  
               a(2) = (  -0.001163   8.942395   0.000000 )  
               a(3) = (   0.000000   0.000000  25.155947 )  

     reciprocal axes: (cart. coord. in units 2 pi/alat)
               b(1) = (  0.151982  0.000020  0.000000 )  
               b(2) = (  0.000000  0.111827  0.000000 )  
               b(3) = (  0.000000  0.000000  0.039752 )  


     PseudoPot. # 1 for O  read from file:
     /storage/coda1/p-amedford6/0/shared/rich_project_chbe-medford/medford-share/data/pseudos_module/espresso/nninc/pbe/van/O.UPF
     MD5 check sum: 78c19812648e8988a0fe644b0f25305e
     Pseudo is Ultrasoft, Zval =  6.0
     Generated by new atomic code, or converted to UPF format
     Using radial grid of  737 points,  4 beta functions with: 
                l(1) =   0
                l(2) =   0
                l(3) =   1
                l(4) =   1
     Q(r) pseudized with  8 coefficients,  rinner =    0.800   0.800   0.800


     PseudoPot. # 2 for Ti read from file:
     /storage/coda1/p-amedford6/0/shared/rich_project_chbe-medford/medford-share/data/pseudos_module/espresso/nninc/pbe/van/Ti.UPF
     MD5 check sum: 8e4df49b7f0d34bbd5052bf3f5ea0213
     Pseudo is Ultrasoft, Zval = 12.0
     Generated by new atomic code, or converted to UPF format
     Using radial grid of  851 points,  6 beta functions with: 
                l(1) =   0
                l(2) =   0
                l(3) =   1
                l(4) =   1
                l(5) =   2
                l(6) =   2
     Q(r) pseudized with  8 coefficients,  rinner =    1.000   1.000   1.000
                                                       1.000   1.000

     PseudoPot. # 3 for H  read from file:
     /storage/coda1/p-amedford6/0/shared/rich_project_chbe-medford/medford-share/data/pseudos_module/espresso/nninc/pbe/van/H.UPF
     MD5 check sum: b5ee9d7bfd3a09ee7748110bda690ff7
     Pseudo is Ultrasoft, Zval =  1.0
     Generated by new atomic code, or converted to UPF format
     Using radial grid of  615 points,  1 beta functions with: 
                l(1) =   0
     Q(r) pseudized with  8 coefficients,  rinner =    0.800

     PseudoPot. # 4 for N  read from file:
     /storage/coda1/p-amedford6/0/shared/rich_project_chbe-medford/medford-share/data/pseudos_module/espresso/nninc/pbe/van/N.UPF
     MD5 check sum: 90d10febe142ad51ac9d5be1deb811c4
     Pseudo is Ultrasoft, Zval =  5.0
     Generated by new atomic code, or converted to UPF format
     Using radial grid of  729 points,  4 beta functions with: 
                l(1) =   0
                l(2) =   0
                l(3) =   1
                l(4) =   1
     Q(r) pseudized with  8 coefficients,  rinner =    0.800   0.800   0.800


     atomic species   valence    mass     pseudopotential
        O1             6.00    15.99900     O ( 1.00)
        Ti1           12.00    47.86700     Ti( 1.00)
        H1             1.00     1.00800     H ( 1.00)
        N1             5.00    14.00700     N ( 1.00)

     No symmetry found



   Cartesian axes

     site n.     atom                  positions (alat units)
         1           O1  tau(   1) = (   0.0007354   0.0005023  10.5931620  )
         2           O1  tau(   2) = (   3.2892937   8.9423630  13.8814308  )
         3           O1  tau(   3) = (   6.5785080   0.0907754  17.2996570  )
         4           O1  tau(   4) = (   0.0006271   0.0005054   7.9858123  )
         5           O1  tau(   5) = (   3.2892617   8.9274694  11.1867540  )
         6           O1  tau(   6) = (   0.0001068   0.0384811  14.5856928  )
         7           O1  tau(   7) = (   1.9868534   1.4903216   9.2879459  )
         8           O1  tau(   8) = (   5.2392332   1.6199063  12.5840971  )
         9           O1  tau(   9) = (   2.0046145   1.5651943  16.0652335  )
        10           Ti1 tau(  10) = (   0.0007404   1.4906270   9.2895810  )
        11           Ti1 tau(  11) = (   3.2903033   1.3475644  12.4784176  )
        12           Ti1 tau(  12) = (   0.0002083   1.2954417  15.7753146  )
        13           O1  tau(  13) = (   4.5942328   1.4918067   9.2879030  )
        14           O1  tau(  14) = (   1.3408909   1.6195689  12.5841697  )
        15           O1  tau(  15) = (   4.5747373   1.5650701  16.0650860  )
        16           Ti1 tau(  16) = (   3.2902859   2.9801868   9.2893338  )
        17           Ti1 tau(  17) = (   0.0003213   2.8429885  12.4272127  )
        18           Ti1 tau(  18) = (   3.2894782   2.8703589  15.6911549  )
        19           O1  tau(  19) = (   0.0003479   2.9813005  10.5931620  )
        20           O1  tau(  20) = (   3.2897922   2.9583395  13.9032781  )
        21           O1  tau(  21) = (   0.0002396   2.9813036   7.9858123  )
        22           O1  tau(  22) = (   3.2900450   2.9730570  11.1907869  )
        23           O1  tau(  23) = (   0.0001206   2.9807552  14.9070210  )
        24           O1  tau(  24) = (   1.9864658   4.4711199   9.2879459  )
        25           O1  tau(  25) = (   5.2482068   4.5640541  12.6028892  )
        26           O1  tau(  26) = (   2.0118887   4.5193519  16.0312246  )
        27           Ti1 tau(  27) = (   0.0003529   4.4714252   9.2895810  )
        28           Ti1 tau(  28) = (   3.2901403   4.3402809  12.5217819  )
        29           Ti1 tau(  29) = (   0.0009811   4.3515161  16.1888847  )
        30           O1  tau(  30) = (   4.5938453   4.4726049   9.2879030  )
        31           O1  tau(  31) = (   1.3314901   4.5639303  12.6028828  )
        32           O1  tau(  32) = (   4.5682806   4.5188618  16.0312494  )
        33           Ti1 tau(  33) = (   3.2898983   5.9609850   9.2893338  )
        34           Ti1 tau(  34) = (   0.0001002   5.8006911  12.4939615  )
        35           Ti1 tau(  35) = (   3.2910898   5.8128663  15.8108673  )
        36           O1  tau(  36) = (  -0.0000397   5.9620987  10.5931620  )
        37           O1  tau(  37) = (   3.2898758   5.9691391  13.9384534  )
        38           O1  tau(  38) = (   0.0001572   5.9906873  17.2924393  )
        39           O1  tau(  39) = (  -0.0001480   5.9621018   7.9858123  )
        40           O1  tau(  40) = (   3.2897271   5.9334558  11.2049738  )
        41           O1  tau(  41) = (   0.0000685   5.9641935  14.6703060  )
        42           O1  tau(  42) = (   1.9860782   7.4519181   9.2879459  )
        43           O1  tau(  43) = (   5.2398882   7.5535610  12.5750285  )
        44           O1  tau(  44) = (   1.9879998   7.5809304  16.0172394  )
        45           Ti1 tau(  45) = (  -0.0000347   7.4522234   9.2895810  )
        46           Ti1 tau(  46) = (   3.2896426   7.2731609  12.5447809  )
        47           Ti1 tau(  47) = (   0.0002275   7.1890881  15.9781391  )
        48           O1  tau(  48) = (   4.5934577   7.4534031   9.2879030  )
        49           O1  tau(  49) = (   1.3388943   7.5534522  12.5751898  )
        50           O1  tau(  50) = (   4.5903976   7.5792304  16.0166626  )
        51           Ti1 tau(  51) = (   3.2895107   8.9417832   9.2893338  )
        52           Ti1 tau(  52) = (  -0.0003648   8.7758640  12.4444508  )
        53           Ti1 tau(  53) = (   3.2897763   8.8353469  15.6829021  )
        54           H1  tau(  54) = (   0.0028024   0.0378429  18.2586218  )
        55           N1  tau(  55) = (   0.0000016   3.3024973  17.8430138  )
        56           H1  tau(  56) = (   6.5772996   2.3364033  18.1430564  )
        57           H1  tau(  57) = (   6.5785254   3.8921159  18.6668881  )
        58           N1  tau(  58) = (   3.2892544   5.9906839  18.1401779  )
        59           H1  tau(  59) = (   3.2890604   5.0659402  18.5578254  )
        60           H1  tau(  60) = (   2.4449486   6.4784715  18.4500629  )
        61           H1  tau(  61) = (   4.1227990   6.4789769  18.4516084  )

     number of k points=    10  Fermi-Dirac smearing, width (Ry)=  0.0073
                       cart. coord. in units 2pi/alat
        k(    1) = (   0.0000000   0.0000000   0.0000000), wk =   0.1250000
        k(    2) = (   0.0000000   0.0279567   0.0000000), wk =   0.2500000
        k(    3) = (   0.0000000  -0.0559134   0.0000000), wk =   0.1250000
        k(    4) = (   0.0379955   0.0000049   0.0000000), wk =   0.2500000
        k(    5) = (   0.0379955   0.0279617   0.0000000), wk =   0.2500000
        k(    6) = (   0.0379955  -0.0559085   0.0000000), wk =   0.2500000
        k(    7) = (   0.0379955  -0.0279518   0.0000000), wk =   0.2500000
        k(    8) = (  -0.0759910  -0.0000099   0.0000000), wk =   0.1250000
        k(    9) = (  -0.0759910   0.0279468   0.0000000), wk =   0.2500000
        k(   10) = (  -0.0759910  -0.0559233   0.0000000), wk =   0.1250000

     Dense  grid:   850181 G-vectors     FFT dimensions: (  72,  96, 270)

     Smooth grid:   215109 G-vectors     FFT dimensions: (  45,  60, 180)

     Estimated max dynamical RAM per process >     706.97 MB

     Estimated total dynamical RAM >       5.52 GB
     Cannot read rho : file not found

     Initial potential from superposition of free atoms

     starting charge  423.99908, renormalised to  442.00000

     negative rho (up, down):  3.654E-02 0.000E+00


     %%%%%%%%%%%%%%%%%%%%%%%%%%%%%%%%%%%%%%%%%%%%%%%%%%%%%%%%%%%%%%%%%%%%%%%%
     %                                                                      %
     % You are using vdW-DF, which was implemented by the Thonhauser group. %
     % Please cite the following two papers that made this development      %
     % possible and the two reviews that describe the various versions:     %
     %                                                                      %
     %   T. Thonhauser et al., PRL 115, 136402 (2015).                      %
     %   T. Thonhauser et al., PRB 76, 125112 (2007).                       %
     %   K. Berland et al., Rep. Prog. Phys. 78, 066501 (2015).             %
     %   D.C. Langreth et al., J. Phys.: Condens. Matter 21, 084203 (2009). %
     %                                                                      %
     %                                                                      %
     % If you are calculating the stress with vdW-DF, please also cite:     %
     %                                                                      %
     %   R. Sabatini et al., J. Phys.: Condens. Matter 24, 424209 (2012).   %
     %                                                                      %
     %%%%%%%%%%%%%%%%%%%%%%%%%%%%%%%%%%%%%%%%%%%%%%%%%%%%%%%%%%%%%%%%%%%%%%%%


 
     Adding external electric field

     Computed dipole along edir(3) : 
        Dipole               -6.3674 Ry au,        -16.1843 Debye
        Dipole field         -0.0080 Ry au, 
 
        Potential amp.        0.7426 Ry
        Total length         46.3494 bohr
 
     Starting wfcs are  334 atomic wfcs
  @ DRIVER MODE: Message from server: STATUS
  @ DRIVER MODE: Message from server: POSDATA
  @ DRIVER MODE: Reading and sharing cell 
  @ DRIVER MODE: Reading and sharing positions 
  @ DRIVER MODE: Received positions 

     total cpu time spent up to now is       18.7 secs

     Self-consistent Calculation

     iteration #  1     ecut=    29.40 Ry     beta= 0.05
     Davidson diagonalization with overlap
     c_bands:  2 eigenvalues not converged
     c_bands:  3 eigenvalues not converged
     c_bands:  3 eigenvalues not converged
     c_bands:  2 eigenvalues not converged
     c_bands:  1 eigenvalues not converged
     c_bands:  4 eigenvalues not converged
     c_bands:  1 eigenvalues not converged
     c_bands:  1 eigenvalues not converged
     c_bands:  5 eigenvalues not converged
     ethr =  1.00E-05,  avg # of iterations = 20.0

     negative rho (up, down):  3.604E-02 0.000E+00
 
     Adding external electric field

     Computed dipole along edir(3) : 
        Dipole                6.2829 Ry au,         15.9695 Debye
        Dipole field          0.0079 Ry au, 
 
        Potential amp.       -0.7327 Ry
        Total length         46.3494 bohr
 

     total cpu time spent up to now is       97.2 secs

     total energy              =   -3277.30783724 Ry
     estimated scf accuracy    <     250.08559886 Ry

     iteration #  2     ecut=    29.40 Ry     beta= 0.05
     Davidson diagonalization with overlap
     ethr =  1.00E-02,  avg # of iterations = 15.6

     negative rho (up, down):  3.487E-02 0.000E+00
 
     Adding external electric field

     Computed dipole along edir(3) : 
        Dipole               -1.7522 Ry au,         -4.4537 Debye
        Dipole field         -0.0022 Ry au, 
 
        Potential amp.        0.2043 Ry
        Total length         46.3494 bohr
 

     total cpu time spent up to now is      139.4 secs

     total energy              =   -3277.40560326 Ry
     estimated scf accuracy    <     874.36674497 Ry

     iteration #  3     ecut=    29.40 Ry     beta= 0.05
     Davidson diagonalization with overlap
     ethr =  1.00E-02,  avg # of iterations = 11.6

     negative rho (up, down):  3.453E-02 0.000E+00
 
     Adding external electric field

     Computed dipole along edir(3) : 
        Dipole               -1.6947 Ry au,         -4.3076 Debye
        Dipole field         -0.0021 Ry au, 
 
        Potential amp.        0.1976 Ry
        Total length         46.3494 bohr
 

     total cpu time spent up to now is      170.3 secs

     total energy              =   -3297.13262385 Ry
     estimated scf accuracy    <      11.16860115 Ry

     iteration #  4     ecut=    29.40 Ry     beta= 0.05
     Davidson diagonalization with overlap
     ethr =  2.53E-03,  avg # of iterations =  4.3

     negative rho (up, down):  3.468E-02 0.000E+00
 
     Adding external electric field

     Computed dipole along edir(3) : 
        Dipole               -0.9638 Ry au,         -2.4497 Debye
        Dipole field         -0.0012 Ry au, 
 
        Potential amp.        0.1124 Ry
        Total length         46.3494 bohr
 

     total cpu time spent up to now is      193.8 secs

     total energy              =   -3295.11246332 Ry
     estimated scf accuracy    <       9.62874591 Ry

     iteration #  5     ecut=    29.40 Ry     beta= 0.05
     Davidson diagonalization with overlap
     c_bands:  2 eigenvalues not converged
     ethr =  2.18E-03,  avg # of iterations =  9.5

     negative rho (up, down):  3.492E-02 0.000E+00
 
     Adding external electric field

     Computed dipole along edir(3) : 
        Dipole               -0.1952 Ry au,         -0.4960 Debye
        Dipole field         -0.0002 Ry au, 
 
        Potential amp.        0.0228 Ry
        Total length         46.3494 bohr
 

     total cpu time spent up to now is      219.4 secs

     total energy              =   -3294.94444427 Ry
     estimated scf accuracy    <       3.53686889 Ry

     iteration #  6     ecut=    29.40 Ry     beta= 0.05
     Davidson diagonalization with overlap
     c_bands:  1 eigenvalues not converged
     ethr =  8.00E-04,  avg # of iterations = 13.7

     negative rho (up, down):  3.417E-02 0.000E+00
 
     Adding external electric field

     Computed dipole along edir(3) : 
        Dipole               -0.1985 Ry au,         -0.5045 Debye
        Dipole field         -0.0002 Ry au, 
 
        Potential amp.        0.0231 Ry
        Total length         46.3494 bohr
 

     total cpu time spent up to now is      257.6 secs

     total energy              =   -3295.69638673 Ry
     estimated scf accuracy    <       2.39794445 Ry

     iteration #  7     ecut=    29.40 Ry     beta= 0.05
     Davidson diagonalization with overlap
     ethr =  5.43E-04,  avg # of iterations =  8.9

     negative rho (up, down):  3.429E-02 0.000E+00
 
     Adding external electric field

     Computed dipole along edir(3) : 
        Dipole                0.3383 Ry au,          0.8598 Debye
        Dipole field          0.0004 Ry au, 
 
        Potential amp.       -0.0394 Ry
        Total length         46.3494 bohr
 

     total cpu time spent up to now is      283.2 secs

     total energy              =   -3295.75066213 Ry
     estimated scf accuracy    <       0.92436079 Ry

     iteration #  8     ecut=    29.40 Ry     beta= 0.05
     Davidson diagonalization with overlap
     c_bands:  1 eigenvalues not converged
     ethr =  2.09E-04,  avg # of iterations =  7.7

     negative rho (up, down):  3.692E-02 0.000E+00
 
     Adding external electric field

     Computed dipole along edir(3) : 
        Dipole                2.1573 Ry au,          5.4834 Debye
        Dipole field          0.0027 Ry au, 
 
        Potential amp.       -0.2516 Ry
        Total length         46.3494 bohr
 

     total cpu time spent up to now is      308.3 secs

     total energy              =   -3295.71526107 Ry
     estimated scf accuracy    <       0.60892398 Ry

     iteration #  9     ecut=    29.40 Ry     beta= 0.05
     Davidson diagonalization with overlap
     c_bands:  2 eigenvalues not converged
     c_bands:  1 eigenvalues not converged
     c_bands:  3 eigenvalues not converged
     c_bands:  2 eigenvalues not converged
     c_bands:  3 eigenvalues not converged
     ethr =  1.38E-04,  avg # of iterations = 19.2

     negative rho (up, down):  3.638E-02 0.000E+00
 
     Adding external electric field

     Computed dipole along edir(3) : 
        Dipole                2.1235 Ry au,          5.3974 Debye
        Dipole field          0.0027 Ry au, 
 
        Potential amp.       -0.2477 Ry
        Total length         46.3494 bohr
 

     total cpu time spent up to now is      360.9 secs

     total energy              =   -3296.18909108 Ry
     estimated scf accuracy    <       3.99171536 Ry

     iteration # 10     ecut=    29.40 Ry     beta= 0.05
     Davidson diagonalization with overlap
     ethr =  1.38E-04,  avg # of iterations =  1.3

     negative rho (up, down):  3.579E-02 0.000E+00
 
     Adding external electric field

     Computed dipole along edir(3) : 
        Dipole                2.0461 Ry au,          5.2005 Debye
        Dipole field          0.0026 Ry au, 
 
        Potential amp.       -0.2386 Ry
        Total length         46.3494 bohr
 

     total cpu time spent up to now is      381.7 secs

     total energy              =   -3296.04434437 Ry
     estimated scf accuracy    <       3.78254957 Ry

     iteration # 11     ecut=    29.40 Ry     beta= 0.05
     Davidson diagonalization with overlap
     ethr =  1.38E-04,  avg # of iterations =  1.2

     negative rho (up, down):  3.687E-02 0.000E+00
 
     Adding external electric field

     Computed dipole along edir(3) : 
        Dipole                2.7751 Ry au,          7.0536 Debye
        Dipole field          0.0035 Ry au, 
 
        Potential amp.       -0.3236 Ry
        Total length         46.3494 bohr
 

     total cpu time spent up to now is      402.5 secs

     total energy              =   -3295.88150569 Ry
     estimated scf accuracy    <       2.93115417 Ry

     iteration # 12     ecut=    29.40 Ry     beta= 0.05
     Davidson diagonalization with overlap
     c_bands:  1 eigenvalues not converged
     c_bands:  1 eigenvalues not converged
     ethr =  1.38E-04,  avg # of iterations = 14.4

     negative rho (up, down):  3.635E-02 0.000E+00
 
     Adding external electric field

     Computed dipole along edir(3) : 
        Dipole                2.6032 Ry au,          6.6167 Debye
        Dipole field          0.0033 Ry au, 
 
        Potential amp.       -0.3036 Ry
        Total length         46.3494 bohr
 

     total cpu time spent up to now is      433.6 secs

     total energy              =   -3295.79263516 Ry
     estimated scf accuracy    <       3.31775897 Ry

     iteration # 13     ecut=    29.40 Ry     beta= 0.05
     Davidson diagonalization with overlap
     ethr =  1.38E-04,  avg # of iterations =  5.4

     negative rho (up, down):  3.602E-02 0.000E+00
 
     Adding external electric field

     Computed dipole along edir(3) : 
        Dipole                2.5241 Ry au,          6.4157 Debye
        Dipole field          0.0032 Ry au, 
 
        Potential amp.       -0.2944 Ry
        Total length         46.3494 bohr
 

     total cpu time spent up to now is      457.4 secs

     total energy              =   -3295.77260591 Ry
     estimated scf accuracy    <       1.26241307 Ry

     iteration # 14     ecut=    29.40 Ry     beta= 0.05
     Davidson diagonalization with overlap
     ethr =  1.38E-04,  avg # of iterations =  5.2

     negative rho (up, down):  3.673E-02 0.000E+00
 
     Adding external electric field

     Computed dipole along edir(3) : 
        Dipole                2.5691 Ry au,          6.5299 Debye
        Dipole field          0.0032 Ry au, 
 
        Potential amp.       -0.2996 Ry
        Total length         46.3494 bohr
 

     total cpu time spent up to now is      480.7 secs

     total energy              =   -3295.68017957 Ry
     estimated scf accuracy    <       0.77385398 Ry

     iteration # 15     ecut=    29.40 Ry     beta= 0.05
     Davidson diagonalization with overlap
     ethr =  1.38E-04,  avg # of iterations =  7.9

     negative rho (up, down):  3.600E-02 0.000E+00
 
     Adding external electric field

     Computed dipole along edir(3) : 
        Dipole                2.4107 Ry au,          6.1273 Debye
        Dipole field          0.0030 Ry au, 
 
        Potential amp.       -0.2811 Ry
        Total length         46.3494 bohr
 

     total cpu time spent up to now is      517.4 secs

     total energy              =   -3295.93493183 Ry
     estimated scf accuracy    <       0.51202240 Ry

     iteration # 16     ecut=    29.40 Ry     beta= 0.05
     Davidson diagonalization with overlap
     ethr =  1.16E-04,  avg # of iterations =  3.8

     negative rho (up, down):  3.579E-02 0.000E+00
 
     Adding external electric field

     Computed dipole along edir(3) : 
        Dipole                2.4221 Ry au,          6.1565 Debye
        Dipole field          0.0030 Ry au, 
 
        Potential amp.       -0.2825 Ry
        Total length         46.3494 bohr
 

     total cpu time spent up to now is      540.2 secs

     total energy              =   -3295.85399315 Ry
     estimated scf accuracy    <       0.65435094 Ry

     iteration # 17     ecut=    29.40 Ry     beta= 0.05
     Davidson diagonalization with overlap
     ethr =  1.16E-04,  avg # of iterations =  1.0

     negative rho (up, down):  3.538E-02 0.000E+00
 
     Adding external electric field

     Computed dipole along edir(3) : 
        Dipole                2.2942 Ry au,          5.8312 Debye
        Dipole field          0.0029 Ry au, 
 
        Potential amp.       -0.2676 Ry
        Total length         46.3494 bohr
 

     total cpu time spent up to now is      560.7 secs

     total energy              =   -3295.75893493 Ry
     estimated scf accuracy    <       0.46384166 Ry

     iteration # 18     ecut=    29.40 Ry     beta= 0.05
     Davidson diagonalization with overlap
     ethr =  1.05E-04,  avg # of iterations =  6.1

     negative rho (up, down):  3.523E-02 0.000E+00
 
     Adding external electric field

     Computed dipole along edir(3) : 
        Dipole                2.3277 Ry au,          5.9165 Debye
        Dipole field          0.0029 Ry au, 
 
        Potential amp.       -0.2715 Ry
        Total length         46.3494 bohr
 

     total cpu time spent up to now is      587.0 secs

     total energy              =   -3295.80296938 Ry
     estimated scf accuracy    <       0.21413919 Ry

     iteration # 19     ecut=    29.40 Ry     beta= 0.05
     Davidson diagonalization with overlap
     ethr =  4.84E-05,  avg # of iterations =  2.6

     negative rho (up, down):  3.531E-02 0.000E+00
 
     Adding external electric field

     Computed dipole along edir(3) : 
        Dipole                2.2836 Ry au,          5.8044 Debye
        Dipole field          0.0029 Ry au, 
 
        Potential amp.       -0.2663 Ry
        Total length         46.3494 bohr
 

     total cpu time spent up to now is      608.8 secs

     total energy              =   -3295.80975064 Ry
     estimated scf accuracy    <       0.20017278 Ry

     iteration # 20     ecut=    29.40 Ry     beta= 0.05
     Davidson diagonalization with overlap
     ethr =  4.53E-05,  avg # of iterations =  5.1

     negative rho (up, down):  3.554E-02 0.000E+00
 
     Adding external electric field

     Computed dipole along edir(3) : 
        Dipole                2.0293 Ry au,          5.1579 Debye
        Dipole field          0.0026 Ry au, 
 
        Potential amp.       -0.2367 Ry
        Total length         46.3494 bohr
 

     total cpu time spent up to now is      632.7 secs

     total energy              =   -3295.80899121 Ry
     estimated scf accuracy    <       0.14756443 Ry

     iteration # 21     ecut=    29.40 Ry     beta= 0.05
     Davidson diagonalization with overlap
     c_bands:  3 eigenvalues not converged
     c_bands:  1 eigenvalues not converged
     ethr =  3.34E-05,  avg # of iterations = 13.2

     negative rho (up, down):  3.558E-02 0.000E+00
 
     Adding external electric field

     Computed dipole along edir(3) : 
        Dipole                1.8994 Ry au,          4.8277 Debye
        Dipole field          0.0024 Ry au, 
 
        Potential amp.       -0.2215 Ry
        Total length         46.3494 bohr
 

     total cpu time spent up to now is      662.0 secs

     total energy              =   -3295.79012435 Ry
     estimated scf accuracy    <       0.07951926 Ry

     iteration # 22     ecut=    29.40 Ry     beta= 0.05
     Davidson diagonalization with overlap
     c_bands:  1 eigenvalues not converged
     c_bands:  1 eigenvalues not converged
     c_bands:  1 eigenvalues not converged
     ethr =  1.80E-05,  avg # of iterations = 14.0

     negative rho (up, down):  3.540E-02 0.000E+00
 
     Adding external electric field

     Computed dipole along edir(3) : 
        Dipole                1.9198 Ry au,          4.8796 Debye
        Dipole field          0.0024 Ry au, 
 
        Potential amp.       -0.2239 Ry
        Total length         46.3494 bohr
 

     total cpu time spent up to now is      707.9 secs

     total energy              =   -3295.82607211 Ry
     estimated scf accuracy    <       0.15401100 Ry

     iteration # 23     ecut=    29.40 Ry     beta= 0.05
     Davidson diagonalization with overlap
     ethr =  1.80E-05,  avg # of iterations =  3.0

     negative rho (up, down):  3.567E-02 0.000E+00
 
     Adding external electric field

     Computed dipole along edir(3) : 
        Dipole                2.0588 Ry au,          5.2331 Debye
        Dipole field          0.0026 Ry au, 
 
        Potential amp.       -0.2401 Ry
        Total length         46.3494 bohr
 

     total cpu time spent up to now is      729.8 secs

     total energy              =   -3295.78961495 Ry
     estimated scf accuracy    <       0.11880677 Ry

     iteration # 24     ecut=    29.40 Ry     beta= 0.05
     Davidson diagonalization with overlap
     ethr =  1.80E-05,  avg # of iterations = 11.4

     negative rho (up, down):  3.567E-02 0.000E+00
 
     Adding external electric field

     Computed dipole along edir(3) : 
        Dipole                1.9593 Ry au,          4.9800 Debye
        Dipole field          0.0025 Ry au, 
 
        Potential amp.       -0.2285 Ry
        Total length         46.3494 bohr
 

     total cpu time spent up to now is      769.2 secs

     total energy              =   -3295.81148521 Ry
     estimated scf accuracy    <       0.03473931 Ry

     iteration # 25     ecut=    29.40 Ry     beta= 0.05
     Davidson diagonalization with overlap
     ethr =  7.86E-06,  avg # of iterations =  9.0

     negative rho (up, down):  3.558E-02 0.000E+00
 
     Adding external electric field

     Computed dipole along edir(3) : 
        Dipole                2.0236 Ry au,          5.1435 Debye
        Dipole field          0.0025 Ry au, 
 
        Potential amp.       -0.2360 Ry
        Total length         46.3494 bohr
 

     total cpu time spent up to now is      796.2 secs

     total energy              =   -3295.81536567 Ry
     estimated scf accuracy    <       0.00530598 Ry

     iteration # 26     ecut=    29.40 Ry     beta= 0.05
     Davidson diagonalization with overlap
     c_bands:  1 eigenvalues not converged
     c_bands:  1 eigenvalues not converged
     c_bands:  2 eigenvalues not converged
     c_bands:  2 eigenvalues not converged
     c_bands:  2 eigenvalues not converged
     c_bands:  4 eigenvalues not converged
     c_bands:  2 eigenvalues not converged
     c_bands:  1 eigenvalues not converged
     ethr =  1.20E-06,  avg # of iterations = 18.1

     negative rho (up, down):  3.577E-02 0.000E+00
 
     Adding external electric field

     Computed dipole along edir(3) : 
        Dipole                2.0643 Ry au,          5.2469 Debye
        Dipole field          0.0026 Ry au, 
 
        Potential amp.       -0.2407 Ry
        Total length         46.3494 bohr
 

     total cpu time spent up to now is      836.8 secs

     total energy              =   -3295.81748604 Ry
     estimated scf accuracy    <       0.00462957 Ry

     iteration # 27     ecut=    29.40 Ry     beta= 0.05
     Davidson diagonalization with overlap
     c_bands:  1 eigenvalues not converged
     c_bands:  1 eigenvalues not converged
     c_bands:  1 eigenvalues not converged
     c_bands:  1 eigenvalues not converged
     c_bands:  3 eigenvalues not converged
     c_bands:  1 eigenvalues not converged
     ethr =  1.05E-06,  avg # of iterations = 16.5

     negative rho (up, down):  3.593E-02 0.000E+00
 
     Adding external electric field

     Computed dipole along edir(3) : 
        Dipole                2.0542 Ry au,          5.2213 Debye
        Dipole field          0.0026 Ry au, 
 
        Potential amp.       -0.2396 Ry
        Total length         46.3494 bohr
 

     total cpu time spent up to now is      867.5 secs

     total energy              =   -3295.81828666 Ry
     estimated scf accuracy    <       0.00414290 Ry

     iteration # 28     ecut=    29.40 Ry     beta= 0.05
     Davidson diagonalization with overlap
     c_bands:  1 eigenvalues not converged
     ethr =  9.37E-07,  avg # of iterations = 13.1

     negative rho (up, down):  3.578E-02 0.000E+00
 
     Adding external electric field

     Computed dipole along edir(3) : 
        Dipole                2.0300 Ry au,          5.1597 Debye
        Dipole field          0.0026 Ry au, 
 
        Potential amp.       -0.2367 Ry
        Total length         46.3494 bohr
 

     total cpu time spent up to now is      901.3 secs

     total energy              =   -3295.81893622 Ry
     estimated scf accuracy    <       0.00514703 Ry

     iteration # 29     ecut=    29.40 Ry     beta= 0.05
     Davidson diagonalization with overlap
     ethr =  9.37E-07,  avg # of iterations =  1.7

     negative rho (up, down):  3.565E-02 0.000E+00
 
     Adding external electric field

     Computed dipole along edir(3) : 
        Dipole                2.0063 Ry au,          5.0994 Debye
        Dipole field          0.0025 Ry au, 
 
        Potential amp.       -0.2340 Ry
        Total length         46.3494 bohr
 

     total cpu time spent up to now is      922.8 secs

     total energy              =   -3295.81831072 Ry
     estimated scf accuracy    <       0.00616271 Ry

     iteration # 30     ecut=    29.40 Ry     beta= 0.05
     Davidson diagonalization with overlap
     ethr =  9.37E-07,  avg # of iterations =  3.4

     negative rho (up, down):  3.555E-02 0.000E+00
 
     Adding external electric field

     Computed dipole along edir(3) : 
        Dipole                1.9923 Ry au,          5.0640 Debye
        Dipole field          0.0025 Ry au, 
 
        Potential amp.       -0.2324 Ry
        Total length         46.3494 bohr
 

     total cpu time spent up to now is      945.5 secs

     total energy              =   -3295.81771791 Ry
     estimated scf accuracy    <       0.00408714 Ry

     iteration # 31     ecut=    29.40 Ry     beta= 0.05
     Davidson diagonalization with overlap
     ethr =  9.25E-07,  avg # of iterations =  7.2

     negative rho (up, down):  3.546E-02 0.000E+00
 
     Adding external electric field

     Computed dipole along edir(3) : 
        Dipole                1.9924 Ry au,          5.0641 Debye
        Dipole field          0.0025 Ry au, 
 
        Potential amp.       -0.2324 Ry
        Total length         46.3494 bohr
 

     total cpu time spent up to now is      970.2 secs

     total energy              =   -3295.81789340 Ry
     estimated scf accuracy    <       0.00135905 Ry

     iteration # 32     ecut=    29.40 Ry     beta= 0.05
     Davidson diagonalization with overlap
     ethr =  3.07E-07,  avg # of iterations = 10.5

     negative rho (up, down):  3.538E-02 0.000E+00
 
     Adding external electric field

     Computed dipole along edir(3) : 
        Dipole                2.0029 Ry au,          5.0908 Debye
        Dipole field          0.0025 Ry au, 
 
        Potential amp.       -0.2336 Ry
        Total length         46.3494 bohr
 

     total cpu time spent up to now is      999.4 secs

     total energy              =   -3295.81794838 Ry
     estimated scf accuracy    <       0.00073757 Ry

     iteration # 33     ecut=    29.40 Ry     beta= 0.05
     Davidson diagonalization with overlap
     ethr =  1.67E-07,  avg # of iterations =  9.1

     negative rho (up, down):  3.533E-02 0.000E+00
 
     Adding external electric field

     Computed dipole along edir(3) : 
        Dipole                2.0028 Ry au,          5.0906 Debye
        Dipole field          0.0025 Ry au, 
 
        Potential amp.       -0.2336 Ry
        Total length         46.3494 bohr
 

     total cpu time spent up to now is     1032.9 secs

     total energy              =   -3295.81815780 Ry
     estimated scf accuracy    <       0.00017732 Ry

     iteration # 34     ecut=    29.40 Ry     beta= 0.05
     Davidson diagonalization with overlap
     ethr =  4.01E-08,  avg # of iterations = 12.4

     negative rho (up, down):  3.531E-02 0.000E+00
 
     Adding external electric field

     Computed dipole along edir(3) : 
        Dipole                2.0078 Ry au,          5.1034 Debye
        Dipole field          0.0025 Ry au, 
 
        Potential amp.       -0.2342 Ry
        Total length         46.3494 bohr
 

     total cpu time spent up to now is     1067.7 secs

     total energy              =   -3295.81825042 Ry
     estimated scf accuracy    <       0.00014848 Ry

     iteration # 35     ecut=    29.40 Ry     beta= 0.05
     Davidson diagonalization with overlap
     ethr =  3.36E-08,  avg # of iterations =  5.3

     negative rho (up, down):  3.527E-02 0.000E+00
 
     Adding external electric field

     Computed dipole along edir(3) : 
        Dipole                2.0154 Ry au,          5.1225 Debye
        Dipole field          0.0025 Ry au, 
 
        Potential amp.       -0.2350 Ry
        Total length         46.3494 bohr
 

     total cpu time spent up to now is     1091.3 secs

     total energy              =   -3295.81830405 Ry
     estimated scf accuracy    <       0.00009067 Ry

     iteration # 36     ecut=    29.40 Ry     beta= 0.05
     Davidson diagonalization with overlap
     ethr =  2.05E-08,  avg # of iterations = 12.4

     negative rho (up, down):  3.523E-02 0.000E+00
 
     Adding external electric field

     Computed dipole along edir(3) : 
        Dipole                2.0141 Ry au,          5.1194 Debye
        Dipole field          0.0025 Ry au, 
 
        Potential amp.       -0.2349 Ry
        Total length         46.3494 bohr
 

     total cpu time spent up to now is     1122.6 secs

     total energy              =   -3295.81836144 Ry
     estimated scf accuracy    <       0.00013290 Ry

     iteration # 37     ecut=    29.40 Ry     beta= 0.05
     Davidson diagonalization with overlap
     ethr =  2.05E-08,  avg # of iterations =  1.0

     negative rho (up, down):  3.519E-02 0.000E+00
 
     Adding external electric field

     Computed dipole along edir(3) : 
        Dipole                2.0193 Ry au,          5.1326 Debye
        Dipole field          0.0025 Ry au, 
 
        Potential amp.       -0.2355 Ry
        Total length         46.3494 bohr
 

     total cpu time spent up to now is     1142.9 secs

     total energy              =   -3295.81841106 Ry
     estimated scf accuracy    <       0.00012998 Ry

     iteration # 38     ecut=    29.40 Ry     beta= 0.05
     Davidson diagonalization with overlap
     ethr =  2.05E-08,  avg # of iterations =  2.6

     negative rho (up, down):  3.514E-02 0.000E+00
 
     Adding external electric field

     Computed dipole along edir(3) : 
        Dipole                2.0218 Ry au,          5.1390 Debye
        Dipole field          0.0025 Ry au, 
 
        Potential amp.       -0.2358 Ry
        Total length         46.3494 bohr
 

     total cpu time spent up to now is     1165.2 secs

     total energy              =   -3295.81844893 Ry
     estimated scf accuracy    <       0.00016854 Ry

     iteration # 39     ecut=    29.40 Ry     beta= 0.05
     Davidson diagonalization with overlap
     ethr =  2.05E-08,  avg # of iterations =  9.2

     negative rho (up, down):  3.512E-02 0.000E+00
 
     Adding external electric field

     Computed dipole along edir(3) : 
        Dipole                2.0231 Ry au,          5.1422 Debye
        Dipole field          0.0025 Ry au, 
 
        Potential amp.       -0.2359 Ry
        Total length         46.3494 bohr
 

     total cpu time spent up to now is     1191.7 secs

     total energy              =   -3295.81849180 Ry
     estimated scf accuracy    <       0.00028922 Ry

     iteration # 40     ecut=    29.40 Ry     beta= 0.05
     Davidson diagonalization with overlap
     ethr =  2.05E-08,  avg # of iterations =  1.0

     negative rho (up, down):  3.510E-02 0.000E+00
 
     Adding external electric field

     Computed dipole along edir(3) : 
        Dipole                2.0204 Ry au,          5.1354 Debye
        Dipole field          0.0025 Ry au, 
 
        Potential amp.       -0.2356 Ry
        Total length         46.3494 bohr
 

     total cpu time spent up to now is     1212.2 secs

     total energy              =   -3295.81851286 Ry
     estimated scf accuracy    <       0.00029572 Ry

     iteration # 41     ecut=    29.40 Ry     beta= 0.05
     Davidson diagonalization with overlap
     ethr =  2.05E-08,  avg # of iterations =  3.8

     negative rho (up, down):  3.508E-02 0.000E+00
 
     Adding external electric field

     Computed dipole along edir(3) : 
        Dipole                2.0201 Ry au,          5.1347 Debye
        Dipole field          0.0025 Ry au, 
 
        Potential amp.       -0.2356 Ry
        Total length         46.3494 bohr
 

     total cpu time spent up to now is     1234.9 secs

     total energy              =   -3295.81853548 Ry
     estimated scf accuracy    <       0.00026928 Ry

     iteration # 42     ecut=    29.40 Ry     beta= 0.05
     Davidson diagonalization with overlap
     ethr =  2.05E-08,  avg # of iterations =  7.0

     negative rho (up, down):  3.506E-02 0.000E+00
 
     Adding external electric field

     Computed dipole along edir(3) : 
        Dipole                2.0202 Ry au,          5.1348 Debye
        Dipole field          0.0025 Ry au, 
 
        Potential amp.       -0.2356 Ry
        Total length         46.3494 bohr
 

     total cpu time spent up to now is     1259.0 secs

     total energy              =   -3295.81855935 Ry
     estimated scf accuracy    <       0.00022526 Ry

     iteration # 43     ecut=    29.40 Ry     beta= 0.05
     Davidson diagonalization with overlap
     ethr =  2.05E-08,  avg # of iterations =  1.0

     negative rho (up, down):  3.504E-02 0.000E+00
 
     Adding external electric field

     Computed dipole along edir(3) : 
        Dipole                2.0215 Ry au,          5.1381 Debye
        Dipole field          0.0025 Ry au, 
 
        Potential amp.       -0.2358 Ry
        Total length         46.3494 bohr
 

     total cpu time spent up to now is     1279.4 secs

     total energy              =   -3295.81858749 Ry
     estimated scf accuracy    <       0.00021523 Ry

     iteration # 44     ecut=    29.40 Ry     beta= 0.05
     Davidson diagonalization with overlap
     ethr =  2.05E-08,  avg # of iterations =  3.1

     negative rho (up, down):  3.505E-02 0.000E+00
 
     Adding external electric field

     Computed dipole along edir(3) : 
        Dipole                2.0281 Ry au,          5.1550 Debye
        Dipole field          0.0026 Ry au, 
 
        Potential amp.       -0.2365 Ry
        Total length         46.3494 bohr
 

     total cpu time spent up to now is     1301.2 secs

     total energy              =   -3295.81863477 Ry
     estimated scf accuracy    <       0.00022864 Ry

     iteration # 45     ecut=    29.40 Ry     beta= 0.05
     Davidson diagonalization with overlap
     c_bands:  1 eigenvalues not converged
     ethr =  2.05E-08,  avg # of iterations =  9.2

     negative rho (up, down):  3.504E-02 0.000E+00
 
     Adding external electric field

     Computed dipole along edir(3) : 
        Dipole                2.0157 Ry au,          5.1233 Debye
        Dipole field          0.0025 Ry au, 
 
        Potential amp.       -0.2351 Ry
        Total length         46.3494 bohr
 

     total cpu time spent up to now is     1328.5 secs

     total energy              =   -3295.81859910 Ry
     estimated scf accuracy    <       0.00048789 Ry

     iteration # 46     ecut=    29.40 Ry     beta= 0.05
     Davidson diagonalization with overlap
     ethr =  2.05E-08,  avg # of iterations = 11.6

     negative rho (up, down):  3.502E-02 0.000E+00
 
     Adding external electric field

     Computed dipole along edir(3) : 
        Dipole                2.0101 Ry au,          5.1092 Debye
        Dipole field          0.0025 Ry au, 
 
        Potential amp.       -0.2344 Ry
        Total length         46.3494 bohr
 

     total cpu time spent up to now is     1358.6 secs

     total energy              =   -3295.81861726 Ry
     estimated scf accuracy    <       0.00011693 Ry

     iteration # 47     ecut=    29.40 Ry     beta= 0.05
     Davidson diagonalization with overlap
     ethr =  2.05E-08,  avg # of iterations =  5.9

     negative rho (up, down):  3.501E-02 0.000E+00
 
     Adding external electric field

     Computed dipole along edir(3) : 
        Dipole                2.0071 Ry au,          5.1015 Debye
        Dipole field          0.0025 Ry au, 
 
        Potential amp.       -0.2341 Ry
        Total length         46.3494 bohr
 

     total cpu time spent up to now is     1383.0 secs

     total energy              =   -3295.81862874 Ry
     estimated scf accuracy    <       0.00004444 Ry

     iteration # 48     ecut=    29.40 Ry     beta= 0.05
     Davidson diagonalization with overlap
     c_bands:  1 eigenvalues not converged
     ethr =  1.01E-08,  avg # of iterations = 10.9

     negative rho (up, down):  3.501E-02 0.000E+00
 
     Adding external electric field

     Computed dipole along edir(3) : 
        Dipole                2.0073 Ry au,          5.1022 Debye
        Dipole field          0.0025 Ry au, 
 
        Potential amp.       -0.2341 Ry
        Total length         46.3494 bohr
 

     total cpu time spent up to now is     1412.4 secs

     total energy              =   -3295.81864826 Ry
     estimated scf accuracy    <       0.00001530 Ry

     iteration # 49     ecut=    29.40 Ry     beta= 0.05
     Davidson diagonalization with overlap
     c_bands:  1 eigenvalues not converged
     ethr =  3.46E-09,  avg # of iterations = 14.0

     negative rho (up, down):  3.501E-02 0.000E+00
 
     Adding external electric field

     Computed dipole along edir(3) : 
        Dipole                2.0080 Ry au,          5.1037 Debye
        Dipole field          0.0025 Ry au, 
 
        Potential amp.       -0.2342 Ry
        Total length         46.3494 bohr
 

     total cpu time spent up to now is     1443.1 secs

     total energy              =   -3295.81865882 Ry
     estimated scf accuracy    <       0.00001088 Ry

     iteration # 50     ecut=    29.40 Ry     beta= 0.05
     Davidson diagonalization with overlap
     ethr =  2.46E-09,  avg # of iterations =  6.6

     negative rho (up, down):  3.500E-02 0.000E+00
 
     Adding external electric field

     Computed dipole along edir(3) : 
        Dipole                2.0083 Ry au,          5.1047 Debye
        Dipole field          0.0025 Ry au, 
 
        Potential amp.       -0.2342 Ry
        Total length         46.3494 bohr
 

     total cpu time spent up to now is     1472.1 secs

     total energy              =   -3295.81867111 Ry
     estimated scf accuracy    <       0.00000575 Ry

     iteration # 51     ecut=    29.40 Ry     beta= 0.05
     Davidson diagonalization with overlap
     ethr =  1.30E-09,  avg # of iterations =  9.2

     negative rho (up, down):  3.500E-02 0.000E+00
 
     Adding external electric field

     Computed dipole along edir(3) : 
        Dipole                2.0084 Ry au,          5.1050 Debye
        Dipole field          0.0025 Ry au, 
 
        Potential amp.       -0.2342 Ry
        Total length         46.3494 bohr
 

     total cpu time spent up to now is     1501.6 secs

     total energy              =   -3295.81868045 Ry
     estimated scf accuracy    <       0.00000606 Ry

     iteration # 52     ecut=    29.40 Ry     beta= 0.05
     Davidson diagonalization with overlap
     ethr =  1.30E-09,  avg # of iterations =  6.1

     negative rho (up, down):  3.500E-02 0.000E+00
 
     Adding external electric field

     Computed dipole along edir(3) : 
        Dipole                2.0087 Ry au,          5.1055 Debye
        Dipole field          0.0025 Ry au, 
 
        Potential amp.       -0.2343 Ry
        Total length         46.3494 bohr
 

     total cpu time spent up to now is     1526.2 secs

     total energy              =   -3295.81868946 Ry
     estimated scf accuracy    <       0.00000206 Ry

     iteration # 53     ecut=    29.40 Ry     beta= 0.05
     Davidson diagonalization with overlap
     ethr =  4.66E-10,  avg # of iterations = 10.9

     negative rho (up, down):  3.500E-02 0.000E+00
 
     Adding external electric field

     Computed dipole along edir(3) : 
        Dipole                2.0086 Ry au,          5.1053 Debye
        Dipole field          0.0025 Ry au, 
 
        Potential amp.       -0.2342 Ry
        Total length         46.3494 bohr
 

     total cpu time spent up to now is     1562.6 secs

     total energy              =   -3295.81869747 Ry
     estimated scf accuracy    <       0.00000240 Ry

     iteration # 54     ecut=    29.40 Ry     beta= 0.05
     Davidson diagonalization with overlap
     ethr =  4.66E-10,  avg # of iterations =  5.3

     negative rho (up, down):  3.500E-02 0.000E+00
 
     Adding external electric field

     Computed dipole along edir(3) : 
        Dipole                2.0079 Ry au,          5.1036 Debye
        Dipole field          0.0025 Ry au, 
 
        Potential amp.       -0.2342 Ry
        Total length         46.3494 bohr
 

     total cpu time spent up to now is     1587.7 secs

     total energy              =   -3295.81870526 Ry
     estimated scf accuracy    <       0.00000113 Ry

     iteration # 55     ecut=    29.40 Ry     beta= 0.05
     Davidson diagonalization with overlap
     ethr =  2.55E-10,  avg # of iterations = 13.5

     negative rho (up, down):  3.500E-02 0.000E+00
 
     Adding external electric field

     Computed dipole along edir(3) : 
        Dipole                2.0082 Ry au,          5.1042 Debye
        Dipole field          0.0025 Ry au, 
 
        Potential amp.       -0.2342 Ry
        Total length         46.3494 bohr
 

     total cpu time spent up to now is     1625.8 secs

     total energy              =   -3295.81871201 Ry
     estimated scf accuracy    <       0.00000130 Ry

     iteration # 56     ecut=    29.40 Ry     beta= 0.05
     Davidson diagonalization with overlap
     ethr =  2.55E-10,  avg # of iterations =  1.0

     negative rho (up, down):  3.500E-02 0.000E+00
 
     Adding external electric field

     Computed dipole along edir(3) : 
        Dipole                2.0086 Ry au,          5.1053 Debye
        Dipole field          0.0025 Ry au, 
 
        Potential amp.       -0.2342 Ry
        Total length         46.3494 bohr
 

     total cpu time spent up to now is     1646.3 secs

     total energy              =   -3295.81871763 Ry
     estimated scf accuracy    <       0.00000122 Ry

     iteration # 57     ecut=    29.40 Ry     beta= 0.05
     Davidson diagonalization with overlap
     ethr =  2.55E-10,  avg # of iterations =  6.9

     negative rho (up, down):  3.501E-02 0.000E+00
 
     Adding external electric field

     Computed dipole along edir(3) : 
        Dipole                2.0085 Ry au,          5.1052 Debye
        Dipole field          0.0025 Ry au, 
 
        Potential amp.       -0.2342 Ry
        Total length         46.3494 bohr
 

     total cpu time spent up to now is     1673.3 secs

     total energy              =   -3295.81872288 Ry
     estimated scf accuracy    <       0.00000059 Ry

     iteration # 58     ecut=    29.40 Ry     beta= 0.05
     Davidson diagonalization with overlap
     ethr =  1.33E-10,  avg # of iterations = 10.0

     negative rho (up, down):  3.501E-02 0.000E+00
 
     Adding external electric field

     Computed dipole along edir(3) : 
        Dipole                2.0082 Ry au,          5.1044 Debye
        Dipole field          0.0025 Ry au, 
 
        Potential amp.       -0.2342 Ry
        Total length         46.3494 bohr
 

     total cpu time spent up to now is     1708.7 secs

     total energy              =   -3295.81872785 Ry
     estimated scf accuracy    <       0.00000023 Ry

     iteration # 59     ecut=    29.40 Ry     beta= 0.05
     Davidson diagonalization with overlap
     ethr =  5.31E-11,  avg # of iterations =  6.8

     negative rho (up, down):  3.501E-02 0.000E+00
 
     Adding external electric field

     Computed dipole along edir(3) : 
        Dipole                2.0080 Ry au,          5.1037 Debye
        Dipole field          0.0025 Ry au, 
 
        Potential amp.       -0.2342 Ry
        Total length         46.3494 bohr
 

     total cpu time spent up to now is     1734.1 secs

     total energy              =   -3295.81873223 Ry
     estimated scf accuracy    <       0.00000019 Ry

     iteration # 60     ecut=    29.40 Ry     beta= 0.05
     Davidson diagonalization with overlap
     ethr =  4.41E-11,  avg # of iterations = 11.1

     negative rho (up, down):  3.513E-02 0.000E+00
 
     Adding external electric field

     Computed dipole along edir(3) : 
        Dipole                2.0094 Ry au,          5.1073 Debye
        Dipole field          0.0025 Ry au, 
 
        Potential amp.       -0.2343 Ry
        Total length         46.3494 bohr
 

     total cpu time spent up to now is     1765.8 secs

     End of self-consistent calculation

          k = 0.0000 0.0000 0.0000 ( 26871 PWs)   bands (ev):

   -57.4460 -57.4229 -57.4145 -57.4070 -57.3635 -57.3532 -57.3123 -57.3075
   -57.2928 -57.2637 -57.2430 -57.2348 -57.2257 -57.1910 -57.0118 -56.5113
   -56.4846 -56.4680 -33.8435 -33.8322 -33.8255 -33.8209 -33.8120 -33.7793
   -33.7681 -33.7617 -33.7530 -33.7392 -33.7352 -33.7145 -33.6934 -33.6807
   -33.6530 -33.6498 -33.6378 -33.6346 -33.6141 -33.6127 -33.5917 -33.5807
   -33.5575 -33.5546 -33.5533 -33.5439 -33.5403 -33.5378 -33.5357 -33.5269
   -33.5178 -33.5054 -33.4904 -33.4748 -33.4673 -33.4562 -33.4413 -33.4394
   -33.4348 -33.4324 -33.4037 -33.3803 -33.3415 -33.3059 -33.2332 -32.8308
   -32.8234 -32.8099 -32.8027 -32.7885 -32.7357 -32.6769 -32.6568 -32.5319
   -19.1405 -18.3009 -17.9724 -17.7569 -17.7101 -17.6874 -17.6033 -17.5416
   -17.5278 -17.4484 -17.3850 -17.3041 -17.2771 -17.2703 -17.2376 -17.2093
   -17.1906 -17.1664 -17.1653 -17.1249 -17.1142 -17.0947 -17.0680 -17.0204
   -16.9473 -16.9346 -16.9002 -16.8930 -16.8874 -16.8874 -16.7439 -16.6665
   -16.5849 -15.2671 -14.9715 -14.9152 -14.9078  -7.6934  -7.6140  -7.2342
    -6.7470  -5.6247  -5.4645  -5.3791  -5.2769  -4.9383  -4.8721  -4.8506
    -4.8373  -4.7919  -4.7533  -4.7521  -4.6946  -4.6853  -4.6668  -4.5859
    -4.5722  -4.5497  -4.4981  -4.4756  -4.4256  -4.4249  -4.3751  -4.3206
    -4.2698  -4.2617  -4.2607  -4.2350  -4.2343  -4.2115  -4.2072  -4.0934
    -4.0892  -4.0141  -3.9062  -3.8965  -3.8489  -3.7769  -3.7672  -3.7405
    -3.7136  -3.6502  -3.6050  -3.5513  -3.5436  -3.5303  -3.4662  -3.4420
    -3.3626  -3.2568  -3.2447  -3.2119  -3.1673  -3.1525  -3.1068  -3.0761
    -3.0031  -2.9282  -2.8490  -2.8226  -2.7175  -2.6722  -2.6529  -2.6199
    -2.6124  -2.5391  -2.5348  -2.5099  -2.3579  -2.2539  -2.2445  -2.2250
    -2.2135  -2.1866  -2.1831  -2.1554  -2.0904  -2.0443  -2.0368  -2.0207
    -2.0008  -1.9888  -1.8994  -1.8406  -1.8131  -1.7843  -1.7684  -1.6745
    -1.6356  -1.5999  -1.5894  -1.4843  -1.4296  -1.3231  -1.3183  -1.3042
    -1.2332  -1.1869  -1.1148  -0.7976  -0.6281  -0.5564  -0.2694  -0.2114
    -0.2033   0.0566   0.0689   0.1971   1.5428   1.7739   1.9745   1.9769
     1.9924   2.0632   2.1311   2.1442   2.2096   2.2616   2.2772

          k = 0.0000 0.0280 0.0000 ( 26907 PWs)   bands (ev):

   -57.4439 -57.4281 -57.4115 -57.4067 -57.3641 -57.3532 -57.3121 -57.3076
   -57.2924 -57.2632 -57.2442 -57.2358 -57.2249 -57.1907 -57.0118 -56.5100
   -56.4873 -56.4666 -33.8962 -33.8796 -33.8369 -33.8205 -33.7793 -33.7769
   -33.7704 -33.7640 -33.7298 -33.7272 -33.7191 -33.7014 -33.6907 -33.6808
   -33.6327 -33.6221 -33.6210 -33.6145 -33.6064 -33.6036 -33.5928 -33.5678
   -33.5657 -33.5650 -33.5569 -33.5513 -33.5464 -33.5415 -33.5372 -33.5266
   -33.5234 -33.5041 -33.4903 -33.4753 -33.4678 -33.4619 -33.4559 -33.4414
   -33.4385 -33.4343 -33.4094 -33.3937 -33.3517 -33.3057 -33.2333 -32.8888
   -32.8228 -32.8039 -32.7881 -32.7340 -32.7230 -32.6899 -32.6488 -32.5575
   -19.1391 -18.2484 -17.9405 -17.8775 -17.7159 -17.6522 -17.6217 -17.5882
   -17.4593 -17.4348 -17.3919 -17.3664 -17.2909 -17.2741 -17.2364 -17.2276
   -17.1952 -17.1691 -17.1458 -17.1217 -17.0935 -17.0679 -17.0513 -16.9966
   -16.9655 -16.9489 -16.9298 -16.9159 -16.8921 -16.7887 -16.7429 -16.6595
   -16.6121 -15.2664 -14.9738 -14.9507 -14.8687  -7.6934  -7.6138  -7.2347
    -6.7502  -5.5500  -5.4058  -5.2992  -5.2140  -5.0802  -5.0366  -4.8972
    -4.8342  -4.8101  -4.7859  -4.7715  -4.7427  -4.7217  -4.6854  -4.6557
    -4.6123  -4.5374  -4.4949  -4.4548  -4.3947  -4.3928  -4.3688  -4.3561
    -4.3292  -4.3109  -4.2611  -4.2408  -4.2165  -4.1920  -4.1307  -4.0811
    -4.0447  -4.0087  -3.9659  -3.9028  -3.8701  -3.8486  -3.8391  -3.7891
    -3.7196  -3.6782  -3.6510  -3.5281  -3.4596  -3.4223  -3.4122  -3.3299
    -3.2946  -3.2889  -3.2385  -3.1749  -3.0995  -3.0493  -3.0018  -2.9228
    -2.9189  -2.8830  -2.8233  -2.7400  -2.7134  -2.7066  -2.6528  -2.6034
    -2.5871  -2.5522  -2.5358  -2.5187  -2.4356  -2.4038  -2.3586  -2.3164
    -2.2487  -2.1689  -2.1523  -2.1103  -2.0957  -2.0771  -2.0374  -1.9920
    -1.9578  -1.9155  -1.8613  -1.8130  -1.8097  -1.7572  -1.7246  -1.7204
    -1.7011  -1.6636  -1.6088  -1.6044  -1.5112  -1.3486  -1.3136  -1.3110
    -1.1769  -1.0958  -1.0791  -0.8430  -0.6930  -0.6330  -0.3594  -0.2442
    -0.1240   0.0268   0.1226   0.1511   1.6251   1.8350   1.8880   1.9528
     2.0358   2.0697   2.0957   2.1539   2.1885   2.2136   2.2461

          k = 0.0000-0.0559 0.0000 ( 26942 PWs)   bands (ev):

   -57.4405 -57.4335 -57.4096 -57.4065 -57.3646 -57.3531 -57.3119 -57.3077
   -57.2920 -57.2627 -57.2453 -57.2367 -57.2240 -57.1904 -57.0118 -56.5087
   -56.4899 -56.4654 -33.9207 -33.9004 -33.8532 -33.8231 -33.7986 -33.7815
   -33.7742 -33.7658 -33.7240 -33.7076 -33.6933 -33.6877 -33.6407 -33.6328
   -33.6319 -33.6282 -33.6240 -33.6064 -33.6007 -33.5976 -33.5916 -33.5908
   -33.5863 -33.5613 -33.5433 -33.5428 -33.5418 -33.5414 -33.5217 -33.5204
   -33.5170 -33.5084 -33.5028 -33.4902 -33.4757 -33.4682 -33.4571 -33.4506
   -33.4414 -33.4361 -33.4341 -33.3953 -33.3632 -33.3055 -33.2334 -32.9131
   -32.8223 -32.8050 -32.7876 -32.7238 -32.7026 -32.6471 -32.6373 -32.6183
   -19.1377 -18.1248 -18.0724 -17.8664 -17.7279 -17.6504 -17.5942 -17.5730
   -17.5302 -17.4569 -17.4243 -17.3329 -17.3023 -17.2965 -17.2309 -17.2126
   -17.1988 -17.1534 -17.1356 -17.1072 -17.0834 -17.0625 -17.0130 -17.0017
   -16.9915 -16.9754 -16.9425 -16.9210 -16.8714 -16.7437 -16.6899 -16.6837
   -16.6527 -15.2656 -14.9761 -14.9656 -14.8503  -7.6934  -7.6136  -7.2351
    -6.7534  -5.3586  -5.3422  -5.3094  -5.1357  -5.0882  -5.0783  -5.0668
    -4.9996  -4.9844  -4.8444  -4.7935  -4.7025  -4.6713  -4.6573  -4.6177
    -4.5615  -4.5411  -4.5163  -4.4786  -4.4625  -4.4343  -4.4247  -4.3392
    -4.3281  -4.3140  -4.3017  -4.2757  -4.2338  -4.1725  -4.1664  -4.1233
    -4.0742  -3.9545  -3.9453  -3.9397  -3.8810  -3.8530  -3.8093  -3.7542
    -3.6383  -3.6067  -3.5864  -3.5115  -3.4816  -3.4468  -3.4005  -3.3882
    -3.3293  -3.2493  -3.1982  -3.0739  -2.9802  -2.9306  -2.9016  -2.8716
    -2.8453  -2.8413  -2.7583  -2.7436  -2.7327  -2.7203  -2.6581  -2.6185
    -2.5285  -2.5010  -2.4728  -2.4508  -2.4248  -2.4027  -2.3591  -2.3300
    -2.3240  -2.2781  -2.2320  -2.1649  -2.0968  -2.0886  -2.0565  -2.0080
    -1.9933  -1.9731  -1.9231  -1.8722  -1.8375  -1.8076  -1.7459  -1.7107
    -1.6472  -1.6265  -1.5664  -1.5549  -1.5352  -1.4475  -1.3419  -1.2371
    -1.0501  -1.0447  -1.0209  -0.9338  -0.9300  -0.6356  -0.4541  -0.1807
    -0.1328   0.0637   0.0682   0.1474   1.7728   1.7767   1.8301   1.9844
     2.0714   2.0922   2.1319   2.1418   2.1546   2.1701   2.1828

          k = 0.0380 0.0000 0.0000 ( 26897 PWs)   bands (ev):

   -57.4459 -57.4230 -57.4146 -57.4070 -57.3634 -57.3533 -57.3121 -57.3077
   -57.2927 -57.2635 -57.2431 -57.2349 -57.2257 -57.1911 -57.0118 -56.5112
   -56.4846 -56.4681 -33.8462 -33.8334 -33.8267 -33.8210 -33.8134 -33.7792
   -33.7692 -33.7620 -33.7532 -33.7411 -33.7406 -33.7151 -33.6882 -33.6817
   -33.6548 -33.6514 -33.6351 -33.6170 -33.6091 -33.6080 -33.5922 -33.5642
   -33.5557 -33.5537 -33.5434 -33.5416 -33.5400 -33.5389 -33.5365 -33.5268
   -33.5171 -33.5092 -33.5055 -33.4811 -33.4775 -33.4560 -33.4516 -33.4376
   -33.4348 -33.4318 -33.4039 -33.3804 -33.3413 -33.3059 -33.2349 -32.8308
   -32.8260 -32.8099 -32.8031 -32.7885 -32.7355 -32.6770 -32.6569 -32.5316
   -19.1381 -18.2275 -17.8887 -17.7178 -17.6995 -17.6614 -17.5923 -17.5285
   -17.5171 -17.4589 -17.4297 -17.3453 -17.3029 -17.2839 -17.2540 -17.2360
   -17.2326 -17.1963 -17.1804 -17.1237 -17.1008 -17.0777 -17.0744 -17.0223
   -16.9821 -16.9646 -16.9497 -16.8879 -16.8384 -16.8349 -16.7460 -16.6782
   -16.6550 -15.2667 -14.9681 -14.9156 -14.9082  -7.6849  -7.6123  -7.2305
    -6.7437  -5.5193  -5.2783  -5.1852  -5.1061  -4.9470  -4.9197  -4.8604
    -4.8293  -4.7937  -4.7741  -4.7163  -4.6941  -4.6434  -4.6228  -4.6101
    -4.5865  -4.5228  -4.4732  -4.4438  -4.4322  -4.3808  -4.3516  -4.3262
    -4.3127  -4.2844  -4.2457  -4.2133  -4.1791  -4.1081  -4.0881  -4.0715
    -4.0560  -3.9909  -3.9719  -3.9513  -3.8577  -3.8352  -3.8035  -3.7483
    -3.7365  -3.7120  -3.6738  -3.6093  -3.5639  -3.5378  -3.4759  -3.3907
    -3.3187  -3.2748  -3.2288  -3.1926  -3.1605  -3.1324  -3.1053  -3.0339
    -2.9631  -2.9348  -2.8869  -2.7970  -2.7415  -2.7149  -2.6354  -2.6288
    -2.5699  -2.5229  -2.5126  -2.4599  -2.3964  -2.3827  -2.3697  -2.3509
    -2.3017  -2.2752  -2.2382  -2.2042  -2.1303  -2.0815  -2.0714  -2.0369
    -2.0210  -1.9877  -1.9337  -1.8410  -1.8066  -1.7677  -1.7334  -1.6698
    -1.6058  -1.5867  -1.5683  -1.5057  -1.4693  -1.4277  -1.3698  -1.3409
    -1.2802  -1.1412  -1.1221  -0.9226  -0.6874  -0.5491  -0.2973  -0.1994
    -0.1942   0.0088   0.0207   0.1054   1.5468   1.8635   1.8756   1.9188
     1.9354   2.0075   2.0208   2.0281   2.1263   2.1750   2.2232

          k = 0.0380 0.0280 0.0000 ( 26880 PWs)   bands (ev):

   -57.4439 -57.4281 -57.4114 -57.4067 -57.3639 -57.3533 -57.3118 -57.3078
   -57.2923 -57.2630 -57.2443 -57.2358 -57.2248 -57.1907 -57.0118 -56.5100
   -56.4873 -56.4665 -33.8971 -33.8817 -33.8377 -33.8208 -33.7822 -33.7776
   -33.7720 -33.7642 -33.7305 -33.7275 -33.7197 -33.7039 -33.6824 -33.6783
   -33.6302 -33.6208 -33.6134 -33.6119 -33.6045 -33.6032 -33.5740 -33.5663
   -33.5648 -33.5625 -33.5573 -33.5535 -33.5430 -33.5369 -33.5343 -33.5267
   -33.5230 -33.5092 -33.5042 -33.4815 -33.4794 -33.4596 -33.4555 -33.4486
   -33.4387 -33.4342 -33.4095 -33.3937 -33.3515 -33.3057 -33.2349 -32.8883
   -32.8252 -32.8049 -32.7874 -32.7340 -32.7230 -32.6899 -32.6487 -32.5576
   -19.1370 -18.1781 -17.8671 -17.8282 -17.6815 -17.6258 -17.6015 -17.5588
   -17.4650 -17.4532 -17.4245 -17.3886 -17.3426 -17.2977 -17.2769 -17.2584
   -17.2006 -17.1925 -17.1598 -17.1275 -17.1032 -17.0695 -17.0465 -17.0155
   -16.9927 -16.9808 -16.9618 -16.9045 -16.8442 -16.7534 -16.7410 -16.6895
   -16.6577 -15.2659 -14.9710 -14.9504 -14.8688  -7.6849  -7.6122  -7.2302
    -6.7475  -5.4495  -5.2196  -5.1273  -5.0639  -5.0282  -5.0208  -4.9876
    -4.8697  -4.8137  -4.7962  -4.7659  -4.7250  -4.7022  -4.6132  -4.5807
    -4.5507  -4.5226  -4.4903  -4.4524  -4.4244  -4.3934  -4.3537  -4.3324
    -4.3184  -4.3048  -4.2545  -4.2222  -4.2027  -4.1558  -4.1235  -4.0985
    -4.0512  -3.9981  -3.9611  -3.9158  -3.8704  -3.8449  -3.7933  -3.7464
    -3.6865  -3.6576  -3.5835  -3.5550  -3.5126  -3.4623  -3.3802  -3.3205
    -3.2718  -3.2398  -3.2187  -3.1679  -3.1174  -3.1017  -3.0852  -3.0282
    -2.9722  -2.9015  -2.8576  -2.8219  -2.7490  -2.7195  -2.6732  -2.6285
    -2.5938  -2.5557  -2.5166  -2.4540  -2.4325  -2.4046  -2.3782  -2.3651
    -2.2943  -2.2678  -2.2320  -2.1954  -2.1356  -2.1047  -2.0296  -2.0137
    -1.9887  -1.9692  -1.9132  -1.8759  -1.8267  -1.7947  -1.7504  -1.7312
    -1.6840  -1.6685  -1.5864  -1.5337  -1.5118  -1.4202  -1.3836  -1.3218
    -1.2630  -1.1152  -0.9965  -0.9401  -0.7116  -0.6790  -0.3494  -0.2457
    -0.1111   0.0191   0.0303   0.0995   1.6226   1.8068   1.8927   1.9144
     1.9857   2.0118   2.0435   2.0718   2.1154   2.1522   2.1902

          k = 0.0380-0.0559 0.0000 ( 26850 PWs)   bands (ev):

   -57.4405 -57.4335 -57.4095 -57.4064 -57.3644 -57.3532 -57.3115 -57.3079
   -57.2919 -57.2624 -57.2454 -57.2367 -57.2240 -57.1904 -57.0117 -56.5087
   -56.4899 -56.4653 -33.9217 -33.9025 -33.8539 -33.8232 -33.8030 -33.7825
   -33.7743 -33.7658 -33.7241 -33.7082 -33.6938 -33.6769 -33.6410 -33.6349
   -33.6330 -33.6196 -33.6087 -33.6001 -33.5976 -33.5953 -33.5936 -33.5889
   -33.5839 -33.5616 -33.5474 -33.5399 -33.5392 -33.5341 -33.5241 -33.5208
   -33.5167 -33.5138 -33.5030 -33.4941 -33.4826 -33.4802 -33.4567 -33.4523
   -33.4454 -33.4357 -33.4341 -33.3952 -33.3628 -33.3055 -33.2348 -32.9126
   -32.8242 -32.8067 -32.7865 -32.7238 -32.7026 -32.6470 -32.6372 -32.6182
   -19.1358 -18.0666 -18.0084 -17.7916 -17.6653 -17.6383 -17.5895 -17.5243
   -17.5056 -17.4619 -17.4327 -17.4075 -17.3786 -17.3092 -17.2749 -17.2516
   -17.2110 -17.1848 -17.1561 -17.1295 -17.0734 -17.0602 -17.0350 -17.0225
   -17.0148 -16.9861 -16.9577 -16.9278 -16.7764 -16.7680 -16.7193 -16.7075
   -16.6523 -15.2651 -14.9745 -14.9640 -14.8500  -7.6850  -7.6121  -7.2299
    -6.7514  -5.2893  -5.2339  -5.1566  -5.1008  -5.0860  -5.0071  -4.9454
    -4.8958  -4.8861  -4.8198  -4.8067  -4.7948  -4.7032  -4.6158  -4.5798
    -4.5539  -4.5458  -4.5024  -4.4829  -4.4519  -4.4138  -4.3912  -4.3662
    -4.3346  -4.3150  -4.2736  -4.2391  -4.2151  -4.1849  -4.1595  -4.0947
    -4.0735  -3.9912  -3.9567  -3.9119  -3.8917  -3.7771  -3.7212  -3.6540
    -3.6111  -3.5404  -3.5335  -3.5106  -3.4320  -3.4272  -3.3573  -3.3517
    -3.2430  -3.2318  -3.1674  -3.1465  -3.0929  -3.0810  -3.0295  -3.0165
    -2.9125  -2.9034  -2.8757  -2.8225  -2.7856  -2.7335  -2.7048  -2.6145
    -2.5789  -2.5142  -2.4923  -2.4864  -2.4468  -2.3806  -2.3621  -2.3519
    -2.3236  -2.3088  -2.2416  -2.1508  -2.1365  -2.1250  -2.1091  -2.0942
    -1.9985  -1.9887  -1.9555  -1.8807  -1.8500  -1.8035  -1.7434  -1.7192
    -1.6832  -1.6757  -1.6588  -1.5525  -1.5075  -1.4604  -1.4379  -1.2874
    -1.0943  -1.0886  -1.0034  -0.9460  -0.8764  -0.6809  -0.4419  -0.1703
    -0.1239   0.0314   0.0605   0.0665   1.7565   1.7767   1.8297   1.9429
     1.9702   1.9941   2.0256   2.0737   2.1305   2.1530   2.1967

          k = 0.0380-0.0280 0.0000 ( 26873 PWs)   bands (ev):

   -57.4439 -57.4281 -57.4114 -57.4067 -57.3639 -57.3533 -57.3118 -57.3078
   -57.2923 -57.2630 -57.2443 -57.2358 -57.2248 -57.1907 -57.0118 -56.5100
   -56.4873 -56.4665 -33.8971 -33.8817 -33.8377 -33.8207 -33.7822 -33.7776
   -33.7720 -33.7642 -33.7304 -33.7275 -33.7197 -33.7039 -33.6824 -33.6782
   -33.6302 -33.6207 -33.6135 -33.6119 -33.6045 -33.6032 -33.5740 -33.5663
   -33.5648 -33.5625 -33.5573 -33.5535 -33.5432 -33.5368 -33.5343 -33.5267
   -33.5230 -33.5091 -33.5042 -33.4815 -33.4794 -33.4596 -33.4555 -33.4486
   -33.4387 -33.4342 -33.4095 -33.3937 -33.3515 -33.3057 -33.2349 -32.8883
   -32.8252 -32.8049 -32.7874 -32.7340 -32.7230 -32.6899 -32.6487 -32.5576
   -19.1370 -18.1782 -17.8671 -17.8282 -17.6814 -17.6257 -17.6015 -17.5587
   -17.4650 -17.4532 -17.4245 -17.3887 -17.3426 -17.2977 -17.2769 -17.2585
   -17.2007 -17.1926 -17.1597 -17.1274 -17.1034 -17.0693 -17.0467 -17.0156
   -16.9927 -16.9808 -16.9619 -16.9045 -16.8434 -16.7537 -16.7411 -16.6896
   -16.6577 -15.2659 -14.9710 -14.9504 -14.8688  -7.6850  -7.6121  -7.2303
    -6.7475  -5.4496  -5.2197  -5.1273  -5.0639  -5.0279  -5.0206  -4.9876
    -4.8695  -4.8137  -4.7960  -4.7660  -4.7250  -4.7022  -4.6131  -4.5809
    -4.5507  -4.5233  -4.4906  -4.4526  -4.4243  -4.3933  -4.3538  -4.3324
    -4.3181  -4.3047  -4.2548  -4.2223  -4.2027  -4.1559  -4.1233  -4.0988
    -4.0508  -3.9984  -3.9613  -3.9155  -3.8702  -3.8449  -3.7931  -3.7466
    -3.6869  -3.6577  -3.5834  -3.5550  -3.5123  -3.4623  -3.3798  -3.3205
    -3.2715  -3.2395  -3.2184  -3.1676  -3.1173  -3.1020  -3.0850  -3.0280
    -2.9718  -2.9018  -2.8583  -2.8223  -2.7489  -2.7197  -2.6737  -2.6287
    -2.5932  -2.5558  -2.5160  -2.4545  -2.4331  -2.4046  -2.3777  -2.3655
    -2.2938  -2.2677  -2.2321  -2.1950  -2.1351  -2.1045  -2.0294  -2.0133
    -1.9888  -1.9689  -1.9130  -1.8765  -1.8270  -1.7948  -1.7504  -1.7315
    -1.6841  -1.6687  -1.5864  -1.5335  -1.5118  -1.4202  -1.3839  -1.3218
    -1.2631  -1.1155  -0.9964  -0.9399  -0.7117  -0.6791  -0.3494  -0.2457
    -0.1110   0.0188   0.0301   0.1000   1.6226   1.8068   1.8933   1.9147
     1.9860   2.0118   2.0432   2.0718   2.1157   2.1523   2.1904

          k =-0.0760-0.0000 0.0000 ( 26902 PWs)   bands (ev):

   -57.4459 -57.4230 -57.4146 -57.4069 -57.3633 -57.3535 -57.3118 -57.3080
   -57.2926 -57.2633 -57.2433 -57.2349 -57.2257 -57.1911 -57.0118 -56.5112
   -56.4847 -56.4681 -33.8488 -33.8344 -33.8277 -33.8209 -33.8147 -33.7792
   -33.7702 -33.7622 -33.7532 -33.7464 -33.7418 -33.7154 -33.6946 -33.6686
   -33.6561 -33.6524 -33.6353 -33.6070 -33.6024 -33.5928 -33.5716 -33.5602
   -33.5594 -33.5543 -33.5434 -33.5407 -33.5400 -33.5385 -33.5371 -33.5258
   -33.5186 -33.5168 -33.5057 -33.4909 -33.4880 -33.4644 -33.4556 -33.4370
   -33.4350 -33.4312 -33.4041 -33.3808 -33.3412 -33.3059 -33.2366 -32.8306
   -32.8287 -32.8097 -32.8033 -32.7884 -32.7354 -32.6770 -32.6570 -32.5317
   -19.1358 -18.1306 -17.7642 -17.7611 -17.6899 -17.6090 -17.5307 -17.5251
   -17.5114 -17.4551 -17.4311 -17.4232 -17.3534 -17.3218 -17.2772 -17.2605
   -17.2339 -17.2015 -17.1994 -17.1587 -17.1231 -17.0895 -17.0729 -17.0467
   -16.9934 -16.9725 -16.9706 -16.8823 -16.8082 -16.8012 -16.7694 -16.7188
   -16.6674 -15.2664 -14.9650 -14.9160 -14.9086  -7.6765  -7.6106  -7.2273
    -6.7406  -5.4623  -4.9954  -4.9449  -4.9014  -4.8714  -4.8490  -4.8465
    -4.8383  -4.8071  -4.7372  -4.7215  -4.6903  -4.6422  -4.6154  -4.5859
    -4.5367  -4.5198  -4.4773  -4.4633  -4.4504  -4.4444  -4.4171  -4.4069
    -4.3127  -4.2581  -4.2512  -4.2257  -4.2018  -4.2003  -4.1099  -4.0923
    -4.0611  -3.9965  -3.9426  -3.9035  -3.8829  -3.8123  -3.7339  -3.6968
    -3.6631  -3.6302  -3.6111  -3.5856  -3.5511  -3.4496  -3.4485  -3.4073
    -3.3543  -3.3000  -3.2827  -3.2364  -3.1675  -3.1191  -3.0596  -3.0553
    -3.0366  -2.9074  -2.9001  -2.8351  -2.8207  -2.7402  -2.6886  -2.6721
    -2.5907  -2.5817  -2.5396  -2.5374  -2.4690  -2.4558  -2.4417  -2.4213
    -2.2991  -2.2951  -2.2370  -2.1882  -2.1870  -2.1792  -2.1372  -2.1293
    -1.9777  -1.9638  -1.9078  -1.8600  -1.7863  -1.7554  -1.6866  -1.6783
    -1.6781  -1.6739  -1.6526  -1.5208  -1.4962  -1.4537  -1.3640  -1.3111
    -1.1930  -1.1483  -1.1031  -1.0941  -0.7331  -0.5444  -0.3195  -0.1824
    -0.1782  -0.0369  -0.0253   0.0417   1.5473   1.7317   1.8338   1.8718
     1.8891   1.9629   1.9789   2.0773   2.1075   2.1247   2.1310

          k =-0.0760 0.0279 0.0000 ( 26908 PWs)   bands (ev):

   -57.4439 -57.4281 -57.4115 -57.4066 -57.3638 -57.3534 -57.3115 -57.3081
   -57.2922 -57.2628 -57.2445 -57.2358 -57.2248 -57.1908 -57.0118 -56.5100
   -56.4873 -56.4665 -33.8982 -33.8840 -33.8385 -33.8210 -33.7864 -33.7778
   -33.7728 -33.7644 -33.7312 -33.7276 -33.7205 -33.7058 -33.6825 -33.6666
   -33.6359 -33.6206 -33.6062 -33.6052 -33.6014 -33.5743 -33.5712 -33.5663
   -33.5632 -33.5626 -33.5569 -33.5544 -33.5389 -33.5381 -33.5374 -33.5261
   -33.5228 -33.5178 -33.5045 -33.4989 -33.4876 -33.4590 -33.4573 -33.4541
   -33.4390 -33.4342 -33.4096 -33.3938 -33.3514 -33.3057 -33.2366 -32.8881
   -32.8277 -32.8060 -32.7870 -32.7340 -32.7229 -32.6899 -32.6488 -32.5576
   -19.1349 -18.0864 -17.7957 -17.7229 -17.7225 -17.6083 -17.5352 -17.5314
   -17.4878 -17.4559 -17.4435 -17.4229 -17.3827 -17.3123 -17.2829 -17.2584
   -17.2495 -17.2205 -17.2019 -17.1515 -17.1312 -17.0865 -17.0816 -16.9984
   -16.9953 -16.9812 -16.9744 -16.9230 -16.8768 -16.7835 -16.7199 -16.6693
   -16.6609 -15.2655 -14.9684 -14.9500 -14.8688  -7.6766  -7.6106  -7.2261
    -6.7452  -5.3948  -5.1139  -5.0559  -5.0067  -4.9420  -4.9024  -4.8872
    -4.8264  -4.7060  -4.6943  -4.6622  -4.6493  -4.6258  -4.6088  -4.6057
    -4.5715  -4.5367  -4.5142  -4.4733  -4.4357  -4.4092  -4.3801  -4.3557
    -4.3440  -4.2867  -4.2465  -4.2370  -4.1686  -4.1574  -4.1211  -4.0812
    -4.0384  -4.0091  -4.0058  -3.9244  -3.8650  -3.7996  -3.7806  -3.6871
    -3.6730  -3.6432  -3.5538  -3.5333  -3.5131  -3.4637  -3.3874  -3.3084
    -3.2911  -3.2107  -3.2100  -3.1928  -3.1185  -3.0980  -3.0900  -2.9664
    -2.9443  -2.8868  -2.8825  -2.8562  -2.8559  -2.8059  -2.7212  -2.6551
    -2.6184  -2.6176  -2.5518  -2.5357  -2.5157  -2.4641  -2.4190  -2.4080
    -2.3733  -2.3690  -2.3263  -2.2458  -2.1971  -2.1682  -2.1412  -2.0689
    -2.0317  -2.0186  -1.9387  -1.9080  -1.8193  -1.8091  -1.7309  -1.7244
    -1.6590  -1.6470  -1.5718  -1.5358  -1.4872  -1.4198  -1.3423  -1.2346
    -1.2218  -1.2117  -1.1062  -0.9203  -0.7331  -0.7249  -0.3346  -0.2466
    -0.0960  -0.0766   0.0214   0.0652   1.6196   1.7484   1.7843   1.8626
     1.9106   1.9629   1.9968   2.0148   2.0825   2.0914   2.1836

          k =-0.0760-0.0559 0.0000 ( 26868 PWs)   bands (ev):

   -57.4404 -57.4335 -57.4095 -57.4063 -57.3643 -57.3533 -57.3112 -57.3082
   -57.2919 -57.2622 -57.2457 -57.2367 -57.2240 -57.1904 -57.0117 -56.5087
   -56.4899 -56.4653 -33.9226 -33.9046 -33.8547 -33.8232 -33.8074 -33.7831
   -33.7743 -33.7657 -33.7240 -33.7086 -33.6942 -33.6642 -33.6415 -33.6373
   -33.6335 -33.6127 -33.5995 -33.5985 -33.5973 -33.5896 -33.5875 -33.5817
   -33.5700 -33.5616 -33.5572 -33.5533 -33.5362 -33.5300 -33.5236 -33.5180
   -33.5171 -33.5140 -33.5050 -33.5020 -33.4952 -33.4874 -33.4569 -33.4562
   -33.4476 -33.4356 -33.4342 -33.3951 -33.3625 -33.3055 -33.2366 -32.9122
   -32.8263 -32.8088 -32.7858 -32.7238 -32.7025 -32.6469 -32.6372 -32.6182
   -19.1340 -17.9945 -17.9224 -17.6740 -17.6276 -17.6144 -17.5998 -17.5615
   -17.5084 -17.4777 -17.4274 -17.4091 -17.3730 -17.3215 -17.3140 -17.2396
   -17.2349 -17.2309 -17.1649 -17.1629 -17.1453 -17.1004 -17.0871 -17.0645
   -17.0154 -16.9746 -16.9604 -16.8816 -16.8565 -16.8162 -16.7215 -16.6535
   -16.6182 -15.2646 -14.9729 -14.9625 -14.8497  -7.6767  -7.6107  -7.2248
    -6.7496  -5.2466  -5.2153  -5.1802  -5.1519  -5.0468  -4.8617  -4.7852
    -4.7522  -4.7482  -4.6831  -4.6628  -4.6565  -4.6121  -4.5998  -4.5750
    -4.5519  -4.5224  -4.4878  -4.4800  -4.4432  -4.4120  -4.3967  -4.3752
    -4.3573  -4.3522  -4.3382  -4.2499  -4.1877  -4.1747  -4.1139  -4.0902
    -4.0645  -4.0217  -4.0084  -3.9677  -3.9402  -3.7129  -3.6254  -3.6098
    -3.6089  -3.5825  -3.5466  -3.4904  -3.4324  -3.4005  -3.3706  -3.2446
    -3.2042  -3.1917  -3.1870  -3.1520  -3.0684  -3.0418  -3.0128  -2.9806
    -2.9649  -2.9152  -2.9026  -2.8624  -2.8220  -2.7485  -2.7067  -2.6694
    -2.6373  -2.6038  -2.5928  -2.5663  -2.5370  -2.5328  -2.5059  -2.4861
    -2.4141  -2.4122  -2.3733  -2.3166  -2.2435  -2.2100  -2.1919  -2.1132
    -2.0348  -1.9837  -1.9602  -1.9398  -1.8623  -1.7452  -1.7193  -1.7106
    -1.6769  -1.6287  -1.5777  -1.5438  -1.4935  -1.4031  -1.2711  -1.2508
    -1.1825  -1.0864  -1.0654  -1.0452  -0.8242  -0.7330  -0.4203  -0.1614
    -0.1166  -0.0974   0.0616   0.0692   1.7034   1.7704   1.8331   1.8661
     1.8825   1.9137   1.9165   1.9856   2.0412   2.1102   2.1284

     the Fermi energy is     1.6424 ev

!    total energy              =   -3295.81877174 Ry
     estimated scf accuracy    <       0.00000006 Ry
     smearing contrib. (-TS)   =      -0.03295317 Ry
     internal energy E=F+TS    =   -3295.78581857 Ry

     The total energy is F=E-TS. E is the sum of the following terms:
     one-electron contribution =  -34382.72351396 Ry
     hartree contribution      =   17260.64668634 Ry
     xc contribution           =    -543.88967590 Ry
     ewald contribution        =   14370.17560540 Ry
     electric field correction =       0.00507956 Ry

     convergence has been achieved in  60 iterations

     Forces acting on atoms (cartesian axes, Ry/au):

     atom    1 type  1   force =     0.00000590    0.00790866    0.05042727
     atom    2 type  1   force =    -0.00000907    0.00035542   -0.00971260
     atom    3 type  1   force =    -0.00001798   -0.00472869   -0.00051549
     atom    4 type  1   force =     0.00005835    0.00282257    0.10760397
     atom    5 type  1   force =     0.00000395    0.00070536    0.00923542
     atom    6 type  1   force =    -0.00000679   -0.00163188    0.00013768
     atom    7 type  1   force =     0.06463495    0.00007223   -0.02898651
     atom    8 type  1   force =     0.00389714   -0.02786602    0.00323858
     atom    9 type  1   force =     0.00826875   -0.01831409    0.00241310
     atom   10 type  2   force =    -0.00005046   -0.00798222   -0.19370550
     atom   11 type  2   force =    -0.00002406    0.02061730   -0.00635469
     atom   12 type  2   force =    -0.00005360    0.02206602   -0.00303208
     atom   13 type  1   force =    -0.06472847   -0.00038219   -0.02893542
     atom   14 type  1   force =    -0.00389519   -0.02784691    0.00323370
     atom   15 type  1   force =    -0.00825842   -0.01829875    0.00239960
     atom   16 type  2   force =     0.00010089    0.00059251    0.06676556
     atom   17 type  2   force =     0.00002339    0.03324896    0.00614236
     atom   18 type  2   force =     0.00001039    0.02089373    0.00188229
     atom   19 type  1   force =     0.00000513    0.00225411    0.05627477
     atom   20 type  1   force =    -0.00000528   -0.00132600   -0.00686859
     atom   21 type  1   force =     0.00005995   -0.00139386    0.10884268
     atom   22 type  1   force =     0.00000806   -0.00024585    0.00987498
     atom   23 type  1   force =     0.00001034   -0.00479300    0.00116816
     atom   24 type  1   force =     0.06619872   -0.00049983   -0.02949348
     atom   25 type  1   force =     0.00418698   -0.03008958    0.00219724
     atom   26 type  1   force =     0.00994690   -0.02416267    0.00224443
     atom   27 type  2   force =    -0.00006746    0.01376714   -0.18653365
     atom   28 type  2   force =    -0.00001973    0.02335522   -0.00580885
     atom   29 type  2   force =    -0.00005325    0.01726264   -0.00917566
     atom   30 type  1   force =    -0.06630539   -0.00095171   -0.02944857
     atom   31 type  1   force =    -0.00418065   -0.03006012    0.00219700
     atom   32 type  1   force =    -0.00987698   -0.02414240    0.00222411
     atom   33 type  2   force =     0.00009582   -0.00141033    0.06834224
     atom   34 type  2   force =     0.00002254    0.03782894    0.00401372
     atom   35 type  2   force =    -0.00001088    0.03582863    0.00783221
     atom   36 type  1   force =     0.00001584    0.00057166    0.06523968
     atom   37 type  1   force =    -0.00000946    0.00228568   -0.01103947
     atom   38 type  1   force =     0.00002713   -0.00085597    0.00184284
     atom   39 type  1   force =     0.00005893   -0.00143419    0.10679154
     atom   40 type  1   force =     0.00000136   -0.00039199    0.00776458
     atom   41 type  1   force =    -0.00000145   -0.00030434    0.00577673
     atom   42 type  1   force =     0.06732915   -0.00097622   -0.02905864
     atom   43 type  1   force =     0.00312102   -0.02829852    0.00237234
     atom   44 type  1   force =     0.00707973   -0.02150842    0.00452371
     atom   45 type  2   force =    -0.00006730   -0.00850142   -0.18086300
     atom   46 type  2   force =    -0.00000261    0.01745062   -0.00234265
     atom   47 type  2   force =    -0.00006370    0.02048354   -0.00647431
     atom   48 type  1   force =    -0.06742517   -0.00142215   -0.02901290
     atom   49 type  1   force =    -0.00308855   -0.02829791    0.00236974
     atom   50 type  1   force =    -0.00707926   -0.02147796    0.00451477
     atom   51 type  2   force =     0.00012348   -0.00305209    0.06676840
     atom   52 type  2   force =     0.00000725    0.03509513    0.00727816
     atom   53 type  2   force =    -0.00001504    0.02414457    0.00301752
     atom   54 type  3   force =     0.00010120   -0.00016486    0.00057779
     atom   55 type  4   force =    -0.00001040   -0.00012448    0.00093295
     atom   56 type  3   force =    -0.00003463    0.00070762    0.00034712
     atom   57 type  3   force =    -0.00000328    0.00051984    0.00079265
     atom   58 type  4   force =    -0.01082261    0.00580778    0.00157101
     atom   59 type  3   force =     0.00006749   -0.00017824    0.00009113
     atom   60 type  3   force =     0.01106356   -0.00486445   -0.00395367
     atom   61 type  3   force =    -0.00034718    0.00133337    0.00005199

     Total force =     0.461921     Total SCF correction =     0.000841
  @ DRIVER MODE: Message from server: STATUS
  @ DRIVER MODE: Message from server: GETFORCE
  @ DRIVER MODE: Returning v,forces,stress,ensemble 

     Writing output data file ./calc.save/
  @ DRIVER MODE: Message from server: EXIT
  @ DRIVE MODE: Exiting  
 
     init_run     :     18.06s CPU     18.47s WALL (       1 calls)
     electrons    :   1711.06s CPU   1747.09s WALL (       1 calls)
     forces       :      4.41s CPU      4.58s WALL (       1 calls)

     Called by init_run:
     wfcinit      :      9.73s CPU      9.88s WALL (       1 calls)
     potinit      :      7.30s CPU      7.41s WALL (       1 calls)
     hinit0       :      0.42s CPU      0.45s WALL (       1 calls)

     Called by electrons:
     c_bands      :   1426.55s CPU   1445.84s WALL (      60 calls)
     sum_band     :    199.09s CPU    207.07s WALL (      60 calls)
     v_of_rho     :     65.07s CPU     67.58s WALL (      61 calls)
     newd         :     23.94s CPU     29.90s WALL (      61 calls)
     mix_rho      :      2.47s CPU      2.68s WALL (      60 calls)
     vdW_kernel   :      5.84s CPU      5.86s WALL (       1 calls)

     Called by c_bands:
     init_us_2    :      9.53s CPU      9.62s WALL (    1220 calls)
     cegterg      :   1394.93s CPU   1413.61s WALL (     600 calls)

     Called by *egterg:
     cdiaghg      :    175.98s CPU    177.11s WALL (    5525 calls)
     h_psi        :    803.04s CPU    814.06s WALL (    5535 calls)
     s_psi        :    106.98s CPU    107.29s WALL (    5535 calls)
     g_psi        :      2.59s CPU      2.60s WALL (    4925 calls)

     Called by h_psi:
     h_psi:calbec :     99.80s CPU    100.87s WALL (    5535 calls)
     vloc_psi     :    592.21s CPU    597.59s WALL (    5535 calls)
     add_vuspsi   :    107.27s CPU    108.93s WALL (    5535 calls)

     General routines
     calbec       :    135.95s CPU    137.12s WALL (    6175 calls)
     fft          :     36.35s CPU     36.55s WALL (    3843 calls)
     ffts         :      0.22s CPU      0.22s WALL (     121 calls)
     fftw         :    664.46s CPU    670.44s WALL (  834768 calls)
     interpolate  :      0.71s CPU      0.72s WALL (      61 calls)
     davcio       :      0.00s CPU      0.20s WALL (      10 calls)
 
     Parallel routines
 
     PWSCF        :  28m53.81s CPU  29m30.90s WALL

 
   This run was terminated on:   6:42: 7  19Oct2021            

=------------------------------------------------------------------------------=
   JOB DONE.
=------------------------------------------------------------------------------=
