
     Program PWSCF v.6.7GPU starts on 24Aug2021 at 22:43:52 

     This program is part of the open-source Quantum ESPRESSO suite
     for quantum simulation of materials; please cite
         "P. Giannozzi et al., J. Phys.:Condens. Matter 21 395502 (2009);
         "P. Giannozzi et al., J. Phys.:Condens. Matter 29 465901 (2017);
         "P. Giannozzi et al., J. Chem. Phys. 152 154105 (2020);
          URL http://www.quantum-espresso.org", 
     in publications or presentations arising from this work. More details at
     http://www.quantum-espresso.org/quote

     Parallel version (MPI), running on    72 processors

     MPI processes distributed on     4 nodes
     R & G space division:  proc/nbgrp/npool/nimage =      72
     Reading input from /storage/home/hcoda1/3/ntian30/research/carbon/CH2_vib/ads_slab/CH2NHH_a/out_0036/pw.inp
Warning: card &CELL ignored
Warning: card   CELL_DYNAMICS='IPI', ignored
Warning: card / ignored

     Current dimensions of program PWSCF are:
     Max number of different atomic species (ntypx) = 10
     Max number of k-points (npk) =  40000
     Max angular momentum in pseudopotentials (lmaxx) =  3
     Presently no symmetry can be used with electric field

     Message from routine cell_base_init:
     DEPRECATED: use true lattice parameter, not A to a.u. conversion factor

     **************************************************************************
     Initializing libbeef V0.1.2 with the BEEF-vdW functional.
     Citation: Wellendorff et al., PRB 85, 235149 (2012).
     **************************************************************************


     IMPORTANT: XC functional enforced from input :
     Exchange-correlation= BEEF-VDW
                           (   1   4  43  14   2   0   0)
     Any further DFT definition will be discarded
     Please, verify this is what you really want


     Subspace diagonalization in iterative solution of the eigenvalue problem:
     one sub-group per band group will be used
     scalapack distributed-memory algorithm (size of sub-group:  8*  8 procs)

  @ DRIVER MODE: Connecting to 
 qe_1139763_2641439.sched-torque.pace.gatech.educ9xh_17e_scratch
  using UNIX socket
  @ DRIVER MODE: Message from server: STATUS
  @ DRIVER MODE: Message from server: INIT
  @ DRIVER MODE: Receiving replica           0          -1
  @ DRIVER MODE: Receiving encoded integer          25
  @ DRIVER MODE:  SCF:  T  FORCE:  T  STRESS:  F  VC:  F  ENSEMBLE:  F
  @ DRIVER MODE:  SCF:  T  FORCE:  T  STRESS:  F  VC:  F  ENSEMBLE:  F
 
     Parallelization info
     --------------------
     sticks:   dense  smooth     PW     G-vecs:    dense   smooth      PW
     Min          45      18      5                 7865     1988     295
     Max          46      19      6                 7884     2001     312
     Sum        3275    1317    379               566857   143421   21985
 
     Using Slab Decomposition
 


     bravais-lattice index     =            0
     lattice parameter (alat)  =       1.8897  a.u.
     unit-cell volume          =    6658.9804 (a.u.)^3
     number of atoms/cell      =           53
     number of atomic types    =            5
     number of electrons       =       391.00
     number of Kohn-Sham states=          205
     kinetic-energy cutoff     =      29.3995  Ry
     charge density cutoff     =     293.9946  Ry
     scf convergence threshold =      7.3E-08
     mixing beta               =       0.0500
     number of iterations used =            8  plain     mixing
     Exchange-correlation= BEEF-VDW
                           (   1   4  43  14   2   0   0)

     celldm(1)=   1.889726  celldm(2)=   0.000000  celldm(3)=   0.000000
     celldm(4)=   0.000000  celldm(5)=   0.000000  celldm(6)=   0.000000

     crystal axes: (cart. coord. in units of alat)
               a(1) = (   6.579727   0.000000   0.000000 )  
               a(2) = (  -0.000775   5.961596   0.000000 )  
               a(3) = (   0.000000   0.000000  25.155947 )  

     reciprocal axes: (cart. coord. in units 2 pi/alat)
               b(1) = (  0.151982  0.000020  0.000000 )  
               b(2) = (  0.000000  0.167740  0.000000 )  
               b(3) = (  0.000000  0.000000  0.039752 )  


     PseudoPot. # 1 for Ti read from file:
     /storage/coda1/p-amedford6/0/shared/rich_project_chbe-medford/medford-share/data/pseudos_module/espresso/nninc/pbe/van/Ti.UPF
     MD5 check sum: 8e4df49b7f0d34bbd5052bf3f5ea0213
     Pseudo is Ultrasoft, Zval = 12.0
     Generated by new atomic code, or converted to UPF format
     Using radial grid of  851 points,  6 beta functions with: 
                l(1) =   0
                l(2) =   0
                l(3) =   1
                l(4) =   1
                l(5) =   2
                l(6) =   2
     Q(r) pseudized with  8 coefficients,  rinner =    1.000   1.000   1.000
                                                       1.000   1.000

     PseudoPot. # 2 for O  read from file:
     /storage/coda1/p-amedford6/0/shared/rich_project_chbe-medford/medford-share/data/pseudos_module/espresso/nninc/pbe/van/O.UPF
     MD5 check sum: 78c19812648e8988a0fe644b0f25305e
     Pseudo is Ultrasoft, Zval =  6.0
     Generated by new atomic code, or converted to UPF format
     Using radial grid of  737 points,  4 beta functions with: 
                l(1) =   0
                l(2) =   0
                l(3) =   1
                l(4) =   1
     Q(r) pseudized with  8 coefficients,  rinner =    0.800   0.800   0.800


     PseudoPot. # 3 for N  read from file:
     /storage/coda1/p-amedford6/0/shared/rich_project_chbe-medford/medford-share/data/pseudos_module/espresso/nninc/pbe/van/N.UPF
     MD5 check sum: 90d10febe142ad51ac9d5be1deb811c4
     Pseudo is Ultrasoft, Zval =  5.0
     Generated by new atomic code, or converted to UPF format
     Using radial grid of  729 points,  4 beta functions with: 
                l(1) =   0
                l(2) =   0
                l(3) =   1
                l(4) =   1
     Q(r) pseudized with  8 coefficients,  rinner =    0.800   0.800   0.800


     PseudoPot. # 4 for C  read from file:
     /storage/coda1/p-amedford6/0/shared/rich_project_chbe-medford/medford-share/data/pseudos_module/espresso/nninc/pbe/van/C.UPF
     MD5 check sum: 1a69bf6b8db32088f5b2163dbdb77a27
     Pseudo is Ultrasoft, Zval =  4.0
     Generated by new atomic code, or converted to UPF format
     Using radial grid of  721 points,  4 beta functions with: 
                l(1) =   0
                l(2) =   0
                l(3) =   1
                l(4) =   1
     Q(r) pseudized with  8 coefficients,  rinner =    0.800   0.800   0.800


     PseudoPot. # 5 for H  read from file:
     /storage/coda1/p-amedford6/0/shared/rich_project_chbe-medford/medford-share/data/pseudos_module/espresso/nninc/pbe/van/H.UPF
     MD5 check sum: b5ee9d7bfd3a09ee7748110bda690ff7
     Pseudo is Ultrasoft, Zval =  1.0
     Generated by new atomic code, or converted to UPF format
     Using radial grid of  615 points,  1 beta functions with: 
                l(1) =   0
     Q(r) pseudized with  8 coefficients,  rinner =    0.800

     atomic species   valence    mass     pseudopotential
        Ti1           12.00    47.86700     Ti( 1.00)
        O1             6.00    15.99900     O ( 1.00)
        N1             5.00    14.00700     N ( 1.00)
        C1             4.00    12.01100     C ( 1.00)
        H1             1.00     1.00800     H ( 1.00)

     No symmetry found



   Cartesian axes

     site n.     atom                  positions (alat units)
         1           Ti1 tau(   1) = (   0.0004258   2.9801865   6.0000000  )
         2           Ti1 tau(   2) = (   3.2906075   1.4906267   6.0002472  )
         3           O1  tau(   3) = (   0.0006271   0.0005054   7.9858123  )
         4           O1  tau(   4) = (   3.2906025   0.0005020   7.3038282  )
         5           O1  tau(   5) = (   4.5942328   1.4918067   9.2879030  )
         6           O1  tau(   6) = (   1.9868534   1.4903216   9.2879459  )
         7           Ti1 tau(   7) = (   3.2907910   2.8959150   9.1758416  )
         8           Ti1 tau(   8) = (   0.0015273   1.4827037   9.2680791  )
         9           O1  tau(   9) = (   3.2941312   5.9515177  11.3840049  )
        10           O1  tau(  10) = (   0.0116148   5.9584955  10.6183126  )
        11           O1  tau(  11) = (   1.2915503   1.4777401  12.6967708  )
        12           O1  tau(  12) = (   5.3002239   1.4803738  12.6794006  )
        13           Ti1 tau(  13) = (   0.0161863   2.9610389  12.5056540  )
        14           Ti1 tau(  14) = (   3.3199580   1.4690355  12.5397617  )
        15           O1  tau(  15) = (   6.5577523   5.8663973  14.6994336  )
        16           O1  tau(  16) = (   3.3105950   5.9380289  14.0083265  )
        17           O1  tau(  17) = (   4.5355139   1.5078041  16.1868020  )
        18           O1  tau(  18) = (   2.0231344   1.4922588  16.1350940  )
        19           Ti1 tau(  19) = (   3.2781988   2.9761027  15.7713632  )
        20           Ti1 tau(  20) = (   0.0162001   1.2772015  15.8797579  )
        21           O1  tau(  21) = (   3.2904802   0.0005063   4.7018136  )
        22           O1  tau(  22) = (   6.5682446   0.1140876  17.2519115  )
        23           O1  tau(  23) = (   1.3043587   1.4918075   6.0039043  )
        24           O1  tau(  24) = (   5.2767064   1.4903225   6.0039473  )
        25           Ti1 tau(  25) = (   0.0000382   5.9609847   6.0000000  )
        26           Ti1 tau(  26) = (   3.2902200   4.4714249   6.0002472  )
        27           O1  tau(  27) = (   0.0002396   2.9813036   7.9858123  )
        28           O1  tau(  28) = (   3.2902150   2.9813002   7.3038282  )
        29           O1  tau(  29) = (   4.5938453   4.4726049   9.2879030  )
        30           O1  tau(  30) = (   1.9864658   4.4711199   9.2879459  )
        31           Ti1 tau(  31) = (   3.2891106   5.8743827   9.1763621  )
        32           Ti1 tau(  32) = (   0.0006254   4.4649316   9.2693709  )
        33           O1  tau(  33) = (   3.2958891   2.9587481  11.3780895  )
        34           O1  tau(  34) = (   0.0092240   2.9805883  10.6323155  )
        35           O1  tau(  35) = (   1.2947421   4.4484190  12.6652604  )
        36           O1  tau(  36) = (   5.2996063   4.4466420  12.6515021  )
        37           Ti1 tau(  37) = (   0.0283143   5.9336383  12.5061025  )
        38           Ti1 tau(  38) = (   3.3214233   4.4478814  12.5310514  )
        39           O1  tau(  39) = (   6.5589476   3.0029366  14.9874712  )
        40           O1  tau(  40) = (   3.3011147   2.9794859  13.9794371  )
        41           O1  tau(  41) = (   4.5155863   4.4560770  16.2359875  )
        42           O1  tau(  42) = (   2.0187475   4.4548860  16.2131175  )
        43           Ti1 tau(  43) = (   3.3138217   5.9556645  15.8088081  )
        44           Ti1 tau(  44) = (   0.0451788   4.5003401  16.0524233  )
        45           O1  tau(  45) = (   3.2900926   2.9813045   4.7018136  )
        46           O1  tau(  46) = (   1.3039711   4.4726057   6.0039043  )
        47           O1  tau(  47) = (   5.2763189   4.4711207   6.0039473  )
        48           N1  tau(  48) = (   6.2013940   3.4221407  18.2524812  )
        49           C1  tau(  49) = (   0.6861764   3.1362451  19.0985974  )
        50           H1  tau(  50) = (   1.2250757   3.9700495  19.5149693  )
        51           H1  tau(  51) = (   1.1126790   2.1486344  19.0481404  )
        52           H1  tau(  52) = (   5.7034377   4.2789310  18.4761913  )
        53           H1  tau(  53) = (   5.5430662   2.6552022  18.1384619  )

     number of k points=    10  Fermi-Dirac smearing, width (Ry)=  0.0073
                       cart. coord. in units 2pi/alat
        k(    1) = (   0.0000000   0.0000000   0.0000000), wk =   0.1250000
        k(    2) = (   0.0000000   0.0419351   0.0000000), wk =   0.2500000
        k(    3) = (   0.0000000  -0.0838702   0.0000000), wk =   0.1250000
        k(    4) = (   0.0379955   0.0000049   0.0000000), wk =   0.2500000
        k(    5) = (   0.0379955   0.0419400   0.0000000), wk =   0.2500000
        k(    6) = (   0.0379955  -0.0838652   0.0000000), wk =   0.2500000
        k(    7) = (   0.0379955  -0.0419301   0.0000000), wk =   0.2500000
        k(    8) = (  -0.0759910  -0.0000099   0.0000000), wk =   0.1250000
        k(    9) = (  -0.0759910   0.0419252   0.0000000), wk =   0.2500000
        k(   10) = (  -0.0759910  -0.0838800   0.0000000), wk =   0.1250000

     Dense  grid:   566857 G-vectors     FFT dimensions: (  72,  64, 270)

     Smooth grid:   143421 G-vectors     FFT dimensions: (  45,  40, 180)

     Estimated max dynamical RAM per process >      56.41 MB

     Estimated total dynamical RAM >       3.97 GB
     Cannot read rho : file not found

     Initial potential from superposition of free atoms

     starting charge  374.99916, renormalised to  391.00000

     negative rho (up, down):  1.684E-02 0.000E+00


     %%%%%%%%%%%%%%%%%%%%%%%%%%%%%%%%%%%%%%%%%%%%%%%%%%%%%%%%%%%%%%%%%%%%%%%%
     %                                                                      %
     % You are using vdW-DF, which was implemented by the Thonhauser group. %
     % Please cite the following two papers that made this development      %
     % possible and the two reviews that describe the various versions:     %
     %                                                                      %
     %   T. Thonhauser et al., PRL 115, 136402 (2015).                      %
     %   T. Thonhauser et al., PRB 76, 125112 (2007).                       %
     %   K. Berland et al., Rep. Prog. Phys. 78, 066501 (2015).             %
     %   D.C. Langreth et al., J. Phys.: Condens. Matter 21, 084203 (2009). %
     %                                                                      %
     %                                                                      %
     % If you are calculating the stress with vdW-DF, please also cite:     %
     %                                                                      %
     %   R. Sabatini et al., J. Phys.: Condens. Matter 24, 424209 (2012).   %
     %                                                                      %
     %%%%%%%%%%%%%%%%%%%%%%%%%%%%%%%%%%%%%%%%%%%%%%%%%%%%%%%%%%%%%%%%%%%%%%%%


 
     Adding external electric field

     Computed dipole along edir(3) : 
        Dipole               -6.9329 Ry au,        -17.6217 Debye
        Dipole field         -0.0131 Ry au, 
 
        Potential amp.        1.2128 Ry
        Total length         46.3494 bohr
 
     Starting wfcs are  296 atomic wfcs
  @ DRIVER MODE: Message from server: STATUS
  @ DRIVER MODE: Message from server: POSDATA
  @ DRIVER MODE: Reading and sharing cell 
  @ DRIVER MODE: Reading and sharing positions 
  @ DRIVER MODE: Received positions 

     total cpu time spent up to now is       36.3 secs

     Self-consistent Calculation

     iteration #  1     ecut=    29.40 Ry     beta= 0.05
     Davidson diagonalization with overlap
     c_bands:  1 eigenvalues not converged
     ethr =  1.00E-05,  avg # of iterations = 15.4

     negative rho (up, down):  1.606E-02 0.000E+00
 
     Adding external electric field

     Computed dipole along edir(3) : 
        Dipole               30.5072 Ry au,         77.5417 Debye
        Dipole field          0.0576 Ry au, 
 
        Potential amp.       -5.3368 Ry
        Total length         46.3494 bohr
 

     total cpu time spent up to now is       87.6 secs

     total energy              =   -2713.44021995 Ry
     estimated scf accuracy    <    2282.73266660 Ry

     iteration #  2     ecut=    29.40 Ry     beta= 0.05
     Davidson diagonalization with overlap
     c_bands:  1 eigenvalues not converged
     ethr =  1.00E-02,  avg # of iterations = 18.4

     negative rho (up, down):  6.560E-03 0.000E+00
 
     Adding external electric field

     Computed dipole along edir(3) : 
        Dipole               -2.3362 Ry au,         -5.9382 Debye
        Dipole field         -0.0044 Ry au, 
 
        Potential amp.        0.4087 Ry
        Total length         46.3494 bohr
 

     total cpu time spent up to now is      135.4 secs

     total energy              =   -2623.44348918 Ry
     estimated scf accuracy    <   40868.98326815 Ry

     iteration #  3     ecut=    29.40 Ry     beta= 0.05
     Davidson diagonalization with overlap
     ethr =  1.00E-02,  avg # of iterations = 15.7

     negative rho (up, down):  6.611E-03 0.000E+00
 
     Adding external electric field

     Computed dipole along edir(3) : 
        Dipole               -3.7540 Ry au,         -9.5416 Debye
        Dipole field         -0.0071 Ry au, 
 
        Potential amp.        0.6567 Ry
        Total length         46.3494 bohr
 

     total cpu time spent up to now is      271.8 secs

     total energy              =   -2909.85463258 Ry
     estimated scf accuracy    <    1704.78407894 Ry

     iteration #  4     ecut=    29.40 Ry     beta= 0.05
     Davidson diagonalization with overlap
     ethr =  1.00E-02,  avg # of iterations =  4.0

     negative rho (up, down):  6.753E-03 0.000E+00
 
     Adding external electric field

     Computed dipole along edir(3) : 
        Dipole               -5.1233 Ry au,        -13.0222 Debye
        Dipole field         -0.0097 Ry au, 
 
        Potential amp.        0.8963 Ry
        Total length         46.3494 bohr
 

     total cpu time spent up to now is      284.1 secs

     total energy              =   -2892.61565686 Ry
     estimated scf accuracy    <    1604.81465741 Ry

     iteration #  5     ecut=    29.40 Ry     beta= 0.05
     Davidson diagonalization with overlap
     ethr =  1.00E-02,  avg # of iterations = 15.1

     negative rho (up, down):  6.121E-03 0.000E+00
 
     Adding external electric field

     Computed dipole along edir(3) : 
        Dipole               -4.4845 Ry au,        -11.3985 Debye
        Dipole field         -0.0085 Ry au, 
 
        Potential amp.        0.7845 Ry
        Total length         46.3494 bohr
 

     total cpu time spent up to now is      298.7 secs

     total energy              =   -2923.29100943 Ry
     estimated scf accuracy    <      25.21305101 Ry

     iteration #  6     ecut=    29.40 Ry     beta= 0.05
     Davidson diagonalization with overlap
     ethr =  6.45E-03,  avg # of iterations =  1.2

     negative rho (up, down):  6.413E-03 0.000E+00
 
     Adding external electric field

     Computed dipole along edir(3) : 
        Dipole               -2.5733 Ry au,         -6.5407 Debye
        Dipole field         -0.0049 Ry au, 
 
        Potential amp.        0.4502 Ry
        Total length         46.3494 bohr
 

     total cpu time spent up to now is      302.9 secs

     total energy              =   -2920.55085327 Ry
     estimated scf accuracy    <      21.41989350 Ry

     iteration #  7     ecut=    29.40 Ry     beta= 0.05
     Davidson diagonalization with overlap
     ethr =  5.48E-03,  avg # of iterations =  3.6

     negative rho (up, down):  6.903E-03 0.000E+00
 
     Adding external electric field

     Computed dipole along edir(3) : 
        Dipole               -1.0933 Ry au,         -2.7789 Debye
        Dipole field         -0.0021 Ry au, 
 
        Potential amp.        0.1913 Ry
        Total length         46.3494 bohr
 

     total cpu time spent up to now is      307.1 secs

     total energy              =   -2920.70269536 Ry
     estimated scf accuracy    <       8.43540802 Ry

     iteration #  8     ecut=    29.40 Ry     beta= 0.05
     Davidson diagonalization with overlap
     c_bands:  2 eigenvalues not converged
     c_bands:  1 eigenvalues not converged
     ethr =  2.16E-03,  avg # of iterations = 18.1

     negative rho (up, down):  6.865E-03 0.000E+00
 
     Adding external electric field

     Computed dipole along edir(3) : 
        Dipole               -1.0945 Ry au,         -2.7820 Debye
        Dipole field         -0.0021 Ry au, 
 
        Potential amp.        0.1915 Ry
        Total length         46.3494 bohr
 

     total cpu time spent up to now is      336.8 secs

     total energy              =   -2924.24574498 Ry
     estimated scf accuracy    <     616.79477197 Ry

     iteration #  9     ecut=    29.40 Ry     beta= 0.05
     Davidson diagonalization with overlap
     ethr =  2.16E-03,  avg # of iterations =  2.2

     negative rho (up, down):  6.875E-03 0.000E+00
 
     Adding external electric field

     Computed dipole along edir(3) : 
        Dipole               -1.0709 Ry au,         -2.7220 Debye
        Dipole field         -0.0020 Ry au, 
 
        Potential amp.        0.1873 Ry
        Total length         46.3494 bohr
 

     total cpu time spent up to now is      350.2 secs

     total energy              =   -2924.46879968 Ry
     estimated scf accuracy    <     554.74877917 Ry

     iteration # 10     ecut=    29.40 Ry     beta= 0.05
     Davidson diagonalization with overlap
     ethr =  2.16E-03,  avg # of iterations =  1.5

     negative rho (up, down):  6.255E-03 0.000E+00
 
     Adding external electric field

     Computed dipole along edir(3) : 
        Dipole               -1.4955 Ry au,         -3.8012 Debye
        Dipole field         -0.0028 Ry au, 
 
        Potential amp.        0.2616 Ry
        Total length         46.3494 bohr
 

     total cpu time spent up to now is      365.0 secs

     total energy              =   -2919.33872140 Ry
     estimated scf accuracy    <     579.06001059 Ry

     iteration # 11     ecut=    29.40 Ry     beta= 0.05
     Davidson diagonalization with overlap
     ethr =  2.16E-03,  avg # of iterations =  4.0

     negative rho (up, down):  6.088E-03 0.000E+00
 
     Adding external electric field

     Computed dipole along edir(3) : 
        Dipole               -2.5697 Ry au,         -6.5315 Debye
        Dipole field         -0.0048 Ry au, 
 
        Potential amp.        0.4495 Ry
        Total length         46.3494 bohr
 

     total cpu time spent up to now is      378.9 secs

     total energy              =   -2914.51341270 Ry
     estimated scf accuracy    <     209.64077668 Ry

     iteration # 12     ecut=    29.40 Ry     beta= 0.05
     Davidson diagonalization with overlap
     c_bands:  1 eigenvalues not converged
     ethr =  2.16E-03,  avg # of iterations = 18.9

     negative rho (up, down):  6.296E-03 0.000E+00
 
     Adding external electric field

     Computed dipole along edir(3) : 
        Dipole               -1.3739 Ry au,         -3.4922 Debye
        Dipole field         -0.0026 Ry au, 
 
        Potential amp.        0.2403 Ry
        Total length         46.3494 bohr
 

     total cpu time spent up to now is      399.7 secs

     total energy              =   -2920.34445420 Ry
     estimated scf accuracy    <      12.70894573 Ry

     iteration # 13     ecut=    29.40 Ry     beta= 0.05
     Davidson diagonalization with overlap
     ethr =  2.16E-03,  avg # of iterations =  3.4

     negative rho (up, down):  6.241E-03 0.000E+00
 
     Adding external electric field

     Computed dipole along edir(3) : 
        Dipole               -1.4504 Ry au,         -3.6866 Debye
        Dipole field         -0.0027 Ry au, 
 
        Potential amp.        0.2537 Ry
        Total length         46.3494 bohr
 

     total cpu time spent up to now is      423.7 secs

     total energy              =   -2920.47662259 Ry
     estimated scf accuracy    <       2.74550799 Ry

     iteration # 14     ecut=    29.40 Ry     beta= 0.05
     Davidson diagonalization with overlap
     ethr =  7.02E-04,  avg # of iterations =  1.8

     negative rho (up, down):  6.493E-03 0.000E+00
 
     Adding external electric field

     Computed dipole along edir(3) : 
        Dipole               -0.5714 Ry au,         -1.4523 Debye
        Dipole field         -0.0011 Ry au, 
 
        Potential amp.        0.1000 Ry
        Total length         46.3494 bohr
 

     total cpu time spent up to now is      433.5 secs

     total energy              =   -2920.19575990 Ry
     estimated scf accuracy    <       7.23184895 Ry

     iteration # 15     ecut=    29.40 Ry     beta= 0.05
     Davidson diagonalization with overlap
     ethr =  7.02E-04,  avg # of iterations =  7.5

     negative rho (up, down):  6.436E-03 0.000E+00
 
     Adding external electric field

     Computed dipole along edir(3) : 
        Dipole               -0.8994 Ry au,         -2.2860 Debye
        Dipole field         -0.0017 Ry au, 
 
        Potential amp.        0.1573 Ry
        Total length         46.3494 bohr
 

     total cpu time spent up to now is      439.6 secs

     total energy              =   -2920.34303204 Ry
     estimated scf accuracy    <       2.16065607 Ry

     iteration # 16     ecut=    29.40 Ry     beta= 0.05
     Davidson diagonalization with overlap
     ethr =  5.53E-04,  avg # of iterations =  1.0

     negative rho (up, down):  6.373E-03 0.000E+00
 
     Adding external electric field

     Computed dipole along edir(3) : 
        Dipole               -1.0137 Ry au,         -2.5766 Debye
        Dipole field         -0.0019 Ry au, 
 
        Potential amp.        0.1773 Ry
        Total length         46.3494 bohr
 

     total cpu time spent up to now is      443.0 secs

     total energy              =   -2920.46957999 Ry
     estimated scf accuracy    <       5.34903808 Ry

     iteration # 17     ecut=    29.40 Ry     beta= 0.05
     Davidson diagonalization with overlap
     ethr =  5.53E-04,  avg # of iterations =  1.4

     negative rho (up, down):  6.546E-03 0.000E+00
 
     Adding external electric field

     Computed dipole along edir(3) : 
        Dipole               -0.6996 Ry au,         -1.7783 Debye
        Dipole field         -0.0013 Ry au, 
 
        Potential amp.        0.1224 Ry
        Total length         46.3494 bohr
 

     total cpu time spent up to now is      446.7 secs

     total energy              =   -2920.41214821 Ry
     estimated scf accuracy    <       7.92883485 Ry

     iteration # 18     ecut=    29.40 Ry     beta= 0.05
     Davidson diagonalization with overlap
     ethr =  5.53E-04,  avg # of iterations =  1.7

     negative rho (up, down):  7.012E-03 0.000E+00
 
     Adding external electric field

     Computed dipole along edir(3) : 
        Dipole                0.2796 Ry au,          0.7107 Debye
        Dipole field          0.0005 Ry au, 
 
        Potential amp.       -0.0489 Ry
        Total length         46.3494 bohr
 

     total cpu time spent up to now is      460.3 secs

     total energy              =   -2920.19515302 Ry
     estimated scf accuracy    <       3.43782385 Ry

     iteration # 19     ecut=    29.40 Ry     beta= 0.05
     Davidson diagonalization with overlap
     c_bands:  1 eigenvalues not converged
     c_bands:  3 eigenvalues not converged
     c_bands:  2 eigenvalues not converged
     c_bands:  3 eigenvalues not converged
     c_bands:  3 eigenvalues not converged
     c_bands:  4 eigenvalues not converged
     c_bands:  2 eigenvalues not converged
     c_bands:  2 eigenvalues not converged
     ethr =  5.53E-04,  avg # of iterations = 19.6

     negative rho (up, down):  7.279E-03 0.000E+00
 
     Adding external electric field

     Computed dipole along edir(3) : 
        Dipole                0.8538 Ry au,          2.1701 Debye
        Dipole field          0.0016 Ry au, 
 
        Potential amp.       -0.1494 Ry
        Total length         46.3494 bohr
 

     total cpu time spent up to now is      475.6 secs

     total energy              =   -2920.44484654 Ry
     estimated scf accuracy    <       2.98821827 Ry

     iteration # 20     ecut=    29.40 Ry     beta= 0.05
     Davidson diagonalization with overlap
     c_bands:  1 eigenvalues not converged
     c_bands:  4 eigenvalues not converged
     c_bands:  3 eigenvalues not converged
     c_bands:  5 eigenvalues not converged
     c_bands:  1 eigenvalues not converged
     c_bands:  1 eigenvalues not converged
     ethr =  5.53E-04,  avg # of iterations = 19.0

     negative rho (up, down):  7.091E-03 0.000E+00
 
     Adding external electric field

     Computed dipole along edir(3) : 
        Dipole                0.7117 Ry au,          1.8089 Debye
        Dipole field          0.0013 Ry au, 
 
        Potential amp.       -0.1245 Ry
        Total length         46.3494 bohr
 

     total cpu time spent up to now is      491.0 secs

     total energy              =   -2920.75107468 Ry
     estimated scf accuracy    <     109.08393517 Ry

     iteration # 21     ecut=    29.40 Ry     beta= 0.05
     Davidson diagonalization with overlap
     ethr =  5.53E-04,  avg # of iterations =  3.9

     negative rho (up, down):  6.998E-03 0.000E+00
 
     Adding external electric field

     Computed dipole along edir(3) : 
        Dipole                0.3478 Ry au,          0.8840 Debye
        Dipole field          0.0007 Ry au, 
 
        Potential amp.       -0.0608 Ry
        Total length         46.3494 bohr
 

     total cpu time spent up to now is      497.1 secs

     total energy              =   -2920.28840083 Ry
     estimated scf accuracy    <      86.26971385 Ry

     iteration # 22     ecut=    29.40 Ry     beta= 0.05
     Davidson diagonalization with overlap
     ethr =  5.53E-04,  avg # of iterations =  4.6

     negative rho (up, down):  7.253E-03 0.000E+00
 
     Adding external electric field

     Computed dipole along edir(3) : 
        Dipole                0.2073 Ry au,          0.5268 Debye
        Dipole field          0.0004 Ry au, 
 
        Potential amp.       -0.0363 Ry
        Total length         46.3494 bohr
 

     total cpu time spent up to now is      501.5 secs

     total energy              =   -2920.24495329 Ry
     estimated scf accuracy    <      14.30331639 Ry

     iteration # 23     ecut=    29.40 Ry     beta= 0.05
     Davidson diagonalization with overlap
     c_bands:  3 eigenvalues not converged
     ethr =  5.53E-04,  avg # of iterations =  8.1

     negative rho (up, down):  6.729E-03 0.000E+00
 
     Adding external electric field

     Computed dipole along edir(3) : 
        Dipole               -0.2329 Ry au,         -0.5919 Debye
        Dipole field         -0.0004 Ry au, 
 
        Potential amp.        0.0407 Ry
        Total length         46.3494 bohr
 

     total cpu time spent up to now is      517.8 secs

     total energy              =   -2920.00631604 Ry
     estimated scf accuracy    <      13.91065777 Ry

     iteration # 24     ecut=    29.40 Ry     beta= 0.05
     Davidson diagonalization with overlap
     ethr =  5.53E-04,  avg # of iterations =  4.8

     negative rho (up, down):  6.650E-03 0.000E+00
 
     Adding external electric field

     Computed dipole along edir(3) : 
        Dipole               -0.2852 Ry au,         -0.7249 Debye
        Dipole field         -0.0005 Ry au, 
 
        Potential amp.        0.0499 Ry
        Total length         46.3494 bohr
 

     total cpu time spent up to now is      535.1 secs

     total energy              =   -2920.23988905 Ry
     estimated scf accuracy    <       1.33966863 Ry

     iteration # 25     ecut=    29.40 Ry     beta= 0.05
     Davidson diagonalization with overlap
     ethr =  3.43E-04,  avg # of iterations = 11.5

     negative rho (up, down):  6.693E-03 0.000E+00
 
     Adding external electric field

     Computed dipole along edir(3) : 
        Dipole               -0.2472 Ry au,         -0.6283 Debye
        Dipole field         -0.0005 Ry au, 
 
        Potential amp.        0.0432 Ry
        Total length         46.3494 bohr
 

     total cpu time spent up to now is      550.6 secs

     total energy              =   -2920.26186387 Ry
     estimated scf accuracy    <       0.57781757 Ry

     iteration # 26     ecut=    29.40 Ry     beta= 0.05
     Davidson diagonalization with overlap
     ethr =  1.48E-04,  avg # of iterations =  2.9

     negative rho (up, down):  6.924E-03 0.000E+00
 
     Adding external electric field

     Computed dipole along edir(3) : 
        Dipole                0.0855 Ry au,          0.2172 Debye
        Dipole field          0.0002 Ry au, 
 
        Potential amp.       -0.0150 Ry
        Total length         46.3494 bohr
 

     total cpu time spent up to now is      577.1 secs

     total energy              =   -2920.23920057 Ry
     estimated scf accuracy    <       0.50633761 Ry

     iteration # 27     ecut=    29.40 Ry     beta= 0.05
     Davidson diagonalization with overlap
     c_bands:  1 eigenvalues not converged
     ethr =  1.29E-04,  avg # of iterations =  7.5

     negative rho (up, down):  7.053E-03 0.000E+00
 
     Adding external electric field

     Computed dipole along edir(3) : 
        Dipole                0.4531 Ry au,          1.1517 Debye
        Dipole field          0.0009 Ry au, 
 
        Potential amp.       -0.0793 Ry
        Total length         46.3494 bohr
 

     total cpu time spent up to now is      583.7 secs

     total energy              =   -2920.21022765 Ry
     estimated scf accuracy    <       0.75999055 Ry

     iteration # 28     ecut=    29.40 Ry     beta= 0.05
     Davidson diagonalization with overlap
     c_bands:  2 eigenvalues not converged
     c_bands:  2 eigenvalues not converged
     c_bands:  1 eigenvalues not converged
     c_bands:  2 eigenvalues not converged
     c_bands:  1 eigenvalues not converged
     c_bands:  1 eigenvalues not converged
     c_bands:  4 eigenvalues not converged
     c_bands:  2 eigenvalues not converged
     ethr =  1.29E-04,  avg # of iterations = 18.6

     negative rho (up, down):  6.902E-03 0.000E+00
 
     Adding external electric field

     Computed dipole along edir(3) : 
        Dipole                0.1428 Ry au,          0.3629 Debye
        Dipole field          0.0003 Ry au, 
 
        Potential amp.       -0.0250 Ry
        Total length         46.3494 bohr
 

     total cpu time spent up to now is      613.7 secs

     total energy              =   -2920.21735718 Ry
     estimated scf accuracy    <       0.80277813 Ry

     iteration # 29     ecut=    29.40 Ry     beta= 0.05
     Davidson diagonalization with overlap
     ethr =  1.29E-04,  avg # of iterations =  4.8

     negative rho (up, down):  6.920E-03 0.000E+00
 
     Adding external electric field

     Computed dipole along edir(3) : 
        Dipole                0.2173 Ry au,          0.5524 Debye
        Dipole field          0.0004 Ry au, 
 
        Potential amp.       -0.0380 Ry
        Total length         46.3494 bohr
 

     total cpu time spent up to now is      619.0 secs

     total energy              =   -2920.26672868 Ry
     estimated scf accuracy    <       0.24098997 Ry

     iteration # 30     ecut=    29.40 Ry     beta= 0.05
     Davidson diagonalization with overlap
     ethr =  6.16E-05,  avg # of iterations =  4.0

     negative rho (up, down):  6.921E-03 0.000E+00
 
     Adding external electric field

     Computed dipole along edir(3) : 
        Dipole                0.2029 Ry au,          0.5156 Debye
        Dipole field          0.0004 Ry au, 
 
        Potential amp.       -0.0355 Ry
        Total length         46.3494 bohr
 

     total cpu time spent up to now is      632.7 secs

     total energy              =   -2920.23235440 Ry
     estimated scf accuracy    <       0.33332044 Ry

     iteration # 31     ecut=    29.40 Ry     beta= 0.05
     Davidson diagonalization with overlap
     ethr =  6.16E-05,  avg # of iterations =  6.6

     negative rho (up, down):  7.193E-03 0.000E+00
 
     Adding external electric field

     Computed dipole along edir(3) : 
        Dipole                0.4357 Ry au,          1.1074 Debye
        Dipole field          0.0008 Ry au, 
 
        Potential amp.       -0.0762 Ry
        Total length         46.3494 bohr
 

     total cpu time spent up to now is      648.1 secs

     total energy              =   -2920.22878112 Ry
     estimated scf accuracy    <       0.15600137 Ry

     iteration # 32     ecut=    29.40 Ry     beta= 0.05
     Davidson diagonalization with overlap
     c_bands:  1 eigenvalues not converged
     c_bands:  1 eigenvalues not converged
     c_bands:  1 eigenvalues not converged
     c_bands:  1 eigenvalues not converged
     ethr =  3.99E-05,  avg # of iterations = 13.7

     negative rho (up, down):  7.247E-03 0.000E+00
 
     Adding external electric field

     Computed dipole along edir(3) : 
        Dipole                0.4933 Ry au,          1.2539 Debye
        Dipole field          0.0009 Ry au, 
 
        Potential amp.       -0.0863 Ry
        Total length         46.3494 bohr
 

     total cpu time spent up to now is      657.6 secs

     total energy              =   -2920.25991581 Ry
     estimated scf accuracy    <       0.25691540 Ry

     iteration # 33     ecut=    29.40 Ry     beta= 0.05
     Davidson diagonalization with overlap
     ethr =  3.99E-05,  avg # of iterations =  1.8

     negative rho (up, down):  8.201E-03 0.000E+00
 
     Adding external electric field

     Computed dipole along edir(3) : 
        Dipole                0.7116 Ry au,          1.8088 Debye
        Dipole field          0.0013 Ry au, 
 
        Potential amp.       -0.1245 Ry
        Total length         46.3494 bohr
 

     total cpu time spent up to now is      661.4 secs

     total energy              =   -2920.25748657 Ry
     estimated scf accuracy    <       0.17653149 Ry

     iteration # 34     ecut=    29.40 Ry     beta= 0.05
     Davidson diagonalization with overlap
     ethr =  3.99E-05,  avg # of iterations =  4.7

     negative rho (up, down):  8.234E-03 0.000E+00
 
     Adding external electric field

     Computed dipole along edir(3) : 
        Dipole                0.7966 Ry au,          2.0247 Debye
        Dipole field          0.0015 Ry au, 
 
        Potential amp.       -0.1394 Ry
        Total length         46.3494 bohr
 

     total cpu time spent up to now is      666.0 secs

     total energy              =   -2920.23087846 Ry
     estimated scf accuracy    <       0.21316681 Ry

     iteration # 35     ecut=    29.40 Ry     beta= 0.05
     Davidson diagonalization with overlap
     c_bands:  1 eigenvalues not converged
     ethr =  3.99E-05,  avg # of iterations =  8.6

     negative rho (up, down):  8.704E-03 0.000E+00
 
     Adding external electric field

     Computed dipole along edir(3) : 
        Dipole                0.8400 Ry au,          2.1350 Debye
        Dipole field          0.0016 Ry au, 
 
        Potential amp.       -0.1469 Ry
        Total length         46.3494 bohr
 

     total cpu time spent up to now is      679.4 secs

     total energy              =   -2920.25060704 Ry
     estimated scf accuracy    <       0.02494868 Ry

     iteration # 36     ecut=    29.40 Ry     beta= 0.05
     Davidson diagonalization with overlap
     c_bands:  3 eigenvalues not converged
     c_bands:  1 eigenvalues not converged
     c_bands:  1 eigenvalues not converged
     c_bands:  2 eigenvalues not converged
     c_bands:  1 eigenvalues not converged
     c_bands:  2 eigenvalues not converged
     ethr =  6.38E-06,  avg # of iterations = 17.3

     negative rho (up, down):  9.347E-03 0.000E+00
 
     Adding external electric field

     Computed dipole along edir(3) : 
        Dipole                0.8370 Ry au,          2.1275 Debye
        Dipole field          0.0016 Ry au, 
 
        Potential amp.       -0.1464 Ry
        Total length         46.3494 bohr
 

     total cpu time spent up to now is      694.3 secs

     total energy              =   -2920.25394904 Ry
     estimated scf accuracy    <       0.03047420 Ry

     iteration # 37     ecut=    29.40 Ry     beta= 0.05
     Davidson diagonalization with overlap
     c_bands:  1 eigenvalues not converged
     ethr =  6.38E-06,  avg # of iterations =  7.3

     negative rho (up, down):  1.008E-02 0.000E+00
 
     Adding external electric field

     Computed dipole along edir(3) : 
        Dipole                0.8399 Ry au,          2.1349 Debye
        Dipole field          0.0016 Ry au, 
 
        Potential amp.       -0.1469 Ry
        Total length         46.3494 bohr
 

     total cpu time spent up to now is      699.3 secs

     total energy              =   -2920.25394638 Ry
     estimated scf accuracy    <       0.01307332 Ry

     iteration # 38     ecut=    29.40 Ry     beta= 0.05
     Davidson diagonalization with overlap
     c_bands:  1 eigenvalues not converged
     c_bands:  1 eigenvalues not converged
     ethr =  3.34E-06,  avg # of iterations = 14.2

     negative rho (up, down):  1.123E-02 0.000E+00
 
     Adding external electric field

     Computed dipole along edir(3) : 
        Dipole                0.8536 Ry au,          2.1697 Debye
        Dipole field          0.0016 Ry au, 
 
        Potential amp.       -0.1493 Ry
        Total length         46.3494 bohr
 

     total cpu time spent up to now is      774.5 secs

     total energy              =   -2920.25613168 Ry
     estimated scf accuracy    <       0.01673200 Ry

     iteration # 39     ecut=    29.40 Ry     beta= 0.05
     Davidson diagonalization with overlap
     ethr =  3.34E-06,  avg # of iterations =  2.0

     negative rho (up, down):  1.401E-02 0.000E+00
 
     Adding external electric field

     Computed dipole along edir(3) : 
        Dipole                0.8925 Ry au,          2.2685 Debye
        Dipole field          0.0017 Ry au, 
 
        Potential amp.       -0.1561 Ry
        Total length         46.3494 bohr
 

     total cpu time spent up to now is      787.4 secs

     total energy              =   -2920.25410072 Ry
     estimated scf accuracy    <       0.01083983 Ry

     iteration # 40     ecut=    29.40 Ry     beta= 0.05
     Davidson diagonalization with overlap
     c_bands:  1 eigenvalues not converged
     c_bands:  1 eigenvalues not converged
     ethr =  2.77E-06,  avg # of iterations = 11.5

     negative rho (up, down):  1.381E-02 0.000E+00
 
     Adding external electric field

     Computed dipole along edir(3) : 
        Dipole                0.8870 Ry au,          2.2546 Debye
        Dipole field          0.0017 Ry au, 
 
        Potential amp.       -0.1552 Ry
        Total length         46.3494 bohr
 

     total cpu time spent up to now is      807.2 secs

     total energy              =   -2920.25704851 Ry
     estimated scf accuracy    <       0.00530702 Ry

     iteration # 41     ecut=    29.40 Ry     beta= 0.05
     Davidson diagonalization with overlap
     c_bands:  1 eigenvalues not converged
     ethr =  1.36E-06,  avg # of iterations =  4.5

     negative rho (up, down):  1.379E-02 0.000E+00
 
     Adding external electric field

     Computed dipole along edir(3) : 
        Dipole                0.8873 Ry au,          2.2554 Debye
        Dipole field          0.0017 Ry au, 
 
        Potential amp.       -0.1552 Ry
        Total length         46.3494 bohr
 

     total cpu time spent up to now is      812.3 secs

     total energy              =   -2920.25719662 Ry
     estimated scf accuracy    <       0.00526307 Ry

     iteration # 42     ecut=    29.40 Ry     beta= 0.05
     Davidson diagonalization with overlap
     ethr =  1.35E-06,  avg # of iterations =  1.1

     negative rho (up, down):  1.330E-02 0.000E+00
 
     Adding external electric field

     Computed dipole along edir(3) : 
        Dipole                0.8845 Ry au,          2.2481 Debye
        Dipole field          0.0017 Ry au, 
 
        Potential amp.       -0.1547 Ry
        Total length         46.3494 bohr
 

     total cpu time spent up to now is      818.7 secs

     total energy              =   -2920.25728501 Ry
     estimated scf accuracy    <       0.00545666 Ry

     iteration # 43     ecut=    29.40 Ry     beta= 0.05
     Davidson diagonalization with overlap
     ethr =  1.35E-06,  avg # of iterations =  1.2

     negative rho (up, down):  1.429E-02 0.000E+00
 
     Adding external electric field

     Computed dipole along edir(3) : 
        Dipole                0.9158 Ry au,          2.3279 Debye
        Dipole field          0.0017 Ry au, 
 
        Potential amp.       -0.1602 Ry
        Total length         46.3494 bohr
 

     total cpu time spent up to now is      824.3 secs

     total energy              =   -2920.25631228 Ry
     estimated scf accuracy    <       0.00602136 Ry

     iteration # 44     ecut=    29.40 Ry     beta= 0.05
     Davidson diagonalization with overlap
     ethr =  1.35E-06,  avg # of iterations =  9.6

     negative rho (up, down):  1.551E-02 0.000E+00
 
     Adding external electric field

     Computed dipole along edir(3) : 
        Dipole                0.9283 Ry au,          2.3595 Debye
        Dipole field          0.0018 Ry au, 
 
        Potential amp.       -0.1624 Ry
        Total length         46.3494 bohr
 

     total cpu time spent up to now is      840.8 secs

     total energy              =   -2920.25700829 Ry
     estimated scf accuracy    <       0.00264828 Ry

     iteration # 45     ecut=    29.40 Ry     beta= 0.05
     Davidson diagonalization with overlap
     ethr =  6.77E-07,  avg # of iterations =  4.0

     negative rho (up, down):  1.553E-02 0.000E+00
 
     Adding external electric field

     Computed dipole along edir(3) : 
        Dipole                0.9285 Ry au,          2.3599 Debye
        Dipole field          0.0018 Ry au, 
 
        Potential amp.       -0.1624 Ry
        Total length         46.3494 bohr
 

     total cpu time spent up to now is      845.0 secs

     total energy              =   -2920.25706687 Ry
     estimated scf accuracy    <       0.00251711 Ry

     iteration # 46     ecut=    29.40 Ry     beta= 0.05
     Davidson diagonalization with overlap
     ethr =  6.44E-07,  avg # of iterations =  1.0

     negative rho (up, down):  1.549E-02 0.000E+00
 
     Adding external electric field

     Computed dipole along edir(3) : 
        Dipole                0.9261 Ry au,          2.3540 Debye
        Dipole field          0.0017 Ry au, 
 
        Potential amp.       -0.1620 Ry
        Total length         46.3494 bohr
 

     total cpu time spent up to now is      849.1 secs

     total energy              =   -2920.25699649 Ry
     estimated scf accuracy    <       0.00224763 Ry

     iteration # 47     ecut=    29.40 Ry     beta= 0.05
     Davidson diagonalization with overlap
     ethr =  5.75E-07,  avg # of iterations =  1.7

     negative rho (up, down):  1.474E-02 0.000E+00
 
     Adding external electric field

     Computed dipole along edir(3) : 
        Dipole                0.9036 Ry au,          2.2967 Debye
        Dipole field          0.0017 Ry au, 
 
        Potential amp.       -0.1581 Ry
        Total length         46.3494 bohr
 

     total cpu time spent up to now is      857.1 secs

     total energy              =   -2920.25645365 Ry
     estimated scf accuracy    <       0.00200026 Ry

     iteration # 48     ecut=    29.40 Ry     beta= 0.05
     Davidson diagonalization with overlap
     ethr =  5.12E-07,  avg # of iterations = 10.6

     negative rho (up, down):  1.522E-02 0.000E+00
 
     Adding external electric field

     Computed dipole along edir(3) : 
        Dipole                0.9136 Ry au,          2.3221 Debye
        Dipole field          0.0017 Ry au, 
 
        Potential amp.       -0.1598 Ry
        Total length         46.3494 bohr
 

     total cpu time spent up to now is      867.4 secs

     total energy              =   -2920.25682478 Ry
     estimated scf accuracy    <       0.00124617 Ry

     iteration # 49     ecut=    29.40 Ry     beta= 0.05
     Davidson diagonalization with overlap
     ethr =  3.19E-07,  avg # of iterations =  2.8

     negative rho (up, down):  1.543E-02 0.000E+00
 
     Adding external electric field

     Computed dipole along edir(3) : 
        Dipole                0.9177 Ry au,          2.3326 Debye
        Dipole field          0.0017 Ry au, 
 
        Potential amp.       -0.1605 Ry
        Total length         46.3494 bohr
 

     total cpu time spent up to now is      871.5 secs

     total energy              =   -2920.25681155 Ry
     estimated scf accuracy    <       0.00084632 Ry

     iteration # 50     ecut=    29.40 Ry     beta= 0.05
     Davidson diagonalization with overlap
     ethr =  2.16E-07,  avg # of iterations = 10.3

     negative rho (up, down):  1.566E-02 0.000E+00
 
     Adding external electric field

     Computed dipole along edir(3) : 
        Dipole                0.9057 Ry au,          2.3021 Debye
        Dipole field          0.0017 Ry au, 
 
        Potential amp.       -0.1584 Ry
        Total length         46.3494 bohr
 

     total cpu time spent up to now is      880.4 secs

     total energy              =   -2920.25697646 Ry
     estimated scf accuracy    <       0.00138581 Ry

     iteration # 51     ecut=    29.40 Ry     beta= 0.05
     Davidson diagonalization with overlap
     ethr =  2.16E-07,  avg # of iterations =  6.1

     negative rho (up, down):  1.544E-02 0.000E+00
 
     Adding external electric field

     Computed dipole along edir(3) : 
        Dipole                0.8953 Ry au,          2.2756 Debye
        Dipole field          0.0017 Ry au, 
 
        Potential amp.       -0.1566 Ry
        Total length         46.3494 bohr
 

     total cpu time spent up to now is      885.5 secs

     total energy              =   -2920.25683563 Ry
     estimated scf accuracy    <       0.00129587 Ry

     iteration # 52     ecut=    29.40 Ry     beta= 0.05
     Davidson diagonalization with overlap
     ethr =  2.16E-07,  avg # of iterations =  4.3

     negative rho (up, down):  1.533E-02 0.000E+00
 
     Adding external electric field

     Computed dipole along edir(3) : 
        Dipole                0.8827 Ry au,          2.2437 Debye
        Dipole field          0.0017 Ry au, 
 
        Potential amp.       -0.1544 Ry
        Total length         46.3494 bohr
 

     total cpu time spent up to now is      900.4 secs

     total energy              =   -2920.25670184 Ry
     estimated scf accuracy    <       0.00069217 Ry

     iteration # 53     ecut=    29.40 Ry     beta= 0.05
     Davidson diagonalization with overlap
     ethr =  1.77E-07,  avg # of iterations =  6.2

     negative rho (up, down):  1.541E-02 0.000E+00
 
     Adding external electric field

     Computed dipole along edir(3) : 
        Dipole                0.8808 Ry au,          2.2388 Debye
        Dipole field          0.0017 Ry au, 
 
        Potential amp.       -0.1541 Ry
        Total length         46.3494 bohr
 

     total cpu time spent up to now is      910.5 secs

     total energy              =   -2920.25682242 Ry
     estimated scf accuracy    <       0.00019369 Ry

     iteration # 54     ecut=    29.40 Ry     beta= 0.05
     Davidson diagonalization with overlap
     ethr =  4.95E-08,  avg # of iterations = 10.8

     negative rho (up, down):  1.558E-02 0.000E+00
 
     Adding external electric field

     Computed dipole along edir(3) : 
        Dipole                0.8863 Ry au,          2.2528 Debye
        Dipole field          0.0017 Ry au, 
 
        Potential amp.       -0.1550 Ry
        Total length         46.3494 bohr
 

     total cpu time spent up to now is      939.2 secs

     total energy              =   -2920.25684504 Ry
     estimated scf accuracy    <       0.00022385 Ry

     iteration # 55     ecut=    29.40 Ry     beta= 0.05
     Davidson diagonalization with overlap
     ethr =  4.95E-08,  avg # of iterations =  5.0

     negative rho (up, down):  1.595E-02 0.000E+00
 
     Adding external electric field

     Computed dipole along edir(3) : 
        Dipole                0.8956 Ry au,          2.2763 Debye
        Dipole field          0.0017 Ry au, 
 
        Potential amp.       -0.1567 Ry
        Total length         46.3494 bohr
 

     total cpu time spent up to now is      951.5 secs

     total energy              =   -2920.25687537 Ry
     estimated scf accuracy    <       0.00006940 Ry

     iteration # 56     ecut=    29.40 Ry     beta= 0.05
     Davidson diagonalization with overlap
     c_bands:  1 eigenvalues not converged
     c_bands:  2 eigenvalues not converged
     c_bands:  2 eigenvalues not converged
     c_bands:  2 eigenvalues not converged
     c_bands:  1 eigenvalues not converged
     ethr =  1.77E-08,  avg # of iterations = 18.0

     negative rho (up, down):  1.589E-02 0.000E+00
 
     Adding external electric field

     Computed dipole along edir(3) : 
        Dipole                0.8915 Ry au,          2.2660 Debye
        Dipole field          0.0017 Ry au, 
 
        Potential amp.       -0.1560 Ry
        Total length         46.3494 bohr
 

     total cpu time spent up to now is      967.2 secs

     total energy              =   -2920.25688856 Ry
     estimated scf accuracy    <       0.00036531 Ry

     iteration # 57     ecut=    29.40 Ry     beta= 0.05
     Davidson diagonalization with overlap
     c_bands:  1 eigenvalues not converged
     ethr =  1.77E-08,  avg # of iterations =  8.3

     negative rho (up, down):  1.593E-02 0.000E+00
 
     Adding external electric field

     Computed dipole along edir(3) : 
        Dipole                0.8922 Ry au,          2.2677 Debye
        Dipole field          0.0017 Ry au, 
 
        Potential amp.       -0.1561 Ry
        Total length         46.3494 bohr
 

     total cpu time spent up to now is      975.1 secs

     total energy              =   -2920.25691111 Ry
     estimated scf accuracy    <       0.00010853 Ry

     iteration # 58     ecut=    29.40 Ry     beta= 0.05
     Davidson diagonalization with overlap
     ethr =  1.77E-08,  avg # of iterations =  2.8

     negative rho (up, down):  1.608E-02 0.000E+00
 
     Adding external electric field

     Computed dipole along edir(3) : 
        Dipole                0.8959 Ry au,          2.2772 Debye
        Dipole field          0.0017 Ry au, 
 
        Potential amp.       -0.1567 Ry
        Total length         46.3494 bohr
 

     total cpu time spent up to now is      978.9 secs

     total energy              =   -2920.25692559 Ry
     estimated scf accuracy    <       0.00009823 Ry

     iteration # 59     ecut=    29.40 Ry     beta= 0.05
     Davidson diagonalization with overlap
     ethr =  1.77E-08,  avg # of iterations =  3.5

     negative rho (up, down):  1.615E-02 0.000E+00
 
     Adding external electric field

     Computed dipole along edir(3) : 
        Dipole                0.8944 Ry au,          2.2733 Debye
        Dipole field          0.0017 Ry au, 
 
        Potential amp.       -0.1565 Ry
        Total length         46.3494 bohr
 

     total cpu time spent up to now is      986.5 secs

     total energy              =   -2920.25689338 Ry
     estimated scf accuracy    <       0.00011219 Ry

     iteration # 60     ecut=    29.40 Ry     beta= 0.05
     Davidson diagonalization with overlap
     c_bands:  1 eigenvalues not converged
     ethr =  1.77E-08,  avg # of iterations = 12.2

     negative rho (up, down):  1.618E-02 0.000E+00
 
     Adding external electric field

     Computed dipole along edir(3) : 
        Dipole                0.8954 Ry au,          2.2759 Debye
        Dipole field          0.0017 Ry au, 
 
        Potential amp.       -0.1566 Ry
        Total length         46.3494 bohr
 

     total cpu time spent up to now is      997.3 secs

     total energy              =   -2920.25692494 Ry
     estimated scf accuracy    <       0.00003609 Ry

     iteration # 61     ecut=    29.40 Ry     beta= 0.05
     Davidson diagonalization with overlap
     ethr =  9.23E-09,  avg # of iterations =  2.0

     negative rho (up, down):  1.617E-02 0.000E+00
 
     Adding external electric field

     Computed dipole along edir(3) : 
        Dipole                0.8949 Ry au,          2.2745 Debye
        Dipole field          0.0017 Ry au, 
 
        Potential amp.       -0.1565 Ry
        Total length         46.3494 bohr
 

     total cpu time spent up to now is     1001.3 secs

     total energy              =   -2920.25692684 Ry
     estimated scf accuracy    <       0.00001587 Ry

     iteration # 62     ecut=    29.40 Ry     beta= 0.05
     Davidson diagonalization with overlap
     c_bands:  1 eigenvalues not converged
     ethr =  4.06E-09,  avg # of iterations = 10.6

     negative rho (up, down):  1.611E-02 0.000E+00
 
     Adding external electric field

     Computed dipole along edir(3) : 
        Dipole                0.8932 Ry au,          2.2702 Debye
        Dipole field          0.0017 Ry au, 
 
        Potential amp.       -0.1562 Ry
        Total length         46.3494 bohr
 

     total cpu time spent up to now is     1010.9 secs

     total energy              =   -2920.25693347 Ry
     estimated scf accuracy    <       0.00000724 Ry

     iteration # 63     ecut=    29.40 Ry     beta= 0.05
     Davidson diagonalization with overlap
     ethr =  1.85E-09,  avg # of iterations =  8.1

     negative rho (up, down):  1.616E-02 0.000E+00
 
     Adding external electric field

     Computed dipole along edir(3) : 
        Dipole                0.8945 Ry au,          2.2735 Debye
        Dipole field          0.0017 Ry au, 
 
        Potential amp.       -0.1565 Ry
        Total length         46.3494 bohr
 

     total cpu time spent up to now is     1016.9 secs

     total energy              =   -2920.25693824 Ry
     estimated scf accuracy    <       0.00000258 Ry

     iteration # 64     ecut=    29.40 Ry     beta= 0.05
     Davidson diagonalization with overlap
     c_bands:  1 eigenvalues not converged
     ethr =  6.61E-10,  avg # of iterations = 13.8

     negative rho (up, down):  1.614E-02 0.000E+00
 
     Adding external electric field

     Computed dipole along edir(3) : 
        Dipole                0.8945 Ry au,          2.2736 Debye
        Dipole field          0.0017 Ry au, 
 
        Potential amp.       -0.1565 Ry
        Total length         46.3494 bohr
 

     total cpu time spent up to now is     1048.4 secs

     total energy              =   -2920.25694162 Ry
     estimated scf accuracy    <       0.00000489 Ry

     iteration # 65     ecut=    29.40 Ry     beta= 0.05
     Davidson diagonalization with overlap
     ethr =  6.61E-10,  avg # of iterations =  3.5

     negative rho (up, down):  1.608E-02 0.000E+00
 
     Adding external electric field

     Computed dipole along edir(3) : 
        Dipole                0.8935 Ry au,          2.2710 Debye
        Dipole field          0.0017 Ry au, 
 
        Potential amp.       -0.1563 Ry
        Total length         46.3494 bohr
 

     total cpu time spent up to now is     1063.4 secs

     total energy              =   -2920.25694452 Ry
     estimated scf accuracy    <       0.00000241 Ry

     iteration # 66     ecut=    29.40 Ry     beta= 0.05
     Davidson diagonalization with overlap
     ethr =  6.16E-10,  avg # of iterations =  7.4

     negative rho (up, down):  1.609E-02 0.000E+00
 
     Adding external electric field

     Computed dipole along edir(3) : 
        Dipole                0.8935 Ry au,          2.2710 Debye
        Dipole field          0.0017 Ry au, 
 
        Potential amp.       -0.1563 Ry
        Total length         46.3494 bohr
 

     total cpu time spent up to now is     1068.8 secs

     total energy              =   -2920.25694706 Ry
     estimated scf accuracy    <       0.00000117 Ry

     iteration # 67     ecut=    29.40 Ry     beta= 0.05
     Davidson diagonalization with overlap
     c_bands:  1 eigenvalues not converged
     ethr =  2.99E-10,  avg # of iterations = 12.3

     negative rho (up, down):  1.609E-02 0.000E+00
 
     Adding external electric field

     Computed dipole along edir(3) : 
        Dipole                0.8935 Ry au,          2.2711 Debye
        Dipole field          0.0017 Ry au, 
 
        Potential amp.       -0.1563 Ry
        Total length         46.3494 bohr
 

     total cpu time spent up to now is     1096.1 secs

     total energy              =   -2920.25694964 Ry
     estimated scf accuracy    <       0.00000027 Ry

     iteration # 68     ecut=    29.40 Ry     beta= 0.05
     Davidson diagonalization with overlap
     c_bands:  1 eigenvalues not converged
     ethr =  6.91E-11,  avg # of iterations =  9.1

     negative rho (up, down):  1.609E-02 0.000E+00
 
     Adding external electric field

     Computed dipole along edir(3) : 
        Dipole                0.8934 Ry au,          2.2707 Debye
        Dipole field          0.0017 Ry au, 
 
        Potential amp.       -0.1563 Ry
        Total length         46.3494 bohr
 

     total cpu time spent up to now is     1165.7 secs

     total energy              =   -2920.25695181 Ry
     estimated scf accuracy    <       0.00000018 Ry

     iteration # 69     ecut=    29.40 Ry     beta= 0.05
     Davidson diagonalization with overlap
     c_bands:  1 eigenvalues not converged
     c_bands:  1 eigenvalues not converged
     c_bands:  1 eigenvalues not converged
     ethr =  4.61E-11,  avg # of iterations = 14.2

     negative rho (up, down):  1.608E-02 0.000E+00
 
     Adding external electric field

     Computed dipole along edir(3) : 
        Dipole                0.8932 Ry au,          2.2703 Debye
        Dipole field          0.0017 Ry au, 
 
        Potential amp.       -0.1563 Ry
        Total length         46.3494 bohr
 

     total cpu time spent up to now is     1189.3 secs

     total energy              =   -2920.25695402 Ry
     estimated scf accuracy    <       0.00000037 Ry

     iteration # 70     ecut=    29.40 Ry     beta= 0.05
     Davidson diagonalization with overlap
     c_bands:  1 eigenvalues not converged
     ethr =  4.61E-11,  avg # of iterations =  6.5

     negative rho (up, down):  1.608E-02 0.000E+00
 
     Adding external electric field

     Computed dipole along edir(3) : 
        Dipole                0.8931 Ry au,          2.2701 Debye
        Dipole field          0.0017 Ry au, 
 
        Potential amp.       -0.1562 Ry
        Total length         46.3494 bohr
 

     total cpu time spent up to now is     1194.9 secs

     total energy              =   -2920.25695605 Ry
     estimated scf accuracy    <       0.00000009 Ry

     iteration # 71     ecut=    29.40 Ry     beta= 0.05
     Davidson diagonalization with overlap
     ethr =  2.40E-11,  avg # of iterations =  5.1

     negative rho (up, down):  1.608E-02 0.000E+00
 
     Adding external electric field

     Computed dipole along edir(3) : 
        Dipole                0.8931 Ry au,          2.2700 Debye
        Dipole field          0.0017 Ry au, 
 
        Potential amp.       -0.1562 Ry
        Total length         46.3494 bohr
 

     total cpu time spent up to now is     1206.6 secs

     total energy              =   -2920.25695763 Ry
     estimated scf accuracy    <       0.00000007 Ry

     iteration # 72     ecut=    29.40 Ry     beta= 0.05
     Davidson diagonalization with overlap
     ethr =  1.89E-11,  avg # of iterations = 13.3

     negative rho (up, down):  1.608E-02 0.000E+00
 
     Adding external electric field

     Computed dipole along edir(3) : 
        Dipole                0.8930 Ry au,          2.2697 Debye
        Dipole field          0.0017 Ry au, 
 
        Potential amp.       -0.1562 Ry
        Total length         46.3494 bohr
 

     total cpu time spent up to now is     1217.9 secs

     total energy              =   -2920.25695909 Ry
     estimated scf accuracy    <       0.00000008 Ry

     iteration # 73     ecut=    29.40 Ry     beta= 0.05
     Davidson diagonalization with overlap
     ethr =  1.89E-11,  avg # of iterations =  2.0

     negative rho (up, down):  1.610E-02 0.000E+00
 
     Adding external electric field

     Computed dipole along edir(3) : 
        Dipole                0.8926 Ry au,          2.2688 Debye
        Dipole field          0.0017 Ry au, 
 
        Potential amp.       -0.1561 Ry
        Total length         46.3494 bohr
 

     total cpu time spent up to now is     1221.7 secs

     End of self-consistent calculation

          k = 0.0000 0.0000 0.0000 ( 18029 PWs)   bands (ev):

   -55.7231 -55.6872 -55.6751 -55.6410 -55.6122 -55.6033 -55.5689 -55.5474
   -55.5394 -55.5130 -55.5065 -55.4728 -55.4661 -55.3051 -54.7069 -54.6729
   -32.2884 -32.1681 -32.0913 -32.0581 -32.0435 -32.0364 -32.0329 -32.0126
   -31.9640 -31.9578 -31.9349 -31.9290 -31.9200 -31.8921 -31.8767 -31.8747
   -31.8619 -31.8505 -31.8429 -31.8276 -31.8219 -31.7895 -31.7819 -31.7780
   -31.7498 -31.7459 -31.7354 -31.7322 -31.7262 -31.7217 -31.7059 -31.7041
   -31.6959 -31.6930 -31.6723 -31.6608 -31.6581 -31.6433 -31.6344 -31.6181
   -31.5256 -31.4732 -31.1165 -31.0219 -30.9998 -30.9328 -30.8460 -30.7352
   -16.6769 -16.5302 -16.2743 -16.1139 -16.0190 -15.9228 -15.7911 -15.7635
   -15.6475 -15.5709 -15.4292 -15.3982 -15.3827 -15.3613 -15.3436 -15.3299
   -15.2706 -15.2647 -15.2448 -15.2192 -15.2160 -15.1691 -15.1643 -15.1238
   -15.0998 -15.0458 -14.9692 -14.8849 -14.8120 -14.4896 -13.2097 -13.0922
    -9.5156  -6.8557  -4.9382  -3.8874  -3.7440  -3.6754  -3.6255  -3.6168
    -3.4754  -3.3012  -3.1571  -3.1400  -3.0905  -2.9958  -2.9279  -2.9142
    -2.8898  -2.7488  -2.7335  -2.6798  -2.6531  -2.5757  -2.5708  -2.5281
    -2.5090  -2.4743  -2.4699  -2.4402  -2.2999  -2.2931  -2.2500  -2.1911
    -2.1322  -2.1295  -2.0743  -2.0552  -2.0138  -2.0046  -1.9955  -1.9518
    -1.9478  -1.9140  -1.8192  -1.7488  -1.6213  -1.5852  -1.4410  -1.3643
    -1.3166  -1.2963  -1.2155  -1.2081  -1.1482  -1.1034  -1.1024  -1.0621
    -0.9505  -0.8684  -0.8161  -0.7588  -0.7246  -0.7083  -0.6234  -0.5259
    -0.5028  -0.4902  -0.4541  -0.3539  -0.3293  -0.2676  -0.2043  -0.1921
    -0.1792  -0.0936  -0.0564   0.0159   0.0663   0.0863   0.1631   0.1852
     0.2087   0.2146   0.2456   0.2610   0.3332   0.3521   0.3768   0.4643
     0.5852   0.8278   0.8861   0.8956   1.2151   1.2200   1.3157   1.4988
     1.8922   1.9406   3.3696   3.3872   3.4515   3.5197   3.5235   3.5860
     3.6105   3.8571   3.8763   3.8843   3.9020

          k = 0.0000 0.0419 0.0000 ( 17933 PWs)   bands (ev):

   -55.7178 -55.6923 -55.6700 -55.6459 -55.6101 -55.5982 -55.5738 -55.5424
   -55.5414 -55.5179 -55.5015 -55.4777 -55.4650 -55.3061 -54.7019 -54.6778
   -32.2314 -32.1141 -32.0365 -32.0213 -32.0177 -31.9919 -31.9833 -31.9695
   -31.9668 -31.9590 -31.9515 -31.9234 -31.9157 -31.9120 -31.8953 -31.8717
   -31.8689 -31.8462 -31.8400 -31.8282 -31.8254 -31.8137 -31.7759 -31.7738
   -31.7628 -31.7532 -31.7492 -31.7460 -31.7448 -31.7427 -31.7319 -31.7167
   -31.7119 -31.6963 -31.6922 -31.6881 -31.6752 -31.6720 -31.6460 -31.6447
   -31.5265 -31.5136 -31.0623 -31.0184 -31.0028 -30.9202 -30.8586 -30.7923
   -16.6595 -16.4069 -16.1602 -16.0275 -15.9465 -15.8156 -15.7513 -15.7293
   -15.6236 -15.5789 -15.5346 -15.4583 -15.4090 -15.3929 -15.3204 -15.3123
   -15.2938 -15.2572 -15.2372 -15.2251 -15.2088 -15.2066 -15.1798 -15.1598
   -15.0956 -15.0911 -15.0252 -14.9400 -14.8718 -14.6079 -13.2132 -13.1314
    -9.5142  -6.8473  -4.9348  -3.6963  -3.5759  -3.5187  -3.4667  -3.4402
    -3.3280  -3.1408  -3.0799  -3.0527  -3.0185  -2.9531  -2.8769  -2.8600
    -2.8246  -2.7979  -2.7422  -2.7243  -2.6987  -2.6778  -2.6543  -2.6253
    -2.5829  -2.5561  -2.5227  -2.4884  -2.4647  -2.4361  -2.3334  -2.2946
    -2.2788  -2.2608  -2.2206  -2.1849  -2.1500  -2.0318  -2.0276  -1.9336
    -1.8760  -1.7284  -1.6728  -1.6362  -1.5336  -1.4952  -1.4640  -1.4009
    -1.2861  -1.1817  -1.0942  -1.0646  -1.0495  -1.0438  -0.9352  -0.9142
    -0.8769  -0.8690  -0.7564  -0.7257  -0.7191  -0.6562  -0.6377  -0.5579
    -0.5490  -0.5377  -0.5006  -0.4162  -0.3488  -0.3246  -0.3130  -0.2341
    -0.2215  -0.1707  -0.1289  -0.0694   0.0106   0.0196   0.0290   0.0804
     0.0926   0.1243   0.2087   0.2379   0.3048   0.3178   0.3903   0.4596
     0.5707   0.5823   0.6723   0.7638   0.9232   1.0908   1.4990   1.5742
     1.8471   1.8509   3.3686   3.5812   3.5942   3.6113   3.6740   3.7478
     3.7796   3.7943   3.8080   3.8887   3.9384

          k = 0.0000-0.0839 0.0000 ( 17884 PWs)   bands (ev):

   -55.7064 -55.7036 -55.6581 -55.6578 -55.6079 -55.5868 -55.5852 -55.5435
   -55.5320 -55.5281 -55.4898 -55.4893 -55.4639 -55.3071 -54.6899 -54.6897
   -32.0934 -32.0910 -32.0004 -31.9817 -31.9815 -31.9794 -31.9691 -31.9492
   -31.9491 -31.9191 -31.9133 -31.9065 -31.8990 -31.8972 -31.8954 -31.8719
   -31.8664 -31.8532 -31.8523 -31.8474 -31.8275 -31.8243 -31.7983 -31.7971
   -31.7927 -31.7894 -31.7800 -31.7797 -31.7650 -31.7613 -31.7610 -31.7582
   -31.7518 -31.7325 -31.6889 -31.6863 -31.6819 -31.6701 -31.6698 -31.6460
   -31.5656 -31.5231 -31.0105 -31.0103 -30.9292 -30.9290 -30.8894 -30.8893
   -16.6472 -16.1421 -16.0519 -15.9140 -15.8638 -15.8027 -15.7211 -15.7140
   -15.6181 -15.5816 -15.5737 -15.5409 -15.5063 -15.4708 -15.3379 -15.3319
   -15.3181 -15.3159 -15.2260 -15.1896 -15.1656 -15.1542 -15.1341 -15.1323
   -15.0994 -15.0808 -15.0677 -15.0177 -15.0137 -14.7901 -13.1941 -13.1940
    -9.5129  -6.8400  -4.9313  -3.2893  -3.2488  -3.2108  -3.1767  -3.1592
    -3.1414  -3.1337  -3.0974  -3.0679  -3.0266  -2.9984  -2.9954  -2.9228
    -2.9071  -2.8713  -2.8685  -2.8388  -2.7709  -2.7289  -2.7057  -2.6448
    -2.6252  -2.5979  -2.5735  -2.5471  -2.5456  -2.5275  -2.4258  -2.4185
    -2.3579  -2.3268  -2.1994  -2.1504  -2.0922  -2.0840  -1.8800  -1.8264
    -1.7678  -1.6379  -1.6297  -1.5139  -1.4968  -1.4909  -1.3771  -1.2470
    -1.2151  -1.2137  -1.1879  -1.1718  -1.1379  -1.1132  -1.0888  -1.0109
    -0.9511  -0.9364  -0.8877  -0.7941  -0.7509  -0.5649  -0.5282  -0.4775
    -0.4596  -0.4270  -0.3495  -0.3464  -0.3344  -0.3276  -0.2640  -0.2243
    -0.2045  -0.1969  -0.1417  -0.1126  -0.0964  -0.0758  -0.0469  -0.0245
     0.0158   0.0631   0.0636   0.0888   0.0908   0.1374   0.4253   0.4784
     0.4845   0.4885   0.6500   0.6820   0.8358   0.8421   1.6407   1.6413
     1.7828   1.7829   3.3545   3.6507   3.6655   3.6897   3.6941   3.8533
     3.8550   3.8905   3.9306   3.9521   3.9773

          k = 0.0380 0.0000 0.0000 ( 17913 PWs)   bands (ev):

   -55.7229 -55.6870 -55.6750 -55.6409 -55.6121 -55.6032 -55.5688 -55.5472
   -55.5393 -55.5129 -55.5065 -55.4727 -55.4661 -55.3050 -54.7068 -54.6728
   -32.2885 -32.1690 -32.0966 -32.0582 -32.0458 -32.0404 -32.0327 -32.0129
   -31.9638 -31.9577 -31.9291 -31.9199 -31.9175 -31.8920 -31.8763 -31.8745
   -31.8554 -31.8415 -31.8259 -31.8220 -31.8218 -31.7996 -31.7892 -31.7778
   -31.7497 -31.7462 -31.7346 -31.7319 -31.7195 -31.7187 -31.7146 -31.7057
   -31.7040 -31.6958 -31.6760 -31.6595 -31.6579 -31.6450 -31.6343 -31.6184
   -31.5266 -31.4731 -31.1160 -31.0254 -30.9978 -30.9326 -30.8459 -30.7349
   -16.6664 -16.4561 -16.1942 -16.1043 -15.9850 -15.8250 -15.8039 -15.7635
   -15.6670 -15.5726 -15.5052 -15.4913 -15.4361 -15.4221 -15.4174 -15.3935
   -15.3500 -15.3206 -15.2357 -15.2156 -15.1645 -15.1294 -15.0899 -15.0690
   -15.0434 -14.9828 -14.9598 -14.9455 -14.8983 -14.4880 -13.2063 -13.0919
    -9.5182  -6.8549  -4.9319  -3.7622  -3.6178  -3.5106  -3.4355  -3.3709
    -3.3281  -3.2830  -3.2468  -3.1642  -3.1502  -3.1097  -3.0583  -2.9876
    -2.8662  -2.7988  -2.7790  -2.6812  -2.6504  -2.5311  -2.5102  -2.4885
    -2.4437  -2.4162  -2.3809  -2.3606  -2.3124  -2.2693  -2.2301  -2.1251
    -2.1038  -2.0854  -2.0565  -2.0241  -2.0150  -1.9663  -1.9230  -1.8628
    -1.8224  -1.7908  -1.7560  -1.6796  -1.6537  -1.5308  -1.4799  -1.3897
    -1.3585  -1.3288  -1.2559  -1.2313  -1.1830  -1.1384  -1.1192  -1.0813
    -1.0691  -1.0407  -0.8101  -0.7712  -0.7176  -0.6549  -0.6172  -0.6021
    -0.5798  -0.5406  -0.4033  -0.3994  -0.3351  -0.3143  -0.2919  -0.2323
    -0.1902  -0.1692  -0.0988  -0.0572  -0.0303   0.0111   0.0214   0.0419
     0.0956   0.1314   0.2210   0.2395   0.2440   0.2895   0.3071   0.3935
     0.4668   0.5998   0.7144   0.9378   1.0756   1.2253   1.3276   1.4676
     1.7795   1.8578   3.3890   3.4069   3.4829   3.6823   3.6895   3.7086
     3.7655   3.8164   3.8389   3.8655   3.8873

          k = 0.0380 0.0419 0.0000 ( 17878 PWs)   bands (ev):

   -55.7177 -55.6923 -55.6699 -55.6459 -55.6100 -55.5981 -55.5738 -55.5422
   -55.5413 -55.5178 -55.5015 -55.4777 -55.4650 -55.3060 -54.7018 -54.6778
   -32.2315 -32.1150 -32.0428 -32.0211 -32.0179 -31.9944 -31.9875 -31.9699
   -31.9668 -31.9588 -31.9516 -31.9160 -31.9130 -31.9085 -31.8954 -31.8687
   -31.8620 -31.8463 -31.8319 -31.8256 -31.8126 -31.8094 -31.7925 -31.7734
   -31.7603 -31.7534 -31.7457 -31.7455 -31.7450 -31.7367 -31.7306 -31.7257
   -31.7113 -31.7010 -31.6958 -31.6946 -31.6761 -31.6719 -31.6490 -31.6447
   -31.5281 -31.5135 -31.0619 -31.0212 -31.0018 -30.9200 -30.8586 -30.7922
   -16.6548 -16.3360 -16.0836 -16.0405 -15.8888 -15.7613 -15.7332 -15.7101
   -15.6353 -15.5963 -15.5307 -15.4870 -15.4705 -15.4023 -15.3870 -15.3705
   -15.3396 -15.2909 -15.2817 -15.2518 -15.1995 -15.1726 -15.1438 -15.1020
   -15.0941 -15.0500 -15.0166 -15.0078 -14.9523 -14.6060 -13.2109 -13.1317
    -9.5165  -6.8464  -4.9291  -3.5851  -3.4588  -3.3430  -3.2965  -3.2158
    -3.1561  -3.1283  -3.0985  -3.0643  -3.0371  -2.9634  -2.9093  -2.8281
    -2.7997  -2.7607  -2.7395  -2.7266  -2.6740  -2.6273  -2.6104  -2.5602
    -2.5404  -2.5196  -2.4842  -2.4477  -2.4245  -2.4145  -2.3525  -2.3139
    -2.2668  -2.2307  -2.1752  -2.1477  -2.1123  -2.0155  -1.9446  -1.8954
    -1.7869  -1.7303  -1.7149  -1.6005  -1.5391  -1.5065  -1.4391  -1.3340
    -1.2774  -1.2135  -1.1971  -1.1421  -1.1116  -1.0784  -1.0641  -1.0069
    -0.9812  -0.9046  -0.8385  -0.8114  -0.7950  -0.6988  -0.6722  -0.6589
    -0.6272  -0.5338  -0.4941  -0.4868  -0.4345  -0.4169  -0.3723  -0.3475
    -0.3368  -0.3015  -0.2500  -0.1666  -0.1499  -0.0900  -0.0687  -0.0030
     0.0241   0.1049   0.1717   0.2307   0.2832   0.3543   0.3890   0.4274
     0.5280   0.5810   0.6943   0.7054   0.8681   1.0466   1.5099   1.5776
     1.7692   1.8326   3.3820   3.5744   3.5797   3.6322   3.7178   3.7828
     3.8006   3.8365   3.9046   3.9343   3.9615

          k = 0.0380-0.0839 0.0000 ( 17916 PWs)   bands (ev):

   -55.7064 -55.7036 -55.6581 -55.6578 -55.6079 -55.5868 -55.5852 -55.5435
   -55.5320 -55.5281 -55.4899 -55.4894 -55.4640 -55.3071 -54.6900 -54.6897
   -32.0937 -32.0912 -32.0005 -31.9825 -31.9823 -31.9795 -31.9696 -31.9492
   -31.9492 -31.9250 -31.9194 -31.9182 -31.9140 -31.8736 -31.8710 -31.8685
   -31.8652 -31.8591 -31.8555 -31.8512 -31.8305 -31.8178 -31.8002 -31.7990
   -31.7792 -31.7789 -31.7726 -31.7699 -31.7694 -31.7666 -31.7649 -31.7608
   -31.7470 -31.7320 -31.7006 -31.6979 -31.6839 -31.6702 -31.6699 -31.6487
   -31.5654 -31.5254 -31.0116 -31.0113 -30.9291 -30.9289 -30.8894 -30.8893
   -16.6458 -16.0993 -16.0058 -15.8909 -15.8184 -15.7961 -15.6763 -15.6631
   -15.6092 -15.5739 -15.5706 -15.5297 -15.4667 -15.4322 -15.3512 -15.3479
   -15.3176 -15.3104 -15.3042 -15.2614 -15.2177 -15.2075 -15.1623 -15.1561
   -15.1010 -15.0891 -15.0749 -15.0680 -15.0672 -14.7819 -13.1939 -13.1938
    -9.5151  -6.8391  -4.9252  -3.2278  -3.2032  -3.1660  -3.1357  -3.0187
    -2.9909  -2.9761  -2.9504  -2.9223  -2.9090  -2.8531  -2.8373  -2.8194
    -2.8034  -2.7999  -2.7694  -2.7604  -2.7147  -2.6912  -2.6548  -2.6319
    -2.6162  -2.6080  -2.5569  -2.5466  -2.4871  -2.4516  -2.4006  -2.3851
    -2.3452  -2.2987  -2.2496  -2.1998  -1.9850  -1.9247  -1.8971  -1.8030
    -1.7318  -1.6877  -1.6639  -1.6480  -1.5922  -1.5756  -1.4740  -1.4559
    -1.4070  -1.4021  -1.3730  -1.2846  -1.2084  -1.1256  -1.0843  -1.0581
    -1.0358  -1.0078  -0.9657  -0.7922  -0.7640  -0.7410  -0.6776  -0.6434
    -0.5770  -0.5500  -0.5282  -0.5157  -0.4856  -0.4161  -0.3716  -0.3628
    -0.3355  -0.2852  -0.2509  -0.2316  -0.2121  -0.1944  -0.0092   0.0017
     0.0223   0.0821   0.1570   0.1961   0.3349   0.3386   0.3728   0.4293
     0.4990   0.5261   0.6097   0.6245   0.8257   0.8313   1.6542   1.6548
     1.7733   1.7740   3.3718   3.6141   3.6344   3.6798   3.7043   3.8160
     3.8317   3.8922   3.9282   3.9648   4.0037

          k = 0.0380-0.0419 0.0000 ( 17876 PWs)   bands (ev):

   -55.7177 -55.6923 -55.6699 -55.6459 -55.6100 -55.5981 -55.5738 -55.5422
   -55.5413 -55.5178 -55.5015 -55.4777 -55.4650 -55.3060 -54.7018 -54.6778
   -32.2315 -32.1150 -32.0428 -32.0210 -32.0180 -31.9943 -31.9875 -31.9699
   -31.9668 -31.9588 -31.9516 -31.9160 -31.9128 -31.9087 -31.8954 -31.8687
   -31.8620 -31.8462 -31.8324 -31.8255 -31.8126 -31.8094 -31.7923 -31.7734
   -31.7604 -31.7534 -31.7457 -31.7450 -31.7419 -31.7367 -31.7310 -31.7259
   -31.7139 -31.7008 -31.6959 -31.6946 -31.6782 -31.6719 -31.6471 -31.6447
   -31.5275 -31.5141 -31.0619 -31.0212 -31.0018 -30.9200 -30.8586 -30.7922
   -16.6552 -16.3354 -16.0824 -16.0404 -15.8889 -15.7634 -15.7328 -15.7098
   -15.6346 -15.5967 -15.5321 -15.4821 -15.4708 -15.4017 -15.3873 -15.3709
   -15.3507 -15.2877 -15.2815 -15.2527 -15.1993 -15.1728 -15.1442 -15.1003
   -15.0895 -15.0493 -15.0164 -15.0081 -14.9526 -14.6067 -13.2109 -13.1317
    -9.5166  -6.8464  -4.9281  -3.5852  -3.4578  -3.3427  -3.2753  -3.2147
    -3.1593  -3.1452  -3.0974  -3.0679  -3.0310  -2.9646  -2.9148  -2.8360
    -2.7979  -2.7570  -2.7511  -2.7206  -2.6744  -2.6359  -2.6139  -2.5580
    -2.5423  -2.5173  -2.4825  -2.4485  -2.4229  -2.4186  -2.3543  -2.3157
    -2.2684  -2.2329  -2.1558  -2.1328  -2.1156  -2.0171  -1.9553  -1.9001
    -1.7885  -1.7285  -1.7073  -1.5964  -1.5317  -1.5073  -1.4378  -1.3475
    -1.2730  -1.2129  -1.1960  -1.1306  -1.1051  -1.0830  -1.0655  -1.0113
    -0.9776  -0.9049  -0.8541  -0.8133  -0.7916  -0.6962  -0.6702  -0.6593
    -0.6252  -0.5254  -0.5051  -0.4814  -0.4305  -0.4093  -0.3682  -0.3447
    -0.3384  -0.3047  -0.2477  -0.1690  -0.1550  -0.1049  -0.0701  -0.0010
     0.0222   0.1005   0.1747   0.2355   0.2816   0.3481   0.3855   0.4257
     0.5305   0.5850   0.6940   0.7089   0.8685   1.0467   1.5100   1.5776
     1.7690   1.8332   3.3987   3.5747   3.5817   3.6255   3.7185   3.7856
     3.7959   3.8219   3.9111   3.9376   3.9579

          k =-0.0760-0.0000 0.0000 ( 17886 PWs)   bands (ev):

   -55.7228 -55.6870 -55.6749 -55.6409 -55.6120 -55.6032 -55.5688 -55.5470
   -55.5392 -55.5128 -55.5066 -55.4727 -55.4660 -55.3050 -54.7068 -54.6728
   -32.2887 -32.1700 -32.1018 -32.0584 -32.0482 -32.0443 -32.0325 -32.0132
   -31.9636 -31.9576 -31.9291 -31.9199 -31.8927 -31.8919 -31.8762 -31.8738
   -31.8499 -31.8318 -31.8255 -31.8218 -31.8218 -31.7893 -31.7892 -31.7780
   -31.7498 -31.7484 -31.7467 -31.7344 -31.7322 -31.7171 -31.7100 -31.7060
   -31.7042 -31.6997 -31.6816 -31.6586 -31.6577 -31.6468 -31.6343 -31.6191
   -31.5277 -31.4732 -31.1156 -31.0289 -30.9964 -30.9325 -30.8458 -30.7350
   -16.6586 -16.3271 -16.2091 -16.0344 -15.9279 -15.7911 -15.7588 -15.7548
   -15.6283 -15.5880 -15.5820 -15.5391 -15.5045 -15.5038 -15.4768 -15.4401
   -15.4201 -15.3364 -15.2175 -15.1897 -15.1547 -15.1348 -15.1311 -15.0826
   -15.0569 -15.0080 -14.9700 -14.8925 -14.8572 -14.4867 -13.2032 -13.0916
    -9.5209  -6.8542  -4.9255  -3.7254  -3.5937  -3.3627  -3.2691  -3.2279
    -3.2166  -3.2116  -3.2038  -3.1497  -3.1366  -3.0429  -3.0384  -2.9708
    -2.9550  -2.7859  -2.6535  -2.6385  -2.5684  -2.5283  -2.4412  -2.4287
    -2.3674  -2.3317  -2.2898  -2.2643  -2.2381  -2.2135  -2.2048  -2.1462
    -2.0982  -2.0778  -2.0571  -2.0528  -2.0361  -2.0211  -2.0136  -1.9280
    -1.8749  -1.7985  -1.6607  -1.5805  -1.5411  -1.4183  -1.4064  -1.3667
    -1.3498  -1.3352  -1.3213  -1.2893  -1.2575  -1.2307  -1.1646  -1.1502
    -1.0701  -1.0245  -1.0153  -0.9910  -0.9243  -0.7002  -0.6757  -0.6363
    -0.6082  -0.5683  -0.4811  -0.4332  -0.4163  -0.3784  -0.3272  -0.2759
    -0.2439  -0.2217  -0.1963  -0.1406  -0.1255  -0.0667  -0.0389   0.0189
     0.0531   0.0752   0.1200   0.1236   0.2083   0.2366   0.3187   0.3995
     0.5117   0.5376   0.7578   0.8003   0.9639   1.2300   1.3490   1.4426
     1.6492   1.8027   3.3903   3.4172   3.4543   3.5233   3.6485   3.7573
     3.7584   3.8280   3.8641   3.8908   3.9587

          k =-0.0760 0.0419 0.0000 ( 17914 PWs)   bands (ev):

   -55.7177 -55.6923 -55.6699 -55.6459 -55.6100 -55.5982 -55.5738 -55.5421
   -55.5413 -55.5178 -55.5017 -55.4777 -55.4650 -55.3060 -54.7018 -54.6778
   -32.2319 -32.1160 -32.0489 -32.0210 -32.0183 -31.9969 -31.9918 -31.9705
   -31.9668 -31.9588 -31.9517 -31.9161 -31.9122 -31.8955 -31.8918 -31.8682
   -31.8528 -31.8465 -31.8259 -31.8234 -31.8123 -31.8091 -31.7774 -31.7742
   -31.7597 -31.7558 -31.7535 -31.7478 -31.7455 -31.7433 -31.7299 -31.7139
   -31.7137 -31.7127 -31.7031 -31.6963 -31.6799 -31.6725 -31.6500 -31.6448
   -31.5293 -31.5141 -31.0616 -31.0242 -31.0011 -30.9200 -30.8587 -30.7923
   -16.6512 -16.2107 -16.1247 -15.9604 -15.8363 -15.7362 -15.6927 -15.6802
   -15.6362 -15.5527 -15.5285 -15.5170 -15.5020 -15.4552 -15.4525 -15.4219
   -15.4093 -15.3398 -15.2801 -15.2662 -15.1938 -15.1844 -15.1538 -15.1224
   -15.1050 -15.0893 -15.0142 -14.9804 -14.9643 -14.6052 -13.2087 -13.1320
    -9.5190  -6.8457  -4.9223  -3.5590  -3.4370  -3.1741  -3.1259  -3.0889
    -3.0739  -3.0183  -2.9696  -2.9390  -2.9242  -2.9094  -2.8705  -2.8076
    -2.7550  -2.7347  -2.7183  -2.6810  -2.6731  -2.6207  -2.5957  -2.5453
    -2.5101  -2.4444  -2.4237  -2.3982  -2.3261  -2.3099  -2.2821  -2.2738
    -2.2622  -2.2189  -2.1890  -2.1649  -2.0197  -1.9290  -1.8949  -1.8836
    -1.8419  -1.7839  -1.6888  -1.5168  -1.4915  -1.4654  -1.4626  -1.3547
    -1.3336  -1.3109  -1.2899  -1.2219  -1.1564  -1.1307  -1.1128  -1.0844
    -1.0511  -1.0039  -0.9877  -0.9673  -0.9313  -0.8894  -0.8660  -0.7984
    -0.7921  -0.7046  -0.6725  -0.6128  -0.5282  -0.5194  -0.4948  -0.4601
    -0.4227  -0.3994  -0.2783  -0.2326  -0.2013  -0.1645  -0.0369   0.0014
     0.0315   0.0940   0.1740   0.1982   0.2670   0.3769   0.5004   0.5248
     0.5451   0.6097   0.6874   0.7717   0.7864   0.9278   1.5252   1.5798
     1.6914   1.8218   3.4164   3.5556   3.5783   3.6004   3.6536   3.7085
     3.7759   3.8014   3.8520   3.9255   4.0006

          k =-0.0760-0.0839 0.0000 ( 17948 PWs)   bands (ev):

   -55.7064 -55.7036 -55.6581 -55.6578 -55.6079 -55.5869 -55.5852 -55.5435
   -55.5319 -55.5280 -55.4900 -55.4895 -55.4640 -55.3072 -54.6900 -54.6897
   -32.0940 -32.0915 -32.0006 -31.9833 -31.9831 -31.9797 -31.9700 -31.9493
   -31.9492 -31.9329 -31.9263 -31.9192 -31.9147 -31.8752 -31.8671 -31.8641
   -31.8598 -31.8550 -31.8507 -31.8457 -31.8319 -31.8128 -31.8013 -31.8003
   -31.7819 -31.7781 -31.7778 -31.7774 -31.7649 -31.7609 -31.7446 -31.7424
   -31.7406 -31.7310 -31.7230 -31.7202 -31.6865 -31.6702 -31.6699 -31.6513
   -31.5653 -31.5277 -31.0126 -31.0124 -30.9291 -30.9289 -30.8894 -30.8894
   -16.6445 -16.0390 -15.9465 -15.9084 -15.7608 -15.7230 -15.6877 -15.6753
   -15.5528 -15.5263 -15.5000 -15.4802 -15.4441 -15.4286 -15.4216 -15.3732
   -15.3423 -15.3229 -15.3172 -15.3052 -15.2423 -15.2344 -15.2305 -15.2235
   -15.1740 -15.1705 -15.0794 -15.0765 -15.0631 -14.7750 -13.1936 -13.1936
    -9.5172  -6.8381  -4.9190  -3.2159  -3.1936  -3.1617  -3.1322  -2.9794
    -2.9112  -2.8965  -2.8753  -2.7981  -2.7569  -2.7357  -2.6943  -2.6841
    -2.6317  -2.6046  -2.5769  -2.5613  -2.5566  -2.5405  -2.5196  -2.4847
    -2.4566  -2.4539  -2.4433  -2.4025  -2.3756  -2.3619  -2.3277  -2.3182
    -2.3107  -2.2815  -2.2213  -2.1147  -2.0916  -2.0585  -1.9643  -1.9323
    -1.9274  -1.8472  -1.8169  -1.7587  -1.7555  -1.7442  -1.5973  -1.5155
    -1.4727  -1.4701  -1.4478  -1.3205  -1.3116  -1.2268  -1.2044  -1.1942
    -1.1056  -1.0815  -1.0437  -1.0182  -0.9359  -0.9103  -0.8445  -0.7564
    -0.7198  -0.7119  -0.6807  -0.6780  -0.6287  -0.6172  -0.5361  -0.4939
    -0.4578  -0.4476  -0.4063  -0.2210  -0.2046  -0.1615  -0.0332   0.0127
     0.1450   0.1627   0.2273   0.3041   0.3359   0.3896   0.4259   0.5718
     0.5816   0.6148   0.6584   0.6678   0.7275   0.7366   1.6718   1.6725
     1.7604   1.7607   3.3917   3.6188   3.6256   3.6643   3.6870   3.8398
     3.8903   3.9286   3.9539   3.9591   3.9752

     the Fermi energy is     3.4377 ev

!    total energy              =   -2920.25697178 Ry
     estimated scf accuracy    <       0.00000004 Ry
     smearing contrib. (-TS)   =      -0.04298106 Ry
     internal energy E=F+TS    =   -2920.21399072 Ry

     The total energy is F=E-TS. E is the sum of the following terms:
     one-electron contribution =  -24043.51648961 Ry
     hartree contribution      =   12107.89202243 Ry
     xc contribution           =    -480.85805365 Ry
     ewald contribution        =    9496.26702652 Ry
     electric field correction =       0.00150359 Ry

     convergence has been achieved in  73 iterations

     Forces acting on atoms (cartesian axes, Ry/au):

     atom    1 type  1   force =     0.00008582   -0.00016230    0.09318262
     atom    2 type  1   force =    -0.00020172   -0.00024678   -0.17845959
     atom    3 type  2   force =     0.00003785   -0.00035908   -0.02006606
     atom    4 type  2   force =    -0.00001947   -0.00199397    0.05917752
     atom    5 type  2   force =    -0.01040207   -0.00113884    0.00789145
     atom    6 type  2   force =     0.01196179   -0.00052079    0.00731687
     atom    7 type  1   force =    -0.00041748    0.00230278   -0.01387233
     atom    8 type  1   force =     0.00003952   -0.00144527   -0.00478147
     atom    9 type  2   force =     0.00000352   -0.00028338   -0.00034319
     atom   10 type  2   force =    -0.00082818    0.00066934    0.00150575
     atom   11 type  2   force =     0.00009816   -0.00004326    0.00024417
     atom   12 type  2   force =    -0.00007371    0.00008437    0.00032814
     atom   13 type  1   force =    -0.00057395    0.00062160   -0.00007421
     atom   14 type  1   force =     0.00026115    0.00021572    0.00011383
     atom   15 type  2   force =    -0.00016598    0.00048355    0.00037885
     atom   16 type  2   force =    -0.00016860   -0.00006962   -0.00013683
     atom   17 type  2   force =    -0.00030566   -0.00016656   -0.00017685
     atom   18 type  2   force =    -0.00017410   -0.00014101   -0.00046889
     atom   19 type  1   force =     0.00007490    0.00001140   -0.00002451
     atom   20 type  1   force =    -0.00021865    0.00010798    0.00012159
     atom   21 type  2   force =     0.00001276   -0.00001507    0.10399138
     atom   22 type  2   force =    -0.00000502    0.00028781    0.00063273
     atom   23 type  2   force =    -0.07038263   -0.00010233   -0.02689809
     atom   24 type  2   force =     0.07019913    0.00032822   -0.02695623
     atom   25 type  1   force =    -0.00001096   -0.00012271    0.09256820
     atom   26 type  1   force =    -0.00017688   -0.00038766   -0.17850302
     atom   27 type  2   force =     0.00009502   -0.00027841   -0.01915566
     atom   28 type  2   force =     0.00002824   -0.00176434    0.05849723
     atom   29 type  2   force =    -0.01089724   -0.00132974    0.00842760
     atom   30 type  2   force =     0.01235216   -0.00099022    0.00777682
     atom   31 type  1   force =    -0.00022827    0.00598770   -0.01474745
     atom   32 type  1   force =     0.00005846    0.00098960   -0.00536412
     atom   33 type  2   force =    -0.00030687    0.00023854    0.00015168
     atom   34 type  2   force =    -0.00022425   -0.00292137    0.00008741
     atom   35 type  2   force =     0.00059824    0.00022143   -0.00004550
     atom   36 type  2   force =    -0.00064881    0.00017873   -0.00027154
     atom   37 type  1   force =    -0.00055367   -0.00047280   -0.00006988
     atom   38 type  1   force =     0.00016724   -0.00049774    0.00013354
     atom   39 type  2   force =     0.00005794   -0.00020247    0.00028963
     atom   40 type  2   force =    -0.00001155    0.00045446   -0.00059014
     atom   41 type  2   force =    -0.00016033    0.00055308   -0.00025110
     atom   42 type  2   force =     0.00008821    0.00054805   -0.00014272
     atom   43 type  1   force =    -0.00000473    0.00037588   -0.00064690
     atom   44 type  1   force =    -0.00064210   -0.00040099    0.00024372
     atom   45 type  2   force =     0.00000347   -0.00002668    0.10396000
     atom   46 type  2   force =    -0.07035780   -0.00005615   -0.02686345
     atom   47 type  2   force =     0.07019092    0.00037345   -0.02691408
     atom   48 type  3   force =    -0.00031776    0.00049225    0.00085157
     atom   49 type  4   force =     0.00216661    0.00036440   -0.00038352
     atom   50 type  5   force =     0.00045145   -0.00017250   -0.00052217
     atom   51 type  5   force =    -0.00035744    0.00057532    0.00010755
     atom   52 type  5   force =     0.00075505   -0.00003929    0.00033085
     atom   53 type  5   force =    -0.00095175   -0.00011434   -0.00158118

     Total force =     0.366404     Total SCF correction =     0.000397
  @ DRIVER MODE: Message from server: STATUS
  @ DRIVER MODE: Message from server: GETFORCE
  @ DRIVER MODE: Returning v,forces,stress,ensemble 

     Writing output data file ./calc.save/
  @ DRIVER MODE: Message from server: EXIT
  @ DRIVE MODE: Exiting  
 
     init_run     :     20.71s CPU     21.46s WALL (       1 calls)
     electrons    :   1156.12s CPU   1185.37s WALL (       1 calls)
     forces       :      4.79s CPU      5.32s WALL (       1 calls)

     Called by init_run:
     wfcinit      :     16.94s CPU     17.23s WALL (       1 calls)
     potinit      :      1.81s CPU      1.84s WALL (       1 calls)
     hinit0       :      1.27s CPU      1.58s WALL (       1 calls)

     Called by electrons:
     c_bands      :    929.98s CPU    954.59s WALL (      73 calls)
     sum_band     :    147.81s CPU    149.79s WALL (      73 calls)
     v_of_rho     :     40.77s CPU     41.74s WALL (      74 calls)
     newd         :      5.25s CPU      5.30s WALL (      74 calls)
     mix_rho      :     29.58s CPU     30.89s WALL (      73 calls)
     vdW_kernel   :      1.23s CPU      1.23s WALL (       1 calls)

     Called by c_bands:
     init_us_2    :      1.01s CPU      1.11s WALL (    1480 calls)
     cegterg      :    924.94s CPU    949.03s WALL (     732 calls)

     Called by *egterg:
     cdiaghg      :    365.58s CPU    369.36s WALL (    6370 calls)
     h_psi        :    413.30s CPU    428.14s WALL (    6380 calls)
     s_psi        :     10.79s CPU     10.86s WALL (    6380 calls)
     g_psi        :      0.25s CPU      0.26s WALL (    5638 calls)

     Called by h_psi:
     h_psi:calbec :     19.00s CPU     19.44s WALL (    6380 calls)
     vloc_psi     :    382.21s CPU    396.47s WALL (    6380 calls)
     add_vuspsi   :     11.59s CPU     11.71s WALL (    6380 calls)

     General routines
     calbec       :     30.64s CPU     31.66s WALL (    7150 calls)
     fft          :     37.13s CPU     38.11s WALL (    4662 calls)
     ffts         :      0.88s CPU      0.89s WALL (     147 calls)
     fftw         :    512.02s CPU    527.75s WALL (  939042 calls)
     interpolate  :      1.55s CPU      1.56s WALL (      74 calls)
     davcio       :      0.00s CPU      0.07s WALL (      10 calls)
 
     Parallel routines
 
     PWSCF        :  19m57.98s CPU  20m30.46s WALL

 
   This run was terminated on:  23: 4:22  24Aug2021            

=------------------------------------------------------------------------------=
   JOB DONE.
=------------------------------------------------------------------------------=
