
     Program PWSCF v.6.7GPU starts on 15Sep2021 at  1:39:15 

     This program is part of the open-source Quantum ESPRESSO suite
     for quantum simulation of materials; please cite
         "P. Giannozzi et al., J. Phys.:Condens. Matter 21 395502 (2009);
         "P. Giannozzi et al., J. Phys.:Condens. Matter 29 465901 (2017);
         "P. Giannozzi et al., J. Chem. Phys. 152 154105 (2020);
          URL http://www.quantum-espresso.org", 
     in publications or presentations arising from this work. More details at
     http://www.quantum-espresso.org/quote

     Parallel version (MPI), running on    10 processors

     MPI processes distributed on     1 nodes
     R & G space division:  proc/nbgrp/npool/nimage =      10
     Reading input from /storage/home/hcoda1/3/ntian30/research/carbon/CxH_vib/CH_calc/ads_slab/CHOHN2_a/out_0036/pw.inp
Warning: card &CELL ignored
Warning: card   CELL_DYNAMICS='IPI', ignored
Warning: card / ignored

     Current dimensions of program PWSCF are:
     Max number of different atomic species (ntypx) = 10
     Max number of k-points (npk) =  40000
     Max angular momentum in pseudopotentials (lmaxx) =  3
     Presently no symmetry can be used with electric field

     Message from routine cell_base_init:
     DEPRECATED: use true lattice parameter, not A to a.u. conversion factor

     **************************************************************************
     Initializing libbeef V0.1.2 with the BEEF-vdW functional.
     Citation: Wellendorff et al., PRB 85, 235149 (2012).
     **************************************************************************


     IMPORTANT: XC functional enforced from input :
     Exchange-correlation= BEEF-VDW
                           (   1   4  43  14   2   0   0)
     Any further DFT definition will be discarded
     Please, verify this is what you really want


     Subspace diagonalization in iterative solution of the eigenvalue problem:
     one sub-group per band group will be used
     scalapack distributed-memory algorithm (size of sub-group:  3*  3 procs)

  @ DRIVER MODE: Connecting to 
 qe_1139763_2840439.sched-torque.pace.gatech.eduo3mob6sp_scratch
  using UNIX socket
  @ DRIVER MODE: Message from server: STATUS
  @ DRIVER MODE: Message from server: INIT
  @ DRIVER MODE: Receiving replica           0          -1
  @ DRIVER MODE: Receiving encoded integer          25
  @ DRIVER MODE:  SCF:  T  FORCE:  T  STRESS:  F  VC:  F  ENSEMBLE:  F
  @ DRIVER MODE:  SCF:  T  FORCE:  T  STRESS:  F  VC:  F  ENSEMBLE:  F
 
     Parallelization info
     --------------------
     sticks:   dense  smooth     PW     G-vecs:    dense   smooth      PW
     Min         327     131     37                56683    14340    2191
     Max         328     133     38                56694    14346    2206
     Sum        3275    1317    379               566857   143421   21985
 
     Using Slab Decomposition
 


     bravais-lattice index     =            0
     lattice parameter (alat)  =       1.8897  a.u.
     unit-cell volume          =    6658.9804 (a.u.)^3
     number of atoms/cell      =           53
     number of atomic types    =            5
     number of electrons       =       400.00
     number of Kohn-Sham states=          210
     kinetic-energy cutoff     =      29.3995  Ry
     charge density cutoff     =     293.9946  Ry
     scf convergence threshold =      7.3E-08
     mixing beta               =       0.0500
     number of iterations used =            8  plain     mixing
     Exchange-correlation= BEEF-VDW
                           (   1   4  43  14   2   0   0)

     celldm(1)=   1.889726  celldm(2)=   0.000000  celldm(3)=   0.000000
     celldm(4)=   0.000000  celldm(5)=   0.000000  celldm(6)=   0.000000

     crystal axes: (cart. coord. in units of alat)
               a(1) = (   6.579727   0.000000   0.000000 )  
               a(2) = (  -0.000775   5.961596   0.000000 )  
               a(3) = (   0.000000   0.000000  25.155947 )  

     reciprocal axes: (cart. coord. in units 2 pi/alat)
               b(1) = (  0.151982  0.000020  0.000000 )  
               b(2) = (  0.000000  0.167740  0.000000 )  
               b(3) = (  0.000000  0.000000  0.039752 )  


     PseudoPot. # 1 for C  read from file:
     /storage/coda1/p-amedford6/0/shared/rich_project_chbe-medford/medford-share/data/pseudos_module/espresso/nninc/pbe/van/C.UPF
     MD5 check sum: 1a69bf6b8db32088f5b2163dbdb77a27
     Pseudo is Ultrasoft, Zval =  4.0
     Generated by new atomic code, or converted to UPF format
     Using radial grid of  721 points,  4 beta functions with: 
                l(1) =   0
                l(2) =   0
                l(3) =   1
                l(4) =   1
     Q(r) pseudized with  8 coefficients,  rinner =    0.800   0.800   0.800


     PseudoPot. # 2 for H  read from file:
     /storage/coda1/p-amedford6/0/shared/rich_project_chbe-medford/medford-share/data/pseudos_module/espresso/nninc/pbe/van/H.UPF
     MD5 check sum: b5ee9d7bfd3a09ee7748110bda690ff7
     Pseudo is Ultrasoft, Zval =  1.0
     Generated by new atomic code, or converted to UPF format
     Using radial grid of  615 points,  1 beta functions with: 
                l(1) =   0
     Q(r) pseudized with  8 coefficients,  rinner =    0.800

     PseudoPot. # 3 for O  read from file:
     /storage/coda1/p-amedford6/0/shared/rich_project_chbe-medford/medford-share/data/pseudos_module/espresso/nninc/pbe/van/O.UPF
     MD5 check sum: 78c19812648e8988a0fe644b0f25305e
     Pseudo is Ultrasoft, Zval =  6.0
     Generated by new atomic code, or converted to UPF format
     Using radial grid of  737 points,  4 beta functions with: 
                l(1) =   0
                l(2) =   0
                l(3) =   1
                l(4) =   1
     Q(r) pseudized with  8 coefficients,  rinner =    0.800   0.800   0.800


     PseudoPot. # 4 for Ti read from file:
     /storage/coda1/p-amedford6/0/shared/rich_project_chbe-medford/medford-share/data/pseudos_module/espresso/nninc/pbe/van/Ti.UPF
     MD5 check sum: 8e4df49b7f0d34bbd5052bf3f5ea0213
     Pseudo is Ultrasoft, Zval = 12.0
     Generated by new atomic code, or converted to UPF format
     Using radial grid of  851 points,  6 beta functions with: 
                l(1) =   0
                l(2) =   0
                l(3) =   1
                l(4) =   1
                l(5) =   2
                l(6) =   2
     Q(r) pseudized with  8 coefficients,  rinner =    1.000   1.000   1.000
                                                       1.000   1.000

     PseudoPot. # 5 for N  read from file:
     /storage/coda1/p-amedford6/0/shared/rich_project_chbe-medford/medford-share/data/pseudos_module/espresso/nninc/pbe/van/N.UPF
     MD5 check sum: 90d10febe142ad51ac9d5be1deb811c4
     Pseudo is Ultrasoft, Zval =  5.0
     Generated by new atomic code, or converted to UPF format
     Using radial grid of  729 points,  4 beta functions with: 
                l(1) =   0
                l(2) =   0
                l(3) =   1
                l(4) =   1
     Q(r) pseudized with  8 coefficients,  rinner =    0.800   0.800   0.800


     atomic species   valence    mass     pseudopotential
        C1             4.00    12.01100     C ( 1.00)
        H1             1.00     1.00800     H ( 1.00)
        O1             6.00    15.99900     O ( 1.00)
        Ti1           12.00    47.86700     Ti( 1.00)
        N1             5.00    14.00700     N ( 1.00)

     No symmetry found



   Cartesian axes

     site n.     atom                  positions (alat units)
         1           C1  tau(   1) = (   5.6818245   3.0934261  18.8613826  )
         2           H1  tau(   2) = (   0.9295697   3.0331078  18.1055300  )
         3           H1  tau(   3) = (   5.3049293   4.0639705  19.1352297  )
         4           O1  tau(   4) = (   3.2904802   0.0005063   4.7018136  )
         5           O1  tau(   5) = (   3.2900926   2.9813045   4.7018136  )
         6           O1  tau(   6) = (   1.3043587   1.4918075   6.0039043  )
         7           O1  tau(   7) = (   1.3039711   4.4726057   6.0039043  )
         8           O1  tau(   8) = (   5.2767064   1.4903225   6.0039473  )
         9           O1  tau(   9) = (   5.2763189   4.4711207   6.0039473  )
        10           O1  tau(  10) = (   3.2906025   0.0005020   7.3038282  )
        11           O1  tau(  11) = (   3.2902150   2.9813002   7.3038282  )
        12           O1  tau(  12) = (   0.0006271   0.0005054   7.9858123  )
        13           O1  tau(  13) = (   0.0002396   2.9813036   7.9858123  )
        14           O1  tau(  14) = (   4.5942328   1.4918067   9.2879030  )
        15           O1  tau(  15) = (   4.5938453   4.4726049   9.2879030  )
        16           O1  tau(  16) = (   1.9868534   1.4903216   9.2879459  )
        17           O1  tau(  17) = (   1.9864658   4.4711199   9.2879459  )
        18           O1  tau(  18) = (   6.5737290   0.0025997  10.6073112  )
        19           O1  tau(  19) = (   6.5745157   2.9846488  10.6292520  )
        20           O1  tau(  20) = (   3.2733922   2.9888808  11.3669225  )
        21           O1  tau(  21) = (   3.2734535   0.0083669  11.3733985  )
        22           O1  tau(  22) = (   1.2686495   4.4776606  12.6533150  )
        23           O1  tau(  23) = (   1.2691242   1.4995788  12.6525255  )
        24           O1  tau(  24) = (   5.2697113   4.4789153  12.6558726  )
        25           O1  tau(  25) = (   5.2698035   1.4991558  12.6558074  )
        26           O1  tau(  26) = (   3.2614338   2.9920807  13.9552461  )
        27           O1  tau(  27) = (   3.2541646   0.0113981  14.0020514  )
        28           O1  tau(  28) = (   6.5688946   0.0096870  14.6775192  )
        29           O1  tau(  29) = (   6.5667413   2.9928499  14.8718366  )
        30           O1  tau(  30) = (   4.5340645   4.4751187  16.1466513  )
        31           O1  tau(  31) = (   4.5349815   1.5188077  16.1513287  )
        32           O1  tau(  32) = (   2.0116004   1.5352794  16.1924295  )
        33           O1  tau(  33) = (   2.0125852   4.4566501  16.1924965  )
        34           O1  tau(  34) = (   6.5583959   0.0051910  17.1951124  )
        35           O1  tau(  35) = (   0.0128280   2.9917589  17.7791131  )
        36           Ti1 tau(  36) = (   0.0004258   2.9801865   6.0000000  )
        37           Ti1 tau(  37) = (   0.0000382   5.9609847   6.0000000  )
        38           Ti1 tau(  38) = (   3.2906075   1.4906267   6.0002472  )
        39           Ti1 tau(  39) = (   3.2902200   4.4714249   6.0002472  )
        40           Ti1 tau(  40) = (   3.3204229   0.0006979   9.1540291  )
        41           Ti1 tau(  41) = (   3.3226256   2.9815539   9.1563990  )
        42           Ti1 tau(  42) = (   0.0414996   4.4578595   9.2720048  )
        43           Ti1 tau(  43) = (   0.0419130   1.4910583   9.2667342  )
        44           Ti1 tau(  44) = (   6.5463313   0.0151476  12.4833176  )
        45           Ti1 tau(  45) = (   3.2510826   4.4792010  12.5152252  )
        46           Ti1 tau(  46) = (   3.2519543   1.5009035  12.5151888  )
        47           Ti1 tau(  47) = (   6.5510796   2.9946678  12.5453677  )
        48           Ti1 tau(  48) = (   3.2768179   2.9983465  15.7429562  )
        49           Ti1 tau(  49) = (   3.2517467   0.0179395  15.7976682  )
        50           Ti1 tau(  50) = (   6.5407926   4.5826425  15.9111250  )
        51           Ti1 tau(  51) = (   6.5448107   1.3670631  15.9596882  )
        52           N1  tau(  52) = (   4.6962475   1.0170953  19.6889386  )
        53           N1  tau(  53) = (   5.1479752   2.0001232  19.3034520  )

     number of k points=    10  Fermi-Dirac smearing, width (Ry)=  0.0073
                       cart. coord. in units 2pi/alat
        k(    1) = (   0.0000000   0.0000000   0.0000000), wk =   0.1250000
        k(    2) = (   0.0000000   0.0419351   0.0000000), wk =   0.2500000
        k(    3) = (   0.0000000  -0.0838702   0.0000000), wk =   0.1250000
        k(    4) = (   0.0379955   0.0000049   0.0000000), wk =   0.2500000
        k(    5) = (   0.0379955   0.0419400   0.0000000), wk =   0.2500000
        k(    6) = (   0.0379955  -0.0838652   0.0000000), wk =   0.2500000
        k(    7) = (   0.0379955  -0.0419301   0.0000000), wk =   0.2500000
        k(    8) = (  -0.0759910  -0.0000099   0.0000000), wk =   0.1250000
        k(    9) = (  -0.0759910   0.0419252   0.0000000), wk =   0.2500000
        k(   10) = (  -0.0759910  -0.0838800   0.0000000), wk =   0.1250000

     Dense  grid:   566857 G-vectors     FFT dimensions: (  72,  64, 270)

     Smooth grid:   143421 G-vectors     FFT dimensions: (  45,  40, 180)

     Estimated max dynamical RAM per process >     367.10 MB

     Estimated total dynamical RAM >       3.58 GB
     Cannot read rho : file not found

     Initial potential from superposition of free atoms

     starting charge  383.99917, renormalised to  400.00000

     negative rho (up, down):  1.646E-02 0.000E+00


     %%%%%%%%%%%%%%%%%%%%%%%%%%%%%%%%%%%%%%%%%%%%%%%%%%%%%%%%%%%%%%%%%%%%%%%%
     %                                                                      %
     % You are using vdW-DF, which was implemented by the Thonhauser group. %
     % Please cite the following two papers that made this development      %
     % possible and the two reviews that describe the various versions:     %
     %                                                                      %
     %   T. Thonhauser et al., PRL 115, 136402 (2015).                      %
     %   T. Thonhauser et al., PRB 76, 125112 (2007).                       %
     %   K. Berland et al., Rep. Prog. Phys. 78, 066501 (2015).             %
     %   D.C. Langreth et al., J. Phys.: Condens. Matter 21, 084203 (2009). %
     %                                                                      %
     %                                                                      %
     % If you are calculating the stress with vdW-DF, please also cite:     %
     %                                                                      %
     %   R. Sabatini et al., J. Phys.: Condens. Matter 24, 424209 (2012).   %
     %                                                                      %
     %%%%%%%%%%%%%%%%%%%%%%%%%%%%%%%%%%%%%%%%%%%%%%%%%%%%%%%%%%%%%%%%%%%%%%%%


 
     Adding external electric field

     Computed dipole along edir(3) : 
        Dipole              -12.5139 Ry au,        -31.8072 Debye
        Dipole field         -0.0236 Ry au, 
 
        Potential amp.        2.1891 Ry
        Total length         46.3494 bohr
 
     Starting wfcs are  302 atomic wfcs
  @ DRIVER MODE: Message from server: STATUS
  @ DRIVER MODE: Message from server: POSDATA
  @ DRIVER MODE: Reading and sharing cell 
  @ DRIVER MODE: Reading and sharing positions 
  @ DRIVER MODE: Received positions 

     total cpu time spent up to now is       11.3 secs

     Self-consistent Calculation

     iteration #  1     ecut=    29.40 Ry     beta= 0.05
     Davidson diagonalization with overlap
     c_bands:  3 eigenvalues not converged
     c_bands:  1 eigenvalues not converged
     c_bands:  4 eigenvalues not converged
     c_bands:  3 eigenvalues not converged
     c_bands:  5 eigenvalues not converged
     c_bands:  5 eigenvalues not converged
     c_bands:  1 eigenvalues not converged
     c_bands:  2 eigenvalues not converged
     c_bands:  1 eigenvalues not converged
     ethr =  1.00E-05,  avg # of iterations = 20.9

     negative rho (up, down):  1.014E-02 0.000E+00
 
     Adding external electric field

     Computed dipole along edir(3) : 
        Dipole               51.8273 Ry au,        131.7319 Debye
        Dipole field          0.0978 Ry au, 
 
        Potential amp.       -9.0664 Ry
        Total length         46.3494 bohr
 

     total cpu time spent up to now is       53.7 secs

     total energy              =   -2397.08946965 Ry
     estimated scf accuracy    <    6493.87824418 Ry

     iteration #  2     ecut=    29.40 Ry     beta= 0.05
     Davidson diagonalization with overlap
     ethr =  1.00E-02,  avg # of iterations = 24.1

     negative rho (up, down):  9.504E-04 0.000E+00
 
     Adding external electric field

     Computed dipole along edir(3) : 
        Dipole               -0.7961 Ry au,         -2.0234 Debye
        Dipole field         -0.0015 Ry au, 
 
        Potential amp.        0.1393 Ry
        Total length         46.3494 bohr
 

     total cpu time spent up to now is      133.7 secs

     total energy              =   -2458.26895981 Ry
     estimated scf accuracy    <   71354.76042657 Ry

     iteration #  3     ecut=    29.40 Ry     beta= 0.05
     Davidson diagonalization with overlap
     c_bands:  1 eigenvalues not converged
     ethr =  1.00E-02,  avg # of iterations = 18.0

     negative rho (up, down):  1.008E-03 0.000E+00
 
     Adding external electric field

     Computed dipole along edir(3) : 
        Dipole               -3.4566 Ry au,         -8.7858 Debye
        Dipole field         -0.0065 Ry au, 
 
        Potential amp.        0.6047 Ry
        Total length         46.3494 bohr
 

     total cpu time spent up to now is      183.7 secs

     total energy              =   -2963.57736979 Ry
     estimated scf accuracy    <    5076.87569125 Ry

     iteration #  4     ecut=    29.40 Ry     beta= 0.05
     Davidson diagonalization with overlap
     ethr =  1.00E-02,  avg # of iterations = 11.5

     negative rho (up, down):  1.049E-03 0.000E+00
 
     Adding external electric field

     Computed dipole along edir(3) : 
        Dipole               -5.4864 Ry au,        -13.9450 Debye
        Dipole field         -0.0104 Ry au, 
 
        Potential amp.        0.9598 Ry
        Total length         46.3494 bohr
 

     total cpu time spent up to now is      202.3 secs

     total energy              =   -2954.48074762 Ry
     estimated scf accuracy    <    2104.07796326 Ry

     iteration #  5     ecut=    29.40 Ry     beta= 0.05
     Davidson diagonalization with overlap
     c_bands:  1 eigenvalues not converged
     ethr =  1.00E-02,  avg # of iterations = 13.5

     negative rho (up, down):  1.088E-03 0.000E+00
 
     Adding external electric field

     Computed dipole along edir(3) : 
        Dipole               -5.8240 Ry au,        -14.8031 Debye
        Dipole field         -0.0110 Ry au, 
 
        Potential amp.        1.0188 Ry
        Total length         46.3494 bohr
 

     total cpu time spent up to now is      219.9 secs

     total energy              =   -2963.41894248 Ry
     estimated scf accuracy    <     426.27509692 Ry

     iteration #  6     ecut=    29.40 Ry     beta= 0.05
     Davidson diagonalization with overlap
     ethr =  1.00E-02,  avg # of iterations =  4.7

     negative rho (up, down):  1.095E-03 0.000E+00
 
     Adding external electric field

     Computed dipole along edir(3) : 
        Dipole               -5.6209 Ry au,        -14.2868 Debye
        Dipole field         -0.0106 Ry au, 
 
        Potential amp.        0.9833 Ry
        Total length         46.3494 bohr
 

     total cpu time spent up to now is      232.0 secs

     total energy              =   -2969.05153297 Ry
     estimated scf accuracy    <     100.87439825 Ry

     iteration #  7     ecut=    29.40 Ry     beta= 0.05
     Davidson diagonalization with overlap
     ethr =  1.00E-02,  avg # of iterations =  2.2

     negative rho (up, down):  1.171E-03 0.000E+00
 
     Adding external electric field

     Computed dipole along edir(3) : 
        Dipole               -4.5747 Ry au,        -11.6278 Debye
        Dipole field         -0.0086 Ry au, 
 
        Potential amp.        0.8003 Ry
        Total length         46.3494 bohr
 

     total cpu time spent up to now is      242.3 secs

     total energy              =   -2968.11337512 Ry
     estimated scf accuracy    <      93.32231897 Ry

     iteration #  8     ecut=    29.40 Ry     beta= 0.05
     Davidson diagonalization with overlap
     ethr =  1.00E-02,  avg # of iterations =  1.4

     negative rho (up, down):  1.371E-03 0.000E+00
 
     Adding external electric field

     Computed dipole along edir(3) : 
        Dipole               -3.0395 Ry au,         -7.7256 Debye
        Dipole field         -0.0057 Ry au, 
 
        Potential amp.        0.5317 Ry
        Total length         46.3494 bohr
 

     total cpu time spent up to now is      252.2 secs

     total energy              =   -2966.21117773 Ry
     estimated scf accuracy    <      80.27840657 Ry

     iteration #  9     ecut=    29.40 Ry     beta= 0.05
     Davidson diagonalization with overlap
     ethr =  1.00E-02,  avg # of iterations =  1.8

     negative rho (up, down):  1.540E-03 0.000E+00
 
     Adding external electric field

     Computed dipole along edir(3) : 
        Dipole               -2.5384 Ry au,         -6.4520 Debye
        Dipole field         -0.0048 Ry au, 
 
        Potential amp.        0.4441 Ry
        Total length         46.3494 bohr
 

     total cpu time spent up to now is      262.3 secs

     total energy              =   -2965.89611137 Ry
     estimated scf accuracy    <      70.68963106 Ry

     iteration # 10     ecut=    29.40 Ry     beta= 0.05
     Davidson diagonalization with overlap
     ethr =  1.00E-02,  avg # of iterations =  1.7

     negative rho (up, down):  1.828E-03 0.000E+00
 
     Adding external electric field

     Computed dipole along edir(3) : 
        Dipole               -2.2573 Ry au,         -5.7375 Debye
        Dipole field         -0.0043 Ry au, 
 
        Potential amp.        0.3949 Ry
        Total length         46.3494 bohr
 

     total cpu time spent up to now is      272.4 secs

     total energy              =   -2964.81440112 Ry
     estimated scf accuracy    <      56.55220160 Ry

     iteration # 11     ecut=    29.40 Ry     beta= 0.05
     Davidson diagonalization with overlap
     ethr =  1.00E-02,  avg # of iterations =  5.7

     negative rho (up, down):  1.747E-03 0.000E+00
 
     Adding external electric field

     Computed dipole along edir(3) : 
        Dipole               -2.4669 Ry au,         -6.2701 Debye
        Dipole field         -0.0047 Ry au, 
 
        Potential amp.        0.4315 Ry
        Total length         46.3494 bohr
 

     total cpu time spent up to now is      285.2 secs

     total energy              =   -2970.35656162 Ry
     estimated scf accuracy    <       7.60004304 Ry

     iteration # 12     ecut=    29.40 Ry     beta= 0.05
     Davidson diagonalization with overlap
     c_bands:  1 eigenvalues not converged
     ethr =  1.90E-03,  avg # of iterations = 15.0

     negative rho (up, down):  1.807E-03 0.000E+00
 
     Adding external electric field

     Computed dipole along edir(3) : 
        Dipole               -2.3994 Ry au,         -6.0987 Debye
        Dipole field         -0.0045 Ry au, 
 
        Potential amp.        0.4197 Ry
        Total length         46.3494 bohr
 

     total cpu time spent up to now is      304.1 secs

     total energy              =   -2973.65319322 Ry
     estimated scf accuracy    <     309.43462210 Ry

     iteration # 13     ecut=    29.40 Ry     beta= 0.05
     Davidson diagonalization with overlap
     ethr =  1.90E-03,  avg # of iterations =  2.2

     negative rho (up, down):  1.712E-03 0.000E+00
 
     Adding external electric field

     Computed dipole along edir(3) : 
        Dipole               -2.6777 Ry au,         -6.8060 Debye
        Dipole field         -0.0051 Ry au, 
 
        Potential amp.        0.4684 Ry
        Total length         46.3494 bohr
 

     total cpu time spent up to now is      314.6 secs

     total energy              =   -2971.86890742 Ry
     estimated scf accuracy    <     411.49908388 Ry

     iteration # 14     ecut=    29.40 Ry     beta= 0.05
     Davidson diagonalization with overlap
     ethr =  1.90E-03,  avg # of iterations =  1.6

     negative rho (up, down):  1.693E-03 0.000E+00
 
     Adding external electric field

     Computed dipole along edir(3) : 
        Dipole               -2.8674 Ry au,         -7.2883 Debye
        Dipole field         -0.0054 Ry au, 
 
        Potential amp.        0.5016 Ry
        Total length         46.3494 bohr
 

     total cpu time spent up to now is      324.6 secs

     total energy              =   -2971.98459729 Ry
     estimated scf accuracy    <     201.64134538 Ry

     iteration # 15     ecut=    29.40 Ry     beta= 0.05
     Davidson diagonalization with overlap
     ethr =  1.90E-03,  avg # of iterations =  5.0

     negative rho (up, down):  1.718E-03 0.000E+00
 
     Adding external electric field

     Computed dipole along edir(3) : 
        Dipole               -2.8896 Ry au,         -7.3446 Debye
        Dipole field         -0.0055 Ry au, 
 
        Potential amp.        0.5055 Ry
        Total length         46.3494 bohr
 

     total cpu time spent up to now is      336.5 secs

     total energy              =   -2972.17070078 Ry
     estimated scf accuracy    <     201.63407368 Ry

     iteration # 16     ecut=    29.40 Ry     beta= 0.05
     Davidson diagonalization with overlap
     ethr =  1.90E-03,  avg # of iterations =  1.9

     negative rho (up, down):  1.745E-03 0.000E+00
 
     Adding external electric field

     Computed dipole along edir(3) : 
        Dipole               -2.6509 Ry au,         -6.7379 Debye
        Dipole field         -0.0050 Ry au, 
 
        Potential amp.        0.4637 Ry
        Total length         46.3494 bohr
 

     total cpu time spent up to now is      346.6 secs

     total energy              =   -2971.94344494 Ry
     estimated scf accuracy    <     242.90482151 Ry

     iteration # 17     ecut=    29.40 Ry     beta= 0.05
     Davidson diagonalization with overlap
     ethr =  1.90E-03,  avg # of iterations =  1.1

     negative rho (up, down):  1.914E-03 0.000E+00
 
     Adding external electric field

     Computed dipole along edir(3) : 
        Dipole               -2.7258 Ry au,         -6.9284 Debye
        Dipole field         -0.0051 Ry au, 
 
        Potential amp.        0.4768 Ry
        Total length         46.3494 bohr
 

     total cpu time spent up to now is      356.4 secs

     total energy              =   -2973.66003960 Ry
     estimated scf accuracy    <     209.11688382 Ry

     iteration # 18     ecut=    29.40 Ry     beta= 0.05
     Davidson diagonalization with overlap
     ethr =  1.90E-03,  avg # of iterations =  1.9

     negative rho (up, down):  1.976E-03 0.000E+00
 
     Adding external electric field

     Computed dipole along edir(3) : 
        Dipole               -2.7763 Ry au,         -7.0567 Debye
        Dipole field         -0.0052 Ry au, 
 
        Potential amp.        0.4857 Ry
        Total length         46.3494 bohr
 

     total cpu time spent up to now is      366.5 secs

     total energy              =   -2974.35728945 Ry
     estimated scf accuracy    <     544.52887254 Ry

     iteration # 19     ecut=    29.40 Ry     beta= 0.05
     Davidson diagonalization with overlap
     ethr =  1.90E-03,  avg # of iterations =  1.1

     negative rho (up, down):  2.187E-03 0.000E+00
 
     Adding external electric field

     Computed dipole along edir(3) : 
        Dipole               -2.9123 Ry au,         -7.4022 Debye
        Dipole field         -0.0055 Ry au, 
 
        Potential amp.        0.5095 Ry
        Total length         46.3494 bohr
 

     total cpu time spent up to now is      376.4 secs

     total energy              =   -2976.00995726 Ry
     estimated scf accuracy    <     574.76775120 Ry

     iteration # 20     ecut=    29.40 Ry     beta= 0.05
     Davidson diagonalization with overlap
     ethr =  1.90E-03,  avg # of iterations =  1.1

     negative rho (up, down):  5.631E-03 0.000E+00
 
     Adding external electric field

     Computed dipole along edir(3) : 
        Dipole               -3.2321 Ry au,         -8.2151 Debye
        Dipole field         -0.0061 Ry au, 
 
        Potential amp.        0.5654 Ry
        Total length         46.3494 bohr
 

     total cpu time spent up to now is      386.2 secs

     total energy              =   -2972.26397867 Ry
     estimated scf accuracy    <     636.58018569 Ry

     iteration # 21     ecut=    29.40 Ry     beta= 0.05
     Davidson diagonalization with overlap
     ethr =  1.90E-03,  avg # of iterations =  7.3

     negative rho (up, down):  9.248E-03 0.000E+00
 
     Adding external electric field

     Computed dipole along edir(3) : 
        Dipole               -3.1414 Ry au,         -7.9847 Debye
        Dipole field         -0.0059 Ry au, 
 
        Potential amp.        0.5495 Ry
        Total length         46.3494 bohr
 

     total cpu time spent up to now is      399.3 secs

     total energy              =   -2972.21155268 Ry
     estimated scf accuracy    <     330.81059005 Ry

     iteration # 22     ecut=    29.40 Ry     beta= 0.05
     Davidson diagonalization with overlap
     ethr =  1.90E-03,  avg # of iterations =  8.8

     negative rho (up, down):  5.402E-03 0.000E+00
 
     Adding external electric field

     Computed dipole along edir(3) : 
        Dipole               -2.6389 Ry au,         -6.7075 Debye
        Dipole field         -0.0050 Ry au, 
 
        Potential amp.        0.4616 Ry
        Total length         46.3494 bohr
 

     total cpu time spent up to now is      411.9 secs

     total energy              =   -2971.88737827 Ry
     estimated scf accuracy    <     199.18243198 Ry

     iteration # 23     ecut=    29.40 Ry     beta= 0.05
     Davidson diagonalization with overlap
     ethr =  1.90E-03,  avg # of iterations =  2.2

     negative rho (up, down):  3.404E-03 0.000E+00
 
     Adding external electric field

     Computed dipole along edir(3) : 
        Dipole               -2.5545 Ry au,         -6.4929 Debye
        Dipole field         -0.0048 Ry au, 
 
        Potential amp.        0.4469 Ry
        Total length         46.3494 bohr
 

     total cpu time spent up to now is      422.2 secs

     total energy              =   -2970.95243473 Ry
     estimated scf accuracy    <     170.52126493 Ry

     iteration # 24     ecut=    29.40 Ry     beta= 0.05
     Davidson diagonalization with overlap
     ethr =  1.90E-03,  avg # of iterations =  1.1

     negative rho (up, down):  3.581E-03 0.000E+00
 
     Adding external electric field

     Computed dipole along edir(3) : 
        Dipole               -2.6111 Ry au,         -6.6368 Debye
        Dipole field         -0.0049 Ry au, 
 
        Potential amp.        0.4568 Ry
        Total length         46.3494 bohr
 

     total cpu time spent up to now is      432.1 secs

     total energy              =   -2971.03022297 Ry
     estimated scf accuracy    <      88.33881922 Ry

     iteration # 25     ecut=    29.40 Ry     beta= 0.05
     Davidson diagonalization with overlap
     ethr =  1.90E-03,  avg # of iterations =  1.6

     negative rho (up, down):  3.109E-03 0.000E+00
 
     Adding external electric field

     Computed dipole along edir(3) : 
        Dipole               -2.5570 Ry au,         -6.4992 Debye
        Dipole field         -0.0048 Ry au, 
 
        Potential amp.        0.4473 Ry
        Total length         46.3494 bohr
 

     total cpu time spent up to now is      442.1 secs

     total energy              =   -2970.00576187 Ry
     estimated scf accuracy    <      96.47690361 Ry

     iteration # 26     ecut=    29.40 Ry     beta= 0.05
     Davidson diagonalization with overlap
     ethr =  1.90E-03,  avg # of iterations =  2.3

     negative rho (up, down):  2.965E-03 0.000E+00
 
     Adding external electric field

     Computed dipole along edir(3) : 
        Dipole               -2.2076 Ry au,         -5.6111 Debye
        Dipole field         -0.0042 Ry au, 
 
        Potential amp.        0.3862 Ry
        Total length         46.3494 bohr
 

     total cpu time spent up to now is      452.4 secs

     total energy              =   -2969.85455200 Ry
     estimated scf accuracy    <      34.06936161 Ry

     iteration # 27     ecut=    29.40 Ry     beta= 0.05
     Davidson diagonalization with overlap
     c_bands:  2 eigenvalues not converged
     ethr =  1.90E-03,  avg # of iterations =  8.4

     negative rho (up, down):  2.884E-03 0.000E+00
 
     Adding external electric field

     Computed dipole along edir(3) : 
        Dipole               -1.8054 Ry au,         -4.5888 Debye
        Dipole field         -0.0034 Ry au, 
 
        Potential amp.        0.3158 Ry
        Total length         46.3494 bohr
 

     total cpu time spent up to now is      464.9 secs

     total energy              =   -2970.08503385 Ry
     estimated scf accuracy    <      14.09560156 Ry

     iteration # 28     ecut=    29.40 Ry     beta= 0.05
     Davidson diagonalization with overlap
     ethr =  1.90E-03,  avg # of iterations =  1.5

     negative rho (up, down):  2.880E-03 0.000E+00
 
     Adding external electric field

     Computed dipole along edir(3) : 
        Dipole               -1.2333 Ry au,         -3.1348 Debye
        Dipole field         -0.0023 Ry au, 
 
        Potential amp.        0.2158 Ry
        Total length         46.3494 bohr
 

     total cpu time spent up to now is      475.0 secs

     total energy              =   -2969.87744713 Ry
     estimated scf accuracy    <      12.15109791 Ry

     iteration # 29     ecut=    29.40 Ry     beta= 0.05
     Davidson diagonalization with overlap
     ethr =  1.90E-03,  avg # of iterations =  4.8

     negative rho (up, down):  2.797E-03 0.000E+00
 
     Adding external electric field

     Computed dipole along edir(3) : 
        Dipole               -1.2989 Ry au,         -3.3016 Debye
        Dipole field         -0.0025 Ry au, 
 
        Potential amp.        0.2272 Ry
        Total length         46.3494 bohr
 

     total cpu time spent up to now is      486.3 secs

     total energy              =   -2970.14072235 Ry
     estimated scf accuracy    <       3.86213446 Ry

     iteration # 30     ecut=    29.40 Ry     beta= 0.05
     Davidson diagonalization with overlap
     ethr =  9.66E-04,  avg # of iterations =  4.1

     negative rho (up, down):  2.721E-03 0.000E+00
 
     Adding external electric field

     Computed dipole along edir(3) : 
        Dipole               -1.4101 Ry au,         -3.5840 Debye
        Dipole field         -0.0027 Ry au, 
 
        Potential amp.        0.2467 Ry
        Total length         46.3494 bohr
 

     total cpu time spent up to now is      497.4 secs

     total energy              =   -2970.23690633 Ry
     estimated scf accuracy    <       2.93441986 Ry

     iteration # 31     ecut=    29.40 Ry     beta= 0.05
     Davidson diagonalization with overlap
     ethr =  7.34E-04,  avg # of iterations =  2.1

     negative rho (up, down):  2.720E-03 0.000E+00
 
     Adding external electric field

     Computed dipole along edir(3) : 
        Dipole               -0.7730 Ry au,         -1.9647 Debye
        Dipole field         -0.0015 Ry au, 
 
        Potential amp.        0.1352 Ry
        Total length         46.3494 bohr
 

     total cpu time spent up to now is      507.6 secs

     total energy              =   -2970.16219838 Ry
     estimated scf accuracy    <       2.79719801 Ry

     iteration # 32     ecut=    29.40 Ry     beta= 0.05
     Davidson diagonalization with overlap
     ethr =  6.99E-04,  avg # of iterations =  3.3

     negative rho (up, down):  2.813E-03 0.000E+00
 
     Adding external electric field

     Computed dipole along edir(3) : 
        Dipole                0.2124 Ry au,          0.5398 Debye
        Dipole field          0.0004 Ry au, 
 
        Potential amp.       -0.0372 Ry
        Total length         46.3494 bohr
 

     total cpu time spent up to now is      518.3 secs

     total energy              =   -2970.07813941 Ry
     estimated scf accuracy    <       2.11765347 Ry

     iteration # 33     ecut=    29.40 Ry     beta= 0.05
     Davidson diagonalization with overlap
     c_bands:  2 eigenvalues not converged
     c_bands:  5 eigenvalues not converged
     c_bands:  5 eigenvalues not converged
     c_bands:  5 eigenvalues not converged
     ethr =  5.29E-04,  avg # of iterations = 28.3

     negative rho (up, down):  2.778E-03 0.000E+00
 
     Adding external electric field

     Computed dipole along edir(3) : 
        Dipole                0.0851 Ry au,          0.2163 Debye
        Dipole field          0.0002 Ry au, 
 
        Potential amp.       -0.0149 Ry
        Total length         46.3494 bohr
 

     total cpu time spent up to now is      543.4 secs

     total energy              =   -2970.35426291 Ry
     estimated scf accuracy    <       5.70552648 Ry

     iteration # 34     ecut=    29.40 Ry     beta= 0.05
     Davidson diagonalization with overlap
     ethr =  5.29E-04,  avg # of iterations =  2.6

     negative rho (up, down):  2.743E-03 0.000E+00
 
     Adding external electric field

     Computed dipole along edir(3) : 
        Dipole                0.0591 Ry au,          0.1502 Debye
        Dipole field          0.0001 Ry au, 
 
        Potential amp.       -0.0103 Ry
        Total length         46.3494 bohr
 

     total cpu time spent up to now is      553.7 secs

     total energy              =   -2970.35040022 Ry
     estimated scf accuracy    <       5.51627775 Ry

     iteration # 35     ecut=    29.40 Ry     beta= 0.05
     Davidson diagonalization with overlap
     ethr =  5.29E-04,  avg # of iterations =  1.0

     negative rho (up, down):  2.966E-03 0.000E+00
 
     Adding external electric field

     Computed dipole along edir(3) : 
        Dipole                0.6938 Ry au,          1.7635 Debye
        Dipole field          0.0013 Ry au, 
 
        Potential amp.       -0.1214 Ry
        Total length         46.3494 bohr
 

     total cpu time spent up to now is      563.5 secs

     total energy              =   -2970.52265610 Ry
     estimated scf accuracy    <       5.61425885 Ry

     iteration # 36     ecut=    29.40 Ry     beta= 0.05
     Davidson diagonalization with overlap
     ethr =  5.29E-04,  avg # of iterations =  1.5

     negative rho (up, down):  3.180E-03 0.000E+00
 
     Adding external electric field

     Computed dipole along edir(3) : 
        Dipole                1.2073 Ry au,          3.0685 Debye
        Dipole field          0.0023 Ry au, 
 
        Potential amp.       -0.2112 Ry
        Total length         46.3494 bohr
 

     total cpu time spent up to now is      573.7 secs

     total energy              =   -2970.72130449 Ry
     estimated scf accuracy    <       8.28610645 Ry

     iteration # 37     ecut=    29.40 Ry     beta= 0.05
     Davidson diagonalization with overlap
     c_bands:  1 eigenvalues not converged
     ethr =  5.29E-04,  avg # of iterations =  9.7

     negative rho (up, down):  3.147E-03 0.000E+00
 
     Adding external electric field

     Computed dipole along edir(3) : 
        Dipole                1.2766 Ry au,          3.2448 Debye
        Dipole field          0.0024 Ry au, 
 
        Potential amp.       -0.2233 Ry
        Total length         46.3494 bohr
 

     total cpu time spent up to now is      586.4 secs

     total energy              =   -2970.80270752 Ry
     estimated scf accuracy    <      19.54831091 Ry

     iteration # 38     ecut=    29.40 Ry     beta= 0.05
     Davidson diagonalization with overlap
     ethr =  5.29E-04,  avg # of iterations =  2.4

     negative rho (up, down):  2.863E-03 0.000E+00
 
     Adding external electric field

     Computed dipole along edir(3) : 
        Dipole                0.1292 Ry au,          0.3284 Debye
        Dipole field          0.0002 Ry au, 
 
        Potential amp.       -0.0226 Ry
        Total length         46.3494 bohr
 

     total cpu time spent up to now is      596.7 secs

     total energy              =   -2970.09660599 Ry
     estimated scf accuracy    <      26.88401340 Ry

     iteration # 39     ecut=    29.40 Ry     beta= 0.05
     Davidson diagonalization with overlap
     ethr =  5.29E-04,  avg # of iterations =  1.5

     negative rho (up, down):  2.853E-03 0.000E+00
 
     Adding external electric field

     Computed dipole along edir(3) : 
        Dipole               -0.7599 Ry au,         -1.9315 Debye
        Dipole field         -0.0014 Ry au, 
 
        Potential amp.        0.1329 Ry
        Total length         46.3494 bohr
 

     total cpu time spent up to now is      606.8 secs

     total energy              =   -2970.09248544 Ry
     estimated scf accuracy    <       6.31845372 Ry

     iteration # 40     ecut=    29.40 Ry     beta= 0.05
     Davidson diagonalization with overlap
     ethr =  5.29E-04,  avg # of iterations =  6.1

     negative rho (up, down):  3.384E-03 0.000E+00
 
     Adding external electric field

     Computed dipole along edir(3) : 
        Dipole                0.6178 Ry au,          1.5702 Debye
        Dipole field          0.0012 Ry au, 
 
        Potential amp.       -0.1081 Ry
        Total length         46.3494 bohr
 

     total cpu time spent up to now is      619.1 secs

     total energy              =   -2970.32091846 Ry
     estimated scf accuracy    <       2.39664290 Ry

     iteration # 41     ecut=    29.40 Ry     beta= 0.05
     Davidson diagonalization with overlap
     ethr =  5.29E-04,  avg # of iterations =  4.7

     negative rho (up, down):  2.862E-03 0.000E+00
 
     Adding external electric field

     Computed dipole along edir(3) : 
        Dipole               -0.5670 Ry au,         -1.4411 Debye
        Dipole field         -0.0011 Ry au, 
 
        Potential amp.        0.0992 Ry
        Total length         46.3494 bohr
 

     total cpu time spent up to now is      630.5 secs

     total energy              =   -2970.17784905 Ry
     estimated scf accuracy    <       6.21297790 Ry

     iteration # 42     ecut=    29.40 Ry     beta= 0.05
     Davidson diagonalization with overlap
     ethr =  5.29E-04,  avg # of iterations =  1.2

     negative rho (up, down):  3.061E-03 0.000E+00
 
     Adding external electric field

     Computed dipole along edir(3) : 
        Dipole               -2.1234 Ry au,         -5.3972 Debye
        Dipole field         -0.0040 Ry au, 
 
        Potential amp.        0.3715 Ry
        Total length         46.3494 bohr
 

     total cpu time spent up to now is      640.4 secs

     total energy              =   -2970.07449298 Ry
     estimated scf accuracy    <       2.53883210 Ry

     iteration # 43     ecut=    29.40 Ry     beta= 0.05
     Davidson diagonalization with overlap
     c_bands:  1 eigenvalues not converged
     c_bands:  3 eigenvalues not converged
     c_bands:  2 eigenvalues not converged
     c_bands:  2 eigenvalues not converged
     c_bands:  1 eigenvalues not converged
     c_bands:  1 eigenvalues not converged
     c_bands:  1 eigenvalues not converged
     ethr =  5.29E-04,  avg # of iterations = 18.8

     negative rho (up, down):  4.135E-03 0.000E+00
 
     Adding external electric field

     Computed dipole along edir(3) : 
        Dipole               -1.7124 Ry au,         -4.3526 Debye
        Dipole field         -0.0032 Ry au, 
 
        Potential amp.        0.2996 Ry
        Total length         46.3494 bohr
 

     total cpu time spent up to now is      658.3 secs

     total energy              =   -2970.35502955 Ry
     estimated scf accuracy    <       2.31429995 Ry

     iteration # 44     ecut=    29.40 Ry     beta= 0.05
     Davidson diagonalization with overlap
     c_bands:  1 eigenvalues not converged
     c_bands:  1 eigenvalues not converged
     c_bands:  1 eigenvalues not converged
     ethr =  5.29E-04,  avg # of iterations = 15.1

     negative rho (up, down):  3.207E-03 0.000E+00
 
     Adding external electric field

     Computed dipole along edir(3) : 
        Dipole               -1.5605 Ry au,         -3.9664 Debye
        Dipole field         -0.0029 Ry au, 
 
        Potential amp.        0.2730 Ry
        Total length         46.3494 bohr
 

     total cpu time spent up to now is      673.5 secs

     total energy              =   -2970.26603334 Ry
     estimated scf accuracy    <       4.28524910 Ry

     iteration # 45     ecut=    29.40 Ry     beta= 0.05
     Davidson diagonalization with overlap
     ethr =  5.29E-04,  avg # of iterations =  5.6

     negative rho (up, down):  3.549E-03 0.000E+00
 
     Adding external electric field

     Computed dipole along edir(3) : 
        Dipole               -0.9284 Ry au,         -2.3597 Debye
        Dipole field         -0.0018 Ry au, 
 
        Potential amp.        0.1624 Ry
        Total length         46.3494 bohr
 

     total cpu time spent up to now is      684.9 secs

     total energy              =   -2970.24971183 Ry
     estimated scf accuracy    <       2.78953998 Ry

     iteration # 46     ecut=    29.40 Ry     beta= 0.05
     Davidson diagonalization with overlap
     ethr =  5.29E-04,  avg # of iterations = 10.5

     negative rho (up, down):  3.749E-03 0.000E+00
 
     Adding external electric field

     Computed dipole along edir(3) : 
        Dipole               -0.8138 Ry au,         -2.0684 Debye
        Dipole field         -0.0015 Ry au, 
 
        Potential amp.        0.1424 Ry
        Total length         46.3494 bohr
 

     total cpu time spent up to now is      697.8 secs

     total energy              =   -2970.38454845 Ry
     estimated scf accuracy    <       4.25833074 Ry

     iteration # 47     ecut=    29.40 Ry     beta= 0.05
     Davidson diagonalization with overlap
     ethr =  5.29E-04,  avg # of iterations =  1.2

     negative rho (up, down):  2.769E-03 0.000E+00
 
     Adding external electric field

     Computed dipole along edir(3) : 
        Dipole               -1.3702 Ry au,         -3.4827 Debye
        Dipole field         -0.0026 Ry au, 
 
        Potential amp.        0.2397 Ry
        Total length         46.3494 bohr
 

     total cpu time spent up to now is      707.7 secs

     total energy              =   -2969.87556353 Ry
     estimated scf accuracy    <       4.82730672 Ry

     iteration # 48     ecut=    29.40 Ry     beta= 0.05
     Davidson diagonalization with overlap
     ethr =  5.29E-04,  avg # of iterations = 12.1

     negative rho (up, down):  3.204E-03 0.000E+00
 
     Adding external electric field

     Computed dipole along edir(3) : 
        Dipole                0.0455 Ry au,          0.1157 Debye
        Dipole field          0.0001 Ry au, 
 
        Potential amp.       -0.0080 Ry
        Total length         46.3494 bohr
 

     total cpu time spent up to now is      722.2 secs

     total energy              =   -2970.03297087 Ry
     estimated scf accuracy    <       1.53759632 Ry

     iteration # 49     ecut=    29.40 Ry     beta= 0.05
     Davidson diagonalization with overlap
     c_bands:  4 eigenvalues not converged
     c_bands:  2 eigenvalues not converged
     c_bands:  4 eigenvalues not converged
     c_bands:  2 eigenvalues not converged
     c_bands:  1 eigenvalues not converged
     c_bands:  5 eigenvalues not converged
     c_bands:  3 eigenvalues not converged
     ethr =  3.84E-04,  avg # of iterations = 19.0

     negative rho (up, down):  3.258E-03 0.000E+00
 
     Adding external electric field

     Computed dipole along edir(3) : 
        Dipole               -0.4008 Ry au,         -1.0188 Debye
        Dipole field         -0.0008 Ry au, 
 
        Potential amp.        0.0701 Ry
        Total length         46.3494 bohr
 

     total cpu time spent up to now is      739.2 secs

     total energy              =   -2970.13542875 Ry
     estimated scf accuracy    <       0.99027840 Ry

     iteration # 50     ecut=    29.40 Ry     beta= 0.05
     Davidson diagonalization with overlap
     ethr =  2.48E-04,  avg # of iterations =  3.6

     negative rho (up, down):  3.657E-03 0.000E+00
 
     Adding external electric field

     Computed dipole along edir(3) : 
        Dipole               -0.3864 Ry au,         -0.9822 Debye
        Dipole field         -0.0007 Ry au, 
 
        Potential amp.        0.0676 Ry
        Total length         46.3494 bohr
 

     total cpu time spent up to now is      750.2 secs

     total energy              =   -2970.14052669 Ry
     estimated scf accuracy    <       0.25738420 Ry

     iteration # 51     ecut=    29.40 Ry     beta= 0.05
     Davidson diagonalization with overlap
     c_bands:  2 eigenvalues not converged
     c_bands:  1 eigenvalues not converged
     c_bands:  4 eigenvalues not converged
     c_bands:  2 eigenvalues not converged
     c_bands:  3 eigenvalues not converged
     c_bands:  3 eigenvalues not converged
     c_bands:  2 eigenvalues not converged
     c_bands:  2 eigenvalues not converged
     ethr =  6.43E-05,  avg # of iterations = 19.8

     negative rho (up, down):  3.692E-03 0.000E+00
 
     Adding external electric field

     Computed dipole along edir(3) : 
        Dipole               -0.3477 Ry au,         -0.8837 Debye
        Dipole field         -0.0007 Ry au, 
 
        Potential amp.        0.0608 Ry
        Total length         46.3494 bohr
 

     total cpu time spent up to now is      772.1 secs

     total energy              =   -2970.20102373 Ry
     estimated scf accuracy    <       1.31224068 Ry

     iteration # 52     ecut=    29.40 Ry     beta= 0.05
     Davidson diagonalization with overlap
     ethr =  6.43E-05,  avg # of iterations =  2.6

     negative rho (up, down):  3.650E-03 0.000E+00
 
     Adding external electric field

     Computed dipole along edir(3) : 
        Dipole                0.1415 Ry au,          0.3595 Debye
        Dipole field          0.0003 Ry au, 
 
        Potential amp.       -0.0247 Ry
        Total length         46.3494 bohr
 

     total cpu time spent up to now is      782.5 secs

     total energy              =   -2970.09943105 Ry
     estimated scf accuracy    <       0.89815543 Ry

     iteration # 53     ecut=    29.40 Ry     beta= 0.05
     Davidson diagonalization with overlap
     c_bands:  1 eigenvalues not converged
     c_bands:  1 eigenvalues not converged
     c_bands:  1 eigenvalues not converged
     c_bands:  1 eigenvalues not converged
     c_bands:  1 eigenvalues not converged
     ethr =  6.43E-05,  avg # of iterations = 19.3

     negative rho (up, down):  3.651E-03 0.000E+00
 
     Adding external electric field

     Computed dipole along edir(3) : 
        Dipole                0.0852 Ry au,          0.2167 Debye
        Dipole field          0.0002 Ry au, 
 
        Potential amp.       -0.0149 Ry
        Total length         46.3494 bohr
 

     total cpu time spent up to now is      801.6 secs

     total energy              =   -2970.16761128 Ry
     estimated scf accuracy    <       0.88138007 Ry

     iteration # 54     ecut=    29.40 Ry     beta= 0.05
     Davidson diagonalization with overlap
     ethr =  6.43E-05,  avg # of iterations =  3.3

     negative rho (up, down):  3.904E-03 0.000E+00
 
     Adding external electric field

     Computed dipole along edir(3) : 
        Dipole               -0.0074 Ry au,         -0.0187 Debye
        Dipole field         -0.0000 Ry au, 
 
        Potential amp.        0.0013 Ry
        Total length         46.3494 bohr
 

     total cpu time spent up to now is      812.1 secs

     total energy              =   -2970.15241064 Ry
     estimated scf accuracy    <       0.61787380 Ry

     iteration # 55     ecut=    29.40 Ry     beta= 0.05
     Davidson diagonalization with overlap
     ethr =  6.43E-05,  avg # of iterations =  9.0

     negative rho (up, down):  5.206E-03 0.000E+00
 
     Adding external electric field

     Computed dipole along edir(3) : 
        Dipole                0.3575 Ry au,          0.9087 Debye
        Dipole field          0.0007 Ry au, 
 
        Potential amp.       -0.0625 Ry
        Total length         46.3494 bohr
 

     total cpu time spent up to now is      824.5 secs

     total energy              =   -2970.15395369 Ry
     estimated scf accuracy    <       0.12181626 Ry

     iteration # 56     ecut=    29.40 Ry     beta= 0.05
     Davidson diagonalization with overlap
     c_bands:  3 eigenvalues not converged
     c_bands:  1 eigenvalues not converged
     c_bands:  1 eigenvalues not converged
     ethr =  3.05E-05,  avg # of iterations = 15.9

     negative rho (up, down):  5.666E-03 0.000E+00
 
     Adding external electric field

     Computed dipole along edir(3) : 
        Dipole                0.3199 Ry au,          0.8131 Debye
        Dipole field          0.0006 Ry au, 
 
        Potential amp.       -0.0560 Ry
        Total length         46.3494 bohr
 

     total cpu time spent up to now is      840.7 secs

     total energy              =   -2970.16028617 Ry
     estimated scf accuracy    <       0.25171842 Ry

     iteration # 57     ecut=    29.40 Ry     beta= 0.05
     Davidson diagonalization with overlap
     c_bands:  1 eigenvalues not converged
     c_bands:  4 eigenvalues not converged
     c_bands:  2 eigenvalues not converged
     c_bands:  5 eigenvalues not converged
     c_bands:  1 eigenvalues not converged
     ethr =  3.05E-05,  avg # of iterations = 14.7

     negative rho (up, down):  5.379E-03 0.000E+00
 
     Adding external electric field

     Computed dipole along edir(3) : 
        Dipole                0.3193 Ry au,          0.8115 Debye
        Dipole field          0.0006 Ry au, 
 
        Potential amp.       -0.0558 Ry
        Total length         46.3494 bohr
 

     total cpu time spent up to now is      856.2 secs

     total energy              =   -2970.16665648 Ry
     estimated scf accuracy    <       0.23990817 Ry

     iteration # 58     ecut=    29.40 Ry     beta= 0.05
     Davidson diagonalization with overlap
     ethr =  3.05E-05,  avg # of iterations =  9.6

     negative rho (up, down):  5.983E-03 0.000E+00
 
     Adding external electric field

     Computed dipole along edir(3) : 
        Dipole                0.6666 Ry au,          1.6943 Debye
        Dipole field          0.0013 Ry au, 
 
        Potential amp.       -0.1166 Ry
        Total length         46.3494 bohr
 

     total cpu time spent up to now is      868.7 secs

     total energy              =   -2970.16366179 Ry
     estimated scf accuracy    <       0.45880558 Ry

     iteration # 59     ecut=    29.40 Ry     beta= 0.05
     Davidson diagonalization with overlap
     c_bands:  1 eigenvalues not converged
     c_bands:  1 eigenvalues not converged
     c_bands:  2 eigenvalues not converged
     ethr =  3.05E-05,  avg # of iterations = 16.2

     negative rho (up, down):  7.098E-03 0.000E+00
 
     Adding external electric field

     Computed dipole along edir(3) : 
        Dipole                0.8273 Ry au,          2.1028 Debye
        Dipole field          0.0016 Ry au, 
 
        Potential amp.       -0.1447 Ry
        Total length         46.3494 bohr
 

     total cpu time spent up to now is      884.2 secs

     total energy              =   -2970.14916865 Ry
     estimated scf accuracy    <       1.08872893 Ry

     iteration # 60     ecut=    29.40 Ry     beta= 0.05
     Davidson diagonalization with overlap
     c_bands:  1 eigenvalues not converged
     c_bands:  4 eigenvalues not converged
     c_bands:  2 eigenvalues not converged
     c_bands:  1 eigenvalues not converged
     c_bands:  3 eigenvalues not converged
     ethr =  3.05E-05,  avg # of iterations = 14.9

     negative rho (up, down):  7.086E-03 0.000E+00
 
     Adding external electric field

     Computed dipole along edir(3) : 
        Dipole                0.7463 Ry au,          1.8969 Debye
        Dipole field          0.0014 Ry au, 
 
        Potential amp.       -0.1306 Ry
        Total length         46.3494 bohr
 

     total cpu time spent up to now is      899.2 secs

     total energy              =   -2970.15992712 Ry
     estimated scf accuracy    <       0.08249269 Ry

     iteration # 61     ecut=    29.40 Ry     beta= 0.05
     Davidson diagonalization with overlap
     c_bands:  1 eigenvalues not converged
     c_bands:  1 eigenvalues not converged
     ethr =  2.06E-05,  avg # of iterations = 10.8

     negative rho (up, down):  7.677E-03 0.000E+00
 
     Adding external electric field

     Computed dipole along edir(3) : 
        Dipole                0.7876 Ry au,          2.0018 Debye
        Dipole field          0.0015 Ry au, 
 
        Potential amp.       -0.1378 Ry
        Total length         46.3494 bohr
 

     total cpu time spent up to now is      912.2 secs

     total energy              =   -2970.16354647 Ry
     estimated scf accuracy    <       0.01613386 Ry

     iteration # 62     ecut=    29.40 Ry     beta= 0.05
     Davidson diagonalization with overlap
     c_bands:  1 eigenvalues not converged
     c_bands:  2 eigenvalues not converged
     c_bands:  2 eigenvalues not converged
     c_bands:  3 eigenvalues not converged
     c_bands:  3 eigenvalues not converged
     c_bands:  1 eigenvalues not converged
     c_bands:  2 eigenvalues not converged
     c_bands:  2 eigenvalues not converged
     c_bands:  1 eigenvalues not converged
     c_bands:  1 eigenvalues not converged
     ethr =  4.03E-06,  avg # of iterations = 20.0

     negative rho (up, down):  9.829E-03 0.000E+00
 
     Adding external electric field

     Computed dipole along edir(3) : 
        Dipole                0.8917 Ry au,          2.2664 Debye
        Dipole field          0.0017 Ry au, 
 
        Potential amp.       -0.1560 Ry
        Total length         46.3494 bohr
 

     total cpu time spent up to now is      931.7 secs

     total energy              =   -2970.16305575 Ry
     estimated scf accuracy    <       0.03629399 Ry

     iteration # 63     ecut=    29.40 Ry     beta= 0.05
     Davidson diagonalization with overlap
     c_bands:  1 eigenvalues not converged
     c_bands:  1 eigenvalues not converged
     c_bands:  1 eigenvalues not converged
     ethr =  4.03E-06,  avg # of iterations = 17.5

     negative rho (up, down):  1.125E-02 0.000E+00
 
     Adding external electric field

     Computed dipole along edir(3) : 
        Dipole                0.8703 Ry au,          2.2120 Debye
        Dipole field          0.0016 Ry au, 
 
        Potential amp.       -0.1522 Ry
        Total length         46.3494 bohr
 

     total cpu time spent up to now is      948.1 secs

     total energy              =   -2970.16541655 Ry
     estimated scf accuracy    <       0.14559604 Ry

     iteration # 64     ecut=    29.40 Ry     beta= 0.05
     Davidson diagonalization with overlap
     ethr =  4.03E-06,  avg # of iterations =  3.7

     negative rho (up, down):  1.263E-02 0.000E+00
 
     Adding external electric field

     Computed dipole along edir(3) : 
        Dipole                0.8484 Ry au,          2.1564 Debye
        Dipole field          0.0016 Ry au, 
 
        Potential amp.       -0.1484 Ry
        Total length         46.3494 bohr
 

     total cpu time spent up to now is      959.2 secs

     total energy              =   -2970.16499899 Ry
     estimated scf accuracy    <       0.07613733 Ry

     iteration # 65     ecut=    29.40 Ry     beta= 0.05
     Davidson diagonalization with overlap
     c_bands:  1 eigenvalues not converged
     ethr =  4.03E-06,  avg # of iterations = 11.5

     negative rho (up, down):  1.280E-02 0.000E+00
 
     Adding external electric field

     Computed dipole along edir(3) : 
        Dipole                0.8487 Ry au,          2.1571 Debye
        Dipole field          0.0016 Ry au, 
 
        Potential amp.       -0.1485 Ry
        Total length         46.3494 bohr
 

     total cpu time spent up to now is      972.6 secs

     total energy              =   -2970.16517136 Ry
     estimated scf accuracy    <       0.03464861 Ry

     iteration # 66     ecut=    29.40 Ry     beta= 0.05
     Davidson diagonalization with overlap
     ethr =  4.03E-06,  avg # of iterations =  1.8

     negative rho (up, down):  1.261E-02 0.000E+00
 
     Adding external electric field

     Computed dipole along edir(3) : 
        Dipole                0.8351 Ry au,          2.1225 Debye
        Dipole field          0.0016 Ry au, 
 
        Potential amp.       -0.1461 Ry
        Total length         46.3494 bohr
 

     total cpu time spent up to now is      982.7 secs

     total energy              =   -2970.16513396 Ry
     estimated scf accuracy    <       0.00896323 Ry

     iteration # 67     ecut=    29.40 Ry     beta= 0.05
     Davidson diagonalization with overlap
     ethr =  2.24E-06,  avg # of iterations =  3.5

     negative rho (up, down):  1.254E-02 0.000E+00
 
     Adding external electric field

     Computed dipole along edir(3) : 
        Dipole                0.8072 Ry au,          2.0517 Debye
        Dipole field          0.0015 Ry au, 
 
        Potential amp.       -0.1412 Ry
        Total length         46.3494 bohr
 

     total cpu time spent up to now is      993.7 secs

     total energy              =   -2970.16507481 Ry
     estimated scf accuracy    <       0.00249507 Ry

     iteration # 68     ecut=    29.40 Ry     beta= 0.05
     Davidson diagonalization with overlap
     c_bands:  3 eigenvalues not converged
     c_bands:  2 eigenvalues not converged
     c_bands:  1 eigenvalues not converged
     ethr =  6.24E-07,  avg # of iterations = 15.5

     negative rho (up, down):  1.292E-02 0.000E+00
 
     Adding external electric field

     Computed dipole along edir(3) : 
        Dipole                0.8080 Ry au,          2.0537 Debye
        Dipole field          0.0015 Ry au, 
 
        Potential amp.       -0.1413 Ry
        Total length         46.3494 bohr
 

     total cpu time spent up to now is     1009.4 secs

     total energy              =   -2970.16523349 Ry
     estimated scf accuracy    <       0.00089368 Ry

     iteration # 69     ecut=    29.40 Ry     beta= 0.05
     Davidson diagonalization with overlap
     c_bands:  3 eigenvalues not converged
     c_bands:  2 eigenvalues not converged
     ethr =  2.23E-07,  avg # of iterations = 13.8

     negative rho (up, down):  1.422E-02 0.000E+00
 
     Adding external electric field

     Computed dipole along edir(3) : 
        Dipole                0.8190 Ry au,          2.0816 Debye
        Dipole field          0.0015 Ry au, 
 
        Potential amp.       -0.1433 Ry
        Total length         46.3494 bohr
 

     total cpu time spent up to now is     1024.0 secs

     total energy              =   -2970.16536569 Ry
     estimated scf accuracy    <       0.00058941 Ry

     iteration # 70     ecut=    29.40 Ry     beta= 0.05
     Davidson diagonalization with overlap
     c_bands:  3 eigenvalues not converged
     c_bands:  2 eigenvalues not converged
     ethr =  1.47E-07,  avg # of iterations = 15.8

     negative rho (up, down):  1.436E-02 0.000E+00
 
     Adding external electric field

     Computed dipole along edir(3) : 
        Dipole                0.8098 Ry au,          2.0584 Debye
        Dipole field          0.0015 Ry au, 
 
        Potential amp.       -0.1417 Ry
        Total length         46.3494 bohr
 

     total cpu time spent up to now is     1040.3 secs

     total energy              =   -2970.16538331 Ry
     estimated scf accuracy    <       0.00068503 Ry

     iteration # 71     ecut=    29.40 Ry     beta= 0.05
     Davidson diagonalization with overlap
     c_bands:  2 eigenvalues not converged
     ethr =  1.47E-07,  avg # of iterations =  9.2

     negative rho (up, down):  1.443E-02 0.000E+00
 
     Adding external electric field

     Computed dipole along edir(3) : 
        Dipole                0.8094 Ry au,          2.0573 Debye
        Dipole field          0.0015 Ry au, 
 
        Potential amp.       -0.1416 Ry
        Total length         46.3494 bohr
 

     total cpu time spent up to now is     1052.9 secs

     total energy              =   -2970.16541998 Ry
     estimated scf accuracy    <       0.00017918 Ry

     iteration # 72     ecut=    29.40 Ry     beta= 0.05
     Davidson diagonalization with overlap
     c_bands:  1 eigenvalues not converged
     c_bands:  1 eigenvalues not converged
     ethr =  4.48E-08,  avg # of iterations = 13.4

     negative rho (up, down):  1.509E-02 0.000E+00
 
     Adding external electric field

     Computed dipole along edir(3) : 
        Dipole                0.8188 Ry au,          2.0813 Debye
        Dipole field          0.0015 Ry au, 
 
        Potential amp.       -0.1432 Ry
        Total length         46.3494 bohr
 

     total cpu time spent up to now is     1067.6 secs

     total energy              =   -2970.16545851 Ry
     estimated scf accuracy    <       0.00011873 Ry

     iteration # 73     ecut=    29.40 Ry     beta= 0.05
     Davidson diagonalization with overlap
     ethr =  2.97E-08,  avg # of iterations = 14.8

     negative rho (up, down):  1.553E-02 0.000E+00
 
     Adding external electric field

     Computed dipole along edir(3) : 
        Dipole                0.8172 Ry au,          2.0771 Debye
        Dipole field          0.0015 Ry au, 
 
        Potential amp.       -0.1430 Ry
        Total length         46.3494 bohr
 

     total cpu time spent up to now is     1083.3 secs

     total energy              =   -2970.16548853 Ry
     estimated scf accuracy    <       0.00008498 Ry

     iteration # 74     ecut=    29.40 Ry     beta= 0.05
     Davidson diagonalization with overlap
     c_bands:  1 eigenvalues not converged
     ethr =  2.12E-08,  avg # of iterations =  7.2

     negative rho (up, down):  1.606E-02 0.000E+00
 
     Adding external electric field

     Computed dipole along edir(3) : 
        Dipole                0.8211 Ry au,          2.0870 Debye
        Dipole field          0.0015 Ry au, 
 
        Potential amp.       -0.1436 Ry
        Total length         46.3494 bohr
 

     total cpu time spent up to now is     1095.4 secs

     total energy              =   -2970.16550143 Ry
     estimated scf accuracy    <       0.00003892 Ry

     iteration # 75     ecut=    29.40 Ry     beta= 0.05
     Davidson diagonalization with overlap
     c_bands:  1 eigenvalues not converged
     c_bands:  2 eigenvalues not converged
     c_bands:  1 eigenvalues not converged
     c_bands:  1 eigenvalues not converged
     c_bands:  2 eigenvalues not converged
     ethr =  9.73E-09,  avg # of iterations = 17.8

     negative rho (up, down):  1.624E-02 0.000E+00
 
     Adding external electric field

     Computed dipole along edir(3) : 
        Dipole                0.8283 Ry au,          2.1053 Debye
        Dipole field          0.0016 Ry au, 
 
        Potential amp.       -0.1449 Ry
        Total length         46.3494 bohr
 

     total cpu time spent up to now is     1114.6 secs

     total energy              =   -2970.16550514 Ry
     estimated scf accuracy    <       0.00004222 Ry

     iteration # 76     ecut=    29.40 Ry     beta= 0.05
     Davidson diagonalization with overlap
     ethr =  9.73E-09,  avg # of iterations = 16.8

     negative rho (up, down):  1.631E-02 0.000E+00
 
     Adding external electric field

     Computed dipole along edir(3) : 
        Dipole                0.8305 Ry au,          2.1109 Debye
        Dipole field          0.0016 Ry au, 
 
        Potential amp.       -0.1453 Ry
        Total length         46.3494 bohr
 

     total cpu time spent up to now is     1132.0 secs

     total energy              =   -2970.16551226 Ry
     estimated scf accuracy    <       0.00001595 Ry

     iteration # 77     ecut=    29.40 Ry     beta= 0.05
     Davidson diagonalization with overlap
     ethr =  3.99E-09,  avg # of iterations =  6.0

     negative rho (up, down):  1.635E-02 0.000E+00
 
     Adding external electric field

     Computed dipole along edir(3) : 
        Dipole                0.8319 Ry au,          2.1144 Debye
        Dipole field          0.0016 Ry au, 
 
        Potential amp.       -0.1455 Ry
        Total length         46.3494 bohr
 

     total cpu time spent up to now is     1143.7 secs

     total energy              =   -2970.16551345 Ry
     estimated scf accuracy    <       0.00000922 Ry

     iteration # 78     ecut=    29.40 Ry     beta= 0.05
     Davidson diagonalization with overlap
     c_bands:  1 eigenvalues not converged
     c_bands:  1 eigenvalues not converged
     ethr =  2.30E-09,  avg # of iterations = 17.1

     negative rho (up, down):  1.639E-02 0.000E+00
 
     Adding external electric field

     Computed dipole along edir(3) : 
        Dipole                0.8320 Ry au,          2.1148 Debye
        Dipole field          0.0016 Ry au, 
 
        Potential amp.       -0.1455 Ry
        Total length         46.3494 bohr
 

     total cpu time spent up to now is     1163.1 secs

     total energy              =   -2970.16551674 Ry
     estimated scf accuracy    <       0.00000329 Ry

     iteration # 79     ecut=    29.40 Ry     beta= 0.05
     Davidson diagonalization with overlap
     ethr =  8.22E-10,  avg # of iterations = 11.2

     negative rho (up, down):  1.639E-02 0.000E+00
 
     Adding external electric field

     Computed dipole along edir(3) : 
        Dipole                0.8324 Ry au,          2.1158 Debye
        Dipole field          0.0016 Ry au, 
 
        Potential amp.       -0.1456 Ry
        Total length         46.3494 bohr
 

     total cpu time spent up to now is     1176.8 secs

     total energy              =   -2970.16551845 Ry
     estimated scf accuracy    <       0.00000159 Ry

     iteration # 80     ecut=    29.40 Ry     beta= 0.05
     Davidson diagonalization with overlap
     ethr =  3.97E-10,  avg # of iterations = 14.5

     negative rho (up, down):  1.640E-02 0.000E+00
 
     Adding external electric field

     Computed dipole along edir(3) : 
        Dipole                0.8321 Ry au,          2.1149 Debye
        Dipole field          0.0016 Ry au, 
 
        Potential amp.       -0.1456 Ry
        Total length         46.3494 bohr
 

     total cpu time spent up to now is     1196.5 secs

     total energy              =   -2970.16552010 Ry
     estimated scf accuracy    <       0.00000264 Ry

     iteration # 81     ecut=    29.40 Ry     beta= 0.05
     Davidson diagonalization with overlap
     c_bands:  1 eigenvalues not converged
     ethr =  3.97E-10,  avg # of iterations = 15.6

     negative rho (up, down):  1.639E-02 0.000E+00
 
     Adding external electric field

     Computed dipole along edir(3) : 
        Dipole                0.8326 Ry au,          2.1162 Debye
        Dipole field          0.0016 Ry au, 
 
        Potential amp.       -0.1456 Ry
        Total length         46.3494 bohr
 

     total cpu time spent up to now is     1213.0 secs

     total energy              =   -2970.16552164 Ry
     estimated scf accuracy    <       0.00000099 Ry

     iteration # 82     ecut=    29.40 Ry     beta= 0.05
     Davidson diagonalization with overlap
     ethr =  2.47E-10,  avg # of iterations = 12.6

     negative rho (up, down):  1.640E-02 0.000E+00
 
     Adding external electric field

     Computed dipole along edir(3) : 
        Dipole                0.8326 Ry au,          2.1163 Debye
        Dipole field          0.0016 Ry au, 
 
        Potential amp.       -0.1457 Ry
        Total length         46.3494 bohr
 

     total cpu time spent up to now is     1229.0 secs

     total energy              =   -2970.16552297 Ry
     estimated scf accuracy    <       0.00000050 Ry

     iteration # 83     ecut=    29.40 Ry     beta= 0.05
     Davidson diagonalization with overlap
     ethr =  1.25E-10,  avg # of iterations = 10.2

     negative rho (up, down):  1.640E-02 0.000E+00
 
     Adding external electric field

     Computed dipole along edir(3) : 
        Dipole                0.8326 Ry au,          2.1163 Debye
        Dipole field          0.0016 Ry au, 
 
        Potential amp.       -0.1457 Ry
        Total length         46.3494 bohr
 

     total cpu time spent up to now is     1242.0 secs

     total energy              =   -2970.16552415 Ry
     estimated scf accuracy    <       0.00000031 Ry

     iteration # 84     ecut=    29.40 Ry     beta= 0.05
     Davidson diagonalization with overlap
     c_bands:  1 eigenvalues not converged
     ethr =  7.76E-11,  avg # of iterations = 13.6

     negative rho (up, down):  1.638E-02 0.000E+00
 
     Adding external electric field

     Computed dipole along edir(3) : 
        Dipole                0.8323 Ry au,          2.1154 Debye
        Dipole field          0.0016 Ry au, 
 
        Potential amp.       -0.1456 Ry
        Total length         46.3494 bohr
 

     total cpu time spent up to now is     1257.3 secs

     total energy              =   -2970.16552518 Ry
     estimated scf accuracy    <       0.00000017 Ry

     iteration # 85     ecut=    29.40 Ry     beta= 0.05
     Davidson diagonalization with overlap
     ethr =  4.32E-11,  avg # of iterations = 10.7

     negative rho (up, down):  1.637E-02 0.000E+00
 
     Adding external electric field

     Computed dipole along edir(3) : 
        Dipole                0.8321 Ry au,          2.1150 Debye
        Dipole field          0.0016 Ry au, 
 
        Potential amp.       -0.1456 Ry
        Total length         46.3494 bohr
 

     total cpu time spent up to now is     1272.2 secs

     total energy              =   -2970.16552607 Ry
     estimated scf accuracy    <       0.00000013 Ry

     iteration # 86     ecut=    29.40 Ry     beta= 0.05
     Davidson diagonalization with overlap
     ethr =  3.29E-11,  avg # of iterations =  2.0

     negative rho (up, down):  1.636E-02 0.000E+00
 
     Adding external electric field

     Computed dipole along edir(3) : 
        Dipole                0.8319 Ry au,          2.1146 Debye
        Dipole field          0.0016 Ry au, 
 
        Potential amp.       -0.1455 Ry
        Total length         46.3494 bohr
 

     total cpu time spent up to now is     1282.9 secs

     total energy              =   -2970.16552685 Ry
     estimated scf accuracy    <       0.00000011 Ry

     iteration # 87     ecut=    29.40 Ry     beta= 0.05
     Davidson diagonalization with overlap
     ethr =  2.75E-11,  avg # of iterations = 10.2

     negative rho (up, down):  1.635E-02 0.000E+00
 
     Adding external electric field

     Computed dipole along edir(3) : 
        Dipole                0.8313 Ry au,          2.1130 Debye
        Dipole field          0.0016 Ry au, 
 
        Potential amp.       -0.1454 Ry
        Total length         46.3494 bohr
 

     total cpu time spent up to now is     1296.4 secs

     End of self-consistent calculation

          k = 0.0000 0.0000 0.0000 ( 18029 PWs)   bands (ev):

   -55.5592 -55.5288 -55.5232 -55.4944 -55.4555 -55.4490 -55.4368 -55.4025
   -55.3973 -55.3835 -55.3631 -55.3549 -55.3421 -55.3083 -54.6218 -54.5877
   -32.1293 -32.0613 -32.0242 -31.9329 -31.8789 -31.8727 -31.8692 -31.8517
   -31.8172 -31.8079 -31.7715 -31.7704 -31.7636 -31.7444 -31.7350 -31.7129
   -31.7100 -31.6943 -31.6858 -31.6828 -31.6817 -31.6744 -31.6540 -31.6450
   -31.6443 -31.6259 -31.6246 -31.5970 -31.5893 -31.5860 -31.5705 -31.5482
   -31.5478 -31.5461 -31.5377 -31.5267 -31.5229 -31.4962 -31.4864 -31.4773
   -31.4665 -31.4528 -31.0341 -30.9311 -30.9095 -30.8504 -30.7640 -30.6529
   -21.1344 -20.3316 -16.3845 -16.1284 -15.9815 -15.8828 -15.7769 -15.6411
   -15.6048 -15.4982 -15.3682 -15.2855 -15.2310 -15.2214 -15.2068 -15.1959
   -15.1790 -15.1755 -15.1162 -15.0866 -15.0619 -15.0476 -15.0395 -15.0041
   -14.9489 -14.9421 -14.9283 -14.7884 -14.7204 -14.6608 -14.3588 -14.2407
   -13.1224 -13.0029  -8.5355  -6.7922  -5.6681  -4.5691  -4.0507  -3.7709
    -3.7150  -3.5669  -3.4921  -3.4741  -3.4271  -3.3040  -3.1522  -2.9910
    -2.9071  -2.8430  -2.8151  -2.7648  -2.7256  -2.6968  -2.5201  -2.5075
    -2.4771  -2.4509  -2.4336  -2.4272  -2.3986  -2.3293  -2.3087  -2.3015
    -2.2779  -2.1434  -2.1261  -2.0283  -1.9854  -1.9565  -1.8976  -1.8830
    -1.8783  -1.8483  -1.8274  -1.8138  -1.8095  -1.7712  -1.5866  -1.5857
    -1.4660  -1.4233  -1.3400  -1.2900  -1.1191  -1.1169  -1.0642  -1.0458
    -1.0045  -0.9645  -0.9607  -0.9174  -0.8027  -0.7173  -0.6696  -0.5986
    -0.5601  -0.4959  -0.4612  -0.3569  -0.3476  -0.3351  -0.3171  -0.1968
    -0.1299  -0.0908  -0.0586  -0.0132  -0.0005   0.0987   0.1165   0.1978
     0.2049   0.2627   0.2654   0.3682   0.3865   0.3879   0.4133   0.4323
     0.5201   0.5909   0.5966   0.6115   0.7806   0.9696   0.9987   1.0410
     1.2914   1.3937   1.4043   1.5344   1.5633   1.9911   2.0466   3.5365
     3.6047   3.6440   3.6613   3.6762   3.7436   3.9995   4.0262   4.0444
     4.0586   4.0679

          k = 0.0000 0.0419 0.0000 ( 17933 PWs)   bands (ev):

   -55.5539 -55.5284 -55.5238 -55.4993 -55.4539 -55.4455 -55.4336 -55.4059
   -55.3922 -55.3866 -55.3680 -55.3563 -55.3371 -55.3132 -54.6168 -54.5927
   -32.0719 -32.0246 -31.9701 -31.8785 -31.8680 -31.8207 -31.8197 -31.8165
   -31.8125 -31.8091 -31.7896 -31.7618 -31.7587 -31.7491 -31.7360 -31.7306
   -31.7046 -31.7019 -31.6999 -31.6928 -31.6796 -31.6688 -31.6597 -31.6497
   -31.6489 -31.6291 -31.6202 -31.6083 -31.6050 -31.6001 -31.5884 -31.5782
   -31.5758 -31.5525 -31.5396 -31.5372 -31.5245 -31.5241 -31.5222 -31.5108
   -31.5099 -31.4845 -30.9799 -30.9277 -30.9124 -30.8378 -30.7766 -30.7101
   -21.1335 -20.3312 -16.2562 -16.0150 -15.8990 -15.8087 -15.6705 -15.5854
   -15.5705 -15.4677 -15.4365 -15.3524 -15.3046 -15.2264 -15.2196 -15.1718
   -15.1628 -15.1500 -15.1201 -15.1003 -15.0758 -15.0577 -15.0459 -15.0243
   -14.9914 -14.9689 -14.9560 -14.8450 -14.7776 -14.7180 -14.4869 -14.2439
   -13.1250 -13.0416  -8.5297  -6.7961  -5.6678  -4.5633  -4.0318  -3.7332
    -3.5295  -3.3993  -3.3213  -3.3150  -3.2906  -3.1611  -2.9237  -2.8992
    -2.8323  -2.7942  -2.7333  -2.7163  -2.6758  -2.6501  -2.5946  -2.5728
    -2.5613  -2.5437  -2.5090  -2.4564  -2.4430  -2.4244  -2.3745  -2.3549
    -2.3329  -2.2958  -2.1748  -2.1533  -2.1382  -2.0674  -2.0474  -2.0173
    -2.0009  -1.9004  -1.8842  -1.8391  -1.7261  -1.5615  -1.5406  -1.4931
    -1.3662  -1.3538  -1.3358  -1.3175  -1.1229  -1.0004  -0.9368  -0.9206
    -0.8696  -0.8445  -0.7867  -0.7464  -0.7187  -0.6996  -0.5766  -0.5562
    -0.5470  -0.5202  -0.4764  -0.4380  -0.3989  -0.3784  -0.3533  -0.2491
    -0.1884  -0.1541  -0.1372  -0.0787  -0.0649   0.0020   0.0483   0.1054
     0.1696   0.1823   0.1894   0.2013   0.2519   0.2847   0.4026   0.4230
     0.4723   0.5177   0.5363   0.6644   0.6791   0.7095   0.8062   0.9247
     0.9999   1.2697   1.5103   1.5865   1.6543   1.9438   1.9573   3.7332
     3.7568   3.7586   3.8275   3.8584   3.8961   3.9246   3.9438   3.9881
     4.0170   4.0580

          k = 0.0000-0.0839 0.0000 ( 17884 PWs)   bands (ev):

   -55.5416 -55.5406 -55.5134 -55.5096 -55.4523 -55.4413 -55.4300 -55.4099
   -55.3904 -55.3811 -55.3791 -55.3577 -55.3261 -55.3242 -54.6048 -54.6046
   -31.9817 -31.9325 -31.9311 -31.8519 -31.8392 -31.8356 -31.8183 -31.8062
   -31.7986 -31.7616 -31.7573 -31.7520 -31.7344 -31.7318 -31.7275 -31.7117
   -31.7082 -31.7017 -31.6881 -31.6867 -31.6866 -31.6805 -31.6797 -31.6420
   -31.6402 -31.6388 -31.6360 -31.6357 -31.6332 -31.6245 -31.6229 -31.6223
   -31.6212 -31.6140 -31.5874 -31.5828 -31.5642 -31.5218 -31.5212 -31.5211
   -31.5124 -31.5094 -30.9199 -30.9197 -30.8470 -30.8467 -30.8073 -30.8071
   -21.1326 -20.3309 -16.0161 -15.8935 -15.7724 -15.7142 -15.6456 -15.5742
   -15.5635 -15.4560 -15.4306 -15.4058 -15.3960 -15.3447 -15.3001 -15.1920
   -15.1742 -15.1484 -15.1002 -15.0741 -15.0659 -15.0526 -15.0484 -14.9878
[...]
    -0.1816  -0.1517  -0.1326  -0.0529  -0.0388   0.0226   0.0877   0.0951
     0.1147   0.1550   0.1837   0.2258   0.2480   0.2923   0.3697   0.4188
     0.4655   0.4939   0.5021   0.6096   0.6276   0.7438   0.8833   1.0460
     1.2506   1.3031   1.4162   1.5305   1.5397   1.8754   1.9615   3.5575
     3.6256   3.7691   3.8543   3.8625   3.9219   3.9666   3.9992   4.0169
     4.0196   4.0520

          k = 0.0380 0.0419 0.0000 ( 17878 PWs)   bands (ev):

   -55.5538 -55.5284 -55.5237 -55.4993 -55.4536 -55.4455 -55.4337 -55.4058
   -55.3921 -55.3866 -55.3680 -55.3563 -55.3371 -55.3132 -54.6167 -54.5926
   -32.0721 -32.0247 -31.9710 -31.8845 -31.8678 -31.8245 -31.8234 -31.8168
   -31.8129 -31.8091 -31.7898 -31.7621 -31.7499 -31.7434 -31.7362 -31.7306
   -31.7020 -31.6952 -31.6930 -31.6840 -31.6791 -31.6656 -31.6502 -31.6490
   -31.6426 -31.6364 -31.6292 -31.6071 -31.6024 -31.5997 -31.5963 -31.5795
   -31.5673 -31.5598 -31.5378 -31.5375 -31.5332 -31.5296 -31.5287 -31.5103
   -31.5092 -31.4845 -30.9795 -30.9307 -30.9114 -30.8376 -30.7766 -30.7100
   -21.1333 -20.3313 -16.1848 -15.9424 -15.9067 -15.7397 -15.6138 -15.5778
   -15.5523 -15.4749 -15.4531 -15.3527 -15.3359 -15.2808 -15.2477 -15.2339
   -15.2186 -15.1854 -15.1689 -15.1404 -15.0917 -15.0787 -15.0128 -14.9720
   -14.9496 -14.9164 -14.9051 -14.8588 -14.8422 -14.8118 -14.4863 -14.2447
   -13.1226 -13.0419  -8.5312  -6.7946  -5.6696  -4.5581  -4.0300  -3.7237
    -3.4321  -3.2780  -3.1674  -3.0801  -3.0474  -3.0226  -2.9452  -2.9113
    -2.8435  -2.8124  -2.7478  -2.6914  -2.6473  -2.6082  -2.5976  -2.5624
    -2.5148  -2.4992  -2.4864  -2.4137  -2.3969  -2.3893  -2.3577  -2.3053
    -2.2763  -2.2486  -2.2295  -2.1556  -2.0998  -2.0631  -2.0061  -1.9765
    -1.9576  -1.8788  -1.8326  -1.7733  -1.6315  -1.5762  -1.5670  -1.4465
    -1.4283  -1.3796  -1.2818  -1.2091  -1.1257  -1.0554  -1.0335  -0.9868
    -0.9547  -0.9312  -0.9095  -0.8358  -0.7859  -0.7466  -0.6886  -0.6576
    -0.6333  -0.5599  -0.5075  -0.4747  -0.4294  -0.3947  -0.3340  -0.3189
    -0.2775  -0.2634  -0.2250  -0.1976  -0.1840  -0.1422  -0.0950  -0.0210
     0.0007   0.0472   0.0797   0.1622   0.1937   0.2636   0.3344   0.4456
     0.4594   0.5352   0.5764   0.6085   0.6707   0.7413   0.8031   0.8714
     0.9564   1.2149   1.5126   1.5975   1.6578   1.8649   1.9365   3.7111
     3.7506   3.7606   3.8774   3.9012   3.9375   3.9533   3.9812   4.0497
     4.0928   4.1049

          k = 0.0380-0.0839 0.0000 ( 17916 PWs)   bands (ev):

   -55.5416 -55.5406 -55.5134 -55.5096 -55.4521 -55.4414 -55.4301 -55.4100
   -55.3904 -55.3811 -55.3790 -55.3577 -55.3261 -55.3242 -54.6048 -54.6046
   -31.9819 -31.9328 -31.9314 -31.8520 -31.8400 -31.8365 -31.8184 -31.8063
   -31.7987 -31.7706 -31.7618 -31.7539 -31.7524 -31.7139 -31.7119 -31.7068
   -31.7028 -31.7006 -31.6935 -31.6922 -31.6816 -31.6808 -31.6776 -31.6426
   -31.6414 -31.6405 -31.6363 -31.6338 -31.6316 -31.6266 -31.6240 -31.6090
   -31.6043 -31.6029 -31.5932 -31.5909 -31.5653 -31.5322 -31.5317 -31.5293
   -31.5124 -31.5095 -30.9210 -30.9208 -30.8468 -30.8466 -30.8073 -30.8071
   -21.1325 -20.3310 -15.9808 -15.8512 -15.7460 -15.6627 -15.6319 -15.5247
   -15.5037 -15.4311 -15.4295 -15.4227 -15.3849 -15.3087 -15.2634 -15.2131
   -15.2031 -15.1544 -15.1440 -15.1373 -15.0974 -15.0487 -15.0396 -15.0353
   -15.0173 -14.9564 -14.9544 -14.9179 -14.9166 -14.8300 -14.7304 -14.2477
   -13.1044 -13.1037  -8.5248  -6.7985  -5.6717  -4.5539  -4.0156  -3.6895
    -3.0822  -3.0436  -3.0026  -2.8398  -2.8180  -2.8146  -2.7694  -2.7455
    -2.7406  -2.6712  -2.6696  -2.6657  -2.6614  -2.6444  -2.6087  -2.5999
    -2.5716  -2.5389  -2.5064  -2.4600  -2.4537  -2.4453  -2.4276  -2.4043
    -2.3713  -2.3610  -2.2613  -2.2418  -2.1809  -2.1643  -2.1152  -1.9576
    -1.8034  -1.7845  -1.6950  -1.5904  -1.5635  -1.5605  -1.5391  -1.5110
    -1.4578  -1.4151  -1.3428  -1.3317  -1.2461  -1.2333  -1.2294  -1.1868
    -1.1697  -1.0336  -0.9385  -0.9028  -0.8919  -0.8138  -0.8088  -0.6299
    -0.6154  -0.5819  -0.5216  -0.4824  -0.4217  -0.3723  -0.3713  -0.3671
    -0.3431  -0.2694  -0.2216  -0.2086  -0.1820  -0.1415  -0.1179  -0.0659
    -0.0436   0.0054   0.1430   0.1662   0.1779   0.2304   0.3401   0.3910
     0.4642   0.4759   0.5276   0.5582   0.6455   0.6614   0.7653   0.8130
     0.9871   1.0121   1.4860   1.7373   1.7387   1.8728   1.8743   3.7191
     3.7725   3.8151   3.8436   3.8710   3.9468   3.9820   4.0014   4.1163
     4.1278   4.1817

          k = 0.0380-0.0419 0.0000 ( 17876 PWs)   bands (ev):

   -55.5538 -55.5284 -55.5237 -55.4993 -55.4536 -55.4455 -55.4337 -55.4058
   -55.3921 -55.3866 -55.3679 -55.3563 -55.3371 -55.3132 -54.6167 -54.5926
   -32.0720 -32.0247 -31.9710 -31.8845 -31.8678 -31.8245 -31.8234 -31.8167
   -31.8129 -31.8091 -31.7898 -31.7621 -31.7499 -31.7435 -31.7362 -31.7306
   -31.7020 -31.6952 -31.6930 -31.6840 -31.6791 -31.6657 -31.6502 -31.6490
   -31.6426 -31.6364 -31.6292 -31.6074 -31.6024 -31.5996 -31.5961 -31.5795
   -31.5673 -31.5599 -31.5377 -31.5373 -31.5332 -31.5296 -31.5288 -31.5104
   -31.5092 -31.4845 -30.9795 -30.9307 -30.9113 -30.8376 -30.7766 -30.7100
   -21.1334 -20.3313 -16.1849 -15.9424 -15.9066 -15.7395 -15.6135 -15.5779
   -15.5522 -15.4748 -15.4532 -15.3529 -15.3363 -15.2810 -15.2479 -15.2341
   -15.2186 -15.1852 -15.1688 -15.1400 -15.0917 -15.0785 -15.0126 -14.9725
   -14.9498 -14.9162 -14.9044 -14.8586 -14.8425 -14.8121 -14.4862 -14.2446
   -13.1226 -13.0419  -8.5314  -6.7943  -5.6695  -4.5583  -4.0297  -3.7243
    -3.4320  -3.2780  -3.1676  -3.0773  -3.0468  -3.0220  -2.9444  -2.9127
    -2.8433  -2.8124  -2.7509  -2.6931  -2.6478  -2.6089  -2.5979  -2.5603
    -2.5144  -2.5004  -2.4847  -2.4144  -2.3964  -2.3898  -2.3576  -2.3023
    -2.2765  -2.2479  -2.2296  -2.1556  -2.1010  -2.0632  -2.0056  -1.9758
    -1.9580  -1.8798  -1.8393  -1.7738  -1.6307  -1.5739  -1.5681  -1.4453
    -1.4276  -1.3794  -1.2823  -1.2093  -1.1256  -1.0539  -1.0287  -0.9864
    -0.9556  -0.9313  -0.9094  -0.8375  -0.7865  -0.7467  -0.6893  -0.6582
    -0.6330  -0.5602  -0.5092  -0.4753  -0.4301  -0.3959  -0.3309  -0.3185
    -0.2763  -0.2625  -0.2238  -0.1986  -0.1825  -0.1428  -0.0953  -0.0222
     0.0013   0.0465   0.0811   0.1607   0.1950   0.2638   0.3350   0.4443
     0.4601   0.5344   0.5763   0.6071   0.6703   0.7412   0.8029   0.8711
     0.9563   1.2151   1.5140   1.5975   1.6578   1.8647   1.9371   3.7098
     3.7502   3.7590   3.8777   3.8966   3.9494   3.9531   3.9804   4.0467
     4.0945   4.1056

          k =-0.0760-0.0000 0.0000 ( 17886 PWs)   bands (ev):

   -55.5590 -55.5286 -55.5231 -55.4943 -55.4549 -55.4490 -55.4370 -55.4024
   -55.3969 -55.3834 -55.3630 -55.3548 -55.3422 -55.3082 -54.6217 -54.5876
   -32.1296 -32.0615 -32.0261 -31.9430 -31.8803 -31.8785 -31.8767 -31.8522
   -31.8168 -31.8077 -31.7715 -31.7638 -31.7445 -31.7349 -31.7244 -31.7124
   -31.6856 -31.6831 -31.6811 -31.6758 -31.6696 -31.6607 -31.6539 -31.6447
   -31.6442 -31.6347 -31.6259 -31.6255 -31.5862 -31.5857 -31.5766 -31.5711
   -31.5478 -31.5459 -31.5391 -31.5361 -31.5280 -31.4946 -31.4844 -31.4773
   -31.4679 -31.4538 -31.0331 -30.9385 -30.9060 -30.8501 -30.7638 -30.6527
   -21.1341 -20.3317 -16.1731 -16.0666 -15.8878 -15.7773 -15.6527 -15.5994
   -15.5975 -15.4859 -15.4055 -15.4044 -15.3986 -15.3528 -15.3436 -15.3394
   -15.3092 -15.2772 -15.1685 -15.0893 -15.0447 -15.0228 -14.9687 -14.9533
   -14.9292 -14.8694 -14.8643 -14.8209 -14.7326 -14.7068 -14.3572 -14.2427
   -13.1157 -13.0023  -8.5403  -6.7894  -5.6681  -4.5582  -4.0440  -3.7427
    -3.5758  -3.4042  -3.1974  -3.1096  -3.0401  -3.0324  -3.0292  -2.9829
    -2.9652  -2.9400  -2.8612  -2.8488  -2.8375  -2.7005  -2.6697  -2.5010
    -2.4805  -2.3272  -2.3014  -2.2080  -2.1842  -2.1819  -2.1530  -2.1371
    -2.1332  -2.0822  -2.0696  -1.9684  -1.9390  -1.9174  -1.9043  -1.8779
    -1.8585  -1.8225  -1.8019  -1.7221  -1.7051  -1.6448  -1.5181  -1.4611
    -1.3843  -1.3213  -1.3170  -1.2658  -1.2598  -1.1860  -1.1709  -1.1168
    -1.0789  -1.0474  -1.0196  -0.9914  -0.9059  -0.8997  -0.8510  -0.8378
    -0.7952  -0.5173  -0.4974  -0.4864  -0.4531  -0.4149  -0.3458  -0.3125
    -0.2366  -0.1981  -0.1839  -0.1142  -0.0601  -0.0544  -0.0408   0.0382
     0.0725   0.0993   0.1368   0.1400   0.1931   0.2120   0.2688   0.3232
     0.4270   0.4541   0.4798   0.5885   0.7125   0.7477   0.8968   1.0010
     1.0584   1.3057   1.4384   1.5041   1.5445   1.7391   1.9027   3.5592
     3.5932   3.6696   3.8247   3.8409   3.8980   3.9837   4.0177   4.0234
     4.0312   4.0653

          k =-0.0760 0.0419 0.0000 ( 17914 PWs)   bands (ev):

   -55.5538 -55.5284 -55.5237 -55.4993 -55.4534 -55.4455 -55.4339 -55.4059
   -55.3920 -55.3866 -55.3680 -55.3563 -55.3372 -55.3132 -54.6167 -54.5927
   -32.0724 -32.0249 -31.9721 -31.8904 -31.8679 -31.8284 -31.8275 -31.8171
   -31.8131 -31.8093 -31.7899 -31.7624 -31.7495 -31.7364 -31.7313 -31.7236
   -31.7023 -31.6931 -31.6858 -31.6795 -31.6631 -31.6577 -31.6540 -31.6497
   -31.6490 -31.6352 -31.6293 -31.6138 -31.6014 -31.5995 -31.5886 -31.5858
   -31.5831 -31.5497 -31.5423 -31.5384 -31.5376 -31.5363 -31.5341 -31.5110
   -31.5093 -31.4846 -30.9792 -30.9338 -30.9106 -30.8377 -30.7767 -30.7100
   -21.1332 -20.3314 -16.0562 -15.9993 -15.8017 -15.6882 -15.5820 -15.5493
   -15.5174 -15.4752 -15.4038 -15.3610 -15.3416 -15.3368 -15.3300 -15.2991
   -15.2888 -15.2597 -15.1753 -15.1210 -15.0970 -15.0960 -15.0074 -14.9957
   -14.9506 -14.9193 -14.9149 -14.9098 -14.8373 -14.8049 -14.4859 -14.2454
   -13.1203 -13.0423  -8.5329  -6.7929  -5.6714  -4.5534  -4.0283  -3.7190
    -3.4103  -3.2567  -2.9616  -2.9435  -2.8583  -2.8439  -2.8246  -2.7809
    -2.7639  -2.7489  -2.6870  -2.6587  -2.6386  -2.5816  -2.5655  -2.5471
    -2.5134  -2.4729  -2.4589  -2.4155  -2.3684  -2.3252  -2.2753  -2.2600
    -2.1649  -2.1434  -2.1072  -2.0748  -2.0696  -2.0585  -2.0425  -2.0284
    -1.8962  -1.7866  -1.7671  -1.7550  -1.7260  -1.6278  -1.5729  -1.3766
    -1.3644  -1.3321  -1.2846  -1.2479  -1.1889  -1.1536  -1.1349  -1.0657
    -0.9974  -0.9679  -0.9509  -0.9429  -0.8793  -0.8217  -0.8154  -0.8116
    -0.8051  -0.7623  -0.7094  -0.6508  -0.6437  -0.5452  -0.5094  -0.4552
    -0.3973  -0.3547  -0.3364  -0.3122  -0.2654  -0.2211  -0.1331  -0.0737
    -0.0402   0.0030   0.1157   0.1724   0.1795   0.2258   0.3396   0.4498
     0.4696   0.5585   0.6594   0.6832   0.7039   0.8129   0.8326   0.8871
     0.9171   1.0568   1.5162   1.6123   1.6601   1.7870   1.9236   3.7043
     3.7467   3.7582   3.7652   3.8520   3.9015   3.9151   3.9403   4.0078
     4.0583   4.1536

          k =-0.0760-0.0839 0.0000 ( 17948 PWs)   bands (ev):

   -55.5416 -55.5406 -55.5134 -55.5096 -55.4520 -55.4414 -55.4302 -55.4100
   -55.3904 -55.3810 -55.3790 -55.3578 -55.3262 -55.3243 -54.6048 -54.6046
   -31.9821 -31.9331 -31.9316 -31.8522 -31.8409 -31.8373 -31.8186 -31.8063
   -31.7987 -31.7784 -31.7619 -31.7598 -31.7550 -31.7153 -31.7132 -31.7030
   -31.6977 -31.6967 -31.6873 -31.6821 -31.6812 -31.6805 -31.6678 -31.6452
   -31.6424 -31.6415 -31.6391 -31.6364 -31.6323 -31.6301 -31.6278 -31.6021
   -31.6003 -31.5905 -31.5795 -31.5790 -31.5683 -31.5515 -31.5499 -31.5391
   -31.5124 -31.5095 -30.9222 -30.9219 -30.8468 -30.8466 -30.8073 -30.8071
   -21.1324 -20.3311 -15.9382 -15.8002 -15.7402 -15.5632 -15.5554 -15.5475
   -15.5234 -15.3838 -15.3710 -15.3577 -15.3203 -15.3099 -15.2927 -15.2828
   -15.2693 -15.1521 -15.1502 -15.1414 -15.1387 -15.0767 -15.0735 -15.0588
   -15.0422 -15.0024 -15.0019 -14.9888 -14.9848 -14.8206 -14.7227 -14.2482
   -13.1042 -13.1035  -8.5255  -6.7966  -5.6752  -4.5494  -4.0145  -3.6886
    -3.0777  -3.0344  -3.0022  -2.7773  -2.7618  -2.7228  -2.6888  -2.6319
    -2.5568  -2.5460  -2.5418  -2.4755  -2.4660  -2.4558  -2.4528  -2.4407
    -2.3860  -2.3848  -2.3461  -2.3410  -2.2959  -2.2674  -2.2561  -2.2324
    -2.2213  -2.2212  -2.2008  -2.1836  -2.1684  -2.1633  -2.0554  -2.0014
    -1.9177  -1.8911  -1.8021  -1.7855  -1.7708  -1.6933  -1.6577  -1.6350
    -1.5736  -1.5701  -1.4991  -1.3771  -1.3569  -1.3496  -1.2782  -1.2234
    -1.1910  -1.1465  -1.0963  -1.0401  -1.0261  -0.9396  -0.8876  -0.8690
    -0.7629  -0.7506  -0.6989  -0.5893  -0.5558  -0.5538  -0.5492  -0.5372
    -0.4605  -0.4429  -0.3941  -0.3532  -0.3043  -0.2794  -0.2594  -0.0598
    -0.0456   0.0245   0.1262   0.1636   0.3357   0.3565   0.3900   0.4624
     0.5076   0.5188   0.6022   0.7125   0.7172   0.7533   0.8278   0.8668
     0.8751   0.9136   1.4872   1.7560   1.7567   1.8602   1.8633   3.6873
     3.7747   3.7906   3.8233   3.8692   3.9596   4.0451   4.0623   4.0895
     4.0977   4.1764

     the Fermi energy is     3.5924 ev

!    total energy              =   -2970.16553393 Ry
     estimated scf accuracy    <       0.00000005 Ry
     smearing contrib. (-TS)   =      -0.03779541 Ry
     internal energy E=F+TS    =   -2970.12773852 Ry

     The total energy is F=E-TS. E is the sum of the following terms:
     one-electron contribution =  -23544.48243663 Ry
     hartree contribution      =   11864.03970289 Ry
     xc contribution           =    -491.70665452 Ry
     ewald contribution        =    9202.02034557 Ry
     electric field correction =       0.00130416 Ry

     convergence has been achieved in  87 iterations

     Forces acting on atoms (cartesian axes, Ry/au):

     atom    1 type  1   force =    -0.00181120   -0.00311902    0.00400945
     atom    2 type  2   force =     0.00070915   -0.00015048    0.00020697
     atom    3 type  2   force =     0.00027346   -0.00054724   -0.00020032
     atom    4 type  3   force =     0.00005998   -0.00000454    0.10504190
     atom    5 type  3   force =     0.00004528    0.00002183    0.10503970
     atom    6 type  3   force =    -0.06777435   -0.00001263   -0.02683131
     atom    7 type  3   force =    -0.06780805   -0.00059811   -0.02686520
     atom    8 type  3   force =     0.06765137    0.00043674   -0.02688835
     atom    9 type  3   force =     0.06768452   -0.00016255   -0.02692469
     atom   10 type  3   force =     0.00072331    0.00002135    0.05053078
     atom   11 type  3   force =     0.00077632    0.00001046    0.05060241
     atom   12 type  3   force =     0.00061262   -0.00002882   -0.02311683
     atom   13 type  3   force =     0.00057378   -0.00017118   -0.02184587
     atom   14 type  3   force =    -0.01558869   -0.00017967    0.00499453
     atom   15 type  3   force =    -0.01565816    0.00008272    0.00496667
     atom   16 type  3   force =     0.01436527    0.00025566    0.00477321
     atom   17 type  3   force =     0.01444623    0.00059494    0.00478163
     atom   18 type  3   force =    -0.00007137    0.00001179   -0.00007514
     atom   19 type  3   force =    -0.00013852   -0.00001249   -0.00020889
     atom   20 type  3   force =    -0.00012252    0.00007875   -0.00007839
     atom   21 type  3   force =     0.00004285   -0.00012127    0.00011019
     atom   22 type  3   force =     0.00025933    0.00025668    0.00001983
     atom   23 type  3   force =     0.00000581    0.00004680    0.00006434
     atom   24 type  3   force =    -0.00016970    0.00012684    0.00019572
     atom   25 type  3   force =     0.00007538   -0.00012013    0.00009098
     atom   26 type  3   force =     0.00023268   -0.00014313    0.00002877
     atom   27 type  3   force =    -0.00009390    0.00018404   -0.00011086
     atom   28 type  3   force =    -0.00008025    0.00022737    0.00000003
     atom   29 type  3   force =     0.00031755   -0.00003171    0.00028003
     atom   30 type  3   force =     0.00020000   -0.00010559   -0.00024994
     atom   31 type  3   force =     0.00017594   -0.00005479    0.00017465
     atom   32 type  3   force =    -0.00000079   -0.00019769    0.00016619
     atom   33 type  3   force =    -0.00004671   -0.00011985   -0.00007295
     atom   34 type  3   force =    -0.00002313    0.00001107    0.00030150
     atom   35 type  3   force =    -0.00184807   -0.00121905    0.00029416
     atom   36 type  4   force =    -0.00022269    0.00011856    0.09296304
     atom   37 type  4   force =    -0.00015325   -0.00013542    0.09677089
     atom   38 type  4   force =    -0.00010935    0.00038099   -0.18354314
     atom   39 type  4   force =    -0.00006221   -0.00059452   -0.18365898
     atom   40 type  4   force =     0.00000768    0.00004106    0.00016067
     atom   41 type  4   force =     0.00018482   -0.00001739    0.00005562
     atom   42 type  4   force =    -0.00037418    0.00013402   -0.00011796
     atom   43 type  4   force =    -0.00023016    0.00028671    0.00013867
     atom   44 type  4   force =     0.00017472    0.00015143    0.00031035
     atom   45 type  4   force =    -0.00006729    0.00001838    0.00020869
     atom   46 type  4   force =    -0.00010434    0.00008420    0.00019814
     atom   47 type  4   force =    -0.00008603   -0.00013038   -0.00017407
     atom   48 type  4   force =    -0.00004299   -0.00022165   -0.00025652
     atom   49 type  4   force =    -0.00010197   -0.00000356   -0.00000732
     atom   50 type  4   force =    -0.00012218   -0.00022088   -0.00047474
     atom   51 type  4   force =     0.00014744   -0.00037433   -0.00052470
     atom   52 type  5   force =    -0.00550862   -0.01134156    0.00485793
     atom   53 type  5   force =     0.00867520    0.01655726   -0.01011145

     Total force =     0.369501     Total SCF correction =     0.000521
  @ DRIVER MODE: Message from server: STATUS
  @ DRIVER MODE: Message from server: GETFORCE
  @ DRIVER MODE: Returning v,forces,stress,ensemble 

     Writing output data file ./calc.save/
  @ DRIVER MODE: Message from server: EXIT
  @ DRIVE MODE: Exiting  
 
     init_run     :     10.80s CPU     10.99s WALL (       1 calls)
     electrons    :   1266.10s CPU   1285.09s WALL (       1 calls)
     forces       :      2.35s CPU      2.45s WALL (       1 calls)

     Called by init_run:
     wfcinit      :      4.77s CPU      4.81s WALL (       1 calls)
     potinit      :      5.38s CPU      5.44s WALL (       1 calls)
     hinit0       :      0.29s CPU      0.31s WALL (       1 calls)

     Called by electrons:
     c_bands      :   1062.42s CPU   1070.21s WALL (      87 calls)
     sum_band     :    138.61s CPU    143.14s WALL (      87 calls)
     v_of_rho     :     47.63s CPU     50.01s WALL (      88 calls)
     newd         :     19.93s CPU     24.15s WALL (      88 calls)
     mix_rho      :      1.79s CPU      1.84s WALL (      87 calls)
     vdW_kernel   :      4.55s CPU      4.56s WALL (       1 calls)

     Called by c_bands:
     init_us_2    :      8.02s CPU      8.07s WALL (    1760 calls)
     cegterg      :   1038.78s CPU   1046.15s WALL (     889 calls)

     Called by *egterg:
     cdiaghg      :    165.65s CPU    166.45s WALL (    8597 calls)
     h_psi        :    566.62s CPU    571.76s WALL (    8608 calls)
     s_psi        :     76.27s CPU     76.52s WALL (    8608 calls)
     g_psi        :      1.95s CPU      1.96s WALL (    7709 calls)

     Called by h_psi:
     h_psi:calbec :     71.46s CPU     71.84s WALL (    8608 calls)
     vloc_psi     :    414.85s CPU    418.89s WALL (    8608 calls)
     add_vuspsi   :     76.71s CPU     77.15s WALL (    8608 calls)

     General routines
     calbec       :     95.74s CPU     96.20s WALL (    9518 calls)
     fft          :     24.66s CPU     24.84s WALL (    5544 calls)
     ffts         :      0.17s CPU      0.17s WALL (     175 calls)
     fftw         :    470.76s CPU    475.35s WALL ( 1124310 calls)
     interpolate  :      0.53s CPU      0.53s WALL (      88 calls)
     davcio       :      0.00s CPU      0.21s WALL (      10 calls)
 
     Parallel routines
 
     PWSCF        :  21m19.49s CPU  21m39.40s WALL

 
   This run was terminated on:   2: 0:55  15Sep2021            

=------------------------------------------------------------------------------=
   JOB DONE.
=------------------------------------------------------------------------------=
