
     Program PWSCF v.6.7GPU starts on  9Sep2021 at  3:37:59 

     This program is part of the open-source Quantum ESPRESSO suite
     for quantum simulation of materials; please cite
         "P. Giannozzi et al., J. Phys.:Condens. Matter 21 395502 (2009);
         "P. Giannozzi et al., J. Phys.:Condens. Matter 29 465901 (2017);
         "P. Giannozzi et al., J. Chem. Phys. 152 154105 (2020);
          URL http://www.quantum-espresso.org", 
     in publications or presentations arising from this work. More details at
     http://www.quantum-espresso.org/quote

     Parallel version (MPI), running on    10 processors

     MPI processes distributed on     1 nodes
     R & G space division:  proc/nbgrp/npool/nimage =      10
     Reading input from /storage/home/hcoda1/3/ntian30/research/carbon/CxH_vib/CH3_calc/ads_slab/CH3NHNH_a/out_0018/pw.inp
Warning: card &CELL ignored
Warning: card   CELL_DYNAMICS='IPI', ignored
Warning: card / ignored

     Current dimensions of program PWSCF are:
     Max number of different atomic species (ntypx) = 10
     Max number of k-points (npk) =  40000
     Max angular momentum in pseudopotentials (lmaxx) =  3
     Presently no symmetry can be used with electric field

     Message from routine cell_base_init:
     DEPRECATED: use true lattice parameter, not A to a.u. conversion factor

     **************************************************************************
     Initializing libbeef V0.1.2 with the BEEF-vdW functional.
     Citation: Wellendorff et al., PRB 85, 235149 (2012).
     **************************************************************************


     IMPORTANT: XC functional enforced from input :
     Exchange-correlation= BEEF-VDW
                           (   1   4  43  14   2   0   0)
     Any further DFT definition will be discarded
     Please, verify this is what you really want


     Subspace diagonalization in iterative solution of the eigenvalue problem:
     one sub-group per band group will be used
     scalapack distributed-memory algorithm (size of sub-group:  3*  3 procs)

  @ DRIVER MODE: Connecting to 
 qe_1139763_2767401.sched-torque.pace.gatech.eduxjksc9we_scratch
  using UNIX socket
  @ DRIVER MODE: Message from server: STATUS
  @ DRIVER MODE: Message from server: INIT
  @ DRIVER MODE: Receiving replica           0          -1
  @ DRIVER MODE: Receiving encoded integer          25
  @ DRIVER MODE:  SCF:  T  FORCE:  T  STRESS:  F  VC:  F  ENSEMBLE:  F
  @ DRIVER MODE:  SCF:  T  FORCE:  T  STRESS:  F  VC:  F  ENSEMBLE:  F
 
     Parallelization info
     --------------------
     sticks:   dense  smooth     PW     G-vecs:    dense   smooth      PW
     Min         327     131     37                56683    14340    2191
     Max         328     133     38                56694    14346    2206
     Sum        3275    1317    379               566857   143421   21985
 
     Using Slab Decomposition
 


     bravais-lattice index     =            0
     lattice parameter (alat)  =       1.8897  a.u.
     unit-cell volume          =    6658.9804 (a.u.)^3
     number of atoms/cell      =           55
     number of atomic types    =            5
     number of electrons       =       397.00
     number of Kohn-Sham states=          208
     kinetic-energy cutoff     =      29.3995  Ry
     charge density cutoff     =     293.9946  Ry
     scf convergence threshold =      7.3E-08
     mixing beta               =       0.0500
     number of iterations used =            8  plain     mixing
     Exchange-correlation= BEEF-VDW
                           (   1   4  43  14   2   0   0)

     celldm(1)=   1.889726  celldm(2)=   0.000000  celldm(3)=   0.000000
     celldm(4)=   0.000000  celldm(5)=   0.000000  celldm(6)=   0.000000

     crystal axes: (cart. coord. in units of alat)
               a(1) = (   6.579727   0.000000   0.000000 )  
               a(2) = (  -0.000775   5.961596   0.000000 )  
               a(3) = (   0.000000   0.000000  25.155947 )  

     reciprocal axes: (cart. coord. in units 2 pi/alat)
               b(1) = (  0.151982  0.000020  0.000000 )  
               b(2) = (  0.000000  0.167740  0.000000 )  
               b(3) = (  0.000000  0.000000  0.039752 )  


     PseudoPot. # 1 for Ti read from file:
     /storage/coda1/p-amedford6/0/shared/rich_project_chbe-medford/medford-share/data/pseudos_module/espresso/nninc/pbe/van/Ti.UPF
     MD5 check sum: 8e4df49b7f0d34bbd5052bf3f5ea0213
     Pseudo is Ultrasoft, Zval = 12.0
     Generated by new atomic code, or converted to UPF format
     Using radial grid of  851 points,  6 beta functions with: 
                l(1) =   0
                l(2) =   0
                l(3) =   1
                l(4) =   1
                l(5) =   2
                l(6) =   2
     Q(r) pseudized with  8 coefficients,  rinner =    1.000   1.000   1.000
                                                       1.000   1.000

     PseudoPot. # 2 for O  read from file:
     /storage/coda1/p-amedford6/0/shared/rich_project_chbe-medford/medford-share/data/pseudos_module/espresso/nninc/pbe/van/O.UPF
     MD5 check sum: 78c19812648e8988a0fe644b0f25305e
     Pseudo is Ultrasoft, Zval =  6.0
     Generated by new atomic code, or converted to UPF format
     Using radial grid of  737 points,  4 beta functions with: 
                l(1) =   0
                l(2) =   0
                l(3) =   1
                l(4) =   1
     Q(r) pseudized with  8 coefficients,  rinner =    0.800   0.800   0.800


     PseudoPot. # 3 for N  read from file:
     /storage/coda1/p-amedford6/0/shared/rich_project_chbe-medford/medford-share/data/pseudos_module/espresso/nninc/pbe/van/N.UPF
     MD5 check sum: 90d10febe142ad51ac9d5be1deb811c4
     Pseudo is Ultrasoft, Zval =  5.0
     Generated by new atomic code, or converted to UPF format
     Using radial grid of  729 points,  4 beta functions with: 
                l(1) =   0
                l(2) =   0
                l(3) =   1
                l(4) =   1
     Q(r) pseudized with  8 coefficients,  rinner =    0.800   0.800   0.800


     PseudoPot. # 4 for C  read from file:
     /storage/coda1/p-amedford6/0/shared/rich_project_chbe-medford/medford-share/data/pseudos_module/espresso/nninc/pbe/van/C.UPF
     MD5 check sum: 1a69bf6b8db32088f5b2163dbdb77a27
     Pseudo is Ultrasoft, Zval =  4.0
     Generated by new atomic code, or converted to UPF format
     Using radial grid of  721 points,  4 beta functions with: 
                l(1) =   0
                l(2) =   0
                l(3) =   1
                l(4) =   1
     Q(r) pseudized with  8 coefficients,  rinner =    0.800   0.800   0.800


     PseudoPot. # 5 for H  read from file:
     /storage/coda1/p-amedford6/0/shared/rich_project_chbe-medford/medford-share/data/pseudos_module/espresso/nninc/pbe/van/H.UPF
     MD5 check sum: b5ee9d7bfd3a09ee7748110bda690ff7
     Pseudo is Ultrasoft, Zval =  1.0
     Generated by new atomic code, or converted to UPF format
     Using radial grid of  615 points,  1 beta functions with: 
                l(1) =   0
     Q(r) pseudized with  8 coefficients,  rinner =    0.800

     atomic species   valence    mass     pseudopotential
        Ti1           12.00    47.86700     Ti( 1.00)
        O1             6.00    15.99900     O ( 1.00)
        N1             5.00    14.00700     N ( 1.00)
        C1             4.00    12.01100     C ( 1.00)
        H1             1.00     1.00800     H ( 1.00)

     No symmetry found



   Cartesian axes

     site n.     atom                  positions (alat units)
         1           Ti1 tau(   1) = (   0.0004258   2.9801865   6.0000000  )
         2           Ti1 tau(   2) = (   3.2906075   1.4906267   6.0002472  )
         3           O1  tau(   3) = (   0.0006271   0.0005054   7.9858123  )
         4           O1  tau(   4) = (   3.2906025   0.0005020   7.3038282  )
         5           O1  tau(   5) = (   4.5942328   1.4918067   9.2879030  )
         6           O1  tau(   6) = (   1.9868534   1.4903216   9.2879459  )
         7           Ti1 tau(   7) = (   3.2907910   2.8959150   9.1758416  )
         8           Ti1 tau(   8) = (   0.0015273   1.4827037   9.2680791  )
         9           O1  tau(   9) = (   3.2830128   5.9597860  11.3344455  )
        10           O1  tau(  10) = (   0.0116148   5.9584955  10.6183126  )
        11           O1  tau(  11) = (   1.2885291   1.4855062  12.6376555  )
        12           O1  tau(  12) = (   5.2724004   1.4911608  12.5936499  )
        13           Ti1 tau(  13) = (   0.0410009   3.0319447  12.6084003  )
        14           Ti1 tau(  14) = (   3.3739341   1.4916561  12.4823474  )
        15           O1  tau(  15) = (   6.4862162   0.0153916  14.6455093  )
        16           O1  tau(  16) = (   3.3439542   5.9611638  13.9051029  )
        17           O1  tau(  17) = (   4.4933269   1.5483200  16.1231154  )
        18           O1  tau(  18) = (   1.9964937   1.4536654  15.9127221  )
        19           Ti1 tau(  19) = (   3.1412959   3.0017366  15.7441667  )
        20           Ti1 tau(  20) = (   6.4823597   1.5369342  15.8006069  )
        21           O1  tau(  21) = (   3.2904802   0.0005063   4.7018136  )
        22           O1  tau(  22) = (   6.5709111   0.0522475  17.2082838  )
        23           O1  tau(  23) = (   1.3043587   1.4918075   6.0039043  )
        24           O1  tau(  24) = (   5.2767064   1.4903225   6.0039473  )
        25           Ti1 tau(  25) = (   0.0000382   5.9609847   6.0000000  )
        26           Ti1 tau(  26) = (   3.2902200   4.4714249   6.0002472  )
        27           O1  tau(  27) = (   0.0002396   2.9813036   7.9858123  )
        28           O1  tau(  28) = (   3.2902150   2.9813002   7.3038282  )
        29           O1  tau(  29) = (   4.5938453   4.4726049   9.2879030  )
        30           O1  tau(  30) = (   1.9864658   4.4711199   9.2879459  )
        31           Ti1 tau(  31) = (   3.2891106   5.8743827   9.1763621  )
        32           Ti1 tau(  32) = (   0.0006254   4.4649316   9.2693709  )
        33           O1  tau(  33) = (   3.2833609   2.9822938  11.3349093  )
        34           O1  tau(  34) = (   0.0092240   2.9805883  10.6323155  )
        35           O1  tau(  35) = (   1.2838611   4.4860338  12.6468719  )
        36           O1  tau(  36) = (   5.2760156   4.4607002  12.6015494  )
        37           Ti1 tau(  37) = (   0.0673138   0.0440259  12.5461749  )
        38           Ti1 tau(  38) = (   3.3712377   4.4654930  12.4933830  )
        39           O1  tau(  39) = (   6.5217465   2.9589972  14.6412948  )
        40           O1  tau(  40) = (   3.2809526   2.9956502  13.9333893  )
        41           O1  tau(  41) = (   4.4911989   4.4583117  16.1637052  )
        42           O1  tau(  42) = (   1.9937212   4.5427850  15.9740970  )
        43           Ti1 tau(  43) = (   3.2955853   0.0167752  15.6963065  )
        44           Ti1 tau(  44) = (   6.5082246   4.6715011  16.1069148  )
        45           O1  tau(  45) = (   3.2900926   2.9813045   4.7018136  )
        46           O1  tau(  46) = (   1.3039711   4.4726057   6.0039043  )
        47           O1  tau(  47) = (   5.2763189   4.4711207   6.0039473  )
        48           N1  tau(  48) = (   1.3945086   2.8365607  18.1849301  )
        49           N1  tau(  49) = (   0.1777896   2.9650562  17.4211889  )
        50           C1  tau(  50) = (   1.4118813   3.7128676  19.3656819  )
        51           H1  tau(  51) = (   0.5171711   3.5996102  19.9880000  )
        52           H1  tau(  52) = (   2.2935099   3.4681107  19.9517681  )
        53           H1  tau(  53) = (   1.4703795   4.7520035  19.0319817  )
        54           H1  tau(  54) = (   1.4579882   1.8621926  18.4823179  )
        55           H1  tau(  55) = (   5.9558665   2.8747675  18.0551794  )

     number of k points=    10  Fermi-Dirac smearing, width (Ry)=  0.0073
                       cart. coord. in units 2pi/alat
        k(    1) = (   0.0000000   0.0000000   0.0000000), wk =   0.1250000
        k(    2) = (   0.0000000   0.0419351   0.0000000), wk =   0.2500000
        k(    3) = (   0.0000000  -0.0838702   0.0000000), wk =   0.1250000
        k(    4) = (   0.0379955   0.0000049   0.0000000), wk =   0.2500000
        k(    5) = (   0.0379955   0.0419400   0.0000000), wk =   0.2500000
        k(    6) = (   0.0379955  -0.0838652   0.0000000), wk =   0.2500000
        k(    7) = (   0.0379955  -0.0419301   0.0000000), wk =   0.2500000
        k(    8) = (  -0.0759910  -0.0000099   0.0000000), wk =   0.1250000
        k(    9) = (  -0.0759910   0.0419252   0.0000000), wk =   0.2500000
        k(   10) = (  -0.0759910  -0.0838800   0.0000000), wk =   0.1250000

     Dense  grid:   566857 G-vectors     FFT dimensions: (  72,  64, 270)

     Smooth grid:   143421 G-vectors     FFT dimensions: (  45,  40, 180)

     Estimated max dynamical RAM per process >     363.76 MB

     Estimated total dynamical RAM >       3.55 GB
     Cannot read rho : file not found

     Initial potential from superposition of free atoms

     starting charge  380.99914, renormalised to  397.00000

     negative rho (up, down):  1.540E-02 0.000E+00


     %%%%%%%%%%%%%%%%%%%%%%%%%%%%%%%%%%%%%%%%%%%%%%%%%%%%%%%%%%%%%%%%%%%%%%%%
     %                                                                      %
     % You are using vdW-DF, which was implemented by the Thonhauser group. %
     % Please cite the following two papers that made this development      %
     % possible and the two reviews that describe the various versions:     %
     %                                                                      %
     %   T. Thonhauser et al., PRL 115, 136402 (2015).                      %
     %   T. Thonhauser et al., PRB 76, 125112 (2007).                       %
     %   K. Berland et al., Rep. Prog. Phys. 78, 066501 (2015).             %
     %   D.C. Langreth et al., J. Phys.: Condens. Matter 21, 084203 (2009). %
     %                                                                      %
     %                                                                      %
     % If you are calculating the stress with vdW-DF, please also cite:     %
     %                                                                      %
     %   R. Sabatini et al., J. Phys.: Condens. Matter 24, 424209 (2012).   %
     %                                                                      %
     %%%%%%%%%%%%%%%%%%%%%%%%%%%%%%%%%%%%%%%%%%%%%%%%%%%%%%%%%%%%%%%%%%%%%%%%


 
     Adding external electric field

     Computed dipole along edir(3) : 
        Dipole               -9.6212 Ry au,        -24.4546 Debye
        Dipole field         -0.0182 Ry au, 
 
        Potential amp.        1.6831 Ry
        Total length         46.3494 bohr
 
     Starting wfcs are  301 atomic wfcs
  @ DRIVER MODE: Message from server: STATUS
  @ DRIVER MODE: Message from server: POSDATA
  @ DRIVER MODE: Reading and sharing cell 
  @ DRIVER MODE: Reading and sharing positions 
  @ DRIVER MODE: Received positions 

     total cpu time spent up to now is       11.3 secs

     Self-consistent Calculation

     iteration #  1     ecut=    29.40 Ry     beta= 0.05
     Davidson diagonalization with overlap
     c_bands:  1 eigenvalues not converged
     c_bands:  1 eigenvalues not converged
     c_bands:  1 eigenvalues not converged
     c_bands:  1 eigenvalues not converged
     c_bands:  1 eigenvalues not converged
     c_bands:  1 eigenvalues not converged
     c_bands:  2 eigenvalues not converged
     ethr =  1.00E-05,  avg # of iterations = 18.8

     negative rho (up, down):  1.191E-02 0.000E+00
 
     Adding external electric field

     Computed dipole along edir(3) : 
        Dipole               43.0559 Ry au,        109.4371 Debye
        Dipole field          0.0813 Ry au, 
 
        Potential amp.       -7.5320 Ry
        Total length         46.3494 bohr
 

     total cpu time spent up to now is       51.6 secs

     total energy              =   -2532.99986075 Ry
     estimated scf accuracy    <    4545.35664734 Ry

     iteration #  2     ecut=    29.40 Ry     beta= 0.05
     Davidson diagonalization with overlap
     ethr =  1.00E-02,  avg # of iterations = 24.7

     negative rho (up, down):  3.074E-03 0.000E+00
 
     Adding external electric field

     Computed dipole along edir(3) : 
        Dipole               -2.4202 Ry au,         -6.1516 Debye
        Dipole field         -0.0046 Ry au, 
 
        Potential amp.        0.4234 Ry
        Total length         46.3494 bohr
 

     total cpu time spent up to now is      125.9 secs

     total energy              =   -2464.75958387 Ry
     estimated scf accuracy    <   66363.83853467 Ry

     iteration #  3     ecut=    29.40 Ry     beta= 0.05
     Davidson diagonalization with overlap
     ethr =  1.00E-02,  avg # of iterations = 14.6

     negative rho (up, down):  3.144E-03 0.000E+00
 
     Adding external electric field

     Computed dipole along edir(3) : 
        Dipole               -4.5325 Ry au,        -11.5205 Debye
        Dipole field         -0.0086 Ry au, 
 
        Potential amp.        0.7929 Ry
        Total length         46.3494 bohr
 

     total cpu time spent up to now is      172.8 secs

     total energy              =   -2925.07573701 Ry
     estimated scf accuracy    <    4237.85212553 Ry

     iteration #  4     ecut=    29.40 Ry     beta= 0.05
     Davidson diagonalization with overlap
     c_bands:  1 eigenvalues not converged
     ethr =  1.00E-02,  avg # of iterations = 14.8

     negative rho (up, down):  3.197E-03 0.000E+00
 
     Adding external electric field

     Computed dipole along edir(3) : 
        Dipole               -6.0850 Ry au,        -15.4666 Debye
        Dipole field         -0.0115 Ry au, 
 
        Potential amp.        1.0645 Ry
        Total length         46.3494 bohr
 

     total cpu time spent up to now is      192.3 secs

     total energy              =   -2928.86139379 Ry
     estimated scf accuracy    <    1417.07007808 Ry

     iteration #  5     ecut=    29.40 Ry     beta= 0.05
     Davidson diagonalization with overlap
     ethr =  1.00E-02,  avg # of iterations = 13.0

     negative rho (up, down):  3.213E-03 0.000E+00
 
     Adding external electric field

     Computed dipole along edir(3) : 
        Dipole               -5.6468 Ry au,        -14.3526 Debye
        Dipole field         -0.0107 Ry au, 
 
        Potential amp.        0.9878 Ry
        Total length         46.3494 bohr
 

     total cpu time spent up to now is      209.9 secs

     total energy              =   -2943.53445457 Ry
     estimated scf accuracy    <      48.04281354 Ry

     iteration #  6     ecut=    29.40 Ry     beta= 0.05
     Davidson diagonalization with overlap
     ethr =  1.00E-02,  avg # of iterations =  1.8

     negative rho (up, down):  3.264E-03 0.000E+00
 
     Adding external electric field

     Computed dipole along edir(3) : 
        Dipole               -4.9584 Ry au,        -12.6030 Debye
        Dipole field         -0.0094 Ry au, 
 
        Potential amp.        0.8674 Ry
        Total length         46.3494 bohr
 

     total cpu time spent up to now is      220.2 secs

     total energy              =   -2943.03278902 Ry
     estimated scf accuracy    <      40.15215534 Ry

     iteration #  7     ecut=    29.40 Ry     beta= 0.05
     Davidson diagonalization with overlap
     ethr =  1.00E-02,  avg # of iterations =  1.5

     negative rho (up, down):  3.740E-03 0.000E+00
 
     Adding external electric field

     Computed dipole along edir(3) : 
        Dipole               -2.0930 Ry au,         -5.3198 Debye
        Dipole field         -0.0039 Ry au, 
 
        Potential amp.        0.3661 Ry
        Total length         46.3494 bohr
 

     total cpu time spent up to now is      230.4 secs

     total energy              =   -2940.85938144 Ry
     estimated scf accuracy    <      37.02999666 Ry

     iteration #  8     ecut=    29.40 Ry     beta= 0.05
     Davidson diagonalization with overlap
     ethr =  9.33E-03,  avg # of iterations =  2.0

     negative rho (up, down):  3.757E-03 0.000E+00
 
     Adding external electric field

     Computed dipole along edir(3) : 
        Dipole               -2.0135 Ry au,         -5.1178 Debye
        Dipole field         -0.0038 Ry au, 
 
        Potential amp.        0.3522 Ry
        Total length         46.3494 bohr
 

     total cpu time spent up to now is      241.4 secs

     total energy              =   -2943.55959604 Ry
     estimated scf accuracy    <     474.75242723 Ry

     iteration #  9     ecut=    29.40 Ry     beta= 0.05
     Davidson diagonalization with overlap
     ethr =  9.33E-03,  avg # of iterations =  1.0

     negative rho (up, down):  3.948E-03 0.000E+00
 
     Adding external electric field

     Computed dipole along edir(3) : 
        Dipole               -1.8961 Ry au,         -4.8195 Debye
        Dipole field         -0.0036 Ry au, 
 
        Potential amp.        0.3317 Ry
        Total length         46.3494 bohr
 

     total cpu time spent up to now is      251.4 secs

     total energy              =   -2942.54998211 Ry
     estimated scf accuracy    <     493.18252203 Ry

     iteration # 10     ecut=    29.40 Ry     beta= 0.05
     Davidson diagonalization with overlap
     ethr =  9.33E-03,  avg # of iterations =  1.0

     negative rho (up, down):  4.171E-03 0.000E+00
 
     Adding external electric field

     Computed dipole along edir(3) : 
        Dipole               -3.0342 Ry au,         -7.7121 Debye
        Dipole field         -0.0057 Ry au, 
 
        Potential amp.        0.5308 Ry
        Total length         46.3494 bohr
 

     total cpu time spent up to now is      261.3 secs

     total energy              =   -2937.22987823 Ry
     estimated scf accuracy    <     331.94904317 Ry

     iteration # 11     ecut=    29.40 Ry     beta= 0.05
     Davidson diagonalization with overlap
     ethr =  9.33E-03,  avg # of iterations =  2.4

     negative rho (up, down):  4.207E-03 0.000E+00
 
     Adding external electric field

     Computed dipole along edir(3) : 
        Dipole               -3.4347 Ry au,         -8.7302 Debye
        Dipole field         -0.0065 Ry au, 
 
        Potential amp.        0.6009 Ry
        Total length         46.3494 bohr
 

     total cpu time spent up to now is      271.8 secs

     total energy              =   -2940.42064808 Ry
     estimated scf accuracy    <      17.22785708 Ry

     iteration # 12     ecut=    29.40 Ry     beta= 0.05
     Davidson diagonalization with overlap
     ethr =  4.34E-03,  avg # of iterations =  3.2

     negative rho (up, down):  4.160E-03 0.000E+00
 
     Adding external electric field

     Computed dipole along edir(3) : 
        Dipole               -2.4501 Ry au,         -6.2276 Debye
        Dipole field         -0.0046 Ry au, 
 
        Potential amp.        0.4286 Ry
        Total length         46.3494 bohr
 

     total cpu time spent up to now is      283.5 secs

     total energy              =   -2941.93177382 Ry
     estimated scf accuracy    <       3.60064922 Ry

     iteration # 13     ecut=    29.40 Ry     beta= 0.05
     Davidson diagonalization with overlap
     ethr =  9.07E-04,  avg # of iterations =  5.1

     negative rho (up, down):  3.956E-03 0.000E+00
 
     Adding external electric field

     Computed dipole along edir(3) : 
        Dipole               -2.5058 Ry au,         -6.3692 Debye
        Dipole field         -0.0047 Ry au, 
 
        Potential amp.        0.4384 Ry
        Total length         46.3494 bohr
 

     total cpu time spent up to now is      296.0 secs

     total energy              =   -2941.76736051 Ry
     estimated scf accuracy    <       2.94307452 Ry

     iteration # 14     ecut=    29.40 Ry     beta= 0.05
     Davidson diagonalization with overlap
     ethr =  7.41E-04,  avg # of iterations =  1.6

     negative rho (up, down):  3.932E-03 0.000E+00
 
     Adding external electric field

     Computed dipole along edir(3) : 
        Dipole               -2.2600 Ry au,         -5.7445 Debye
        Dipole field         -0.0043 Ry au, 
 
        Potential amp.        0.3954 Ry
        Total length         46.3494 bohr
 

     total cpu time spent up to now is      306.6 secs

     total energy              =   -2941.59881007 Ry
     estimated scf accuracy    <       1.81337074 Ry

     iteration # 15     ecut=    29.40 Ry     beta= 0.05
     Davidson diagonalization with overlap
     ethr =  4.57E-04,  avg # of iterations =  7.3

     negative rho (up, down):  5.052E-03 0.000E+00
 
     Adding external electric field

     Computed dipole along edir(3) : 
        Dipole               -1.8036 Ry au,         -4.5842 Debye
        Dipole field         -0.0034 Ry au, 
 
        Potential amp.        0.3155 Ry
        Total length         46.3494 bohr
 

     total cpu time spent up to now is      321.1 secs

     total energy              =   -2941.58242236 Ry
     estimated scf accuracy    <       1.01573588 Ry

     iteration # 16     ecut=    29.40 Ry     beta= 0.05
     Davidson diagonalization with overlap
     c_bands:  2 eigenvalues not converged
     c_bands:  2 eigenvalues not converged
     ethr =  2.56E-04,  avg # of iterations = 17.8

     negative rho (up, down):  4.578E-03 0.000E+00
 
     Adding external electric field

     Computed dipole along edir(3) : 
        Dipole               -1.8354 Ry au,         -4.6651 Debye
        Dipole field         -0.0035 Ry au, 
 
        Potential amp.        0.3211 Ry
        Total length         46.3494 bohr
 

     total cpu time spent up to now is      350.3 secs

     total energy              =   -2941.09212572 Ry
     estimated scf accuracy    <     313.42998242 Ry

     iteration # 17     ecut=    29.40 Ry     beta= 0.05
     Davidson diagonalization with overlap
     ethr =  2.56E-04,  avg # of iterations = 12.5

     negative rho (up, down):  4.559E-03 0.000E+00
 
     Adding external electric field

     Computed dipole along edir(3) : 
        Dipole               -1.6369 Ry au,         -4.1605 Debye
        Dipole field         -0.0031 Ry au, 
 
        Potential amp.        0.2863 Ry
        Total length         46.3494 bohr
 

     total cpu time spent up to now is      365.2 secs

     total energy              =   -2941.70867961 Ry
     estimated scf accuracy    <      16.96177621 Ry

     iteration # 18     ecut=    29.40 Ry     beta= 0.05
     Davidson diagonalization with overlap
     ethr =  2.56E-04,  avg # of iterations =  4.8

     negative rho (up, down):  4.556E-03 0.000E+00
 
     Adding external electric field

     Computed dipole along edir(3) : 
        Dipole               -1.9249 Ry au,         -4.8927 Debye
        Dipole field         -0.0036 Ry au, 
 
        Potential amp.        0.3367 Ry
        Total length         46.3494 bohr
 

     total cpu time spent up to now is      377.8 secs

     total energy              =   -2941.81205528 Ry
     estimated scf accuracy    <       3.11151366 Ry

     iteration # 19     ecut=    29.40 Ry     beta= 0.05
     Davidson diagonalization with overlap
     ethr =  2.56E-04,  avg # of iterations =  1.9

     negative rho (up, down):  5.232E-03 0.000E+00
 
     Adding external electric field

     Computed dipole along edir(3) : 
        Dipole               -0.6120 Ry au,         -1.5555 Debye
        Dipole field         -0.0012 Ry au, 
 
        Potential amp.        0.1071 Ry
        Total length         46.3494 bohr
 

     total cpu time spent up to now is      388.4 secs

     total energy              =   -2941.56677791 Ry
     estimated scf accuracy    <       9.31418953 Ry

     iteration # 20     ecut=    29.40 Ry     beta= 0.05
     Davidson diagonalization with overlap
     ethr =  2.56E-04,  avg # of iterations =  5.4

     negative rho (up, down):  5.842E-03 0.000E+00
 
     Adding external electric field

     Computed dipole along edir(3) : 
        Dipole               -0.2890 Ry au,         -0.7346 Debye
        Dipole field         -0.0005 Ry au, 
 
        Potential amp.        0.0506 Ry
        Total length         46.3494 bohr
 

     total cpu time spent up to now is      401.0 secs

     total energy              =   -2941.62272194 Ry
     estimated scf accuracy    <       1.32620540 Ry

     iteration # 21     ecut=    29.40 Ry     beta= 0.05
     Davidson diagonalization with overlap
     ethr =  2.56E-04,  avg # of iterations =  3.4

     negative rho (up, down):  5.978E-03 0.000E+00
 
     Adding external electric field

     Computed dipole along edir(3) : 
        Dipole               -0.2276 Ry au,         -0.5786 Debye
        Dipole field         -0.0004 Ry au, 
 
        Potential amp.        0.0398 Ry
        Total length         46.3494 bohr
 

     total cpu time spent up to now is      413.5 secs

     total energy              =   -2941.70221857 Ry
     estimated scf accuracy    <       1.37637971 Ry

     iteration # 22     ecut=    29.40 Ry     beta= 0.05
     Davidson diagonalization with overlap
     ethr =  2.56E-04,  avg # of iterations =  2.1

     negative rho (up, down):  6.237E-03 0.000E+00
 
     Adding external electric field

     Computed dipole along edir(3) : 
        Dipole               -0.3201 Ry au,         -0.8135 Debye
        Dipole field         -0.0006 Ry au, 
 
        Potential amp.        0.0560 Ry
        Total length         46.3494 bohr
 

     total cpu time spent up to now is      423.9 secs

     total energy              =   -2941.70368842 Ry
     estimated scf accuracy    <       0.97763268 Ry

     iteration # 23     ecut=    29.40 Ry     beta= 0.05
     Davidson diagonalization with overlap
     ethr =  2.46E-04,  avg # of iterations =  1.7

     negative rho (up, down):  6.520E-03 0.000E+00
 
     Adding external electric field

     Computed dipole along edir(3) : 
        Dipole               -0.3367 Ry au,         -0.8558 Debye
        Dipole field         -0.0006 Ry au, 
 
        Potential amp.        0.0589 Ry
        Total length         46.3494 bohr
 

     total cpu time spent up to now is      434.5 secs

     total energy              =   -2941.72801788 Ry
     estimated scf accuracy    <       2.24862183 Ry

     iteration # 24     ecut=    29.40 Ry     beta= 0.05
     Davidson diagonalization with overlap
     ethr =  2.46E-04,  avg # of iterations =  1.1

     negative rho (up, down):  6.403E-03 0.000E+00
 
     Adding external electric field

     Computed dipole along edir(3) : 
        Dipole               -0.0285 Ry au,         -0.0724 Debye
        Dipole field         -0.0001 Ry au, 
 
        Potential amp.        0.0050 Ry
        Total length         46.3494 bohr
 

     total cpu time spent up to now is      444.5 secs

     total energy              =   -2941.69833187 Ry
     estimated scf accuracy    <       3.82085421 Ry

     iteration # 25     ecut=    29.40 Ry     beta= 0.05
     Davidson diagonalization with overlap
     ethr =  2.46E-04,  avg # of iterations =  1.3

     negative rho (up, down):  5.977E-03 0.000E+00
 
     Adding external electric field

     Computed dipole along edir(3) : 
        Dipole               -0.0635 Ry au,         -0.1615 Debye
        Dipole field         -0.0001 Ry au, 
 
        Potential amp.        0.0111 Ry
        Total length         46.3494 bohr
 

     total cpu time spent up to now is      454.8 secs

     total energy              =   -2941.72422928 Ry
     estimated scf accuracy    <       0.84658920 Ry

     iteration # 26     ecut=    29.40 Ry     beta= 0.05
     Davidson diagonalization with overlap
     ethr =  2.13E-04,  avg # of iterations =  1.1

     negative rho (up, down):  5.954E-03 0.000E+00
 
     Adding external electric field

     Computed dipole along edir(3) : 
        Dipole               -0.3579 Ry au,         -0.9097 Debye
        Dipole field         -0.0007 Ry au, 
 
        Potential amp.        0.0626 Ry
        Total length         46.3494 bohr
 

     total cpu time spent up to now is      464.8 secs

     total energy              =   -2941.64372471 Ry
     estimated scf accuracy    <       0.93847544 Ry

     iteration # 27     ecut=    29.40 Ry     beta= 0.05
     Davidson diagonalization with overlap
     c_bands:  1 eigenvalues not converged
     ethr =  2.13E-04,  avg # of iterations = 14.9

     negative rho (up, down):  6.091E-03 0.000E+00
 
     Adding external electric field

     Computed dipole along edir(3) : 
        Dipole               -0.2453 Ry au,         -0.6235 Debye
        Dipole field         -0.0005 Ry au, 
 
        Potential amp.        0.0429 Ry
        Total length         46.3494 bohr
 

     total cpu time spent up to now is      480.5 secs

     total energy              =   -2941.65792186 Ry
     estimated scf accuracy    <       0.37139903 Ry

     iteration # 28     ecut=    29.40 Ry     beta= 0.05
     Davidson diagonalization with overlap
     c_bands:  2 eigenvalues not converged
     ethr =  9.36E-05,  avg # of iterations =  9.0

     negative rho (up, down):  6.435E-03 0.000E+00
 
     Adding external electric field

     Computed dipole along edir(3) : 
        Dipole               -0.1967 Ry au,         -0.4999 Debye
        Dipole field         -0.0004 Ry au, 
 
        Potential amp.        0.0344 Ry
        Total length         46.3494 bohr
 

     total cpu time spent up to now is      493.4 secs

     total energy              =   -2941.64723621 Ry
     estimated scf accuracy    <       0.45623189 Ry

     iteration # 29     ecut=    29.40 Ry     beta= 0.05
     Davidson diagonalization with overlap
     c_bands:  4 eigenvalues not converged
     c_bands:  4 eigenvalues not converged
     c_bands:  3 eigenvalues not converged
     c_bands:  3 eigenvalues not converged
     c_bands:  3 eigenvalues not converged
     c_bands:  4 eigenvalues not converged
     c_bands:  4 eigenvalues not converged
     ethr =  9.36E-05,  avg # of iterations = 21.6

     negative rho (up, down):  6.624E-03 0.000E+00
 
     Adding external electric field

     Computed dipole along edir(3) : 
        Dipole                0.0295 Ry au,          0.0750 Debye
        Dipole field          0.0001 Ry au, 
 
        Potential amp.       -0.0052 Ry
        Total length         46.3494 bohr
 

     total cpu time spent up to now is      513.7 secs

     total energy              =   -2941.66039897 Ry
     estimated scf accuracy    <       0.11039323 Ry

     iteration # 30     ecut=    29.40 Ry     beta= 0.05
     Davidson diagonalization with overlap
     c_bands:  1 eigenvalues not converged
     c_bands:  3 eigenvalues not converged
     c_bands:  2 eigenvalues not converged
     c_bands:  2 eigenvalues not converged
     ethr =  2.78E-05,  avg # of iterations = 16.3

     negative rho (up, down):  7.381E-03 0.000E+00
 
     Adding external electric field

     Computed dipole along edir(3) : 
        Dipole                0.3006 Ry au,          0.7640 Debye
        Dipole field          0.0006 Ry au, 
 
        Potential amp.       -0.0526 Ry
        Total length         46.3494 bohr
 

     total cpu time spent up to now is      530.4 secs

     total energy              =   -2941.66469643 Ry
     estimated scf accuracy    <       0.28644479 Ry

     iteration # 31     ecut=    29.40 Ry     beta= 0.05
     Davidson diagonalization with overlap
     ethr =  2.78E-05,  avg # of iterations =  3.1

     negative rho (up, down):  8.974E-03 0.000E+00
 
     Adding external electric field

     Computed dipole along edir(3) : 
        Dipole                0.5607 Ry au,          1.4252 Debye
        Dipole field          0.0011 Ry au, 
 
        Potential amp.       -0.0981 Ry
        Total length         46.3494 bohr
 

     total cpu time spent up to now is      541.5 secs

     total energy              =   -2941.65747604 Ry
     estimated scf accuracy    <       0.17831241 Ry

     iteration # 32     ecut=    29.40 Ry     beta= 0.05
     Davidson diagonalization with overlap
     c_bands:  4 eigenvalues not converged
     c_bands:  2 eigenvalues not converged
     c_bands:  1 eigenvalues not converged
     ethr =  2.78E-05,  avg # of iterations = 15.2

     negative rho (up, down):  9.084E-03 0.000E+00
 
     Adding external electric field

     Computed dipole along edir(3) : 
        Dipole                0.5958 Ry au,          1.5143 Debye
        Dipole field          0.0011 Ry au, 
 
        Potential amp.       -0.1042 Ry
        Total length         46.3494 bohr
 

     total cpu time spent up to now is      557.2 secs

     total energy              =   -2941.66341168 Ry
     estimated scf accuracy    <       0.04921882 Ry

     iteration # 33     ecut=    29.40 Ry     beta= 0.05
     Davidson diagonalization with overlap
     c_bands:  3 eigenvalues not converged
     ethr =  1.24E-05,  avg # of iterations = 10.3

     negative rho (up, down):  8.668E-03 0.000E+00
 
     Adding external electric field

     Computed dipole along edir(3) : 
        Dipole                0.6366 Ry au,          1.6182 Debye
        Dipole field          0.0012 Ry au, 
 
        Potential amp.       -0.1114 Ry
        Total length         46.3494 bohr
 

     total cpu time spent up to now is      570.8 secs

     total energy              =   -2941.65895540 Ry
     estimated scf accuracy    <       0.05157625 Ry

     iteration # 34     ecut=    29.40 Ry     beta= 0.05
     Davidson diagonalization with overlap
     c_bands:  1 eigenvalues not converged
     c_bands:  1 eigenvalues not converged
     c_bands:  5 eigenvalues not converged
     c_bands:  4 eigenvalues not converged
     c_bands:  3 eigenvalues not converged
     c_bands:  4 eigenvalues not converged
     c_bands:  1 eigenvalues not converged
     c_bands:  3 eigenvalues not converged
     c_bands:  2 eigenvalues not converged
     ethr =  1.24E-05,  avg # of iterations = 19.8

     negative rho (up, down):  8.000E-03 0.000E+00
 
     Adding external electric field

     Computed dipole along edir(3) : 
        Dipole                0.5325 Ry au,          1.3535 Debye
        Dipole field          0.0010 Ry au, 
 
        Potential amp.       -0.0932 Ry
        Total length         46.3494 bohr
 

     total cpu time spent up to now is      591.1 secs

     total energy              =   -2941.65475006 Ry
     estimated scf accuracy    <       0.07251806 Ry

     iteration # 35     ecut=    29.40 Ry     beta= 0.05
     Davidson diagonalization with overlap
     c_bands:  1 eigenvalues not converged
     c_bands:  1 eigenvalues not converged
     c_bands:  2 eigenvalues not converged
     c_bands:  3 eigenvalues not converged
     c_bands:  1 eigenvalues not converged
     c_bands:  2 eigenvalues not converged
     c_bands:  1 eigenvalues not converged
     ethr =  1.24E-05,  avg # of iterations = 18.9

     negative rho (up, down):  8.110E-03 0.000E+00
 
     Adding external electric field

     Computed dipole along edir(3) : 
        Dipole                0.6162 Ry au,          1.5663 Debye
        Dipole field          0.0012 Ry au, 
 
        Potential amp.       -0.1078 Ry
        Total length         46.3494 bohr
 

     total cpu time spent up to now is      609.3 secs

     total energy              =   -2941.66485156 Ry
     estimated scf accuracy    <       0.06147949 Ry

     iteration # 36     ecut=    29.40 Ry     beta= 0.05
     Davidson diagonalization with overlap
     c_bands:  2 eigenvalues not converged
     c_bands:  1 eigenvalues not converged
     c_bands:  1 eigenvalues not converged
     ethr =  1.24E-05,  avg # of iterations = 15.6

     negative rho (up, down):  7.858E-03 0.000E+00
 
     Adding external electric field

     Computed dipole along edir(3) : 
        Dipole                0.6326 Ry au,          1.6078 Debye
        Dipole field          0.0012 Ry au, 
 
        Potential amp.       -0.1107 Ry
        Total length         46.3494 bohr
 

     total cpu time spent up to now is      627.5 secs

     total energy              =   -2941.66205484 Ry
     estimated scf accuracy    <       0.09158415 Ry

     iteration # 37     ecut=    29.40 Ry     beta= 0.05
     Davidson diagonalization with overlap
     ethr =  1.24E-05,  avg # of iterations =  3.4

     negative rho (up, down):  8.136E-03 0.000E+00
 
     Adding external electric field

     Computed dipole along edir(3) : 
        Dipole                0.7344 Ry au,          1.8667 Debye
        Dipole field          0.0014 Ry au, 
 
        Potential amp.       -0.1285 Ry
        Total length         46.3494 bohr
 

     total cpu time spent up to now is      638.7 secs

     total energy              =   -2941.65291785 Ry
     estimated scf accuracy    <       0.05702361 Ry

     iteration # 38     ecut=    29.40 Ry     beta= 0.05
     Davidson diagonalization with overlap
     c_bands:  1 eigenvalues not converged
     c_bands:  3 eigenvalues not converged
     c_bands:  2 eigenvalues not converged
     c_bands:  1 eigenvalues not converged
     c_bands:  2 eigenvalues not converged
     c_bands:  3 eigenvalues not converged
     ethr =  1.24E-05,  avg # of iterations = 19.0

     negative rho (up, down):  8.770E-03 0.000E+00
 
     Adding external electric field

     Computed dipole along edir(3) : 
        Dipole                0.7876 Ry au,          2.0020 Debye
        Dipole field          0.0015 Ry au, 
 
        Potential amp.       -0.1378 Ry
        Total length         46.3494 bohr
 

     total cpu time spent up to now is      660.4 secs

     total energy              =   -2941.65931594 Ry
     estimated scf accuracy    <       0.00882454 Ry

     iteration # 39     ecut=    29.40 Ry     beta= 0.05
     Davidson diagonalization with overlap
     c_bands:  2 eigenvalues not converged
     c_bands:  1 eigenvalues not converged
     ethr =  2.22E-06,  avg # of iterations = 15.3

     negative rho (up, down):  1.035E-02 0.000E+00
 
     Adding external electric field

     Computed dipole along edir(3) : 
        Dipole                0.8719 Ry au,          2.2162 Debye
        Dipole field          0.0016 Ry au, 
 
        Potential amp.       -0.1525 Ry
        Total length         46.3494 bohr
 

     total cpu time spent up to now is      677.5 secs

     total energy              =   -2941.66040810 Ry
     estimated scf accuracy    <       0.00515846 Ry

     iteration # 40     ecut=    29.40 Ry     beta= 0.05
     Davidson diagonalization with overlap
     c_bands:  1 eigenvalues not converged
     ethr =  1.30E-06,  avg # of iterations = 13.1

     negative rho (up, down):  1.124E-02 0.000E+00
 
     Adding external electric field

     Computed dipole along edir(3) : 
        Dipole                0.8762 Ry au,          2.2271 Debye
        Dipole field          0.0017 Ry au, 
 
        Potential amp.       -0.1533 Ry
        Total length         46.3494 bohr
 

     total cpu time spent up to now is      695.1 secs

     total energy              =   -2941.66014619 Ry
     estimated scf accuracy    <       0.00428407 Ry

     iteration # 41     ecut=    29.40 Ry     beta= 0.05
     Davidson diagonalization with overlap
     c_bands:  2 eigenvalues not converged
     c_bands:  1 eigenvalues not converged
     ethr =  1.08E-06,  avg # of iterations = 13.8

     negative rho (up, down):  1.129E-02 0.000E+00
 
     Adding external electric field

     Computed dipole along edir(3) : 
        Dipole                0.8465 Ry au,          2.1516 Debye
        Dipole field          0.0016 Ry au, 
 
        Potential amp.       -0.1481 Ry
        Total length         46.3494 bohr
 

     total cpu time spent up to now is      715.0 secs

     total energy              =   -2941.66026858 Ry
     estimated scf accuracy    <       0.00424033 Ry

     iteration # 42     ecut=    29.40 Ry     beta= 0.05
     Davidson diagonalization with overlap
     c_bands:  1 eigenvalues not converged
     c_bands:  1 eigenvalues not converged
     c_bands:  1 eigenvalues not converged
     c_bands:  1 eigenvalues not converged
     ethr =  1.07E-06,  avg # of iterations = 17.2

     negative rho (up, down):  1.259E-02 0.000E+00
 
     Adding external electric field

     Computed dipole along edir(3) : 
        Dipole                0.9022 Ry au,          2.2932 Debye
        Dipole field          0.0017 Ry au, 
 
        Potential amp.       -0.1578 Ry
        Total length         46.3494 bohr
 

     total cpu time spent up to now is      734.3 secs

     total energy              =   -2941.66075560 Ry
     estimated scf accuracy    <       0.00454181 Ry

     iteration # 43     ecut=    29.40 Ry     beta= 0.05
     Davidson diagonalization with overlap
     c_bands:  1 eigenvalues not converged
     c_bands:  1 eigenvalues not converged
     c_bands:  2 eigenvalues not converged
     c_bands:  1 eigenvalues not converged
     ethr =  1.07E-06,  avg # of iterations = 17.4

     negative rho (up, down):  1.261E-02 0.000E+00
 
     Adding external electric field

     Computed dipole along edir(3) : 
        Dipole                0.8922 Ry au,          2.2678 Debye
        Dipole field          0.0017 Ry au, 
 
        Potential amp.       -0.1561 Ry
        Total length         46.3494 bohr
 

     total cpu time spent up to now is      751.8 secs

     total energy              =   -2941.66126711 Ry
     estimated scf accuracy    <       0.00351609 Ry

     iteration # 44     ecut=    29.40 Ry     beta= 0.05
     Davidson diagonalization with overlap
     ethr =  8.86E-07,  avg # of iterations =  4.1

     negative rho (up, down):  1.276E-02 0.000E+00
 
     Adding external electric field

     Computed dipole along edir(3) : 
        Dipole                0.8818 Ry au,          2.2414 Debye
        Dipole field          0.0017 Ry au, 
 
        Potential amp.       -0.1543 Ry
        Total length         46.3494 bohr
 

     total cpu time spent up to now is      762.8 secs

     total energy              =   -2941.66104442 Ry
     estimated scf accuracy    <       0.00224496 Ry

     iteration # 45     ecut=    29.40 Ry     beta= 0.05
     Davidson diagonalization with overlap
     ethr =  5.65E-07,  avg # of iterations =  8.4

     negative rho (up, down):  1.373E-02 0.000E+00
 
     Adding external electric field

     Computed dipole along edir(3) : 
        Dipole                0.9077 Ry au,          2.3073 Debye
        Dipole field          0.0017 Ry au, 
 
        Potential amp.       -0.1588 Ry
        Total length         46.3494 bohr
 

     total cpu time spent up to now is      775.8 secs

     total energy              =   -2941.66095897 Ry
     estimated scf accuracy    <       0.00099855 Ry

     iteration # 46     ecut=    29.40 Ry     beta= 0.05
     Davidson diagonalization with overlap
     ethr =  2.52E-07,  avg # of iterations = 15.2

     negative rho (up, down):  1.429E-02 0.000E+00
 
     Adding external electric field

     Computed dipole along edir(3) : 
        Dipole                0.9216 Ry au,          2.3424 Debye
        Dipole field          0.0017 Ry au, 
 
        Potential amp.       -0.1612 Ry
        Total length         46.3494 bohr
 

     total cpu time spent up to now is      797.5 secs

     total energy              =   -2941.66109611 Ry
     estimated scf accuracy    <       0.00104852 Ry

     iteration # 47     ecut=    29.40 Ry     beta= 0.05
     Davidson diagonalization with overlap
     ethr =  2.52E-07,  avg # of iterations =  8.9

     negative rho (up, down):  1.496E-02 0.000E+00
 
     Adding external electric field

     Computed dipole along edir(3) : 
        Dipole                0.9302 Ry au,          2.3643 Debye
        Dipole field          0.0018 Ry au, 
 
        Potential amp.       -0.1627 Ry
        Total length         46.3494 bohr
 

     total cpu time spent up to now is      812.6 secs

     total energy              =   -2941.66122472 Ry
     estimated scf accuracy    <       0.00017451 Ry

     iteration # 48     ecut=    29.40 Ry     beta= 0.05
     Davidson diagonalization with overlap
     c_bands:  1 eigenvalues not converged
     c_bands:  1 eigenvalues not converged
     c_bands:  1 eigenvalues not converged
     ethr =  4.40E-08,  avg # of iterations = 17.2

     negative rho (up, down):  1.494E-02 0.000E+00
 
     Adding external electric field

     Computed dipole along edir(3) : 
        Dipole                0.9324 Ry au,          2.3698 Debye
        Dipole field          0.0018 Ry au, 
 
        Potential amp.       -0.1631 Ry
        Total length         46.3494 bohr
 

     total cpu time spent up to now is      837.0 secs

     total energy              =   -2941.66130414 Ry
     estimated scf accuracy    <       0.00028208 Ry

     iteration # 49     ecut=    29.40 Ry     beta= 0.05
     Davidson diagonalization with overlap
     ethr =  4.40E-08,  avg # of iterations =  1.6

     negative rho (up, down):  1.552E-02 0.000E+00
 
     Adding external electric field

     Computed dipole along edir(3) : 
        Dipole                0.9483 Ry au,          2.4104 Debye
        Dipole field          0.0018 Ry au, 
 
        Potential amp.       -0.1659 Ry
        Total length         46.3494 bohr
 

     total cpu time spent up to now is      847.5 secs

     total energy              =   -2941.66127850 Ry
     estimated scf accuracy    <       0.00017212 Ry

     iteration # 50     ecut=    29.40 Ry     beta= 0.05
     Davidson diagonalization with overlap
     ethr =  4.34E-08,  avg # of iterations = 14.4

     negative rho (up, down):  1.560E-02 0.000E+00
 
     Adding external electric field

     Computed dipole along edir(3) : 
        Dipole                0.9469 Ry au,          2.4067 Debye
        Dipole field          0.0018 Ry au, 
 
        Potential amp.       -0.1656 Ry
        Total length         46.3494 bohr
 

     total cpu time spent up to now is      867.9 secs

     total energy              =   -2941.66133633 Ry
     estimated scf accuracy    <       0.00005352 Ry

     iteration # 51     ecut=    29.40 Ry     beta= 0.05
     Davidson diagonalization with overlap
     ethr =  1.35E-08,  avg # of iterations =  6.8

     negative rho (up, down):  1.558E-02 0.000E+00
 
     Adding external electric field

     Computed dipole along edir(3) : 
        Dipole                0.9438 Ry au,          2.3989 Debye
        Dipole field          0.0018 Ry au, 
 
        Potential amp.       -0.1651 Ry
        Total length         46.3494 bohr
 

     total cpu time spent up to now is      880.2 secs

     total energy              =   -2941.66134150 Ry
     estimated scf accuracy    <       0.00003102 Ry

     iteration # 52     ecut=    29.40 Ry     beta= 0.05
     Davidson diagonalization with overlap
     ethr =  7.81E-09,  avg # of iterations = 10.6

     negative rho (up, down):  1.583E-02 0.000E+00
 
     Adding external electric field

     Computed dipole along edir(3) : 
        Dipole                0.9476 Ry au,          2.4086 Debye
        Dipole field          0.0018 Ry au, 
 
        Potential amp.       -0.1658 Ry
        Total length         46.3494 bohr
 

     total cpu time spent up to now is      897.5 secs

     total energy              =   -2941.66135801 Ry
     estimated scf accuracy    <       0.00001153 Ry

     iteration # 53     ecut=    29.40 Ry     beta= 0.05
     Davidson diagonalization with overlap
     ethr =  2.90E-09,  avg # of iterations = 11.7

     negative rho (up, down):  1.584E-02 0.000E+00
 
     Adding external electric field

     Computed dipole along edir(3) : 
        Dipole                0.9475 Ry au,          2.4083 Debye
        Dipole field          0.0018 Ry au, 
 
        Potential amp.       -0.1657 Ry
        Total length         46.3494 bohr
 

     total cpu time spent up to now is      916.5 secs

     total energy              =   -2941.66136879 Ry
     estimated scf accuracy    <       0.00001364 Ry

     iteration # 54     ecut=    29.40 Ry     beta= 0.05
     Davidson diagonalization with overlap
     ethr =  2.90E-09,  avg # of iterations =  1.0

     negative rho (up, down):  1.587E-02 0.000E+00
 
     Adding external electric field

     Computed dipole along edir(3) : 
        Dipole                0.9464 Ry au,          2.4054 Debye
        Dipole field          0.0018 Ry au, 
 
        Potential amp.       -0.1656 Ry
        Total length         46.3494 bohr
 

     total cpu time spent up to now is      926.5 secs

     total energy              =   -2941.66137465 Ry
     estimated scf accuracy    <       0.00000985 Ry

     iteration # 55     ecut=    29.40 Ry     beta= 0.05
     Davidson diagonalization with overlap
     ethr =  2.48E-09,  avg # of iterations = 17.7

     negative rho (up, down):  1.600E-02 0.000E+00
 
     Adding external electric field

     Computed dipole along edir(3) : 
        Dipole                0.9484 Ry au,          2.4105 Debye
        Dipole field          0.0018 Ry au, 
 
        Potential amp.       -0.1659 Ry
        Total length         46.3494 bohr
 

     total cpu time spent up to now is      950.7 secs

     total energy              =   -2941.66138065 Ry
     estimated scf accuracy    <       0.00001795 Ry

     iteration # 56     ecut=    29.40 Ry     beta= 0.05
     Davidson diagonalization with overlap
     ethr =  2.48E-09,  avg # of iterations = 14.5

     negative rho (up, down):  1.595E-02 0.000E+00
 
     Adding external electric field

     Computed dipole along edir(3) : 
        Dipole                0.9470 Ry au,          2.4071 Debye
        Dipole field          0.0018 Ry au, 
 
        Potential amp.       -0.1657 Ry
        Total length         46.3494 bohr
 

     total cpu time spent up to now is      974.3 secs

     total energy              =   -2941.66139113 Ry
     estimated scf accuracy    <       0.00000655 Ry

     iteration # 57     ecut=    29.40 Ry     beta= 0.05
     Davidson diagonalization with overlap
     ethr =  1.65E-09,  avg # of iterations =  2.0

     negative rho (up, down):  1.599E-02 0.000E+00
 
     Adding external electric field

     Computed dipole along edir(3) : 
        Dipole                0.9462 Ry au,          2.4050 Debye
        Dipole field          0.0018 Ry au, 
 
        Potential amp.       -0.1655 Ry
        Total length         46.3494 bohr
 

     total cpu time spent up to now is      985.2 secs

     total energy              =   -2941.66139712 Ry
     estimated scf accuracy    <       0.00000245 Ry

     iteration # 58     ecut=    29.40 Ry     beta= 0.05
     Davidson diagonalization with overlap
     ethr =  6.18E-10,  avg # of iterations = 12.2

     negative rho (up, down):  1.599E-02 0.000E+00
 
     Adding external electric field

     Computed dipole along edir(3) : 
        Dipole                0.9465 Ry au,          2.4057 Debye
        Dipole field          0.0018 Ry au, 
 
        Potential amp.       -0.1656 Ry
        Total length         46.3494 bohr
 

     total cpu time spent up to now is     1004.3 secs

     total energy              =   -2941.66140333 Ry
     estimated scf accuracy    <       0.00000072 Ry

     iteration # 59     ecut=    29.40 Ry     beta= 0.05
     Davidson diagonalization with overlap
     ethr =  1.81E-10,  avg # of iterations = 10.3

     negative rho (up, down):  1.597E-02 0.000E+00
 
     Adding external electric field

     Computed dipole along edir(3) : 
        Dipole                0.9464 Ry au,          2.4054 Debye
        Dipole field          0.0018 Ry au, 
 
        Potential amp.       -0.1656 Ry
        Total length         46.3494 bohr
 

     total cpu time spent up to now is     1020.7 secs

     total energy              =   -2941.66140849 Ry
     estimated scf accuracy    <       0.00000024 Ry

     iteration # 60     ecut=    29.40 Ry     beta= 0.05
     Davidson diagonalization with overlap
     ethr =  6.09E-11,  avg # of iterations =  9.6

     negative rho (up, down):  1.599E-02 0.000E+00
 
     Adding external electric field

     Computed dipole along edir(3) : 
        Dipole                0.9466 Ry au,          2.4059 Debye
        Dipole field          0.0018 Ry au, 
 
        Potential amp.       -0.1656 Ry
        Total length         46.3494 bohr
 

     total cpu time spent up to now is     1036.1 secs

     total energy              =   -2941.66141307 Ry
     estimated scf accuracy    <       0.00000014 Ry

     iteration # 61     ecut=    29.40 Ry     beta= 0.05
     Davidson diagonalization with overlap
     ethr =  3.44E-11,  avg # of iterations =  9.1

     negative rho (up, down):  1.599E-02 0.000E+00
 
     Adding external electric field

     Computed dipole along edir(3) : 
        Dipole                0.9467 Ry au,          2.4062 Debye
        Dipole field          0.0018 Ry au, 
 
        Potential amp.       -0.1656 Ry
        Total length         46.3494 bohr
 

     total cpu time spent up to now is     1053.2 secs

     total energy              =   -2941.66141721 Ry
     estimated scf accuracy    <       0.00000015 Ry

     iteration # 62     ecut=    29.40 Ry     beta= 0.05
     Davidson diagonalization with overlap
     ethr =  3.44E-11,  avg # of iterations =  2.0

     negative rho (up, down):  1.600E-02 0.000E+00
 
     Adding external electric field

     Computed dipole along edir(3) : 
        Dipole                0.9469 Ry au,          2.4067 Debye
        Dipole field          0.0018 Ry au, 
 
        Potential amp.       -0.1656 Ry
        Total length         46.3494 bohr
 

     total cpu time spent up to now is     1064.0 secs

     total energy              =   -2941.66142090 Ry
     estimated scf accuracy    <       0.00000011 Ry

     iteration # 63     ecut=    29.40 Ry     beta= 0.05
     Davidson diagonalization with overlap
     c_bands:  1 eigenvalues not converged
     c_bands:  1 eigenvalues not converged
     ethr =  2.65E-11,  avg # of iterations = 15.9

     negative rho (up, down):  1.600E-02 0.000E+00
 
     Adding external electric field

     Computed dipole along edir(3) : 
        Dipole                0.9466 Ry au,          2.4060 Debye
        Dipole field          0.0018 Ry au, 
 
        Potential amp.       -0.1656 Ry
        Total length         46.3494 bohr
 

     total cpu time spent up to now is     1089.1 secs

     total energy              =   -2941.66142424 Ry
     estimated scf accuracy    <       0.00000027 Ry

     iteration # 64     ecut=    29.40 Ry     beta= 0.05
     Davidson diagonalization with overlap
     ethr =  2.65E-11,  avg # of iterations = 15.0

     negative rho (up, down):  1.607E-02 0.000E+00
 
     Adding external electric field

     Computed dipole along edir(3) : 
        Dipole                0.9470 Ry au,          2.4071 Debye
        Dipole field          0.0018 Ry au, 
 
        Potential amp.       -0.1657 Ry
        Total length         46.3494 bohr
 

     total cpu time spent up to now is     1113.0 secs

     End of self-consistent calculation

          k = 0.0000 0.0000 0.0000 ( 18029 PWs)   bands (ev):

   -55.6840 -55.6671 -55.6499 -55.6305 -55.5897 -55.5356 -55.5286 -55.4984
   -55.4925 -55.4644 -55.4624 -55.4283 -55.2562 -55.0319 -54.6643 -54.6303
   -32.2181 -32.1671 -32.0400 -32.0301 -31.9968 -31.9821 -31.9768 -31.9527
   -31.9280 -31.8961 -31.8938 -31.8876 -31.8446 -31.8362 -31.8224 -31.8208
   -31.8042 -31.7890 -31.7801 -31.7450 -31.7411 -31.7343 -31.7186 -31.7153
   -31.6921 -31.6875 -31.6851 -31.6773 -31.6630 -31.6611 -31.6533 -31.6441
   -31.6385 -31.6289 -31.6154 -31.6059 -31.5745 -31.5064 -31.4626 -31.2982
   -31.2887 -31.2345 -31.0715 -30.9830 -30.9606 -30.8883 -30.8018 -30.6907
   -16.7446 -16.4143 -16.1598 -15.9296 -15.8393 -15.8091 -15.6568 -15.5251
   -15.4158 -15.3340 -15.2491 -15.2300 -15.2228 -15.2119 -15.1859 -15.1802
   -15.1330 -15.1285 -15.1090 -15.0961 -15.0459 -15.0296 -15.0259 -14.9313
   -14.8673 -14.8320 -14.8173 -14.7826 -14.7452 -14.3315 -13.1669 -13.0504
   -11.7896  -8.9926  -5.4135  -4.3339  -3.8521  -3.7868  -3.6422  -3.5917
    -3.5316  -3.4981  -3.3154  -3.2123  -2.9397  -2.8826  -2.8532  -2.8439
    -2.7864  -2.7552  -2.5988  -2.5729  -2.5028  -2.4935  -2.4777  -2.4495
    -2.4455  -2.4356  -2.3992  -2.3737  -2.3451  -2.2405  -2.1037  -2.0933
    -2.0692  -2.0358  -1.9980  -1.9493  -1.9330  -1.9132  -1.8945  -1.8817
    -1.8691  -1.7345  -1.6995  -1.5834  -1.4934  -1.4480  -1.3685  -1.2964
    -1.2709  -1.1555  -1.1157  -1.1051  -1.0891  -1.0783  -0.9786  -0.8732
    -0.8559  -0.8183  -0.7635  -0.7070  -0.6364  -0.5915  -0.5399  -0.4881
    -0.4642  -0.4487  -0.4459  -0.4107  -0.3184  -0.1780  -0.1261  -0.0917
    -0.0694   0.0073   0.0423   0.0981   0.1233   0.1463   0.1821   0.2351
     0.2787   0.2852   0.2986   0.3132   0.3179   0.4920   0.5414   0.5833
     0.6167   0.6627   0.8240   0.8460   0.9679   1.0420   1.2046   1.2832
     1.3578   1.4358   1.5495   1.6229   1.9290   1.9747   3.4467   3.5341
     3.5789   3.5927   3.6881   3.7299   3.8994   3.9300   3.9444   4.0044

          k = 0.0000 0.0419 0.0000 ( 17933 PWs)   bands (ev):

   -55.6789 -55.6620 -55.6548 -55.6355 -55.5868 -55.5383 -55.5238 -55.4973
   -55.4933 -55.4693 -55.4575 -55.4330 -55.2556 -55.0324 -54.6592 -54.6352
   -32.1609 -32.1131 -31.9877 -31.9756 -31.9721 -31.9683 -31.9663 -31.9103
   -31.9081 -31.9004 -31.8982 -31.8811 -31.8524 -31.8470 -31.8456 -31.8302
   -31.8223 -31.8100 -31.7668 -31.7550 -31.7358 -31.7344 -31.7303 -31.7065
   -31.7033 -31.7015 -31.6955 -31.6918 -31.6876 -31.6760 -31.6664 -31.6592
   -31.6510 -31.6347 -31.6328 -31.6298 -31.6181 -31.5056 -31.4599 -31.3230
   -31.2887 -31.2496 -31.0174 -30.9795 -30.9636 -30.8757 -30.8143 -30.7478
   -16.7317 -16.2811 -16.0409 -15.8264 -15.7321 -15.7091 -15.6207 -15.5403
   -15.4553 -15.4451 -15.2778 -15.2501 -15.2231 -15.2075 -15.1835 -15.1631
   -15.1537 -15.1464 -15.1373 -15.1228 -15.0762 -15.0348 -14.9959 -14.9394
   -14.9194 -14.8852 -14.8744 -14.8032 -14.7965 -14.4054 -13.1709 -13.0899
   -11.7920  -9.0000  -5.4245  -4.3277  -3.8093  -3.5961  -3.4759  -3.4157
    -3.3770  -3.3423  -3.1581  -2.9838  -2.8983  -2.8553  -2.7674  -2.7481
    -2.7317  -2.6896  -2.6479  -2.6413  -2.6097  -2.5842  -2.5473  -2.5306
    -2.4999  -2.4516  -2.4355  -2.4074  -2.3719  -2.3532  -2.2922  -2.2421
    -2.1845  -2.1700  -2.1522  -2.1059  -1.9959  -1.9546  -1.9241  -1.8706
    -1.8105  -1.6547  -1.6181  -1.5056  -1.4464  -1.3714  -1.3458  -1.3210
    -1.2835  -1.0769  -1.0393  -1.0015  -0.9681  -0.9101  -0.8998  -0.7916
    -0.7128  -0.6951  -0.6645  -0.6384  -0.6215  -0.5864  -0.5658  -0.5250
    -0.5026  -0.4506  -0.3897  -0.3227  -0.3011  -0.2602  -0.2134  -0.1764
    -0.1695  -0.1487  -0.0338   0.0319   0.0718   0.0939   0.1136   0.1437
     0.1524   0.1897   0.2577   0.3150   0.3487   0.4142   0.4704   0.5245
     0.5882   0.6399   0.6510   0.6803   0.8038   0.9597   0.9753   1.0789
     1.3105   1.5465   1.6283   1.6353   1.8832   1.8866   3.6389   3.6872
     3.7036   3.7700   3.8026   3.8467   3.9112   3.9315   3.9526   4.0041

          k = 0.0000-0.0839 0.0000 ( 17884 PWs)   bands (ev):

   -55.6672 -55.6665 -55.6524 -55.6450 -55.5836 -55.5414 -55.5159 -55.5050
   -55.4820 -55.4805 -55.4481 -55.4424 -55.2550 -55.0329 -54.6472 -54.6471
   -32.0266 -32.0169 -31.9812 -31.9806 -31.9625 -31.9617 -31.9415 -31.9350
   -31.8807 -31.8666 -31.8600 -31.8525 -31.8482 -31.8457 -31.8353 -31.8290
   -31.8008 -31.7943 -31.7912 -31.7891 -31.7883 -31.7686 -31.7632 -31.7467
   -31.7349 -31.7339 -31.7157 -31.7143 -31.7039 -31.7030 -31.6801 -31.6731
   -31.6553 -31.6529 -31.6273 -31.6245 -31.6131 -31.5048 -31.4592 -31.3606
   -31.2888 -31.2602 -30.9714 -30.9713 -30.8844 -30.8843 -30.8450 -30.8450
   -16.7202 -15.9634 -15.9106 -15.7716 -15.7342 -15.6018 -15.5732 -15.5134
   -15.4672 -15.4590 -15.4341 -15.4105 -15.3617 -15.2451 -15.2441 -15.1267
   -15.0772 -15.0690 -15.0636 -15.0603 -15.0274 -15.0217 -15.0204 -15.0126
   -14.9842 -14.9454 -14.9367 -14.9308 -14.7775 -14.5082 -13.1526 -13.1526
   -11.7944  -9.0075  -5.4354  -4.3225  -3.7757  -3.1603  -3.1106  -3.0830
    -3.0760  -3.0564  -3.0267  -2.9771  -2.9758  -2.9445  -2.9270  -2.8397
    -2.8121  -2.7851  -2.7641  -2.7198  -2.7037  -2.6483  -2.6320  -2.5657
    -2.5424  -2.5095  -2.5004  -2.4436  -2.4067  -2.3803  -2.2895  -2.2786
    -2.2464  -2.1281  -2.1063  -2.0795  -2.0373  -2.0226  -1.9712  -1.7612
    -1.6770  -1.5962  -1.5431  -1.4815  -1.3803  -1.3610  -1.3287  -1.2225
    -1.1202  -1.1065  -1.1030  -1.0793  -1.0434  -1.0395  -0.9446  -0.9182
    -0.8561  -0.8214  -0.7925  -0.6762  -0.5846  -0.5101  -0.4205  -0.3479
    -0.3304  -0.3234  -0.3002  -0.2618  -0.2244  -0.2035  -0.1692  -0.1619
    -0.1318  -0.1237  -0.0838  -0.0520  -0.0390   0.0079   0.0245   0.0374
     0.1037   0.1133   0.1349   0.1654   0.1969   0.2230   0.2781   0.3812
     0.5487   0.5526   0.5664   0.5911   0.8806   0.9217   0.9975   1.0349
     1.0421   1.6424   1.6897   1.6907   1.8200   1.8206   3.7616   3.7699
     3.8241   3.8656   3.8791   3.8940   3.9597   4.0108   4.0373   4.0462

          k = 0.0380 0.0000 0.0000 ( 17913 PWs)   bands (ev):

   -55.6839 -55.6670 -55.6498 -55.6304 -55.5896 -55.5355 -55.5285 -55.4981
   -55.4924 -55.4643 -55.4624 -55.4282 -55.2561 -55.0318 -54.6642 -54.6302
   -32.2182 -32.1680 -32.0415 -32.0360 -31.9969 -31.9820 -31.9766 -31.9575
   -31.9280 -31.8944 -31.8910 -31.8752 -31.8445 -31.8332 -31.8174 -31.8136
   -31.8037 -31.7887 -31.7598 -31.7517 -31.7442 -31.7409 -31.7271 -31.7066
   -31.6917 -31.6846 -31.6806 -31.6775 -31.6629 -31.6603 -31.6594 -31.6529
   -31.6439 -31.6288 -31.6156 -31.6050 -31.5748 -31.5088 -31.4626 -31.2981
   -31.2891 -31.2344 -31.0711 -30.9863 -30.9586 -30.8881 -30.8017 -30.6905
   -16.7376 -16.3408 -16.0776 -15.8548 -15.8291 -15.7381 -15.6586 -15.5675
   -15.4140 -15.3904 -15.3774 -15.3307 -15.3236 -15.3091 -15.2451 -15.2333
   -15.2026 -15.0573 -15.0466 -15.0084 -14.9537 -14.9493 -14.9307 -14.9172
   -14.8792 -14.8739 -14.8691 -14.8431 -14.7619 -14.3293 -13.1636 -13.0501
   -11.7898  -8.9928  -5.4181  -4.3443  -3.8221  -3.6975  -3.4316  -3.3852
    -3.3141  -3.2821  -3.2350  -3.1984  -3.1430  -2.9390  -2.9328  -2.8393
    -2.7953  -2.7646  -2.7315  -2.6454  -2.5256  -2.5083  -2.4402  -2.3986
    -2.3901  -2.3692  -2.2913  -2.2604  -2.2527  -2.2134  -2.1672  -2.0880
    -2.0555  -2.0303  -1.9582  -1.9247  -1.8917  -1.8782  -1.8607  -1.7195
    -1.6578  -1.6397  -1.6145  -1.5357  -1.4980  -1.4797  -1.4187  -1.2928
    -1.2866  -1.2245  -1.1822  -1.1211  -1.1180  -1.0885  -1.0073  -0.9767
    -0.9598  -0.9481  -0.8618  -0.8258  -0.7243  -0.6081  -0.5833  -0.5088
    -0.4858  -0.4664  -0.4145  -0.4000  -0.2859  -0.2196  -0.1378  -0.1172
    -0.0961  -0.0344  -0.0078   0.0465   0.0547   0.0961   0.1261   0.1488
     0.1556   0.1869   0.2080   0.2394   0.3681   0.3980   0.4652   0.4914
     0.5814   0.6470   0.6647   0.7057   0.9318   1.0023   1.1952   1.2847
     1.3060   1.3696   1.5190   1.6430   1.8175   1.8919   3.4782   3.5071
     3.7977   3.8144   3.8308   3.8691   3.8722   3.9008   3.9158   3.9663

          k = 0.0380 0.0419 0.0000 ( 17878 PWs)   bands (ev):

   -55.6788 -55.6618 -55.6548 -55.6355 -55.5868 -55.5382 -55.5238 -55.4972
   -55.4931 -55.4692 -55.4575 -55.4330 -55.2556 -55.0323 -54.6592 -54.6351
   -32.1611 -32.1140 -31.9891 -31.9827 -31.9719 -31.9682 -31.9665 -31.9107
   -31.9090 -31.9027 -31.8998 -31.8681 -31.8524 -31.8470 -31.8457 -31.8198
   -31.8196 -31.8059 -31.7546 -31.7497 -31.7456 -31.7358 -31.7338 -31.7073
   -31.7020 -31.6952 -31.6932 -31.6901 -31.6873 -31.6760 -31.6664 -31.6603
   -31.6555 -31.6501 -31.6320 -31.6261 -31.6228 -31.5078 -31.4601 -31.3229
   -31.2893 -31.2495 -31.0170 -30.9821 -30.9626 -30.8755 -30.8144 -30.7477
   -16.7278 -16.2133 -15.9647 -15.7588 -15.7233 -15.6383 -15.6172 -15.5411
   -15.4927 -15.4465 -15.3427 -15.3196 -15.2950 -15.2802 -15.2426 -15.1965
   -15.1803 -15.1208 -15.0896 -15.0721 -15.0167 -15.0103 -14.9791 -14.9495
   -14.9386 -14.9245 -14.9021 -14.8795 -14.7812 -14.4032 -13.1687 -13.0902
   -11.7924  -8.9995  -5.4272  -4.3301  -3.7983  -3.5196  -3.2674  -3.2212
    -3.1408  -3.1147  -3.0791  -2.9914  -2.9634  -2.8361  -2.7901  -2.7242
    -2.7005  -2.6755  -2.6517  -2.6040  -2.5670  -2.5388  -2.5164  -2.4884
    -2.4328  -2.4195  -2.4001  -2.3854  -2.3465  -2.3333  -2.3132  -2.2729
    -2.1766  -2.1692  -2.1202  -2.0277  -1.9652  -1.9259  -1.8745  -1.8184
    -1.6912  -1.6746  -1.6357  -1.5179  -1.4646  -1.4099  -1.3742  -1.2744
    -1.1512  -1.1324  -1.1069  -1.0752  -1.0059  -0.9962  -0.9400  -0.9308
    -0.8758  -0.8185  -0.7700  -0.7390  -0.6632  -0.6273  -0.6142  -0.5835
    -0.5133  -0.4936  -0.4384  -0.4033  -0.3828  -0.3507  -0.3232  -0.2954
    -0.2672  -0.2085  -0.1398  -0.1198  -0.0624  -0.0044   0.0117   0.0380
     0.1017   0.1831   0.2426   0.2894   0.3814   0.4099   0.4908   0.5334
     0.5876   0.6392   0.6930   0.7163   0.7540   0.8942   0.9568   1.0867
     1.2470   1.5573   1.6332   1.6478   1.8056   1.8674   3.6317   3.6895
     3.7571   3.8267   3.8487   3.9029   3.9663   3.9910   4.0153   4.0435

          k = 0.0380-0.0839 0.0000 ( 17916 PWs)   bands (ev):

   -55.6672 -55.6665 -55.6524 -55.6450 -55.5836 -55.5414 -55.5160 -55.5051
   -55.4820 -55.4805 -55.4482 -55.4425 -55.2550 -55.0329 -54.6472 -54.6472
   -32.0269 -32.0172 -31.9819 -31.9813 -31.9625 -31.9617 -31.9416 -31.9351
   -31.8815 -31.8750 -31.8671 -31.8639 -31.8491 -31.8303 -31.8236 -31.8145
   -31.8013 -31.7950 -31.7892 -31.7880 -31.7871 -31.7792 -31.7746 -31.7445
   -31.7237 -31.7150 -31.7124 -31.7112 -31.7103 -31.7031 -31.6800 -31.6729
   -31.6553 -31.6529 -31.6391 -31.6363 -31.6127 -31.5068 -31.4593 -31.3605
   -31.2898 -31.2603 -30.9724 -30.9723 -30.8844 -30.8842 -30.8450 -30.8450
   -16.7185 -15.9186 -15.8630 -15.7204 -15.6825 -15.5665 -15.5423 -15.5114
   -15.4420 -15.4397 -15.3988 -15.3879 -15.3608 -15.2595 -15.2549 -15.1677
   -15.1389 -15.1117 -15.1030 -15.0934 -15.0772 -15.0620 -15.0435 -15.0308
   -14.9997 -14.9906 -14.9783 -14.9065 -14.7706 -14.5035 -13.1524 -13.1524
   -11.7951  -9.0071  -5.4318  -4.3219  -3.7801  -3.1535  -3.0699  -2.9359
    -2.9131  -2.8700  -2.8624  -2.8347  -2.7966  -2.7698  -2.7594  -2.7384
    -2.7240  -2.7001  -2.6707  -2.6489  -2.6388  -2.5528  -2.5420  -2.5302
    -2.5119  -2.4951  -2.4857  -2.4107  -2.3960  -2.3740  -2.3338  -2.2890
    -2.2646  -2.1831  -2.1658  -2.1157  -1.9371  -1.8243  -1.7863  -1.7621
    -1.6482  -1.6011  -1.5766  -1.5314  -1.5066  -1.4615  -1.4329  -1.4075
    -1.3488  -1.3263  -1.2989  -1.2514  -1.1750  -1.1299  -0.9896  -0.9185
    -0.8625  -0.8095  -0.7549  -0.7330  -0.7020  -0.6186  -0.5986  -0.5020
    -0.4811  -0.4499  -0.4358  -0.4148  -0.3987  -0.3623  -0.3258  -0.2978
    -0.2731  -0.2387  -0.2265  -0.1808  -0.1562  -0.0958  -0.0627  -0.0010
     0.0953   0.1496   0.2307   0.3052   0.3950   0.4069   0.4320   0.4633
     0.4767   0.5439   0.6510   0.6791   0.8345   0.8408   0.9692   1.0366
     1.0862   1.6391   1.7030   1.7039   1.8092   1.8099   3.7352   3.7523
     3.8314   3.8511   3.8683   3.8891   4.0275   4.0472   4.0744   4.0778

          k = 0.0380-0.0419 0.0000 ( 17876 PWs)   bands (ev):

   -55.6788 -55.6618 -55.6548 -55.6355 -55.5868 -55.5382 -55.5238 -55.4972
   -55.4931 -55.4692 -55.4575 -55.4330 -55.2556 -55.0323 -54.6592 -54.6351
   -32.1611 -32.1140 -31.9889 -31.9827 -31.9719 -31.9682 -31.9665 -31.9107
   -31.9090 -31.9027 -31.8998 -31.8683 -31.8520 -31.8469 -31.8457 -31.8201
   -31.8198 -31.8063 -31.7546 -31.7496 -31.7451 -31.7358 -31.7337 -31.7077
   -31.7019 -31.6947 -31.6938 -31.6901 -31.6873 -31.6761 -31.6663 -31.6599
   -31.6560 -31.6502 -31.6319 -31.6260 -31.6228 -31.5075 -31.4600 -31.3229
   -31.2894 -31.2496 -31.0170 -30.9821 -30.9626 -30.8755 -30.8144 -30.7477
   -16.7277 -16.2130 -15.9646 -15.7572 -15.7230 -15.6384 -15.6167 -15.5422
   -15.4936 -15.4471 -15.3432 -15.3283 -15.2947 -15.2830 -15.2440 -15.1919
   -15.1787 -15.1190 -15.0809 -15.0705 -15.0136 -15.0086 -14.9838 -14.9551
   -14.9383 -14.9255 -14.9022 -14.8784 -14.7809 -14.4036 -13.1687 -13.0902
   -11.7924  -9.0002  -5.4224  -4.3347  -3.8007  -3.5209  -3.2629  -3.2205
    -3.1402  -3.1126  -3.0782  -2.9943  -2.9644  -2.8339  -2.7909  -2.7263
    -2.6895  -2.6787  -2.6509  -2.6131  -2.5732  -2.5569  -2.5238  -2.4889
    -2.4367  -2.4247  -2.4016  -2.3891  -2.3554  -2.3331  -2.3005  -2.2673
    -2.1795  -2.1669  -2.0711  -2.0241  -1.9643  -1.9277  -1.8766  -1.8233
    -1.6923  -1.6706  -1.6380  -1.5015  -1.4424  -1.4092  -1.3810  -1.2802
    -1.1497  -1.1356  -1.1156  -1.0744  -1.0183  -0.9938  -0.9436  -0.9072
    -0.8785  -0.8194  -0.7818  -0.7159  -0.6788  -0.6521  -0.6185  -0.5669
    -0.5475  -0.4995  -0.4654  -0.4007  -0.3697  -0.3590  -0.3310  -0.2924
    -0.2544  -0.2012  -0.1448  -0.1162  -0.0327  -0.0069   0.0166   0.0446
     0.1056   0.1814   0.2535   0.2636   0.3707   0.4225   0.4992   0.5227
     0.5957   0.6421   0.6855   0.7122   0.7505   0.8955   0.9573   1.1005
     1.2473   1.5574   1.6326   1.6407   1.8054   1.8680   3.6279   3.6883
     3.7544   3.8266   3.8562   3.8912   3.9686   3.9947   4.0215   4.0352

          k =-0.0760-0.0000 0.0000 ( 17886 PWs)   bands (ev):

   -55.6838 -55.6669 -55.6498 -55.6304 -55.5896 -55.5354 -55.5285 -55.4979
   -55.4924 -55.4643 -55.4626 -55.4282 -55.2561 -55.0318 -54.6641 -54.6301
   -32.2184 -32.1689 -32.0431 -32.0416 -31.9971 -31.9818 -31.9765 -31.9620
   -31.9281 -31.8942 -31.8905 -31.8525 -31.8445 -31.8304 -31.8127 -31.8074
   -31.8036 -31.7886 -31.7753 -31.7442 -31.7413 -31.7310 -31.7146 -31.7057
   -31.7026 -31.6908 -31.6846 -31.6777 -31.6744 -31.6627 -31.6596 -31.6528
   -31.6440 -31.6286 -31.6165 -31.6042 -31.5755 -31.5116 -31.4627 -31.2981
   -31.2899 -31.2343 -31.0707 -30.9896 -30.9573 -30.8880 -30.8015 -30.6905
   -16.7313 -16.2403 -16.0032 -15.7980 -15.7835 -15.6762 -15.6392 -15.5490
   -15.4705 -15.4605 -15.4107 -15.3920 -15.3845 -15.3671 -15.3240 -15.3212
   -15.1966 -15.0733 -15.0496 -15.0190 -14.9771 -14.9520 -14.9340 -14.9104
   -14.8829 -14.8591 -14.8412 -14.7812 -14.7601 -14.3276 -13.1606 -13.0498
   -11.7900  -8.9931  -5.4222  -4.3526  -3.8095  -3.6742  -3.3783  -3.2731
    -3.1838  -3.0951  -3.0664  -3.0421  -2.9472  -2.9421  -2.9342  -2.9166
    -2.8520  -2.7314  -2.7065  -2.5199  -2.4993  -2.4801  -2.3956  -2.3771
    -2.3228  -2.2630  -2.2275  -2.1860  -2.1820  -2.1711  -2.0884  -2.0360
    -1.9991  -1.9888  -1.9457  -1.9329  -1.9204  -1.9150  -1.8882  -1.8490
    -1.8063  -1.7187  -1.6590  -1.4689  -1.4156  -1.3608  -1.3254  -1.2967
    -1.2894  -1.2758  -1.2696  -1.2465  -1.1911  -1.1495  -1.0582  -1.0322
    -0.9969  -0.9666  -0.9259  -0.8641  -0.8527  -0.8285  -0.6991  -0.6243
    -0.5091  -0.4454  -0.3746  -0.3702  -0.3360  -0.3276  -0.2756  -0.2058
    -0.1707  -0.1323  -0.0865  -0.0314  -0.0018   0.0333   0.0498   0.1173
     0.1239   0.1545   0.1919   0.2805   0.3440   0.3607   0.4303   0.5047
     0.5453   0.5752   0.7542   0.7900   0.9023   1.0054   1.0294   1.1946
     1.2973   1.3908   1.4946   1.6644   1.6882   1.8364   3.4828   3.4873
     3.6150   3.7252   3.7838   3.8775   3.8985   3.9489   3.9805   3.9858

          k =-0.0760 0.0419 0.0000 ( 17914 PWs)   bands (ev):

   -55.6789 -55.6618 -55.6548 -55.6355 -55.5868 -55.5383 -55.5238 -55.4973
   -55.4929 -55.4692 -55.4577 -55.4331 -55.2556 -55.0323 -54.6592 -54.6352
   -32.1614 -32.1150 -31.9906 -31.9894 -31.9719 -31.9683 -31.9667 -31.9119
   -31.9106 -31.9053 -31.8997 -31.8530 -31.8506 -31.8471 -31.8460 -31.8177
   -31.8100 -31.8024 -31.7638 -31.7545 -31.7363 -31.7337 -31.7161 -31.7086
   -31.7016 -31.6973 -31.6953 -31.6927 -31.6866 -31.6778 -31.6748 -31.6662
   -31.6571 -31.6492 -31.6317 -31.6295 -31.6261 -31.5101 -31.4602 -31.3229
   -31.2903 -31.2496 -31.0168 -30.9850 -30.9619 -30.8755 -30.8144 -30.7477
   -16.7240 -16.1219 -15.8898 -15.7098 -15.6819 -15.6188 -15.5618 -15.5378
   -15.4516 -15.4424 -15.4220 -15.3689 -15.3376 -15.3286 -15.3139 -15.2713
   -15.2170 -15.1388 -15.0737 -15.0701 -15.0532 -15.0270 -14.9721 -14.9618
   -14.9570 -14.9402 -14.8735 -14.8709 -14.7776 -14.4019 -13.1666 -13.0905
   -11.7929  -8.9999  -5.4250  -4.3364  -3.7955  -3.5042  -3.2171  -3.0114
    -2.9746  -2.8868  -2.8285  -2.8065  -2.7882  -2.7662  -2.7369  -2.7261
    -2.7006  -2.6662  -2.6335  -2.6160  -2.5844  -2.5509  -2.4679  -2.4659
    -2.4045  -2.3897  -2.3683  -2.3421  -2.2881  -2.2647  -2.2559  -2.1802
    -2.1636  -2.1594  -2.1230  -2.0478  -1.8988  -1.8387  -1.7953  -1.7840
    -1.7490  -1.6609  -1.6196  -1.5813  -1.4718  -1.3723  -1.2963  -1.2802
    -1.2431  -1.2236  -1.1806  -1.1408  -1.0886  -1.0509  -1.0024  -0.9796
    -0.9585  -0.9338  -0.9091  -0.8783  -0.8610  -0.8382  -0.7610  -0.7248
    -0.6774  -0.6511  -0.6330  -0.5549  -0.4542  -0.4448  -0.4099  -0.3629
    -0.3378  -0.3129  -0.2370  -0.2018  -0.1497  -0.1045  -0.0014   0.0185
     0.1424   0.1784   0.2583   0.3216   0.3727   0.4997   0.5621   0.5867
     0.6436   0.6872   0.7317   0.7624   0.8284   0.8772   0.9025   1.0835
     1.1101   1.5721   1.6367   1.6543   1.7289   1.8567   3.6168   3.6757
     3.6864   3.7740   3.7980   3.8124   3.9423   3.9724   4.0425   4.0930

          k =-0.0760-0.0839 0.0000 ( 17948 PWs)   bands (ev):

   -55.6673 -55.6665 -55.6524 -55.6450 -55.5837 -55.5414 -55.5160 -55.5051
   -55.4819 -55.4804 -55.4483 -55.4425 -55.2551 -55.0329 -54.6472 -54.6472
   -32.0272 -32.0175 -31.9827 -31.9821 -31.9626 -31.9618 -31.9418 -31.9352
   -31.8824 -31.8818 -31.8716 -31.8663 -31.8494 -31.8314 -31.8068 -31.8020
   -31.7977 -31.7941 -31.7874 -31.7873 -31.7861 -31.7857 -31.7819 -31.7423
   -31.7340 -31.7225 -31.7143 -31.7031 -31.6823 -31.6814 -31.6793 -31.6726
   -31.6626 -31.6586 -31.6554 -31.6529 -31.6122 -31.5089 -31.4593 -31.3605
   -31.2908 -31.2604 -30.9733 -30.9733 -30.8843 -30.8842 -30.8451 -30.8450
   -16.7169 -15.8620 -15.8009 -15.6431 -15.6078 -15.5882 -15.5532 -15.4926
   -15.4093 -15.3822 -15.3775 -15.3304 -15.3047 -15.2718 -15.2338 -15.2195
   -15.2123 -15.1935 -15.1812 -15.1473 -15.1378 -15.1262 -15.1190 -15.0436
   -15.0058 -15.0015 -14.9961 -14.8924 -14.7661 -14.4994 -13.1522 -13.1522
   -11.7958  -9.0067  -5.4280  -4.3213  -3.7846  -3.1547  -3.0677  -2.8931
    -2.8374  -2.8086  -2.7931  -2.6272  -2.6149  -2.6011  -2.5512  -2.5340
    -2.5212  -2.5145  -2.5060  -2.4849  -2.4720  -2.4417  -2.4284  -2.3918
    -2.3782  -2.3604  -2.3434  -2.3273  -2.3067  -2.2937  -2.2805  -2.2357
    -2.2167  -2.2051  -2.1836  -2.1418  -1.9298  -1.8802  -1.8420  -1.8315
    -1.8194  -1.8008  -1.7456  -1.7402  -1.7066  -1.6570  -1.5763  -1.4315
    -1.3860  -1.3696  -1.2766  -1.2550  -1.2025  -1.1302  -1.0846  -1.0678
    -1.0333  -0.9689  -0.9320  -0.8949  -0.8285  -0.8039  -0.7976  -0.7046
    -0.6834  -0.6472  -0.6405  -0.5623  -0.5121  -0.4484  -0.4330  -0.4166
    -0.3851  -0.3516  -0.3333  -0.2663  -0.1735  -0.1724  -0.1488  -0.0404
     0.0500   0.2788   0.3415   0.3785   0.4233   0.5170   0.5856   0.6101
     0.6259   0.6475   0.6669   0.7149   0.8421   0.8523   0.8864   0.9993
     1.1038   1.6391   1.7212   1.7221   1.7946   1.7947   3.7483   3.7666
     3.7871   3.8335   3.9527   3.9597   3.9818   3.9839   4.1066   4.1192

     the Fermi energy is     3.4483 ev

!    total energy              =   -2941.66145515 Ry
     estimated scf accuracy    <       0.00000006 Ry
     smearing contrib. (-TS)   =      -0.02151968 Ry
     internal energy E=F+TS    =   -2941.63993548 Ry

     The total energy is F=E-TS. E is the sum of the following terms:
     one-electron contribution =  -24274.25472962 Ry
     hartree contribution      =   12227.61343408 Ry
     xc contribution           =    -486.87244789 Ry
     ewald contribution        =    9591.87211543 Ry
     electric field correction =       0.00169253 Ry

     convergence has been achieved in  64 iterations

     Forces acting on atoms (cartesian axes, Ry/au):

     atom    1 type  1   force =     0.00018390   -0.00011782    0.09635323
     atom    2 type  1   force =    -0.00021631   -0.00063161   -0.17550944
     atom    3 type  2   force =    -0.00004229   -0.00003370   -0.02419096
     atom    4 type  2   force =     0.00004939   -0.00143864    0.05290621
     atom    5 type  2   force =    -0.01181349   -0.00049017    0.00395856
     atom    6 type  2   force =     0.01312505    0.00023769    0.00229507
     atom    7 type  1   force =    -0.00140141    0.00080526   -0.01149454
     atom    8 type  1   force =     0.00053504    0.00920842    0.02521126
     atom    9 type  2   force =    -0.00010858    0.00017366    0.00039049
     atom   10 type  2   force =    -0.00086534    0.00148849   -0.01580356
     atom   11 type  2   force =    -0.00019613   -0.00049780    0.00039256
     atom   12 type  2   force =    -0.00013043   -0.00026154    0.00002724
     atom   13 type  1   force =     0.00054473   -0.00091746    0.00006245
     atom   14 type  1   force =    -0.00008324   -0.00040155    0.00025344
     atom   15 type  2   force =     0.00017372    0.00006349   -0.00028584
     atom   16 type  2   force =     0.00006852    0.00024855    0.00005446
     atom   17 type  2   force =    -0.00050843    0.00034316    0.00049261
     atom   18 type  2   force =     0.00010908    0.00012177    0.00027296
     atom   19 type  1   force =     0.00004203   -0.00052618    0.00032738
     atom   20 type  1   force =     0.00019065    0.00032135    0.00059042
     atom   21 type  2   force =     0.00007334   -0.00007980    0.10320703
     atom   22 type  2   force =    -0.00044357   -0.00028861    0.00029770
     atom   23 type  2   force =    -0.07147073   -0.00018102   -0.02770834
     atom   24 type  2   force =     0.07139341    0.00025193   -0.02770854
     atom   25 type  1   force =     0.00002981   -0.00027638    0.09581683
     atom   26 type  1   force =    -0.00015010   -0.00023141   -0.17567943
     atom   27 type  2   force =     0.00009186   -0.00012593   -0.02329453
     atom   28 type  2   force =     0.00007937   -0.00129638    0.05333029
     atom   29 type  2   force =    -0.01194339   -0.00005637    0.00375641
     atom   30 type  2   force =     0.01319295    0.00043134    0.00213328
     atom   31 type  1   force =    -0.00141882    0.00344888   -0.01081557
     atom   32 type  1   force =     0.00064640   -0.01010400    0.02562942
     atom   33 type  2   force =    -0.00038973    0.00005262    0.00004875
     atom   34 type  2   force =     0.00074778    0.00090111   -0.02307135
     atom   35 type  2   force =    -0.00011360    0.00029357   -0.00002288
     atom   36 type  2   force =    -0.00021989    0.00059505   -0.00028826
     atom   37 type  1   force =    -0.00082515   -0.00102280   -0.00014733
     atom   38 type  1   force =    -0.00002818   -0.00010405   -0.00001946
     atom   39 type  2   force =    -0.00035232    0.00003681    0.00059342
     atom   40 type  2   force =     0.00048853    0.00024825    0.00026155
     atom   41 type  2   force =     0.00006376    0.00051476    0.00028017
     atom   42 type  2   force =     0.00007160    0.00031147   -0.00022596
     atom   43 type  1   force =     0.00018157    0.00007617   -0.00021453
     atom   44 type  1   force =    -0.00021094   -0.00062560    0.00002144
     atom   45 type  2   force =     0.00006916   -0.00008754    0.10323048
     atom   46 type  2   force =    -0.07147255   -0.00016913   -0.02770473
     atom   47 type  2   force =     0.07139862    0.00030353   -0.02771951
     atom   48 type  3   force =     0.00011027    0.00234180    0.00516146
     atom   49 type  3   force =     0.00061324    0.00016617    0.00141104
     atom   50 type  4   force =    -0.00018093    0.00234672   -0.01668710
     atom   51 type  5   force =    -0.00264769   -0.00030666    0.00363444
     atom   52 type  5   force =     0.00390724   -0.00058712    0.00372660
     atom   53 type  5   force =    -0.00041204   -0.00454232    0.00339044
     atom   54 type  5   force =    -0.00019305    0.00039242   -0.00054586
     atom   55 type  5   force =    -0.00034273   -0.00032281   -0.00038134

     Total force =     0.367844     Total SCF correction =     0.000333
  @ DRIVER MODE: Message from server: STATUS
  @ DRIVER MODE: Message from server: GETFORCE
  @ DRIVER MODE: Returning v,forces,stress,ensemble 

     Writing output data file ./calc.save/
  @ DRIVER MODE: Message from server: EXIT
  @ DRIVE MODE: Exiting  
 
     init_run     :     10.85s CPU     11.08s WALL (       1 calls)
     electrons    :   1086.51s CPU   1101.67s WALL (       1 calls)
     forces       :      2.47s CPU      2.56s WALL (       1 calls)

     Called by init_run:
     wfcinit      :      4.84s CPU      4.90s WALL (       1 calls)
     potinit      :      5.36s CPU      5.42s WALL (       1 calls)
     hinit0       :      0.29s CPU      0.31s WALL (       1 calls)

     Called by electrons:
     c_bands      :    930.55s CPU    937.02s WALL (      64 calls)
     sum_band     :    104.95s CPU    108.46s WALL (      64 calls)
     v_of_rho     :     38.54s CPU     40.34s WALL (      65 calls)
     newd         :     15.54s CPU     18.95s WALL (      65 calls)
     mix_rho      :      1.41s CPU      1.45s WALL (      64 calls)
     vdW_kernel   :      4.54s CPU      4.56s WALL (       1 calls)

     Called by c_bands:
     init_us_2    :      7.18s CPU      7.22s WALL (    1300 calls)
     cegterg      :    911.95s CPU    918.07s WALL (     652 calls)

     Called by *egterg:
     cdiaghg      :    155.57s CPU    156.27s WALL (    6832 calls)
     h_psi        :    475.97s CPU    480.05s WALL (    6842 calls)
     s_psi        :     65.18s CPU     65.38s WALL (    6842 calls)
     g_psi        :      1.88s CPU      1.90s WALL (    6180 calls)

     Called by h_psi:
     h_psi:calbec :     61.63s CPU     61.92s WALL (    6842 calls)
     vloc_psi     :    345.11s CPU    348.34s WALL (    6842 calls)
     add_vuspsi   :     65.59s CPU     65.96s WALL (    6842 calls)

     General routines
     calbec       :     80.13s CPU     80.47s WALL (    7522 calls)
     fft          :     19.83s CPU     19.99s WALL (    4095 calls)
     ffts         :      0.13s CPU      0.13s WALL (     129 calls)
     fftw         :    384.04s CPU    387.60s WALL (  914198 calls)
     interpolate  :      0.42s CPU      0.43s WALL (      65 calls)
     davcio       :      0.00s CPU      0.16s WALL (      10 calls)
 
     Parallel routines
 
     PWSCF        :  18m20.08s CPU  18m35.91s WALL

 
   This run was terminated on:   3:56:35   9Sep2021            

=------------------------------------------------------------------------------=
   JOB DONE.
=------------------------------------------------------------------------------=
