
     Program PWSCF v.6.7GPU starts on 22Sep2021 at 14:59:59 

     This program is part of the open-source Quantum ESPRESSO suite
     for quantum simulation of materials; please cite
         "P. Giannozzi et al., J. Phys.:Condens. Matter 21 395502 (2009);
         "P. Giannozzi et al., J. Phys.:Condens. Matter 29 465901 (2017);
         "P. Giannozzi et al., J. Chem. Phys. 152 154105 (2020);
          URL http://www.quantum-espresso.org", 
     in publications or presentations arising from this work. More details at
     http://www.quantum-espresso.org/quote

     Parallel version (MPI), running on    10 processors

     MPI processes distributed on     1 nodes
     R & G space division:  proc/nbgrp/npool/nimage =      10
     Reading input from /storage/home/hcoda1/3/ntian30/research/carbon/CxH_vib/CH_calc/ads_slab/CHNHNHH2O_b/out_0047/pw.inp
Warning: card &CELL ignored
Warning: card   CELL_DYNAMICS='IPI', ignored
Warning: card / ignored

     Current dimensions of program PWSCF are:
     Max number of different atomic species (ntypx) = 10
     Max number of k-points (npk) =  40000
     Max angular momentum in pseudopotentials (lmaxx) =  3
     Presently no symmetry can be used with electric field

     Message from routine cell_base_init:
     DEPRECATED: use true lattice parameter, not A to a.u. conversion factor

     **************************************************************************
     Initializing libbeef V0.1.2 with the BEEF-vdW functional.
     Citation: Wellendorff et al., PRB 85, 235149 (2012).
     **************************************************************************


     IMPORTANT: XC functional enforced from input :
     Exchange-correlation= BEEF-VDW
                           (   1   4  43  14   2   0   0)
     Any further DFT definition will be discarded
     Please, verify this is what you really want


     Subspace diagonalization in iterative solution of the eigenvalue problem:
     one sub-group per band group will be used
     scalapack distributed-memory algorithm (size of sub-group:  3*  3 procs)

  @ DRIVER MODE: Connecting to 
 qe_1139763_2927424.sched-torque.pace.gatech.eduyf1ly7_i_scratch
  using UNIX socket
  @ DRIVER MODE: Message from server: STATUS
  @ DRIVER MODE: Message from server: INIT
  @ DRIVER MODE: Receiving replica           0          -1
  @ DRIVER MODE: Receiving encoded integer          25
  @ DRIVER MODE:  SCF:  T  FORCE:  T  STRESS:  F  VC:  F  ENSEMBLE:  F
  @ DRIVER MODE:  SCF:  T  FORCE:  T  STRESS:  F  VC:  F  ENSEMBLE:  F
 
     Parallelization info
     --------------------
     sticks:   dense  smooth     PW     G-vecs:    dense   smooth      PW
     Min         327     131     37                56683    14340    2191
     Max         328     133     38                56694    14346    2206
     Sum        3275    1317    379               566857   143421   21985
 
     Using Slab Decomposition
 


     bravais-lattice index     =            0
     lattice parameter (alat)  =       1.8897  a.u.
     unit-cell volume          =    6658.9804 (a.u.)^3
     number of atoms/cell      =           56
     number of atomic types    =            5
     number of electrons       =       403.00
     number of Kohn-Sham states=          211
     kinetic-energy cutoff     =      29.3995  Ry
     charge density cutoff     =     293.9946  Ry
     scf convergence threshold =      7.3E-08
     mixing beta               =       0.0500
     number of iterations used =            8  plain     mixing
     Exchange-correlation= BEEF-VDW
                           (   1   4  43  14   2   0   0)

     celldm(1)=   1.889726  celldm(2)=   0.000000  celldm(3)=   0.000000
     celldm(4)=   0.000000  celldm(5)=   0.000000  celldm(6)=   0.000000

     crystal axes: (cart. coord. in units of alat)
               a(1) = (   6.579727   0.000000   0.000000 )  
               a(2) = (  -0.000775   5.961596   0.000000 )  
               a(3) = (   0.000000   0.000000  25.155947 )  

     reciprocal axes: (cart. coord. in units 2 pi/alat)
               b(1) = (  0.151982  0.000020  0.000000 )  
               b(2) = (  0.000000  0.167740  0.000000 )  
               b(3) = (  0.000000  0.000000  0.039752 )  


     PseudoPot. # 1 for Ti read from file:
     /storage/coda1/p-amedford6/0/shared/rich_project_chbe-medford/medford-share/data/pseudos_module/espresso/nninc/pbe/van/Ti.UPF
     MD5 check sum: 8e4df49b7f0d34bbd5052bf3f5ea0213
     Pseudo is Ultrasoft, Zval = 12.0
     Generated by new atomic code, or converted to UPF format
     Using radial grid of  851 points,  6 beta functions with: 
                l(1) =   0
                l(2) =   0
                l(3) =   1
                l(4) =   1
                l(5) =   2
                l(6) =   2
     Q(r) pseudized with  8 coefficients,  rinner =    1.000   1.000   1.000
                                                       1.000   1.000

     PseudoPot. # 2 for O  read from file:
     /storage/coda1/p-amedford6/0/shared/rich_project_chbe-medford/medford-share/data/pseudos_module/espresso/nninc/pbe/van/O.UPF
     MD5 check sum: 78c19812648e8988a0fe644b0f25305e
     Pseudo is Ultrasoft, Zval =  6.0
     Generated by new atomic code, or converted to UPF format
     Using radial grid of  737 points,  4 beta functions with: 
                l(1) =   0
                l(2) =   0
                l(3) =   1
                l(4) =   1
     Q(r) pseudized with  8 coefficients,  rinner =    0.800   0.800   0.800


     PseudoPot. # 3 for N  read from file:
     /storage/coda1/p-amedford6/0/shared/rich_project_chbe-medford/medford-share/data/pseudos_module/espresso/nninc/pbe/van/N.UPF
     MD5 check sum: 90d10febe142ad51ac9d5be1deb811c4
     Pseudo is Ultrasoft, Zval =  5.0
     Generated by new atomic code, or converted to UPF format
     Using radial grid of  729 points,  4 beta functions with: 
                l(1) =   0
                l(2) =   0
                l(3) =   1
                l(4) =   1
     Q(r) pseudized with  8 coefficients,  rinner =    0.800   0.800   0.800


     PseudoPot. # 4 for C  read from file:
     /storage/coda1/p-amedford6/0/shared/rich_project_chbe-medford/medford-share/data/pseudos_module/espresso/nninc/pbe/van/C.UPF
     MD5 check sum: 1a69bf6b8db32088f5b2163dbdb77a27
     Pseudo is Ultrasoft, Zval =  4.0
     Generated by new atomic code, or converted to UPF format
     Using radial grid of  721 points,  4 beta functions with: 
                l(1) =   0
                l(2) =   0
                l(3) =   1
                l(4) =   1
     Q(r) pseudized with  8 coefficients,  rinner =    0.800   0.800   0.800


     PseudoPot. # 5 for H  read from file:
     /storage/coda1/p-amedford6/0/shared/rich_project_chbe-medford/medford-share/data/pseudos_module/espresso/nninc/pbe/van/H.UPF
     MD5 check sum: b5ee9d7bfd3a09ee7748110bda690ff7
     Pseudo is Ultrasoft, Zval =  1.0
     Generated by new atomic code, or converted to UPF format
     Using radial grid of  615 points,  1 beta functions with: 
                l(1) =   0
     Q(r) pseudized with  8 coefficients,  rinner =    0.800

     atomic species   valence    mass     pseudopotential
        Ti1           12.00    47.86700     Ti( 1.00)
        O1             6.00    15.99900     O ( 1.00)
        N1             5.00    14.00700     N ( 1.00)
        C1             4.00    12.01100     C ( 1.00)
        H1             1.00     1.00800     H ( 1.00)

     No symmetry found



   Cartesian axes

     site n.     atom                  positions (alat units)
         1           Ti1 tau(   1) = (   0.0004258   2.9801865   6.0000000  )
         2           Ti1 tau(   2) = (   3.2906075   1.4906267   6.0002472  )
         3           O1  tau(   3) = (   0.0006271   0.0005054   7.9858123  )
         4           O1  tau(   4) = (   3.2906025   0.0005020   7.3038282  )
         5           O1  tau(   5) = (   4.5942328   1.4918067   9.2879030  )
         6           O1  tau(   6) = (   1.9868534   1.4903216   9.2879459  )
         7           Ti1 tau(   7) = (   3.2907910   2.8959150   9.1758416  )
         8           Ti1 tau(   8) = (   0.0015273   1.4827037   9.2680791  )
         9           O1  tau(   9) = (   3.2780774   5.9605562  11.3537357  )
        10           O1  tau(  10) = (   0.0116148   5.9584955  10.6183126  )
        11           O1  tau(  11) = (   1.2922713   1.4781662  12.6511241  )
        12           O1  tau(  12) = (   5.2965393   1.5043564  12.6031353  )
        13           Ti1 tau(  13) = (   6.5273184   3.0207086  12.5807821  )
        14           Ti1 tau(  14) = (   3.2344070   1.4559942  12.5004267  )
        15           O1  tau(  15) = (   6.4759410   0.0295824  14.6525783  )
        16           O1  tau(  16) = (   3.3604338   0.0238249  13.9383540  )
        17           O1  tau(  17) = (   4.5324113   1.5808541  16.1066768  )
        18           O1  tau(  18) = (   1.9684897   1.4712893  15.8817925  )
        19           Ti1 tau(  19) = (   3.2566353   3.0739815  15.8599551  )
        20           Ti1 tau(  20) = (   6.5466614   1.5318677  15.7800735  )
        21           O1  tau(  21) = (   3.2904802   0.0005063   4.7018136  )
        22           O1  tau(  22) = (   6.5744325   0.0155309  17.2227980  )
        23           O1  tau(  23) = (   1.3043587   1.4918075   6.0039043  )
        24           O1  tau(  24) = (   5.2767064   1.4903225   6.0039473  )
        25           Ti1 tau(  25) = (   0.0000382   5.9609847   6.0000000  )
        26           Ti1 tau(  26) = (   3.2902200   4.4714249   6.0002472  )
        27           O1  tau(  27) = (   0.0002396   2.9813036   7.9858123  )
        28           O1  tau(  28) = (   3.2902150   2.9813002   7.3038282  )
        29           O1  tau(  29) = (   4.5938453   4.4726049   9.2879030  )
        30           O1  tau(  30) = (   1.9864658   4.4711199   9.2879459  )
        31           Ti1 tau(  31) = (   3.2891106   5.8743827   9.1763621  )
        32           Ti1 tau(  32) = (   0.0006254   4.4649316   9.2693709  )
        33           O1  tau(  33) = (   3.2727763   2.9788165  11.3438337  )
        34           O1  tau(  34) = (   0.0092240   2.9805883  10.6323155  )
        35           O1  tau(  35) = (   1.2865780   4.4896361  12.6556599  )
        36           O1  tau(  36) = (   5.2967437   4.4749066  12.6066920  )
        37           Ti1 tau(  37) = (   6.5467059   0.0356701  12.5108493  )
        38           Ti1 tau(  38) = (   3.2305653   4.4019604  12.5605372  )
        39           O1  tau(  39) = (   6.5199767   2.9846217  14.6905747  )
        40           O1  tau(  40) = (   3.2851694   3.0254550  13.9321539  )
        41           O1  tau(  41) = (   4.5310495   4.4602642  16.1636806  )
        42           O1  tau(  42) = (   1.9842988   4.5744318  15.9411167  )
        43           Ti1 tau(  43) = (   3.2691225   0.1036042  15.7405456  )
        44           Ti1 tau(  44) = (   6.5697781   4.6877429  16.0360384  )
        45           O1  tau(  45) = (   3.2900926   2.9813045   4.7018136  )
        46           O1  tau(  46) = (   1.3039711   4.4726057   6.0039043  )
        47           O1  tau(  47) = (   5.2763189   4.4711207   6.0039473  )
        48           N1  tau(  48) = (   1.2792381   2.8578196  18.3696018  )
        49           N1  tau(  49) = (   0.1888888   2.9646215  17.5057353  )
        50           C1  tau(  50) = (   2.5352320   2.9081513  18.0382144  )
        51           H1  tau(  51) = (   3.1442446   2.7411670  18.9317345  )
        52           H1  tau(  52) = (   1.0014291   2.6635404  19.3302151  )
        53           H1  tau(  53) = (   5.9397212   2.8571719  18.0851170  )
        54           O1  tau(  54) = (   3.2630597   0.0341043  18.2348460  )
        55           H1  tau(  55) = (   4.0455299   5.4198958  18.2385053  )
        56           H1  tau(  56) = (   2.4923979   5.4091459  18.3156537  )

     number of k points=    10  Fermi-Dirac smearing, width (Ry)=  0.0073
                       cart. coord. in units 2pi/alat
        k(    1) = (   0.0000000   0.0000000   0.0000000), wk =   0.1250000
        k(    2) = (   0.0000000   0.0419351   0.0000000), wk =   0.2500000
        k(    3) = (   0.0000000  -0.0838702   0.0000000), wk =   0.1250000
        k(    4) = (   0.0379955   0.0000049   0.0000000), wk =   0.2500000
        k(    5) = (   0.0379955   0.0419400   0.0000000), wk =   0.2500000
        k(    6) = (   0.0379955  -0.0838652   0.0000000), wk =   0.2500000
        k(    7) = (   0.0379955  -0.0419301   0.0000000), wk =   0.2500000
        k(    8) = (  -0.0759910  -0.0000099   0.0000000), wk =   0.1250000
        k(    9) = (  -0.0759910   0.0419252   0.0000000), wk =   0.2500000
        k(   10) = (  -0.0759910  -0.0838800   0.0000000), wk =   0.1250000

     Dense  grid:   566857 G-vectors     FFT dimensions: (  72,  64, 270)

     Smooth grid:   143421 G-vectors     FFT dimensions: (  45,  40, 180)

     Estimated max dynamical RAM per process >     367.48 MB

     Estimated total dynamical RAM >       3.59 GB
     Cannot read rho : file not found

     Initial potential from superposition of free atoms

     starting charge  386.99914, renormalised to  403.00000

     negative rho (up, down):  1.739E-02 0.000E+00


     %%%%%%%%%%%%%%%%%%%%%%%%%%%%%%%%%%%%%%%%%%%%%%%%%%%%%%%%%%%%%%%%%%%%%%%%
     %                                                                      %
     % You are using vdW-DF, which was implemented by the Thonhauser group. %
     % Please cite the following two papers that made this development      %
     % possible and the two reviews that describe the various versions:     %
     %                                                                      %
     %   T. Thonhauser et al., PRL 115, 136402 (2015).                      %
     %   T. Thonhauser et al., PRB 76, 125112 (2007).                       %
     %   K. Berland et al., Rep. Prog. Phys. 78, 066501 (2015).             %
     %   D.C. Langreth et al., J. Phys.: Condens. Matter 21, 084203 (2009). %
     %                                                                      %
     %                                                                      %
     % If you are calculating the stress with vdW-DF, please also cite:     %
     %                                                                      %
     %   R. Sabatini et al., J. Phys.: Condens. Matter 24, 424209 (2012).   %
     %                                                                      %
     %%%%%%%%%%%%%%%%%%%%%%%%%%%%%%%%%%%%%%%%%%%%%%%%%%%%%%%%%%%%%%%%%%%%%%%%


 
     Adding external electric field

     Computed dipole along edir(3) : 
        Dipole              -12.3455 Ry au,        -31.3791 Debye
        Dipole field         -0.0233 Ry au, 
 
        Potential amp.        2.1597 Ry
        Total length         46.3494 bohr
 
     Starting wfcs are  305 atomic wfcs
  @ DRIVER MODE: Message from server: STATUS
  @ DRIVER MODE: Message from server: POSDATA
  @ DRIVER MODE: Reading and sharing cell 
  @ DRIVER MODE: Reading and sharing positions 
  @ DRIVER MODE: Received positions 

     total cpu time spent up to now is       21.4 secs

     Self-consistent Calculation

     iteration #  1     ecut=    29.40 Ry     beta= 0.05
     Davidson diagonalization with overlap
     c_bands:  5 eigenvalues not converged
     c_bands:  3 eigenvalues not converged
     c_bands:  3 eigenvalues not converged
     c_bands:  1 eigenvalues not converged
     c_bands:  2 eigenvalues not converged
     c_bands:  2 eigenvalues not converged
     c_bands:  5 eigenvalues not converged
     c_bands:  2 eigenvalues not converged
     c_bands:  4 eigenvalues not converged
     ethr =  1.00E-05,  avg # of iterations = 29.3

     negative rho (up, down):  9.923E-03 0.000E+00
 
     Adding external electric field

     Computed dipole along edir(3) : 
        Dipole               53.5114 Ry au,        136.0124 Debye
        Dipole field          0.1010 Ry au, 
 
        Potential amp.       -9.3610 Ry
        Total length         46.3494 bohr
 

     total cpu time spent up to now is       77.3 secs

     total energy              =   -2358.72577479 Ry
     estimated scf accuracy    <    6971.26880499 Ry

     iteration #  2     ecut=    29.40 Ry     beta= 0.05
     Davidson diagonalization with overlap
     ethr =  1.00E-02,  avg # of iterations = 28.4

     negative rho (up, down):  4.558E-04 0.000E+00
 
     Adding external electric field

     Computed dipole along edir(3) : 
        Dipole                0.0619 Ry au,          0.1574 Debye
        Dipole field          0.0001 Ry au, 
 
        Potential amp.       -0.0108 Ry
        Total length         46.3494 bohr
 

     total cpu time spent up to now is      170.5 secs

     total energy              =   -2476.72423200 Ry
     estimated scf accuracy    <   70339.58413974 Ry

     iteration #  3     ecut=    29.40 Ry     beta= 0.05
     Davidson diagonalization with overlap
     ethr =  1.00E-02,  avg # of iterations = 15.6

     negative rho (up, down):  5.150E-04 0.000E+00
 
     Adding external electric field

     Computed dipole along edir(3) : 
        Dipole               -3.3594 Ry au,         -8.5388 Debye
        Dipole field         -0.0063 Ry au, 
 
        Potential amp.        0.5877 Ry
        Total length         46.3494 bohr
 

     total cpu time spent up to now is      224.7 secs

     total energy              =   -2958.96524521 Ry
     estimated scf accuracy    <    6084.05874311 Ry

     iteration #  4     ecut=    29.40 Ry     beta= 0.05
     Davidson diagonalization with overlap
     ethr =  1.00E-02,  avg # of iterations = 14.0

     negative rho (up, down):  5.330E-04 0.000E+00
 
     Adding external electric field

     Computed dipole along edir(3) : 
        Dipole               -4.9679 Ry au,        -12.6271 Debye
        Dipole field         -0.0094 Ry au, 
 
        Potential amp.        0.8691 Ry
        Total length         46.3494 bohr
 

     total cpu time spent up to now is      250.5 secs

     total energy              =   -2966.67135707 Ry
     estimated scf accuracy    <    1755.38477719 Ry

     iteration #  5     ecut=    29.40 Ry     beta= 0.05
     Davidson diagonalization with overlap
     ethr =  1.00E-02,  avg # of iterations =  1.7

     negative rho (up, down):  5.813E-04 0.000E+00
 
     Adding external electric field

     Computed dipole along edir(3) : 
        Dipole               -6.8298 Ry au,        -17.3596 Debye
        Dipole field         -0.0129 Ry au, 
 
        Potential amp.        1.1948 Ry
        Total length         46.3494 bohr
 

     total cpu time spent up to now is      261.1 secs

     total energy              =   -2947.83344286 Ry
     estimated scf accuracy    <    1841.03469348 Ry

     iteration #  6     ecut=    29.40 Ry     beta= 0.05
     Davidson diagonalization with overlap
     ethr =  1.00E-02,  avg # of iterations = 11.4

     negative rho (up, down):  5.845E-04 0.000E+00
 
     Adding external electric field

     Computed dipole along edir(3) : 
        Dipole               -6.0209 Ry au,        -15.3036 Debye
        Dipole field         -0.0114 Ry au, 
 
        Potential amp.        1.0533 Ry
        Total length         46.3494 bohr
 

     total cpu time spent up to now is      287.0 secs

     total energy              =   -2978.41536857 Ry
     estimated scf accuracy    <      20.50111701 Ry

     iteration #  7     ecut=    29.40 Ry     beta= 0.05
     Davidson diagonalization with overlap
     ethr =  5.09E-03,  avg # of iterations =  1.5

     negative rho (up, down):  7.734E-04 0.000E+00
 
     Adding external electric field

     Computed dipole along edir(3) : 
        Dipole                0.9294 Ry au,          2.3624 Debye
        Dipole field          0.0018 Ry au, 
 
        Potential amp.       -0.1626 Ry
        Total length         46.3494 bohr
 

     total cpu time spent up to now is      297.5 secs

     total energy              =   -2971.73078181 Ry
     estimated scf accuracy    <      18.58362424 Ry

     iteration #  8     ecut=    29.40 Ry     beta= 0.05
     Davidson diagonalization with overlap
     c_bands:  1 eigenvalues not converged
     c_bands:  1 eigenvalues not converged
     c_bands:  1 eigenvalues not converged
     c_bands:  1 eigenvalues not converged
     c_bands:  1 eigenvalues not converged
     c_bands:  1 eigenvalues not converged
     c_bands:  2 eigenvalues not converged
     ethr =  4.61E-03,  avg # of iterations = 19.6

     negative rho (up, down):  7.885E-04 0.000E+00
 
     Adding external electric field

     Computed dipole along edir(3) : 
        Dipole               -0.5087 Ry au,         -1.2929 Debye
        Dipole field         -0.0010 Ry au, 
 
        Potential amp.        0.0890 Ry
        Total length         46.3494 bohr
 

     total cpu time spent up to now is      322.9 secs

     total energy              =   -2982.90402058 Ry
     estimated scf accuracy    <    1837.42054157 Ry

     iteration #  9     ecut=    29.40 Ry     beta= 0.05
     Davidson diagonalization with overlap
     ethr =  4.61E-03,  avg # of iterations =  2.0

     negative rho (up, down):  8.244E-04 0.000E+00
 
     Adding external electric field

     Computed dipole along edir(3) : 
        Dipole               -3.6889 Ry au,         -9.3763 Debye
        Dipole field         -0.0070 Ry au, 
 
        Potential amp.        0.6453 Ry
        Total length         46.3494 bohr
 

     total cpu time spent up to now is      334.0 secs

     total energy              =   -2955.82533475 Ry
     estimated scf accuracy    <    1640.57663872 Ry

     iteration # 10     ecut=    29.40 Ry     beta= 0.05
     Davidson diagonalization with overlap
     ethr =  4.61E-03,  avg # of iterations = 15.8

     negative rho (up, down):  9.407E-04 0.000E+00
 
     Adding external electric field

     Computed dipole along edir(3) : 
        Dipole               -2.0287 Ry au,         -5.1565 Debye
        Dipole field         -0.0038 Ry au, 
 
        Potential amp.        0.3549 Ry
        Total length         46.3494 bohr
 

     total cpu time spent up to now is      367.8 secs

     total energy              =   -2973.86707578 Ry
     estimated scf accuracy    <      12.72583692 Ry

     iteration # 11     ecut=    29.40 Ry     beta= 0.05
     Davidson diagonalization with overlap
     ethr =  3.16E-03,  avg # of iterations =  2.0

     negative rho (up, down):  9.323E-04 0.000E+00
 
     Adding external electric field

     Computed dipole along edir(3) : 
        Dipole               -4.7878 Ry au,        -12.1693 Debye
        Dipole field         -0.0090 Ry au, 
 
        Potential amp.        0.8375 Ry
        Total length         46.3494 bohr
 

     total cpu time spent up to now is      380.8 secs

     total energy              =   -2972.24644352 Ry
     estimated scf accuracy    <      16.29010956 Ry

     iteration # 12     ecut=    29.40 Ry     beta= 0.05
     Davidson diagonalization with overlap
     c_bands:  1 eigenvalues not converged
     c_bands:  3 eigenvalues not converged
     ethr =  3.16E-03,  avg # of iterations = 14.2

     negative rho (up, down):  8.969E-04 0.000E+00
 
     Adding external electric field

     Computed dipole along edir(3) : 
        Dipole               -4.2437 Ry au,        -10.7864 Debye
        Dipole field         -0.0080 Ry au, 
 
        Potential amp.        0.7424 Ry
        Total length         46.3494 bohr
 

     total cpu time spent up to now is      399.4 secs

     total energy              =   -2975.86905751 Ry
     estimated scf accuracy    <     578.74408692 Ry

     iteration # 13     ecut=    29.40 Ry     beta= 0.05
     Davidson diagonalization with overlap
     ethr =  3.16E-03,  avg # of iterations =  1.2

     negative rho (up, down):  8.639E-04 0.000E+00
 
     Adding external electric field

     Computed dipole along edir(3) : 
        Dipole               -3.7265 Ry au,         -9.4718 Debye
        Dipole field         -0.0070 Ry au, 
 
        Potential amp.        0.6519 Ry
        Total length         46.3494 bohr
 

     total cpu time spent up to now is      409.7 secs

     total energy              =   -2973.91960000 Ry
     estimated scf accuracy    <     274.38107452 Ry

     iteration # 14     ecut=    29.40 Ry     beta= 0.05
     Davidson diagonalization with overlap
     ethr =  3.16E-03,  avg # of iterations =  2.2

     negative rho (up, down):  8.497E-04 0.000E+00
 
     Adding external electric field

     Computed dipole along edir(3) : 
        Dipole               -2.4361 Ry au,         -6.1921 Debye
        Dipole field         -0.0046 Ry au, 
 
        Potential amp.        0.4262 Ry
        Total length         46.3494 bohr
 

     total cpu time spent up to now is      421.7 secs

     total energy              =   -2972.93193902 Ry
     estimated scf accuracy    <      81.99002291 Ry

     iteration # 15     ecut=    29.40 Ry     beta= 0.05
     Davidson diagonalization with overlap
     ethr =  3.16E-03,  avg # of iterations =  4.0

     negative rho (up, down):  8.050E-04 0.000E+00
 
     Adding external electric field

     Computed dipole along edir(3) : 
        Dipole               -1.4222 Ry au,         -3.6150 Debye
        Dipole field         -0.0027 Ry au, 
 
        Potential amp.        0.2488 Ry
        Total length         46.3494 bohr
 

     total cpu time spent up to now is      433.4 secs

     total energy              =   -2973.20595921 Ry
     estimated scf accuracy    <      14.31755213 Ry

     iteration # 16     ecut=    29.40 Ry     beta= 0.05
     Davidson diagonalization with overlap
     c_bands:  2 eigenvalues not converged
     c_bands:  1 eigenvalues not converged
     c_bands:  3 eigenvalues not converged
     ethr =  3.16E-03,  avg # of iterations = 18.7

     negative rho (up, down):  8.797E-04 0.000E+00
 
     Adding external electric field

     Computed dipole along edir(3) : 
        Dipole               -1.4606 Ry au,         -3.7124 Debye
        Dipole field         -0.0028 Ry au, 
 
        Potential amp.        0.2555 Ry
        Total length         46.3494 bohr
 

     total cpu time spent up to now is      454.5 secs

     total energy              =   -2975.78897233 Ry
     estimated scf accuracy    <     180.36845136 Ry

     iteration # 17     ecut=    29.40 Ry     beta= 0.05
     Davidson diagonalization with overlap
     ethr =  3.16E-03,  avg # of iterations =  1.3

     negative rho (up, down):  1.036E-03 0.000E+00
 
     Adding external electric field

     Computed dipole along edir(3) : 
        Dipole               -1.9090 Ry au,         -4.8522 Debye
        Dipole field         -0.0036 Ry au, 
 
        Potential amp.        0.3340 Ry
        Total length         46.3494 bohr
 

     total cpu time spent up to now is      465.2 secs

     total energy              =   -2974.33358338 Ry
     estimated scf accuracy    <     170.43554362 Ry

     iteration # 18     ecut=    29.40 Ry     beta= 0.05
     Davidson diagonalization with overlap
     ethr =  3.16E-03,  avg # of iterations =  8.9

     negative rho (up, down):  9.583E-04 0.000E+00
 
     Adding external electric field

     Computed dipole along edir(3) : 
        Dipole               -1.4595 Ry au,         -3.7097 Debye
        Dipole field         -0.0028 Ry au, 
 
        Potential amp.        0.2553 Ry
        Total length         46.3494 bohr
 

     total cpu time spent up to now is      479.5 secs

     total energy              =   -2974.98374811 Ry
     estimated scf accuracy    <      53.38768512 Ry

     iteration # 19     ecut=    29.40 Ry     beta= 0.05
     Davidson diagonalization with overlap
     ethr =  3.16E-03,  avg # of iterations =  1.3

     negative rho (up, down):  9.414E-04 0.000E+00
 
     Adding external electric field

     Computed dipole along edir(3) : 
        Dipole               -1.2527 Ry au,         -3.1839 Debye
        Dipole field         -0.0024 Ry au, 
 
        Potential amp.        0.2191 Ry
        Total length         46.3494 bohr
 

     total cpu time spent up to now is      489.9 secs

     total energy              =   -2974.46434978 Ry
     estimated scf accuracy    <      82.17174881 Ry

     iteration # 20     ecut=    29.40 Ry     beta= 0.05
     Davidson diagonalization with overlap
     ethr =  3.16E-03,  avg # of iterations =  2.6

     negative rho (up, down):  9.941E-04 0.000E+00
 
     Adding external electric field

     Computed dipole along edir(3) : 
        Dipole               -1.2520 Ry au,         -3.1823 Debye
        Dipole field         -0.0024 Ry au, 
 
        Potential amp.        0.2190 Ry
        Total length         46.3494 bohr
 

     total cpu time spent up to now is      510.3 secs

     total energy              =   -2975.10446472 Ry
     estimated scf accuracy    <      55.58903656 Ry

     iteration # 21     ecut=    29.40 Ry     beta= 0.05
     Davidson diagonalization with overlap
     ethr =  3.16E-03,  avg # of iterations =  1.3

     negative rho (up, down):  1.062E-03 0.000E+00
 
     Adding external electric field

     Computed dipole along edir(3) : 
        Dipole               -1.6357 Ry au,         -4.1575 Debye
        Dipole field         -0.0031 Ry au, 
 
        Potential amp.        0.2861 Ry
        Total length         46.3494 bohr
 

     total cpu time spent up to now is      520.8 secs

     total energy              =   -2975.01417720 Ry
     estimated scf accuracy    <      63.73006979 Ry

     iteration # 22     ecut=    29.40 Ry     beta= 0.05
     Davidson diagonalization with overlap
     ethr =  3.16E-03,  avg # of iterations =  4.0

     negative rho (up, down):  9.238E-04 0.000E+00
 
     Adding external electric field

     Computed dipole along edir(3) : 
        Dipole               -1.4587 Ry au,         -3.7076 Debye
        Dipole field         -0.0028 Ry au, 
 
        Potential amp.        0.2552 Ry
        Total length         46.3494 bohr
 

     total cpu time spent up to now is      533.3 secs

     total energy              =   -2974.33000199 Ry
     estimated scf accuracy    <      45.71333404 Ry

     iteration # 23     ecut=    29.40 Ry     beta= 0.05
     Davidson diagonalization with overlap
     ethr =  3.16E-03,  avg # of iterations =  1.5

     negative rho (up, down):  8.233E-04 0.000E+00
 
     Adding external electric field

     Computed dipole along edir(3) : 
        Dipole               -1.4156 Ry au,         -3.5981 Debye
        Dipole field         -0.0027 Ry au, 
 
        Potential amp.        0.2476 Ry
        Total length         46.3494 bohr
 

     total cpu time spent up to now is      548.8 secs

     total energy              =   -2972.44482278 Ry
     estimated scf accuracy    <      83.28638195 Ry

     iteration # 24     ecut=    29.40 Ry     beta= 0.05
     Davidson diagonalization with overlap
     ethr =  3.16E-03,  avg # of iterations = 12.9

     negative rho (up, down):  1.548E-03 0.000E+00
 
     Adding external electric field

     Computed dipole along edir(3) : 
        Dipole               -2.0630 Ry au,         -5.2436 Debye
        Dipole field         -0.0039 Ry au, 
 
        Potential amp.        0.3609 Ry
        Total length         46.3494 bohr
 

     total cpu time spent up to now is      585.2 secs

     total energy              =   -2972.20778666 Ry
     estimated scf accuracy    <      15.95553716 Ry

     iteration # 25     ecut=    29.40 Ry     beta= 0.05
     Davidson diagonalization with overlap
     ethr =  3.16E-03,  avg # of iterations =  8.3

     negative rho (up, down):  1.031E-03 0.000E+00
 
     Adding external electric field

     Computed dipole along edir(3) : 
        Dipole               -0.9481 Ry au,         -2.4097 Debye
        Dipole field         -0.0018 Ry au, 
 
        Potential amp.        0.1658 Ry
        Total length         46.3494 bohr
 

     total cpu time spent up to now is      659.7 secs

     total energy              =   -2964.12310209 Ry
     estimated scf accuracy    <     578.71919662 Ry

     iteration # 26     ecut=    29.40 Ry     beta= 0.05
     Davidson diagonalization with overlap
     ethr =  3.16E-03,  avg # of iterations = 11.2

     negative rho (up, down):  1.055E-03 0.000E+00
 
     Adding external electric field

     Computed dipole along edir(3) : 
        Dipole               -1.0685 Ry au,         -2.7160 Debye
        Dipole field         -0.0020 Ry au, 
 
        Potential amp.        0.1869 Ry
        Total length         46.3494 bohr
 

     total cpu time spent up to now is      710.2 secs

     total energy              =   -2973.54544837 Ry
     estimated scf accuracy    <       8.27888645 Ry

     iteration # 27     ecut=    29.40 Ry     beta= 0.05
     Davidson diagonalization with overlap
     ethr =  2.05E-03,  avg # of iterations =  2.0

     negative rho (up, down):  1.108E-03 0.000E+00
 
     Adding external electric field

     Computed dipole along edir(3) : 
        Dipole               -0.9480 Ry au,         -2.4095 Debye
        Dipole field         -0.0018 Ry au, 
 
        Potential amp.        0.1658 Ry
        Total length         46.3494 bohr
 

     total cpu time spent up to now is      724.1 secs

     total energy              =   -2973.70253049 Ry
     estimated scf accuracy    <       3.07073896 Ry

     iteration # 28     ecut=    29.40 Ry     beta= 0.05
     Davidson diagonalization with overlap
     ethr =  7.62E-04,  avg # of iterations =  6.8

     negative rho (up, down):  1.293E-03 0.000E+00
 
     Adding external electric field

     Computed dipole along edir(3) : 
        Dipole               -0.3859 Ry au,         -0.9809 Debye
        Dipole field         -0.0007 Ry au, 
 
        Potential amp.        0.0675 Ry
        Total length         46.3494 bohr
 

     total cpu time spent up to now is      738.5 secs

     total energy              =   -2973.94283174 Ry
     estimated scf accuracy    <       1.31083814 Ry

     iteration # 29     ecut=    29.40 Ry     beta= 0.05
     Davidson diagonalization with overlap
     ethr =  3.25E-04,  avg # of iterations =  9.0

     negative rho (up, down):  1.774E-03 0.000E+00
 
     Adding external electric field

     Computed dipole along edir(3) : 
        Dipole                0.8629 Ry au,          2.1933 Debye
        Dipole field          0.0016 Ry au, 
 
        Potential amp.       -0.1510 Ry
        Total length         46.3494 bohr
 

     total cpu time spent up to now is      760.0 secs

     total energy              =   -2973.94826569 Ry
     estimated scf accuracy    <       0.75294559 Ry

     iteration # 30     ecut=    29.40 Ry     beta= 0.05
     Davidson diagonalization with overlap
     c_bands:  2 eigenvalues not converged
     c_bands:  1 eigenvalues not converged
     c_bands:  3 eigenvalues not converged
     c_bands:  2 eigenvalues not converged
     ethr =  1.87E-04,  avg # of iterations = 18.7

     negative rho (up, down):  1.755E-03 0.000E+00
 
     Adding external electric field

     Computed dipole along edir(3) : 
        Dipole                0.7326 Ry au,          1.8621 Debye
        Dipole field          0.0014 Ry au, 
 
        Potential amp.       -0.1282 Ry
        Total length         46.3494 bohr
 

     total cpu time spent up to now is      799.3 secs

     total energy              =   -2973.95971557 Ry
     estimated scf accuracy    <       2.57693115 Ry

     iteration # 31     ecut=    29.40 Ry     beta= 0.05
     Davidson diagonalization with overlap
     ethr =  1.87E-04,  avg # of iterations =  5.1

     negative rho (up, down):  2.182E-03 0.000E+00
 
     Adding external electric field

     Computed dipole along edir(3) : 
        Dipole                0.7644 Ry au,          1.9430 Debye
        Dipole field          0.0014 Ry au, 
 
        Potential amp.       -0.1337 Ry
        Total length         46.3494 bohr
 

     total cpu time spent up to now is      811.4 secs

     total energy              =   -2973.82469772 Ry
     estimated scf accuracy    <       1.45709228 Ry

     iteration # 32     ecut=    29.40 Ry     beta= 0.05
     Davidson diagonalization with overlap
     c_bands:  2 eigenvalues not converged
     ethr =  1.87E-04,  avg # of iterations = 12.4

     negative rho (up, down):  2.374E-03 0.000E+00
 
     Adding external electric field

     Computed dipole along edir(3) : 
        Dipole                0.8661 Ry au,          2.2014 Debye
        Dipole field          0.0016 Ry au, 
 
        Potential amp.       -0.1515 Ry
        Total length         46.3494 bohr
 

     total cpu time spent up to now is      832.5 secs

     total energy              =   -2973.95810805 Ry
     estimated scf accuracy    <       0.26893921 Ry

     iteration # 33     ecut=    29.40 Ry     beta= 0.05
     Davidson diagonalization with overlap
     c_bands:  5 eigenvalues not converged
     c_bands:  1 eigenvalues not converged
     c_bands:  3 eigenvalues not converged
     c_bands:  1 eigenvalues not converged
     ethr =  6.67E-05,  avg # of iterations = 15.0

     negative rho (up, down):  3.011E-03 0.000E+00
 
     Adding external electric field

     Computed dipole along edir(3) : 
        Dipole                1.2189 Ry au,          3.0982 Debye
        Dipole field          0.0023 Ry au, 
 
        Potential amp.       -0.2132 Ry
        Total length         46.3494 bohr
 

     total cpu time spent up to now is      848.5 secs

     total energy              =   -2973.93787822 Ry
     estimated scf accuracy    <       0.28308546 Ry

     iteration # 34     ecut=    29.40 Ry     beta= 0.05
     Davidson diagonalization with overlap
     ethr =  6.67E-05,  avg # of iterations =  5.3

     negative rho (up, down):  4.307E-03 0.000E+00
 
     Adding external electric field

     Computed dipole along edir(3) : 
        Dipole                1.4713 Ry au,          3.7396 Debye
        Dipole field          0.0028 Ry au, 
 
        Potential amp.       -0.2574 Ry
        Total length         46.3494 bohr
 

     total cpu time spent up to now is      860.6 secs

     total energy              =   -2973.92463219 Ry
     estimated scf accuracy    <       0.20503963 Ry

     iteration # 35     ecut=    29.40 Ry     beta= 0.05
     Davidson diagonalization with overlap
     c_bands:  2 eigenvalues not converged
     ethr =  5.09E-05,  avg # of iterations = 10.3

     negative rho (up, down):  4.787E-03 0.000E+00
 
     Adding external electric field

     Computed dipole along edir(3) : 
        Dipole                1.2940 Ry au,          3.2891 Debye
        Dipole field          0.0024 Ry au, 
 
        Potential amp.       -0.2264 Ry
        Total length         46.3494 bohr
 

     total cpu time spent up to now is      876.8 secs

     total energy              =   -2973.93064107 Ry
     estimated scf accuracy    <       0.17978190 Ry

     iteration # 36     ecut=    29.40 Ry     beta= 0.05
     Davidson diagonalization with overlap
     ethr =  4.46E-05,  avg # of iterations =  4.1

     negative rho (up, down):  7.247E-03 0.000E+00
 
     Adding external electric field

     Computed dipole along edir(3) : 
        Dipole                1.3181 Ry au,          3.3504 Debye
        Dipole field          0.0025 Ry au, 
 
        Potential amp.       -0.2306 Ry
        Total length         46.3494 bohr
 

     total cpu time spent up to now is      888.7 secs

     total energy              =   -2973.93204238 Ry
     estimated scf accuracy    <       0.04770391 Ry

     iteration # 37     ecut=    29.40 Ry     beta= 0.05
     Davidson diagonalization with overlap
     c_bands:  3 eigenvalues not converged
     c_bands:  3 eigenvalues not converged
     c_bands:  3 eigenvalues not converged
     c_bands:  2 eigenvalues not converged
     c_bands:  2 eigenvalues not converged
     c_bands:  2 eigenvalues not converged
     c_bands:  1 eigenvalues not converged
     c_bands:  1 eigenvalues not converged
     ethr =  1.18E-05,  avg # of iterations = 18.9

     negative rho (up, down):  8.810E-03 0.000E+00
 
     Adding external electric field

     Computed dipole along edir(3) : 
        Dipole                1.2471 Ry au,          3.1697 Debye
        Dipole field          0.0024 Ry au, 
 
        Potential amp.       -0.2182 Ry
        Total length         46.3494 bohr
 

     total cpu time spent up to now is      919.4 secs

     total energy              =   -2973.94453716 Ry
     estimated scf accuracy    <       0.28075958 Ry

     iteration # 38     ecut=    29.40 Ry     beta= 0.05
     Davidson diagonalization with overlap
     c_bands:  1 eigenvalues not converged
     c_bands:  1 eigenvalues not converged
     c_bands:  1 eigenvalues not converged
     ethr =  1.18E-05,  avg # of iterations = 10.6

     negative rho (up, down):  7.423E-03 0.000E+00
 
     Adding external electric field

     Computed dipole along edir(3) : 
        Dipole                1.2251 Ry au,          3.1139 Debye
        Dipole field          0.0023 Ry au, 
 
        Potential amp.       -0.2143 Ry
        Total length         46.3494 bohr
 

     total cpu time spent up to now is      932.9 secs

     total energy              =   -2973.93969448 Ry
     estimated scf accuracy    <       0.10718233 Ry

     iteration # 39     ecut=    29.40 Ry     beta= 0.05
     Davidson diagonalization with overlap
     ethr =  1.18E-05,  avg # of iterations =  8.9

     negative rho (up, down):  7.540E-03 0.000E+00
 
     Adding external electric field

     Computed dipole along edir(3) : 
        Dipole                1.2427 Ry au,          3.1585 Debye
        Dipole field          0.0023 Ry au, 
 
        Potential amp.       -0.2174 Ry
        Total length         46.3494 bohr
 

     total cpu time spent up to now is      946.2 secs

     total energy              =   -2973.94087294 Ry
     estimated scf accuracy    <       0.05378623 Ry

     iteration # 40     ecut=    29.40 Ry     beta= 0.05
     Davidson diagonalization with overlap
     ethr =  1.18E-05,  avg # of iterations =  2.3

     negative rho (up, down):  7.696E-03 0.000E+00
 
     Adding external electric field

     Computed dipole along edir(3) : 
        Dipole                1.3419 Ry au,          3.4107 Debye
        Dipole field          0.0025 Ry au, 
 
        Potential amp.       -0.2347 Ry
        Total length         46.3494 bohr
 

     total cpu time spent up to now is      957.2 secs

     total energy              =   -2973.93414581 Ry
     estimated scf accuracy    <       0.04914440 Ry

     iteration # 41     ecut=    29.40 Ry     beta= 0.05
     Davidson diagonalization with overlap
     c_bands:  1 eigenvalues not converged
     c_bands:  3 eigenvalues not converged
     ethr =  1.18E-05,  avg # of iterations = 12.8

     negative rho (up, down):  9.239E-03 0.000E+00
 
     Adding external electric field

     Computed dipole along edir(3) : 
        Dipole                1.4284 Ry au,          3.6307 Debye
        Dipole field          0.0027 Ry au, 
 
        Potential amp.       -0.2499 Ry
        Total length         46.3494 bohr
 

     total cpu time spent up to now is      973.2 secs

     total energy              =   -2973.93558621 Ry
     estimated scf accuracy    <       0.01150731 Ry

     iteration # 42     ecut=    29.40 Ry     beta= 0.05
     Davidson diagonalization with overlap
     c_bands:  3 eigenvalues not converged
     c_bands:  2 eigenvalues not converged
     c_bands:  1 eigenvalues not converged
     c_bands:  1 eigenvalues not converged
     c_bands:  2 eigenvalues not converged
     c_bands:  2 eigenvalues not converged
     c_bands:  3 eigenvalues not converged
     c_bands:  1 eigenvalues not converged
     c_bands:  2 eigenvalues not converged
     ethr =  2.86E-06,  avg # of iterations = 19.1

     negative rho (up, down):  1.248E-02 0.000E+00
 
     Adding external electric field

     Computed dipole along edir(3) : 
        Dipole                1.3256 Ry au,          3.3692 Debye
        Dipole field          0.0025 Ry au, 
 
        Potential amp.       -0.2319 Ry
        Total length         46.3494 bohr
 

     total cpu time spent up to now is      999.3 secs

     total energy              =   -2973.93352686 Ry
     estimated scf accuracy    <       0.04291335 Ry

     iteration # 43     ecut=    29.40 Ry     beta= 0.05
     Davidson diagonalization with overlap
     c_bands:  1 eigenvalues not converged
     c_bands:  2 eigenvalues not converged
     c_bands:  1 eigenvalues not converged
     c_bands:  2 eigenvalues not converged
     c_bands:  1 eigenvalues not converged
     c_bands:  1 eigenvalues not converged
     ethr =  2.86E-06,  avg # of iterations = 18.0

     negative rho (up, down):  1.581E-02 0.000E+00
 
     Adding external electric field

     Computed dipole along edir(3) : 
        Dipole                1.4097 Ry au,          3.5832 Debye
        Dipole field          0.0027 Ry au, 
 
        Potential amp.       -0.2466 Ry
        Total length         46.3494 bohr
 

     total cpu time spent up to now is     1029.6 secs

     total energy              =   -2973.93935210 Ry
     estimated scf accuracy    <       0.00851979 Ry

     iteration # 44     ecut=    29.40 Ry     beta= 0.05
     Davidson diagonalization with overlap
     c_bands:  1 eigenvalues not converged
     c_bands:  1 eigenvalues not converged
     c_bands:  3 eigenvalues not converged
     ethr =  2.11E-06,  avg # of iterations = 10.8

     negative rho (up, down):  1.695E-02 0.000E+00
 
     Adding external electric field

     Computed dipole along edir(3) : 
        Dipole                1.4160 Ry au,          3.5990 Debye
        Dipole field          0.0027 Ry au, 
 
        Potential amp.       -0.2477 Ry
        Total length         46.3494 bohr
 

     total cpu time spent up to now is     1043.9 secs

     total energy              =   -2973.93932696 Ry
     estimated scf accuracy    <       0.00341826 Ry

     iteration # 45     ecut=    29.40 Ry     beta= 0.05
     Davidson diagonalization with overlap
     c_bands:  2 eigenvalues not converged
     c_bands:  1 eigenvalues not converged
     c_bands:  1 eigenvalues not converged
     ethr =  8.48E-07,  avg # of iterations = 13.8

     negative rho (up, down):  1.620E-02 0.000E+00
 
     Adding external electric field

     Computed dipole along edir(3) : 
        Dipole                1.4209 Ry au,          3.6117 Debye
        Dipole field          0.0027 Ry au, 
 
        Potential amp.       -0.2486 Ry
        Total length         46.3494 bohr
 

     total cpu time spent up to now is     1064.3 secs

     total energy              =   -2973.93989656 Ry
     estimated scf accuracy    <       0.00307196 Ry

     iteration # 46     ecut=    29.40 Ry     beta= 0.05
     Davidson diagonalization with overlap
     ethr =  7.62E-07,  avg # of iterations =  3.8

     negative rho (up, down):  1.627E-02 0.000E+00
 
     Adding external electric field

     Computed dipole along edir(3) : 
        Dipole                1.4220 Ry au,          3.6144 Debye
        Dipole field          0.0027 Ry au, 
 
        Potential amp.       -0.2488 Ry
        Total length         46.3494 bohr
 

     total cpu time spent up to now is     1084.0 secs

     total energy              =   -2973.93952662 Ry
     estimated scf accuracy    <       0.00259326 Ry

     iteration # 47     ecut=    29.40 Ry     beta= 0.05
     Davidson diagonalization with overlap
     ethr =  6.43E-07,  avg # of iterations =  6.4

     negative rho (up, down):  1.667E-02 0.000E+00
 
     Adding external electric field

     Computed dipole along edir(3) : 
        Dipole                1.3944 Ry au,          3.5442 Debye
        Dipole field          0.0026 Ry au, 
 
        Potential amp.       -0.2439 Ry
        Total length         46.3494 bohr
 

     total cpu time spent up to now is     1098.0 secs

     total energy              =   -2973.93960944 Ry
     estimated scf accuracy    <       0.00285524 Ry

     iteration # 48     ecut=    29.40 Ry     beta= 0.05
     Davidson diagonalization with overlap
     ethr =  6.43E-07,  avg # of iterations =  6.0

     negative rho (up, down):  1.739E-02 0.000E+00
 
     Adding external electric field

     Computed dipole along edir(3) : 
        Dipole                1.4090 Ry au,          3.5812 Debye
        Dipole field          0.0027 Ry au, 
 
        Potential amp.       -0.2465 Ry
        Total length         46.3494 bohr
 

     total cpu time spent up to now is     1113.1 secs

     total energy              =   -2973.93981670 Ry
     estimated scf accuracy    <       0.00055830 Ry

     iteration # 49     ecut=    29.40 Ry     beta= 0.05
     Davidson diagonalization with overlap
     ethr =  1.39E-07,  avg # of iterations = 10.6

     negative rho (up, down):  1.795E-02 0.000E+00
 
     Adding external electric field

     Computed dipole along edir(3) : 
        Dipole                1.4212 Ry au,          3.6122 Debye
        Dipole field          0.0027 Ry au, 
 
        Potential amp.       -0.2486 Ry
        Total length         46.3494 bohr
 

     total cpu time spent up to now is     1131.1 secs

     total energy              =   -2973.93991073 Ry
     estimated scf accuracy    <       0.00028013 Ry

     iteration # 50     ecut=    29.40 Ry     beta= 0.05
     Davidson diagonalization with overlap
     c_bands:  1 eigenvalues not converged
     ethr =  6.95E-08,  avg # of iterations =  8.3

     negative rho (up, down):  1.808E-02 0.000E+00
 
     Adding external electric field

     Computed dipole along edir(3) : 
        Dipole                1.4178 Ry au,          3.6036 Debye
        Dipole field          0.0027 Ry au, 
 
        Potential amp.       -0.2480 Ry
        Total length         46.3494 bohr
 

     total cpu time spent up to now is     1145.7 secs

     total energy              =   -2973.93995385 Ry
     estimated scf accuracy    <       0.00013037 Ry

     iteration # 51     ecut=    29.40 Ry     beta= 0.05
     Davidson diagonalization with overlap
     ethr =  3.23E-08,  avg # of iterations = 11.4

     negative rho (up, down):  1.808E-02 0.000E+00
 
     Adding external electric field

     Computed dipole along edir(3) : 
        Dipole                1.4127 Ry au,          3.5907 Debye
        Dipole field          0.0027 Ry au, 
 
        Potential amp.       -0.2471 Ry
        Total length         46.3494 bohr
 

     total cpu time spent up to now is     1163.1 secs

     total energy              =   -2973.93997451 Ry
     estimated scf accuracy    <       0.00012010 Ry

     iteration # 52     ecut=    29.40 Ry     beta= 0.05
     Davidson diagonalization with overlap
     ethr =  2.98E-08,  avg # of iterations =  2.4

     negative rho (up, down):  1.759E-02 0.000E+00
 
     Adding external electric field

     Computed dipole along edir(3) : 
        Dipole                1.3954 Ry au,          3.5469 Debye
        Dipole field          0.0026 Ry au, 
 
        Potential amp.       -0.2441 Ry
        Total length         46.3494 bohr
 

     total cpu time spent up to now is     1174.3 secs

     total energy              =   -2973.93996650 Ry
     estimated scf accuracy    <       0.00008310 Ry

     iteration # 53     ecut=    29.40 Ry     beta= 0.05
     Davidson diagonalization with overlap
     ethr =  2.06E-08,  avg # of iterations =  9.1

     negative rho (up, down):  1.747E-02 0.000E+00
 
     Adding external electric field

     Computed dipole along edir(3) : 
        Dipole                1.4014 Ry au,          3.5620 Debye
        Dipole field          0.0026 Ry au, 
 
        Potential amp.       -0.2452 Ry
        Total length         46.3494 bohr
 

     total cpu time spent up to now is     1193.2 secs

     total energy              =   -2973.93998081 Ry
     estimated scf accuracy    <       0.00012824 Ry

     iteration # 54     ecut=    29.40 Ry     beta= 0.05
     Davidson diagonalization with overlap
     ethr =  2.06E-08,  avg # of iterations =  6.3

     negative rho (up, down):  1.746E-02 0.000E+00
 
     Adding external electric field

     Computed dipole along edir(3) : 
        Dipole                1.3976 Ry au,          3.5524 Debye
        Dipole field          0.0026 Ry au, 
 
        Potential amp.       -0.2445 Ry
        Total length         46.3494 bohr
 

     total cpu time spent up to now is     1206.9 secs

     total energy              =   -2973.94000820 Ry
     estimated scf accuracy    <       0.00001670 Ry

     iteration # 55     ecut=    29.40 Ry     beta= 0.05
     Davidson diagonalization with overlap
     c_bands:  1 eigenvalues not converged
     ethr =  4.14E-09,  avg # of iterations = 13.3

     negative rho (up, down):  1.744E-02 0.000E+00
 
     Adding external electric field

     Computed dipole along edir(3) : 
        Dipole                1.3981 Ry au,          3.5537 Debye
        Dipole field          0.0026 Ry au, 
 
        Potential amp.       -0.2446 Ry
        Total length         46.3494 bohr
 

     total cpu time spent up to now is     1225.8 secs

     total energy              =   -2973.94002186 Ry
     estimated scf accuracy    <       0.00001107 Ry

     iteration # 56     ecut=    29.40 Ry     beta= 0.05
     Davidson diagonalization with overlap
     ethr =  2.75E-09,  avg # of iterations =  9.7

     negative rho (up, down):  1.750E-02 0.000E+00
 
     Adding external electric field

     Computed dipole along edir(3) : 
        Dipole                1.3977 Ry au,          3.5527 Debye
        Dipole field          0.0026 Ry au, 
 
        Potential amp.       -0.2445 Ry
        Total length         46.3494 bohr
 

     total cpu time spent up to now is     1249.8 secs

     total energy              =   -2973.94003453 Ry
     estimated scf accuracy    <       0.00001571 Ry

     iteration # 57     ecut=    29.40 Ry     beta= 0.05
     Davidson diagonalization with overlap
     ethr =  2.75E-09,  avg # of iterations =  3.1

     negative rho (up, down):  1.761E-02 0.000E+00
 
     Adding external electric field

     Computed dipole along edir(3) : 
        Dipole                1.3988 Ry au,          3.5554 Debye
        Dipole field          0.0026 Ry au, 
 
        Potential amp.       -0.2447 Ry
        Total length         46.3494 bohr
 

     total cpu time spent up to now is     1261.0 secs

     total energy              =   -2973.94004197 Ry
     estimated scf accuracy    <       0.00001644 Ry

     iteration # 58     ecut=    29.40 Ry     beta= 0.05
     Davidson diagonalization with overlap
     ethr =  2.75E-09,  avg # of iterations =  8.4

     negative rho (up, down):  1.751E-02 0.000E+00
 
     Adding external electric field

     Computed dipole along edir(3) : 
        Dipole                1.3996 Ry au,          3.5575 Debye
        Dipole field          0.0026 Ry au, 
 
        Potential amp.       -0.2448 Ry
        Total length         46.3494 bohr
 

     total cpu time spent up to now is     1277.4 secs

     total energy              =   -2973.94005206 Ry
     estimated scf accuracy    <       0.00000495 Ry

     iteration # 59     ecut=    29.40 Ry     beta= 0.05
     Davidson diagonalization with overlap
     c_bands:  1 eigenvalues not converged
     ethr =  1.23E-09,  avg # of iterations = 10.2

     negative rho (up, down):  1.737E-02 0.000E+00
 
     Adding external electric field

     Computed dipole along edir(3) : 
        Dipole                1.3962 Ry au,          3.5487 Debye
        Dipole field          0.0026 Ry au, 
 
        Potential amp.       -0.2442 Ry
        Total length         46.3494 bohr
 

     total cpu time spent up to now is     1292.5 secs

     total energy              =   -2973.94005796 Ry
     estimated scf accuracy    <       0.00000795 Ry

     iteration # 60     ecut=    29.40 Ry     beta= 0.05
     Davidson diagonalization with overlap
     ethr =  1.23E-09,  avg # of iterations =  9.6

     negative rho (up, down):  1.737E-02 0.000E+00
 
     Adding external electric field

     Computed dipole along edir(3) : 
        Dipole                1.3969 Ry au,          3.5506 Debye
        Dipole field          0.0026 Ry au, 
 
        Potential amp.       -0.2444 Ry
        Total length         46.3494 bohr
 

     total cpu time spent up to now is     1311.0 secs

     total energy              =   -2973.94006638 Ry
     estimated scf accuracy    <       0.00000686 Ry

     iteration # 61     ecut=    29.40 Ry     beta= 0.05
     Davidson diagonalization with overlap
     ethr =  1.23E-09,  avg # of iterations =  5.0

     negative rho (up, down):  1.736E-02 0.000E+00
 
     Adding external electric field

     Computed dipole along edir(3) : 
        Dipole                1.3974 Ry au,          3.5517 Debye
        Dipole field          0.0026 Ry au, 
 
        Potential amp.       -0.2444 Ry
        Total length         46.3494 bohr
 

     total cpu time spent up to now is     1326.9 secs

     total energy              =   -2973.94007238 Ry
     estimated scf accuracy    <       0.00000263 Ry

     iteration # 62     ecut=    29.40 Ry     beta= 0.05
     Davidson diagonalization with overlap
     ethr =  6.53E-10,  avg # of iterations =  6.5

     negative rho (up, down):  1.734E-02 0.000E+00
 
     Adding external electric field

     Computed dipole along edir(3) : 
        Dipole                1.3964 Ry au,          3.5494 Debye
        Dipole field          0.0026 Ry au, 
 
        Potential amp.       -0.2443 Ry
        Total length         46.3494 bohr
 

     total cpu time spent up to now is     1339.8 secs

     total energy              =   -2973.94007824 Ry
     estimated scf accuracy    <       0.00000124 Ry

     iteration # 63     ecut=    29.40 Ry     beta= 0.05
     Davidson diagonalization with overlap
     ethr =  3.09E-10,  avg # of iterations = 10.8

     negative rho (up, down):  1.726E-02 0.000E+00
 
     Adding external electric field

     Computed dipole along edir(3) : 
        Dipole                1.3965 Ry au,          3.5496 Debye
        Dipole field          0.0026 Ry au, 
 
        Potential amp.       -0.2443 Ry
        Total length         46.3494 bohr
 

     total cpu time spent up to now is     1360.3 secs

     total energy              =   -2973.94008331 Ry
     estimated scf accuracy    <       0.00000149 Ry

     iteration # 64     ecut=    29.40 Ry     beta= 0.05
     Davidson diagonalization with overlap
     ethr =  3.09E-10,  avg # of iterations =  5.8

     negative rho (up, down):  1.723E-02 0.000E+00
 
     Adding external electric field

     Computed dipole along edir(3) : 
        Dipole                1.3968 Ry au,          3.5504 Debye
        Dipole field          0.0026 Ry au, 
 
        Potential amp.       -0.2444 Ry
        Total length         46.3494 bohr
 

     total cpu time spent up to now is     1377.0 secs

     total energy              =   -2973.94008789 Ry
     estimated scf accuracy    <       0.00000041 Ry

     iteration # 65     ecut=    29.40 Ry     beta= 0.05
     Davidson diagonalization with overlap
     ethr =  1.01E-10,  avg # of iterations = 14.0

     negative rho (up, down):  1.723E-02 0.000E+00
 
     Adding external electric field

     Computed dipole along edir(3) : 
        Dipole                1.3964 Ry au,          3.5493 Debye
        Dipole field          0.0026 Ry au, 
 
        Potential amp.       -0.2443 Ry
        Total length         46.3494 bohr
 

     total cpu time spent up to now is     1398.5 secs

     total energy              =   -2973.94009209 Ry
     estimated scf accuracy    <       0.00000050 Ry

     iteration # 66     ecut=    29.40 Ry     beta= 0.05
     Davidson diagonalization with overlap
     ethr =  1.01E-10,  avg # of iterations =  6.8

     negative rho (up, down):  1.723E-02 0.000E+00
 
     Adding external electric field

     Computed dipole along edir(3) : 
        Dipole                1.3963 Ry au,          3.5491 Debye
        Dipole field          0.0026 Ry au, 
 
        Potential amp.       -0.2443 Ry
        Total length         46.3494 bohr
 

     total cpu time spent up to now is     1414.0 secs

     total energy              =   -2973.94009580 Ry
     estimated scf accuracy    <       0.00000012 Ry

     iteration # 67     ecut=    29.40 Ry     beta= 0.05
     Davidson diagonalization with overlap
     ethr =  3.05E-11,  avg # of iterations =  9.2

     negative rho (up, down):  1.722E-02 0.000E+00
 
     Adding external electric field

     Computed dipole along edir(3) : 
        Dipole                1.3962 Ry au,          3.5488 Debye
        Dipole field          0.0026 Ry au, 
 
        Potential amp.       -0.2442 Ry
        Total length         46.3494 bohr
 

     total cpu time spent up to now is     1432.0 secs

     total energy              =   -2973.94009916 Ry
     estimated scf accuracy    <       0.00000008 Ry

     iteration # 68     ecut=    29.40 Ry     beta= 0.05
     Davidson diagonalization with overlap
     ethr =  2.04E-11,  avg # of iterations =  4.2

     negative rho (up, down):  1.726E-02 0.000E+00
 
     Adding external electric field

     Computed dipole along edir(3) : 
        Dipole                1.3957 Ry au,          3.5474 Debye
        Dipole field          0.0026 Ry au, 
 
        Potential amp.       -0.2441 Ry
        Total length         46.3494 bohr
 

     total cpu time spent up to now is     1444.1 secs

     End of self-consistent calculation

          k = 0.0000 0.0000 0.0000 ( 18029 PWs)   bands (ev):

   -55.3219 -55.2878 -55.2123 -55.1880 -55.1694 -55.1577 -55.1426 -55.1206
   -55.1087 -55.1067 -55.0998 -55.0652 -54.9937 -54.8358 -54.3024 -54.2683
   -31.8061 -31.7333 -31.6592 -31.6521 -31.6424 -31.6138 -31.5894 -31.5670
   -31.5221 -31.5028 -31.4742 -31.4661 -31.4576 -31.4431 -31.4280 -31.4236
   -31.4003 -31.3824 -31.3791 -31.3671 -31.3377 -31.3353 -31.3311 -31.3280
   -31.3251 -31.3214 -31.3172 -31.2992 -31.2914 -31.2814 -31.2745 -31.2743
   -31.2641 -31.2626 -31.2542 -31.2504 -31.2418 -31.2164 -31.2123 -31.0921
   -31.0773 -31.0511 -30.7092 -30.6212 -30.5988 -30.5262 -30.4397 -30.3284
   -18.8751 -18.6517 -15.9800 -15.7963 -15.6154 -15.4762 -15.3941 -15.1625
   -15.1041 -15.0656 -14.9845 -14.9619 -14.8613 -14.8429 -14.8414 -14.8225
   -14.8197 -14.7646 -14.7493 -14.7451 -14.6964 -14.6896 -14.6643 -14.6488
   -14.5967 -14.5176 -14.5090 -14.4627 -14.4173 -14.3708 -14.0243 -13.4132
   -12.8031 -12.6866  -8.8027  -7.2704  -6.6176  -4.3212  -3.7888  -3.3630
    -3.2868  -3.2515  -3.2266  -3.0904  -2.9734  -2.8636  -2.7571  -2.6718
    -2.5868  -2.4825  -2.4249  -2.3802  -2.3199  -2.2598  -2.2335  -2.1478
    -2.1284  -2.1087  -2.0868  -2.0602  -2.0305  -1.9929  -1.8710  -1.8605
    -1.7783  -1.7221  -1.6831  -1.6655  -1.6411  -1.6361  -1.6034  -1.5832
    -1.5745  -1.5630  -1.5609  -1.5261  -1.3872  -1.3625  -1.3344  -1.3118
    -1.1654  -1.0280  -0.9396  -0.9369  -0.8272  -0.7625  -0.7594  -0.7211
    -0.7053  -0.6027  -0.5176  -0.4806  -0.4564  -0.3765  -0.3195  -0.2648
    -0.2131  -0.1773  -0.1113  -0.0873  -0.0708  -0.0538   0.0156   0.0779
     0.1391   0.2240   0.2677   0.2921   0.3829   0.3971   0.4204   0.4852
     0.5170   0.5619   0.5972   0.6266   0.6500   0.6805   0.7056   0.7489
     0.7873   0.9127   0.9310   0.9596   0.9807   1.1549   1.2046   1.3082
     1.3375   1.4406   1.4821   1.6605   1.7217   1.8012   1.9135   2.2918
     2.3376   3.7874   3.8987   3.9328   3.9578   3.9971   4.0484   4.2550
     4.3281   4.3696   4.4274

          k = 0.0000 0.0419 0.0000 ( 17933 PWs)   bands (ev):

   -55.3168 -55.2927 -55.2082 -55.1862 -55.1732 -55.1532 -55.1376 -55.1250
   -55.1136 -55.1084 -55.0950 -55.0699 -54.9927 -54.8366 -54.2973 -54.2732
   -31.7521 -31.6788 -31.6092 -31.6073 -31.6064 -31.5969 -31.5539 -31.5358
   -31.5154 -31.4846 -31.4663 -31.4604 -31.4586 -31.4508 -31.4317 -31.4107
   -31.3956 -31.3930 -31.3905 -31.3814 -31.3765 -31.3523 -31.3482 -31.3380
   -31.3290 -31.3279 -31.3215 -31.3163 -31.3139 -31.3044 -31.3003 -31.2940
   -31.2773 -31.2769 -31.2683 -31.2641 -31.2579 -31.2376 -31.2148 -31.1062
   -31.0817 -31.0765 -30.6551 -30.6177 -30.6018 -30.5136 -30.4523 -30.3855
   -18.8700 -18.6554 -15.8459 -15.6768 -15.5031 -15.3660 -15.3057 -15.1306
   -15.1109 -15.0913 -15.0311 -14.9534 -14.8967 -14.8817 -14.8461 -14.8233
   -14.8024 -14.7843 -14.7707 -14.7553 -14.7072 -14.6996 -14.6729 -14.6586
   -14.6437 -14.5642 -14.5305 -14.5204 -14.4757 -14.4290 -14.1023 -13.4209
   -12.8071 -12.7261  -8.8047  -7.2760  -6.6223  -4.3591  -3.6862  -3.1745
    -3.1208  -3.0808  -3.0533  -2.9400  -2.8497  -2.7984  -2.6425  -2.4988
    -2.4396  -2.4267  -2.3543  -2.3387  -2.3076  -2.2743  -2.2439  -2.2252
    -2.2117  -2.1668  -2.1453  -2.0917  -2.0685  -2.0463  -2.0370  -1.9907
    -1.9725  -1.9463  -1.8477  -1.8322  -1.7973  -1.7801  -1.7418  -1.7083
    -1.6053  -1.5632  -1.5014  -1.4769  -1.3721  -1.2736  -1.1743  -1.0799
    -1.0105  -1.0003  -0.9407  -0.9078  -0.7396  -0.6860  -0.6650  -0.5303
    -0.5184  -0.4712  -0.4011  -0.3840  -0.3617  -0.3027  -0.2781  -0.2627
    -0.2221  -0.1794  -0.1554  -0.1339  -0.0989  -0.0652  -0.0090   0.0229
     0.0572   0.1574   0.1704   0.2008   0.2707   0.3179   0.3656   0.3809
     0.4469   0.5077   0.5265   0.5453   0.5567   0.6259   0.6393   0.7446
     0.7812   0.8198   0.8828   0.9347   0.9841   1.0195   1.0376   1.1420
     1.2493   1.2999   1.3406   1.4073   1.6850   1.9105   1.9992   2.2464
     2.2496   4.0020   4.0264   4.0896   4.1600   4.1659   4.2116   4.2647
     4.3087   4.3393   4.3651

          k = 0.0000-0.0839 0.0000 ( 17884 PWs)   bands (ev):

   -55.3051 -55.3044 -55.2029 -55.1846 -55.1781 -55.1461 -55.1323 -55.1258
   -55.1250 -55.1103 -55.0863 -55.0785 -54.9919 -54.8374 -54.2853 -54.2852
   -31.6201 -31.6196 -31.5994 -31.5989 -31.5668 -31.5349 -31.5003 -31.4915
   -31.4704 -31.4551 -31.4496 -31.4429 -31.4405 -31.4310 -31.4271 -31.4265
   -31.4264 -31.4201 -31.4119 -31.4087 -31.4048 -31.4013 -31.3965 -31.3801
   -31.3787 -31.3735 -31.3659 -31.3475 -31.3215 -31.3118 -31.3024 -31.3010
   -31.2964 -31.2934 -31.2695 -31.2653 -31.2645 -31.2338 -31.2133 -31.1487
   -31.0942 -31.0764 -30.6095 -30.6095 -30.5221 -30.5220 -30.4830 -30.4829
   -18.8647 -18.6594 -15.5411 -15.4744 -15.4048 -15.3444 -15.2370 -15.2269
   -15.1445 -15.0983 -15.0805 -15.0277 -14.9804 -14.8943 -14.8673 -14.8244
   -14.7800 -14.7706 -14.7414 -14.7205 -14.7056 -14.6741 -14.6614 -14.6603
   -14.6267 -14.6204 -14.6100 -14.5728 -14.5646 -14.5040 -14.2146 -13.4282
   -12.7888 -12.7888  -8.8069  -7.2816  -6.6269  -4.3896  -3.5866  -2.9087
    -2.7536  -2.7059  -2.6951  -2.6861  -2.6667  -2.6488  -2.6170  -2.6164
    -2.5605  -2.5068  -2.4711  -2.4384  -2.3992  -2.3802  -2.3318  -2.3198
    -2.2982  -2.2747  -2.2478  -2.2106  -2.2011  -2.1203  -2.0751  -2.0502
    -2.0380  -1.9437  -1.9123  -1.8716  -1.8568  -1.7146  -1.6748  -1.6226
    -1.5543  -1.4517  -1.3742  -1.2693  -1.2318  -1.1861  -1.1622  -1.0095
    -0.9840  -0.9716  -0.8966  -0.8557  -0.7306  -0.7193  -0.6955  -0.6846
    -0.6580  -0.6209  -0.6023  -0.5499  -0.5296  -0.4234  -0.3154  -0.1841
    -0.1703  -0.1099  -0.0017   0.0261   0.0432   0.0602   0.0983   0.1411
     0.1637   0.1895   0.1932   0.2056   0.2387   0.2519   0.2952   0.3473
     0.3654   0.3759   0.4175   0.4516   0.4828   0.4863   0.5292   0.5518
     0.5683   0.6600   0.7408   0.8979   0.9173   0.9223   0.9647   1.1584
     1.2216   1.2507   1.3689   1.3797   1.4451   2.0539   2.0555   2.1827
     2.1834   4.1715   4.1758   4.2446   4.2572   4.2623   4.3378   4.3659
     4.3909   4.4022   4.4234

          k = 0.0380 0.0000 0.0000 ( 17913 PWs)   bands (ev):

   -55.3218 -55.2877 -55.2121 -55.1879 -55.1692 -55.1578 -55.1423 -55.1205
   -55.1086 -55.1066 -55.0998 -55.0651 -54.9936 -54.8357 -54.3023 -54.2682
   -31.8070 -31.7334 -31.6613 -31.6564 -31.6426 -31.6136 -31.5944 -31.5670
   -31.5220 -31.5036 -31.4713 -31.4580 -31.4447 -31.4356 -31.4277 -31.4035
   -31.4002 -31.3822 -31.3789 -31.3633 -31.3446 -31.3366 -31.3303 -31.3282
   -31.3246 -31.3211 -31.3178 -31.3021 -31.2999 -31.2912 -31.2743 -31.2739
   -31.2636 -31.2625 -31.2543 -31.2497 -31.2421 -31.2209 -31.2124 -31.0920
   -31.0781 -31.0510 -30.7087 -30.6245 -30.5968 -30.5260 -30.4396 -30.3282
   -18.8740 -18.6518 -15.8888 -15.7050 -15.5247 -15.4492 -15.3721 -15.2123
   -15.1026 -15.0892 -15.0681 -15.0157 -14.9972 -14.9616 -14.9434 -14.8774
   -14.8413 -14.7919 -14.7092 -14.6983 -14.6728 -14.6169 -14.5689 -14.5335
   -14.5266 -14.5256 -14.5077 -14.5011 -14.4715 -14.4558 -14.0229 -13.4180
   -12.7998 -12.6863  -8.7972  -7.2326  -6.6122  -4.3870  -3.7780  -3.1977
    -3.1087  -3.0444  -2.9894  -2.9520  -2.8796  -2.8561  -2.7847  -2.6860
    -2.6513  -2.5927  -2.5724  -2.5007  -2.4023  -2.3582  -2.2912  -2.1357
    -2.0817  -2.0404  -1.9964  -1.9716  -1.9193  -1.8936  -1.8456  -1.8213
    -1.7804  -1.7509  -1.7032  -1.6765  -1.6301  -1.6145  -1.6065  -1.5943
    -1.5750  -1.5137  -1.3697  -1.3204  -1.3007  -1.2528  -1.2212  -1.1883
    -1.1134  -1.0983  -0.9535  -0.9299  -0.8739  -0.8138  -0.7575  -0.7556
    -0.6960  -0.6513  -0.6228  -0.5865  -0.5714  -0.5044  -0.4774  -0.3630
    -0.2926  -0.2558  -0.1702  -0.1278  -0.0762   0.0075   0.0399   0.0873
     0.1618   0.2050   0.2212   0.2686   0.3390   0.3600   0.4048   0.4375
     0.4519   0.4776   0.5147   0.5439   0.5611   0.5984   0.6484   0.6911
     0.7252   0.8028   0.8547   0.9080   1.0023   1.0254   1.0405   1.2351
     1.3671   1.4256   1.4671   1.6521   1.6942   1.7335   1.8830   2.1803
     2.2552   3.8095   3.8669   4.1318   4.1658   4.1974   4.2332   4.2435
     4.2538   4.2616   4.3153

          k = 0.0380 0.0419 0.0000 ( 17878 PWs)   bands (ev):

   -55.3168 -55.2927 -55.2081 -55.1861 -55.1731 -55.1532 -55.1374 -55.1250
   -55.1136 -55.1084 -55.0950 -55.0699 -54.9927 -54.8366 -54.2972 -54.2732
   -31.7529 -31.6790 -31.6091 -31.6085 -31.6076 -31.6016 -31.5541 -31.5415
   -31.5154 -31.4847 -31.4675 -31.4579 -31.4575 -31.4349 -31.4244 -31.3954
   -31.3937 -31.3927 -31.3905 -31.3776 -31.3700 -31.3498 -31.3468 -31.3371
   -31.3361 -31.3289 -31.3217 -31.3166 -31.3140 -31.3051 -31.3043 -31.2978
   -31.2939 -31.2768 -31.2647 -31.2634 -31.2621 -31.2378 -31.2190 -31.1061
   -31.0817 -31.0777 -30.6547 -30.6203 -30.6008 -30.5134 -30.4523 -30.3854
   -18.8693 -18.6552 -15.7612 -15.5916 -15.4210 -15.3545 -15.2685 -15.1493
   -15.1229 -15.1055 -15.0472 -15.0142 -14.9798 -14.9519 -14.9090 -14.8373
   -14.8235 -14.8102 -14.7845 -14.7377 -14.7005 -14.6666 -14.6511 -14.5911
   -14.5809 -14.5670 -14.5527 -14.5513 -14.5224 -14.4941 -14.1015 -13.4251
   -12.8049 -12.7264  -8.7998  -7.2358  -6.6180  -4.4270  -3.6784  -3.0252
    -2.9620  -2.8930  -2.8251  -2.8039  -2.7780  -2.7092  -2.6457  -2.5300
    -2.4661  -2.4427  -2.3902  -2.3525  -2.2890  -2.2363  -2.2280  -2.2021
    -2.1824  -2.1046  -2.1004  -2.0589  -2.0373  -2.0218  -1.9939  -1.9616
    -1.9538  -1.9486  -1.8750  -1.8472  -1.7934  -1.7696  -1.6794  -1.6519
    -1.5920  -1.4700  -1.4398  -1.4089  -1.3104  -1.2591  -1.2196  -1.0388
    -1.0111  -0.9697  -0.9426  -0.8142  -0.7607  -0.7237  -0.7090  -0.6783
    -0.6106  -0.5498  -0.5116  -0.4996  -0.4545  -0.4232  -0.3830  -0.3140
    -0.2730  -0.2606  -0.2037  -0.1798  -0.1332  -0.1151  -0.0581  -0.0326
    -0.0154   0.0312   0.0676   0.0790   0.1637   0.2102   0.2549   0.2811
     0.3411   0.3938   0.4077   0.4694   0.4917   0.5938   0.6548   0.7439
     0.7899   0.8674   0.8813   0.9377   0.9849   1.0403   1.0808   1.1161
     1.2276   1.2900   1.3060   1.4278   1.6192   1.9210   2.0028   2.1689
     2.2302   3.9883   4.0225   4.1288   4.1811   4.2444   4.2814   4.3016
     4.3591   4.3817   4.4071

          k = 0.0380-0.0839 0.0000 ( 17916 PWs)   bands (ev):

   -55.3051 -55.3044 -55.2029 -55.1846 -55.1781 -55.1462 -55.1324 -55.1258
   -55.1250 -55.1103 -55.0864 -55.0785 -54.9919 -54.8374 -54.2853 -54.2852
   -31.6209 -31.6203 -31.5995 -31.5989 -31.5671 -31.5353 -31.5024 -31.4920
   -31.4785 -31.4638 -31.4507 -31.4449 -31.4416 -31.4315 -31.4260 -31.4252
   -31.4237 -31.4198 -31.4128 -31.4051 -31.4037 -31.3981 -31.3862 -31.3701
   -31.3659 -31.3551 -31.3548 -31.3477 -31.3326 -31.3137 -31.3116 -31.3004
   -31.2969 -31.2936 -31.2808 -31.2767 -31.2640 -31.2343 -31.2173 -31.1483
   -31.0943 -31.0783 -30.6105 -30.6105 -30.5221 -30.5220 -30.4830 -30.4829
   -18.8645 -18.6588 -15.4819 -15.4125 -15.3469 -15.2832 -15.2034 -15.1843
   -15.1581 -15.0629 -15.0471 -15.0179 -15.0144 -14.9151 -14.8797 -14.8509
   -14.8479 -14.8169 -14.7438 -14.7382 -14.7345 -14.7217 -14.6844 -14.6696
   -14.6599 -14.6361 -14.6220 -14.6159 -14.5905 -14.4948 -14.2119 -13.4320
   -12.7886 -12.7886  -8.8026  -7.2398  -6.6227  -4.4580  -3.5796  -2.8760
    -2.6946  -2.6399  -2.5935  -2.5351  -2.4854  -2.4710  -2.4509  -2.4383
    -2.4220  -2.4189  -2.3765  -2.3544  -2.3224  -2.2975  -2.2598  -2.2391
    -2.2222  -2.2005  -2.1890  -2.1611  -2.1285  -2.1188  -2.0829  -2.0227
    -2.0009  -1.9779  -1.9437  -1.9177  -1.8439  -1.7751  -1.6117  -1.5254
    -1.4497  -1.4372  -1.3603  -1.2989  -1.2221  -1.1913  -1.1635  -1.1472
    -1.0942  -1.0559  -1.0343  -0.9933  -0.9670  -0.9343  -0.8979  -0.8245
    -0.8140  -0.6851  -0.5696  -0.4955  -0.4655  -0.4332  -0.3932  -0.3155
    -0.2531  -0.1827  -0.1594  -0.1164  -0.0859  -0.0735  -0.0561  -0.0386
    -0.0200  -0.0000   0.0498   0.0753   0.1012   0.1223   0.1272   0.2408
     0.2745   0.3037   0.3590   0.4041   0.5349   0.5782   0.6177   0.7640
     0.7783   0.8164   0.8280   0.8566   0.9286   1.0014   1.0145   1.1293
     1.1847   1.2717   1.3074   1.3702   1.4327   2.0671   2.0687   2.1722
     2.1729   4.1431   4.1517   4.2231   4.2340   4.2698   4.3103   4.4033
     4.4127   4.4340   4.4451

          k = 0.0380-0.0419 0.0000 ( 17876 PWs)   bands (ev):

   -55.3168 -55.2927 -55.2081 -55.1861 -55.1731 -55.1532 -55.1374 -55.1250
   -55.1136 -55.1084 -55.0950 -55.0699 -54.9927 -54.8366 -54.2972 -54.2732
   -31.7529 -31.6790 -31.6091 -31.6086 -31.6076 -31.6016 -31.5541 -31.5415
   -31.5153 -31.4847 -31.4674 -31.4579 -31.4574 -31.4346 -31.4239 -31.3955
   -31.3937 -31.3927 -31.3904 -31.3771 -31.3713 -31.3505 -31.3477 -31.3371
   -31.3358 -31.3287 -31.3218 -31.3165 -31.3117 -31.3062 -31.3047 -31.2979
   -31.2939 -31.2768 -31.2647 -31.2635 -31.2621 -31.2383 -31.2184 -31.1060
   -31.0821 -31.0775 -30.6547 -30.6203 -30.6008 -30.5134 -30.4523 -30.3854
   -18.8693 -18.6552 -15.7614 -15.5919 -15.4208 -15.3551 -15.2680 -15.1483
   -15.1216 -15.1053 -15.0447 -15.0179 -14.9804 -14.9516 -14.9094 -14.8380
   -14.8239 -14.8104 -14.7838 -14.7369 -14.7001 -14.6679 -14.6506 -14.5919
   -14.5807 -14.5677 -14.5541 -14.5490 -14.5221 -14.4944 -14.1013 -13.4253
   -12.8049 -12.7264  -8.7999  -7.2367  -6.6169  -4.4240  -3.6789  -3.0286
    -2.9584  -2.9013  -2.8208  -2.8023  -2.7772  -2.7128  -2.6429  -2.5352
    -2.4665  -2.4477  -2.3964  -2.3294  -2.2735  -2.2566  -2.2262  -2.2081
    -2.1761  -2.1222  -2.0855  -2.0569  -2.0430  -2.0160  -1.9847  -1.9751
    -1.9532  -1.9127  -1.8824  -1.8385  -1.7899  -1.7773  -1.6823  -1.6451
    -1.5925  -1.4851  -1.4549  -1.4192  -1.3194  -1.2690  -1.2199  -1.0339
    -1.0207  -0.9820  -0.9344  -0.8081  -0.7598  -0.7446  -0.7046  -0.6570
    -0.6159  -0.5353  -0.5250  -0.4796  -0.4517  -0.4313  -0.3976  -0.3363
    -0.2686  -0.2483  -0.2061  -0.1484  -0.1376  -0.1086  -0.0708  -0.0354
    -0.0104   0.0460   0.0598   0.0924   0.1718   0.2117   0.2579   0.2869
     0.3424   0.3925   0.4065   0.4701   0.5018   0.5779   0.6513   0.7249
     0.7992   0.8671   0.8894   0.9277   0.9717   1.0346   1.0754   1.1140
     1.2330   1.2893   1.3090   1.4412   1.6188   1.9210   2.0026   2.1687
     2.2308   3.9927   4.0216   4.1444   4.1943   4.2162   4.2794   4.3014
     4.3519   4.3775   4.4223

          k =-0.0760-0.0000 0.0000 ( 17886 PWs)   bands (ev):

   -55.3217 -55.2877 -55.2120 -55.1878 -55.1692 -55.1579 -55.1421 -55.1205
   -55.1086 -55.1065 -55.0999 -55.0651 -54.9936 -54.8357 -54.3022 -54.2682
   -31.8079 -31.7337 -31.6635 -31.6605 -31.6428 -31.6135 -31.5991 -31.5670
   -31.5219 -31.5044 -31.4684 -31.4569 -31.4276 -31.4274 -31.4020 -31.4007
   -31.3920 -31.3820 -31.3793 -31.3622 -31.3530 -31.3442 -31.3361 -31.3297
   -31.3243 -31.3220 -31.3202 -31.3185 -31.3009 -31.2910 -31.2742 -31.2737
   -31.2632 -31.2626 -31.2551 -31.2492 -31.2429 -31.2263 -31.2129 -31.0920
   -31.0791 -31.0511 -30.7083 -30.6278 -30.5954 -30.5259 -30.4395 -30.3283
   -18.8729 -18.6519 -15.6978 -15.6746 -15.4586 -15.4368 -15.2814 -15.2211
   -15.1594 -15.1152 -15.0987 -15.0727 -15.0464 -15.0336 -15.0263 -14.9914
   -14.8841 -14.8137 -14.6937 -14.6812 -14.6366 -14.6218 -14.5903 -14.5817
   -14.5501 -14.5035 -14.4882 -14.4794 -14.4413 -14.4152 -14.0221 -13.4228
   -12.7968 -12.6860  -8.7919  -7.1930  -6.6067  -4.4601  -3.7672  -3.1219
    -3.1071  -2.8842  -2.8432  -2.7754  -2.7655  -2.7415  -2.6521  -2.6271
    -2.6051  -2.5878  -2.5849  -2.5685  -2.5508  -2.2552  -2.1650  -2.1305
    -2.0117  -1.9717  -1.9036  -1.8667  -1.8583  -1.8313  -1.8137  -1.8091
    -1.7799  -1.7263  -1.6925  -1.6613  -1.6481  -1.6340  -1.5953  -1.5759
    -1.5533  -1.5358  -1.5139  -1.4710  -1.3137  -1.2910  -1.1739  -1.0178
    -1.0070  -0.9440  -0.9249  -0.9191  -0.9072  -0.8964  -0.8881  -0.7865
    -0.7537  -0.7147  -0.6660  -0.6460  -0.6073  -0.5831  -0.5690  -0.4944
    -0.4435  -0.3956  -0.2826  -0.1274  -0.0918  -0.0220   0.0156   0.0611
     0.0999   0.1144   0.1514   0.2432   0.2586   0.2686   0.3210   0.3392
     0.4098   0.4386   0.4583   0.4923   0.5351   0.5502   0.5951   0.6052
     0.7322   0.7816   0.8051   0.8829   0.9215   1.1023   1.1633   1.3254
     1.3382   1.3688   1.4464   1.5176   1.6748   1.7546   1.8586   2.0520
     2.1997   3.8127   3.8354   4.0089   4.0719   4.1379   4.1695   4.2540
     4.2616   4.2860   4.3419

          k =-0.0760 0.0419 0.0000 ( 17914 PWs)   bands (ev):

   -55.3168 -55.2927 -55.2080 -55.1861 -55.1731 -55.1533 -55.1373 -55.1251
   -55.1136 -55.1084 -55.0951 -55.0699 -54.9927 -54.8366 -54.2972 -54.2732
   -31.7540 -31.6794 -31.6109 -31.6093 -31.6083 -31.6058 -31.5542 -31.5471
   -31.5154 -31.4850 -31.4687 -31.4571 -31.4558 -31.4168 -31.4009 -31.3964
   -31.3926 -31.3911 -31.3859 -31.3730 -31.3631 -31.3571 -31.3483 -31.3376
   -31.3333 -31.3298 -31.3253 -31.3200 -31.3163 -31.3147 -31.3100 -31.3025
   -31.2939 -31.2767 -31.2681 -31.2642 -31.2630 -31.2388 -31.2231 -31.1061
   -31.0824 -31.0787 -30.6545 -30.6231 -30.6001 -30.5134 -30.4524 -30.3855
   -18.8686 -18.6550 -15.5817 -15.5629 -15.3746 -15.3361 -15.1951 -15.1491
   -15.1121 -15.0864 -15.0770 -15.0506 -15.0356 -14.9996 -14.9923 -14.9403
   -14.8950 -14.8481 -14.7494 -14.7361 -14.7014 -14.6677 -14.6248 -14.6206
   -14.5962 -14.5867 -14.5646 -14.5250 -14.5068 -14.5019 -14.1011 -13.4295
   -12.8028 -12.7267  -8.7952  -7.1944  -6.6127  -4.4969  -3.6704  -2.9700
    -2.9530  -2.8282  -2.7179  -2.5458  -2.5239  -2.5004  -2.4734  -2.4072
    -2.3919  -2.3791  -2.3715  -2.3651  -2.2795  -2.2651  -2.2102  -2.1856
    -2.1584  -2.0960  -2.0805  -2.0584  -2.0139  -2.0000  -1.9489  -1.9238
    -1.8929  -1.8625  -1.8232  -1.8186  -1.8140  -1.7954  -1.7241  -1.7034
    -1.4390  -1.3955  -1.3718  -1.3308  -1.2965  -1.2522  -1.1575  -1.1248
    -1.1093  -0.9270  -0.8944  -0.8676  -0.8244  -0.8003  -0.7511  -0.7182
    -0.6614  -0.6450  -0.6227  -0.5853  -0.5561  -0.5406  -0.5198  -0.4791
    -0.4583  -0.4118  -0.3746  -0.3579  -0.3081  -0.2145  -0.1845  -0.1526
    -0.0966  -0.0389  -0.0087   0.0436   0.0601   0.1024   0.1476   0.1860
     0.2460   0.3876   0.4010   0.5021   0.5264   0.5780   0.6166   0.7378
     0.7505   0.8721   0.9565   1.0154   1.0646   1.1154   1.1627   1.1813
     1.2274   1.2669   1.3482   1.4174   1.4506   1.9352   2.0051   2.0920
     2.2195   3.9874   4.0156   4.0635   4.1028   4.1761   4.1897   4.2248
     4.3150   4.4267   4.4728

          k =-0.0760-0.0839 0.0000 ( 17948 PWs)   bands (ev):

   -55.3051 -55.3044 -55.2028 -55.1846 -55.1780 -55.1462 -55.1324 -55.1257
   -55.1250 -55.1103 -55.0865 -55.0786 -54.9919 -54.8375 -54.2853 -54.2852
   -31.6216 -31.6211 -31.5995 -31.5990 -31.5675 -31.5356 -31.5045 -31.4920
   -31.4849 -31.4697 -31.4511 -31.4462 -31.4419 -31.4325 -31.4275 -31.4254
   -31.4245 -31.4241 -31.4189 -31.4031 -31.3922 -31.3780 -31.3674 -31.3651
   -31.3600 -31.3555 -31.3463 -31.3338 -31.3280 -31.3266 -31.3114 -31.3021
   -31.2989 -31.2982 -31.2965 -31.2936 -31.2636 -31.2351 -31.2211 -31.1480
   -31.0944 -31.0803 -30.6115 -30.6115 -30.5220 -30.5219 -30.4830 -30.4829
   -18.8642 -18.6582 -15.3573 -15.3223 -15.2843 -15.2570 -15.2410 -15.1201
   -15.1067 -15.0710 -15.0291 -15.0165 -14.9862 -14.9572 -14.9082 -14.9000
   -14.8655 -14.8460 -14.8068 -14.7803 -14.7610 -14.7567 -14.7398 -14.7183
   -14.6747 -14.6529 -14.6405 -14.6362 -14.5842 -14.4898 -14.2094 -13.4358
   -12.7884 -12.7884  -8.7985  -7.1958  -6.6185  -4.5293  -3.5723  -2.8595
    -2.6703  -2.6329  -2.5812  -2.4904  -2.4432  -2.3212  -2.3146  -2.2919
    -2.2467  -2.2337  -2.1927  -2.1527  -2.1468  -2.1190  -2.1064  -2.0620
    -2.0504  -2.0478  -2.0331  -1.9983  -1.9939  -1.9734  -1.9490  -1.9462
    -1.9363  -1.9198  -1.8866  -1.8796  -1.8526  -1.8333  -1.6818  -1.6094
    -1.5651  -1.4878  -1.4647  -1.4479  -1.4288  -1.3942  -1.3740  -1.3485
    -1.3199  -1.1738  -1.0321  -0.9988  -0.9736  -0.8752  -0.8602  -0.8407
    -0.7936  -0.7525  -0.7169  -0.6581  -0.6495  -0.6034  -0.5826  -0.4622
    -0.4254  -0.3254  -0.2902  -0.2888  -0.2707  -0.2562  -0.2391  -0.2131
    -0.1633  -0.0922  -0.0769  -0.0281  -0.0043  -0.0016   0.0113   0.1574
     0.2281   0.2487   0.3514   0.3810   0.5557   0.7195   0.7316   0.7997
     0.8624   0.9176   0.9514   0.9912   1.0015   1.0674   1.0921   1.1968
     1.2068   1.2558   1.2613   1.3408   1.3521   2.0854   2.0871   2.1575
     2.1576   4.1512   4.1671   4.1951   4.2582   4.3016   4.3132   4.3507
     4.3543   4.4575   4.4737

     the Fermi energy is     3.8055 ev

!    total energy              =   -2973.94012974 Ry
     estimated scf accuracy    <       0.00000005 Ry
     smearing contrib. (-TS)   =      -0.02071865 Ry
     internal energy E=F+TS    =   -2973.91941109 Ry

     The total energy is F=E-TS. E is the sum of the following terms:
     one-electron contribution =  -24339.46118130 Ry
     hartree contribution      =   12267.41531141 Ry
     xc contribution           =    -494.11798049 Ry
     ewald contribution        =    9592.24076344 Ry
     electric field correction =       0.00367584 Ry

     convergence has been achieved in  68 iterations

     Forces acting on atoms (cartesian axes, Ry/au):

     atom    1 type  1   force =     0.00002701   -0.00009975    0.09506985
     atom    2 type  1   force =     0.00017828   -0.00069639   -0.17563961
     atom    3 type  2   force =     0.00008881   -0.00005052   -0.02294183
     atom    4 type  2   force =     0.00002041   -0.00143218    0.05289248
     atom    5 type  2   force =    -0.01001489   -0.00031302    0.00380785
     atom    6 type  2   force =     0.01113742    0.00020636    0.00206301
     atom    7 type  1   force =    -0.00021689    0.00178487   -0.00588087
     atom    8 type  1   force =     0.00081027    0.01008992    0.01604826
     atom    9 type  2   force =    -0.00015751    0.00087120    0.00032865
     atom   10 type  2   force =    -0.00227238    0.00217611   -0.01801878
     atom   11 type  2   force =     0.00024262   -0.00003178    0.00007402
     atom   12 type  2   force =    -0.00035034   -0.00018213    0.00055552
     atom   13 type  1   force =    -0.00001690    0.00125014    0.00019504
     atom   14 type  1   force =    -0.00012048    0.00008458   -0.00001387
     atom   15 type  2   force =     0.00011402    0.00020890   -0.00001121
     atom   16 type  2   force =    -0.00037004    0.00043744   -0.00023273
     atom   17 type  2   force =    -0.00017461   -0.00025946   -0.00000736
     atom   18 type  2   force =    -0.00001919    0.00003955    0.00035253
     atom   19 type  1   force =    -0.00066182    0.00016765   -0.00025522
     atom   20 type  1   force =    -0.00022976   -0.00010370    0.00022227
     atom   21 type  2   force =     0.00009157   -0.00008465    0.10318420
     atom   22 type  2   force =     0.00033661   -0.00001921    0.00045105
     atom   23 type  2   force =    -0.07161155   -0.00017248   -0.02758608
     atom   24 type  2   force =     0.07157060    0.00024687   -0.02763579
     atom   25 type  1   force =     0.00023568   -0.00039322    0.09518497
     atom   26 type  1   force =    -0.00003464   -0.00020225   -0.17580585
     atom   27 type  2   force =     0.00012223   -0.00012174   -0.02196526
     atom   28 type  2   force =     0.00001427   -0.00139743    0.05322345
     atom   29 type  2   force =    -0.01035884   -0.00022786    0.00364720
     atom   30 type  2   force =     0.01139618    0.00042570    0.00191495
     atom   31 type  1   force =    -0.00030124    0.00266618   -0.00008338
     atom   32 type  1   force =     0.00067394   -0.01114378    0.01692854
     atom   33 type  2   force =     0.00037177   -0.00027698    0.00000950
     atom   34 type  2   force =    -0.00033818    0.00143925   -0.01894581
     atom   35 type  2   force =    -0.00000795   -0.00035170   -0.00016991
     atom   36 type  2   force =     0.00000176   -0.00024348    0.00043168
     atom   37 type  1   force =    -0.00005104   -0.00122887    0.00034914
     atom   38 type  1   force =    -0.00039968    0.00089446    0.00004577
     atom   39 type  2   force =     0.00007772    0.00007977    0.00008286
     atom   40 type  2   force =    -0.00048364   -0.00059695   -0.00000158
     atom   41 type  2   force =     0.00018771   -0.00000580    0.00048467
     atom   42 type  2   force =    -0.00015550   -0.00034117   -0.00022401
     atom   43 type  1   force =    -0.00051127    0.00001383    0.00022008
     atom   44 type  1   force =     0.00017524   -0.00029996    0.00028780
     atom   45 type  2   force =     0.00009933   -0.00010267    0.10320154
     atom   46 type  2   force =    -0.07159755   -0.00017011   -0.02757867
     atom   47 type  2   force =     0.07159848    0.00024864   -0.02758920
     atom   48 type  3   force =     0.00019994   -0.00051494    0.00024712
     atom   49 type  3   force =     0.00006480    0.00008577   -0.00017224
     atom   50 type  4   force =     0.00032864   -0.00026974    0.00049664
     atom   51 type  5   force =    -0.00015964   -0.00049357   -0.00027207
     atom   52 type  5   force =    -0.00002314   -0.00102518   -0.00081236
     atom   53 type  5   force =     0.00016851   -0.00040536   -0.00059527
     atom   54 type  2   force =    -0.00019753    0.00137547   -0.00035733
     atom   55 type  5   force =     0.00034393   -0.00064738    0.00044620
     atom   56 type  5   force =     0.00015847   -0.00088729    0.00034945

     Total force =     0.365203     Total SCF correction =     0.000702
  @ DRIVER MODE: Message from server: STATUS
  @ DRIVER MODE: Message from server: GETFORCE
  @ DRIVER MODE: Returning v,forces,stress,ensemble 

     Writing output data file ./calc.save/
  @ DRIVER MODE: Message from server: EXIT
  @ DRIVE MODE: Exiting  
 
     init_run     :     15.07s CPU     15.57s WALL (       1 calls)
     electrons    :   1373.23s CPU   1422.69s WALL (       1 calls)
     forces       :      2.45s CPU      2.53s WALL (       1 calls)

     Called by init_run:
     wfcinit      :      8.09s CPU      8.19s WALL (       1 calls)
     potinit      :      5.40s CPU      5.47s WALL (       1 calls)
     hinit0       :      0.89s CPU      0.91s WALL (       1 calls)

     Called by electrons:
     c_bands      :   1176.79s CPU   1211.73s WALL (      68 calls)
     sum_band     :    131.66s CPU    138.03s WALL (      68 calls)
     v_of_rho     :     43.32s CPU     47.18s WALL (      69 calls)
     newd         :     18.03s CPU     21.76s WALL (      69 calls)
     mix_rho      :      7.45s CPU      7.85s WALL (      68 calls)
     vdW_kernel   :      4.57s CPU      4.58s WALL (       1 calls)

     Called by c_bands:
     init_us_2    :      5.82s CPU      5.89s WALL (    1380 calls)
     cegterg      :   1157.73s CPU   1191.80s WALL (     696 calls)

     Called by *egterg:
     cdiaghg      :    247.87s CPU    261.59s WALL (    6888 calls)
     h_psi        :    587.17s CPU    603.37s WALL (    6903 calls)
     s_psi        :     68.05s CPU     68.47s WALL (    6903 calls)
     g_psi        :      1.86s CPU      1.88s WALL (    6197 calls)

     Called by h_psi:
     h_psi:calbec :     69.20s CPU     69.97s WALL (    6903 calls)
     vloc_psi     :    447.10s CPU    461.75s WALL (    6903 calls)
     add_vuspsi   :     68.10s CPU     68.65s WALL (    6903 calls)

     General routines
     calbec       :     90.11s CPU     91.08s WALL (    7623 calls)
     fft          :     25.06s CPU     26.36s WALL (    4347 calls)
     ffts         :      0.25s CPU      0.25s WALL (     137 calls)
     fftw         :    510.02s CPU    527.58s WALL (  985740 calls)
     interpolate  :      0.62s CPU      0.64s WALL (      69 calls)
     davcio       :      0.00s CPU      0.35s WALL (      10 calls)
 
     Parallel routines
 
     PWSCF        :  23m16.57s CPU  24m 7.46s WALL

 
   This run was terminated on:  15:24: 7  22Sep2021            

=------------------------------------------------------------------------------=
   JOB DONE.
=------------------------------------------------------------------------------=
