
     Program PWSCF v.6.7GPU starts on 15Sep2021 at 17:31:21 

     This program is part of the open-source Quantum ESPRESSO suite
     for quantum simulation of materials; please cite
         "P. Giannozzi et al., J. Phys.:Condens. Matter 21 395502 (2009);
         "P. Giannozzi et al., J. Phys.:Condens. Matter 29 465901 (2017);
         "P. Giannozzi et al., J. Chem. Phys. 152 154105 (2020);
          URL http://www.quantum-espresso.org", 
     in publications or presentations arising from this work. More details at
     http://www.quantum-espresso.org/quote

     Parallel version (MPI), running on    10 processors

     MPI processes distributed on     1 nodes
     R & G space division:  proc/nbgrp/npool/nimage =      10
     Reading input from /storage/home/hcoda1/3/ntian30/research/carbon/CxH_vib/H2O_calc/ads_slab/CH2NHNH2O_a/out_0006/pw.inp
Warning: card &CELL ignored
Warning: card   CELL_DYNAMICS='IPI', ignored
Warning: card / ignored

     Current dimensions of program PWSCF are:
     Max number of different atomic species (ntypx) = 10
     Max number of k-points (npk) =  40000
     Max angular momentum in pseudopotentials (lmaxx) =  3
     Presently no symmetry can be used with electric field

     Message from routine cell_base_init:
     DEPRECATED: use true lattice parameter, not A to a.u. conversion factor

     **************************************************************************
     Initializing libbeef V0.1.2 with the BEEF-vdW functional.
     Citation: Wellendorff et al., PRB 85, 235149 (2012).
     **************************************************************************


     IMPORTANT: XC functional enforced from input :
     Exchange-correlation= BEEF-VDW
                           (   1   4  43  14   2   0   0)
     Any further DFT definition will be discarded
     Please, verify this is what you really want


     Subspace diagonalization in iterative solution of the eigenvalue problem:
     one sub-group per band group will be used
     scalapack distributed-memory algorithm (size of sub-group:  3*  3 procs)

  @ DRIVER MODE: Connecting to 
 qe_1139763_2852610.sched-torque.pace.gatech.edubne2kxly_scratch
  using UNIX socket
  @ DRIVER MODE: Message from server: STATUS
  @ DRIVER MODE: Message from server: INIT
  @ DRIVER MODE: Receiving replica           0          -1
  @ DRIVER MODE: Receiving encoded integer          25
  @ DRIVER MODE:  SCF:  T  FORCE:  T  STRESS:  F  VC:  F  ENSEMBLE:  F
  @ DRIVER MODE:  SCF:  T  FORCE:  T  STRESS:  F  VC:  F  ENSEMBLE:  F
 
     Parallelization info
     --------------------
     sticks:   dense  smooth     PW     G-vecs:    dense   smooth      PW
     Min         327     131     37                56683    14340    2191
     Max         328     133     38                56694    14346    2206
     Sum        3275    1317    379               566857   143421   21985
 
     Using Slab Decomposition
 


     bravais-lattice index     =            0
     lattice parameter (alat)  =       1.8897  a.u.
     unit-cell volume          =    6658.9804 (a.u.)^3
     number of atoms/cell      =           56
     number of atomic types    =            5
     number of electrons       =       403.00
     number of Kohn-Sham states=          211
     kinetic-energy cutoff     =      29.3995  Ry
     charge density cutoff     =     293.9946  Ry
     scf convergence threshold =      7.3E-08
     mixing beta               =       0.0500
     number of iterations used =            8  plain     mixing
     Exchange-correlation= BEEF-VDW
                           (   1   4  43  14   2   0   0)

     celldm(1)=   1.889726  celldm(2)=   0.000000  celldm(3)=   0.000000
     celldm(4)=   0.000000  celldm(5)=   0.000000  celldm(6)=   0.000000

     crystal axes: (cart. coord. in units of alat)
               a(1) = (   6.579727   0.000000   0.000000 )  
               a(2) = (  -0.000775   5.961596   0.000000 )  
               a(3) = (   0.000000   0.000000  25.155947 )  

     reciprocal axes: (cart. coord. in units 2 pi/alat)
               b(1) = (  0.151982  0.000020  0.000000 )  
               b(2) = (  0.000000  0.167740  0.000000 )  
               b(3) = (  0.000000  0.000000  0.039752 )  


     PseudoPot. # 1 for Ti read from file:
     /storage/coda1/p-amedford6/0/shared/rich_project_chbe-medford/medford-share/data/pseudos_module/espresso/nninc/pbe/van/Ti.UPF
     MD5 check sum: 8e4df49b7f0d34bbd5052bf3f5ea0213
     Pseudo is Ultrasoft, Zval = 12.0
     Generated by new atomic code, or converted to UPF format
     Using radial grid of  851 points,  6 beta functions with: 
                l(1) =   0
                l(2) =   0
                l(3) =   1
                l(4) =   1
                l(5) =   2
                l(6) =   2
     Q(r) pseudized with  8 coefficients,  rinner =    1.000   1.000   1.000
                                                       1.000   1.000

     PseudoPot. # 2 for O  read from file:
     /storage/coda1/p-amedford6/0/shared/rich_project_chbe-medford/medford-share/data/pseudos_module/espresso/nninc/pbe/van/O.UPF
     MD5 check sum: 78c19812648e8988a0fe644b0f25305e
     Pseudo is Ultrasoft, Zval =  6.0
     Generated by new atomic code, or converted to UPF format
     Using radial grid of  737 points,  4 beta functions with: 
                l(1) =   0
                l(2) =   0
                l(3) =   1
                l(4) =   1
     Q(r) pseudized with  8 coefficients,  rinner =    0.800   0.800   0.800


     PseudoPot. # 3 for H  read from file:
     /storage/coda1/p-amedford6/0/shared/rich_project_chbe-medford/medford-share/data/pseudos_module/espresso/nninc/pbe/van/H.UPF
     MD5 check sum: b5ee9d7bfd3a09ee7748110bda690ff7
     Pseudo is Ultrasoft, Zval =  1.0
     Generated by new atomic code, or converted to UPF format
     Using radial grid of  615 points,  1 beta functions with: 
                l(1) =   0
     Q(r) pseudized with  8 coefficients,  rinner =    0.800

     PseudoPot. # 4 for N  read from file:
     /storage/coda1/p-amedford6/0/shared/rich_project_chbe-medford/medford-share/data/pseudos_module/espresso/nninc/pbe/van/N.UPF
     MD5 check sum: 90d10febe142ad51ac9d5be1deb811c4
     Pseudo is Ultrasoft, Zval =  5.0
     Generated by new atomic code, or converted to UPF format
     Using radial grid of  729 points,  4 beta functions with: 
                l(1) =   0
                l(2) =   0
                l(3) =   1
                l(4) =   1
     Q(r) pseudized with  8 coefficients,  rinner =    0.800   0.800   0.800


     PseudoPot. # 5 for C  read from file:
     /storage/coda1/p-amedford6/0/shared/rich_project_chbe-medford/medford-share/data/pseudos_module/espresso/nninc/pbe/van/C.UPF
     MD5 check sum: 1a69bf6b8db32088f5b2163dbdb77a27
     Pseudo is Ultrasoft, Zval =  4.0
     Generated by new atomic code, or converted to UPF format
     Using radial grid of  721 points,  4 beta functions with: 
                l(1) =   0
                l(2) =   0
                l(3) =   1
                l(4) =   1
     Q(r) pseudized with  8 coefficients,  rinner =    0.800   0.800   0.800


     atomic species   valence    mass     pseudopotential
        Ti1           12.00    47.86700     Ti( 1.00)
        O1             6.00    15.99900     O ( 1.00)
        H1             1.00     1.00800     H ( 1.00)
        N1             5.00    14.00700     N ( 1.00)
        C1             4.00    12.01100     C ( 1.00)

     No symmetry found



   Cartesian axes

     site n.     atom                  positions (alat units)
         1           Ti1 tau(   1) = (   0.0004258   2.9801865   6.0000000  )
         2           Ti1 tau(   2) = (   3.2906075   1.4906267   6.0002472  )
         3           O1  tau(   3) = (   0.0006271   0.0005054   7.9858123  )
         4           O1  tau(   4) = (   3.2906025   0.0005020   7.3038282  )
         5           O1  tau(   5) = (   4.5942328   1.4918067   9.2879030  )
         6           O1  tau(   6) = (   1.9868534   1.4903216   9.2879459  )
         7           Ti1 tau(   7) = (   3.2907910   2.8959150   9.1758416  )
         8           Ti1 tau(   8) = (   0.0015273   1.4827037   9.2680791  )
         9           O1  tau(   9) = (   3.2960012   0.0062018  11.3595187  )
        10           O1  tau(  10) = (   0.0116148   5.9584955  10.6183126  )
        11           O1  tau(  11) = (   1.2731109   1.5057875  12.6314550  )
        12           O1  tau(  12) = (   5.2959999   1.4755877  12.6679080  )
        13           Ti1 tau(  13) = (   0.0553992   2.9538365  12.5526742  )
        14           Ti1 tau(  14) = (   3.3268292   1.5427496  12.5634199  )
        15           O1  tau(  15) = (   0.1371361   5.9015051  14.6217027  )
        16           O1  tau(  16) = (   3.1880369   0.0098958  13.9252199  )
        17           O1  tau(  17) = (   4.6462182   1.4014471  15.8552565  )
        18           O1  tau(  18) = (   2.0822703   1.5558083  16.1249119  )
        19           Ti1 tau(  19) = (   3.3548958   3.0525267  15.8597497  )
        20           Ti1 tau(  20) = (   0.0948755   1.3182250  15.7908873  )
        21           O1  tau(  21) = (   3.2904802   0.0005063   4.7018136  )
        22           O1  tau(  22) = (   0.0722171   0.0319689  17.1393915  )
        23           O1  tau(  23) = (   1.3043587   1.4918075   6.0039043  )
        24           O1  tau(  24) = (   5.2767064   1.4903225   6.0039473  )
        25           Ti1 tau(  25) = (   0.0000382   5.9609847   6.0000000  )
        26           Ti1 tau(  26) = (   3.2902200   4.4714249   6.0002472  )
        27           O1  tau(  27) = (   0.0002396   2.9813036   7.9858123  )
        28           O1  tau(  28) = (   3.2902150   2.9813002   7.3038282  )
        29           O1  tau(  29) = (   4.5938453   4.4726049   9.2879030  )
        30           O1  tau(  30) = (   1.9864658   4.4711199   9.2879459  )
        31           Ti1 tau(  31) = (   3.2891106   5.8743827   9.1763621  )
        32           Ti1 tau(  32) = (   0.0006254   4.4649316   9.2693709  )
        33           O1  tau(  33) = (   3.2982667   2.9897935  11.3544942  )
        34           O1  tau(  34) = (   0.0092240   2.9805883  10.6323155  )
        35           O1  tau(  35) = (   1.2737041   4.4504026  12.6113924  )
        36           O1  tau(  36) = (   5.2903739   4.4874249  12.6576873  )
        37           Ti1 tau(  37) = (   6.5697415   5.9260651  12.4959683  )
        38           Ti1 tau(  38) = (   3.3125242   4.5024033  12.5372123  )
        39           O1  tau(  39) = (   0.0674008   2.9793056  14.8363759  )
        40           O1  tau(  40) = (   3.2999477   2.9756493  13.9369993  )
        41           O1  tau(  41) = (   4.6108370   4.5787535  15.7719701  )
        42           O1  tau(  42) = (   2.0428421   4.3627697  16.1441833  )
        43           Ti1 tau(  43) = (   3.3552955   0.0804576  15.7648105  )
        44           Ti1 tau(  44) = (   6.5672415   4.5273692  15.9765751  )
        45           O1  tau(  45) = (   3.2900926   2.9813045   4.7018136  )
        46           O1  tau(  46) = (   1.3039711   4.4726057   6.0039043  )
        47           O1  tau(  47) = (   5.2763189   4.4711207   6.0039473  )
        48           H1  tau(  48) = (   4.1035413   2.4672077  18.5746977  )
        49           N1  tau(  49) = (   5.6961598   3.2907635  17.7856741  )
        50           C1  tau(  50) = (   6.4968133   2.7471819  18.6454045  )
        51           H1  tau(  51) = (   6.1325458   2.1374441  19.4677963  )
        52           H1  tau(  52) = (   0.9799315   2.9096255  18.5325614  )
        53           N1  tau(  53) = (   4.3409097   3.1788467  17.8642182  )
        54           O1  tau(  54) = (   3.3174094   5.8609012  18.0981057  )
        55           H1  tau(  55) = (   3.6736973   4.9388346  18.2201127  )
        56           H1  tau(  56) = (   2.3597147   5.7972335  18.2603650  )

     number of k points=    10  Fermi-Dirac smearing, width (Ry)=  0.0073
                       cart. coord. in units 2pi/alat
        k(    1) = (   0.0000000   0.0000000   0.0000000), wk =   0.1250000
        k(    2) = (   0.0000000   0.0419351   0.0000000), wk =   0.2500000
        k(    3) = (   0.0000000  -0.0838702   0.0000000), wk =   0.1250000
        k(    4) = (   0.0379955   0.0000049   0.0000000), wk =   0.2500000
        k(    5) = (   0.0379955   0.0419400   0.0000000), wk =   0.2500000
        k(    6) = (   0.0379955  -0.0838652   0.0000000), wk =   0.2500000
        k(    7) = (   0.0379955  -0.0419301   0.0000000), wk =   0.2500000
        k(    8) = (  -0.0759910  -0.0000099   0.0000000), wk =   0.1250000
        k(    9) = (  -0.0759910   0.0419252   0.0000000), wk =   0.2500000
        k(   10) = (  -0.0759910  -0.0838800   0.0000000), wk =   0.1250000

     Dense  grid:   566857 G-vectors     FFT dimensions: (  72,  64, 270)

     Smooth grid:   143421 G-vectors     FFT dimensions: (  45,  40, 180)

     Estimated max dynamical RAM per process >     367.48 MB

     Estimated total dynamical RAM >       3.59 GB
     Cannot read rho : file not found

     Initial potential from superposition of free atoms

     starting charge  386.99914, renormalised to  403.00000

     negative rho (up, down):  1.702E-02 0.000E+00


     %%%%%%%%%%%%%%%%%%%%%%%%%%%%%%%%%%%%%%%%%%%%%%%%%%%%%%%%%%%%%%%%%%%%%%%%
     %                                                                      %
     % You are using vdW-DF, which was implemented by the Thonhauser group. %
     % Please cite the following two papers that made this development      %
     % possible and the two reviews that describe the various versions:     %
     %                                                                      %
     %   T. Thonhauser et al., PRL 115, 136402 (2015).                      %
     %   T. Thonhauser et al., PRB 76, 125112 (2007).                       %
     %   K. Berland et al., Rep. Prog. Phys. 78, 066501 (2015).             %
     %   D.C. Langreth et al., J. Phys.: Condens. Matter 21, 084203 (2009). %
     %                                                                      %
     %                                                                      %
     % If you are calculating the stress with vdW-DF, please also cite:     %
     %                                                                      %
     %   R. Sabatini et al., J. Phys.: Condens. Matter 24, 424209 (2012).   %
     %                                                                      %
     %%%%%%%%%%%%%%%%%%%%%%%%%%%%%%%%%%%%%%%%%%%%%%%%%%%%%%%%%%%%%%%%%%%%%%%%


 
     Adding external electric field

     Computed dipole along edir(3) : 
        Dipole              -12.3744 Ry au,        -31.4527 Debye
        Dipole field         -0.0234 Ry au, 
 
        Potential amp.        2.1647 Ry
        Total length         46.3494 bohr
 
     Starting wfcs are  305 atomic wfcs
  @ DRIVER MODE: Message from server: STATUS
  @ DRIVER MODE: Message from server: POSDATA
  @ DRIVER MODE: Reading and sharing cell 
  @ DRIVER MODE: Reading and sharing positions 
  @ DRIVER MODE: Received positions 

     total cpu time spent up to now is       11.4 secs

     Self-consistent Calculation

     iteration #  1     ecut=    29.40 Ry     beta= 0.05
     Davidson diagonalization with overlap
     c_bands:  4 eigenvalues not converged
     c_bands:  3 eigenvalues not converged
     c_bands:  3 eigenvalues not converged
     c_bands:  1 eigenvalues not converged
     c_bands:  1 eigenvalues not converged
     c_bands:  4 eigenvalues not converged
     c_bands:  3 eigenvalues not converged
     ethr =  1.00E-05,  avg # of iterations = 27.4

     negative rho (up, down):  9.755E-03 0.000E+00
 
     Adding external electric field

     Computed dipole along edir(3) : 
        Dipole               53.6618 Ry au,        136.3947 Debye
        Dipole field          0.1013 Ry au, 
 
        Potential amp.       -9.3873 Ry
        Total length         46.3494 bohr
 

     total cpu time spent up to now is       59.2 secs

     total energy              =   -2355.31207500 Ry
     estimated scf accuracy    <    7011.07035283 Ry

     iteration #  2     ecut=    29.40 Ry     beta= 0.05
     Davidson diagonalization with overlap
     ethr =  1.00E-02,  avg # of iterations = 24.6

     negative rho (up, down):  4.359E-04 0.000E+00
 
     Adding external electric field

     Computed dipole along edir(3) : 
        Dipole                0.0833 Ry au,          0.2118 Debye
        Dipole field          0.0002 Ry au, 
 
        Potential amp.       -0.0146 Ry
        Total length         46.3494 bohr
 

     total cpu time spent up to now is      138.1 secs

     total energy              =   -2478.13264209 Ry
     estimated scf accuracy    <   70293.84985215 Ry

     iteration #  3     ecut=    29.40 Ry     beta= 0.05
     Davidson diagonalization with overlap
     ethr =  1.00E-02,  avg # of iterations = 15.4

     negative rho (up, down):  4.962E-04 0.000E+00
 
     Adding external electric field

     Computed dipole along edir(3) : 
        Dipole               -3.3299 Ry au,         -8.4639 Debye
        Dipole field         -0.0063 Ry au, 
 
        Potential amp.        0.5825 Ry
        Total length         46.3494 bohr
 

     total cpu time spent up to now is      187.1 secs

     total energy              =   -2957.67730806 Ry
     estimated scf accuracy    <    6245.01035484 Ry

     iteration #  4     ecut=    29.40 Ry     beta= 0.05
     Davidson diagonalization with overlap
     ethr =  1.00E-02,  avg # of iterations = 12.5

     negative rho (up, down):  5.147E-04 0.000E+00
 
     Adding external electric field

     Computed dipole along edir(3) : 
        Dipole               -4.9408 Ry au,        -12.5583 Debye
        Dipole field         -0.0093 Ry au, 
 
        Potential amp.        0.8643 Ry
        Total length         46.3494 bohr
 

     total cpu time spent up to now is      210.4 secs

     total energy              =   -2966.29423144 Ry
     estimated scf accuracy    <    1790.62490253 Ry

     iteration #  5     ecut=    29.40 Ry     beta= 0.05
     Davidson diagonalization with overlap
     ethr =  1.00E-02,  avg # of iterations =  1.2

     negative rho (up, down):  5.769E-04 0.000E+00
 
     Adding external electric field

     Computed dipole along edir(3) : 
        Dipole               -7.3236 Ry au,        -18.6148 Debye
        Dipole field         -0.0138 Ry au, 
 
        Potential amp.        1.2812 Ry
        Total length         46.3494 bohr
 

     total cpu time spent up to now is      220.5 secs

     total energy              =   -2942.14361857 Ry
     estimated scf accuracy    <    1863.21530469 Ry

     iteration #  6     ecut=    29.40 Ry     beta= 0.05
     Davidson diagonalization with overlap
     ethr =  1.00E-02,  avg # of iterations = 13.7

     negative rho (up, down):  5.621E-04 0.000E+00
 
     Adding external electric field

     Computed dipole along edir(3) : 
        Dipole               -6.0502 Ry au,        -15.3782 Debye
        Dipole field         -0.0114 Ry au, 
 
        Potential amp.        1.0584 Ry
        Total length         46.3494 bohr
 

     total cpu time spent up to now is      245.8 secs

     total energy              =   -2978.08833640 Ry
     estimated scf accuracy    <      71.31168157 Ry

     iteration #  7     ecut=    29.40 Ry     beta= 0.05
     Davidson diagonalization with overlap
     ethr =  1.00E-02,  avg # of iterations =  1.4

     negative rho (up, down):  5.810E-04 0.000E+00
 
     Adding external electric field

     Computed dipole along edir(3) : 
        Dipole               -5.0905 Ry au,        -12.9388 Debye
        Dipole field         -0.0096 Ry au, 
 
        Potential amp.        0.8905 Ry
        Total length         46.3494 bohr
 

     total cpu time spent up to now is      256.0 secs

     total energy              =   -2977.19771630 Ry
     estimated scf accuracy    <      21.12235774 Ry

     iteration #  8     ecut=    29.40 Ry     beta= 0.05
     Davidson diagonalization with overlap
     ethr =  5.24E-03,  avg # of iterations =  1.6

     negative rho (up, down):  5.819E-04 0.000E+00
 
     Adding external electric field

     Computed dipole along edir(3) : 
        Dipole               -5.0430 Ry au,        -12.8181 Debye
        Dipole field         -0.0095 Ry au, 
 
        Potential amp.        0.8822 Ry
        Total length         46.3494 bohr
 

     total cpu time spent up to now is      266.2 secs

     total energy              =   -2977.43745842 Ry
     estimated scf accuracy    <      19.62549725 Ry

     iteration #  9     ecut=    29.40 Ry     beta= 0.05
     Davidson diagonalization with overlap
     ethr =  4.87E-03,  avg # of iterations =  1.0

     negative rho (up, down):  6.177E-04 0.000E+00
 
     Adding external electric field

     Computed dipole along edir(3) : 
        Dipole               -4.3091 Ry au,        -10.9527 Debye
        Dipole field         -0.0081 Ry au, 
 
        Potential amp.        0.7538 Ry
        Total length         46.3494 bohr
 

     total cpu time spent up to now is      276.1 secs

     total energy              =   -2976.18861508 Ry
     estimated scf accuracy    <      19.36608557 Ry

     iteration # 10     ecut=    29.40 Ry     beta= 0.05
     Davidson diagonalization with overlap
     ethr =  4.81E-03,  avg # of iterations =  1.0

     negative rho (up, down):  1.339E-03 0.000E+00
 
     Adding external electric field

     Computed dipole along edir(3) : 
        Dipole                0.4440 Ry au,          1.1284 Debye
        Dipole field          0.0008 Ry au, 
 
        Potential amp.       -0.0777 Ry
        Total length         46.3494 bohr
 

     total cpu time spent up to now is      286.0 secs

     total energy              =   -2970.84528699 Ry
     estimated scf accuracy    <      15.61599646 Ry

     iteration # 11     ecut=    29.40 Ry     beta= 0.05
     Davidson diagonalization with overlap
     c_bands:  2 eigenvalues not converged
     c_bands:  1 eigenvalues not converged
     ethr =  3.87E-03,  avg # of iterations = 17.6

     negative rho (up, down):  1.205E-03 0.000E+00
 
     Adding external electric field

     Computed dipole along edir(3) : 
        Dipole               -0.2408 Ry au,         -0.6120 Debye
        Dipole field         -0.0005 Ry au, 
 
        Potential amp.        0.0421 Ry
        Total length         46.3494 bohr
 

     total cpu time spent up to now is      309.4 secs

     total energy              =   -2981.11879073 Ry
     estimated scf accuracy    <    1392.90437279 Ry

     iteration # 12     ecut=    29.40 Ry     beta= 0.05
     Davidson diagonalization with overlap
     ethr =  3.87E-03,  avg # of iterations =  1.6

     negative rho (up, down):  1.172E-03 0.000E+00
 
     Adding external electric field

     Computed dipole along edir(3) : 
        Dipole               -0.4349 Ry au,         -1.1054 Debye
        Dipole field         -0.0008 Ry au, 
 
        Potential amp.        0.0761 Ry
        Total length         46.3494 bohr
 

     total cpu time spent up to now is      319.8 secs

     total energy              =   -2980.57759927 Ry
     estimated scf accuracy    <     884.79798823 Ry

     iteration # 13     ecut=    29.40 Ry     beta= 0.05
     Davidson diagonalization with overlap
     ethr =  3.87E-03,  avg # of iterations =  1.0

     negative rho (up, down):  1.126E-03 0.000E+00
 
     Adding external electric field

     Computed dipole along edir(3) : 
        Dipole               -0.2054 Ry au,         -0.5220 Debye
        Dipole field         -0.0004 Ry au, 
 
        Potential amp.        0.0359 Ry
        Total length         46.3494 bohr
 

     total cpu time spent up to now is      329.7 secs

     total energy              =   -2982.21738044 Ry
     estimated scf accuracy    <     846.07386886 Ry

     iteration # 14     ecut=    29.40 Ry     beta= 0.05
     Davidson diagonalization with overlap
     ethr =  3.87E-03,  avg # of iterations =  1.0

     negative rho (up, down):  1.176E-03 0.000E+00
 
     Adding external electric field

     Computed dipole along edir(3) : 
        Dipole                0.1641 Ry au,          0.4172 Debye
        Dipole field          0.0003 Ry au, 
 
        Potential amp.       -0.0287 Ry
        Total length         46.3494 bohr
 

     total cpu time spent up to now is      339.6 secs

     total energy              =   -2985.41610418 Ry
     estimated scf accuracy    <     958.23548138 Ry

     iteration # 15     ecut=    29.40 Ry     beta= 0.05
     Davidson diagonalization with overlap
     ethr =  3.87E-03,  avg # of iterations =  1.0

     negative rho (up, down):  9.527E-04 0.000E+00
 
     Adding external electric field

     Computed dipole along edir(3) : 
        Dipole               -1.4410 Ry au,         -3.6628 Debye
        Dipole field         -0.0027 Ry au, 
 
        Potential amp.        0.2521 Ry
        Total length         46.3494 bohr
 

     total cpu time spent up to now is      349.5 secs

     total energy              =   -2972.97317179 Ry
     estimated scf accuracy    <    1229.34487781 Ry

     iteration # 16     ecut=    29.40 Ry     beta= 0.05
     Davidson diagonalization with overlap
     ethr =  3.87E-03,  avg # of iterations =  5.7

     negative rho (up, down):  9.454E-04 0.000E+00
 
     Adding external electric field

     Computed dipole along edir(3) : 
        Dipole               -1.1801 Ry au,         -2.9996 Debye
        Dipole field         -0.0022 Ry au, 
 
        Potential amp.        0.2064 Ry
        Total length         46.3494 bohr
 

     total cpu time spent up to now is      361.4 secs

     total energy              =   -2976.02989882 Ry
     estimated scf accuracy    <     691.80788074 Ry

     iteration # 17     ecut=    29.40 Ry     beta= 0.05
     Davidson diagonalization with overlap
     ethr =  3.87E-03,  avg # of iterations =  2.4

     negative rho (up, down):  9.607E-04 0.000E+00
 
     Adding external electric field

     Computed dipole along edir(3) : 
        Dipole               -1.2013 Ry au,         -3.0534 Debye
        Dipole field         -0.0023 Ry au, 
 
        Potential amp.        0.2101 Ry
        Total length         46.3494 bohr
 

     total cpu time spent up to now is      372.1 secs

     total energy              =   -2976.13451220 Ry
     estimated scf accuracy    <     706.62935880 Ry

     iteration # 18     ecut=    29.40 Ry     beta= 0.05
     Davidson diagonalization with overlap
     ethr =  3.87E-03,  avg # of iterations =  1.2

     negative rho (up, down):  8.407E-04 0.000E+00
 
     Adding external electric field

     Computed dipole along edir(3) : 
        Dipole               -3.3908 Ry au,         -8.6185 Debye
        Dipole field         -0.0064 Ry au, 
 
        Potential amp.        0.5932 Ry
        Total length         46.3494 bohr
 

     total cpu time spent up to now is      382.1 secs

     total energy              =   -2965.66719724 Ry
     estimated scf accuracy    <     689.29277380 Ry

     iteration # 19     ecut=    29.40 Ry     beta= 0.05
     Davidson diagonalization with overlap
     ethr =  3.87E-03,  avg # of iterations = 15.4

     negative rho (up, down):  9.378E-04 0.000E+00
 
     Adding external electric field

     Computed dipole along edir(3) : 
        Dipole               -2.9323 Ry au,         -7.4532 Debye
        Dipole field         -0.0055 Ry au, 
 
        Potential amp.        0.5130 Ry
        Total length         46.3494 bohr
 

     total cpu time spent up to now is      401.9 secs

     total energy              =   -2973.97862113 Ry
     estimated scf accuracy    <       6.65115457 Ry

     iteration # 20     ecut=    29.40 Ry     beta= 0.05
     Davidson diagonalization with overlap
     ethr =  1.65E-03,  avg # of iterations =  2.2

     negative rho (up, down):  1.509E-03 0.000E+00
 
     Adding external electric field

     Computed dipole along edir(3) : 
        Dipole               -1.0224 Ry au,         -2.5987 Debye
        Dipole field         -0.0019 Ry au, 
 
        Potential amp.        0.1789 Ry
        Total length         46.3494 bohr
 

     total cpu time spent up to now is      412.5 secs

     total energy              =   -2973.33187630 Ry
     estimated scf accuracy    <       4.39376850 Ry

     iteration # 21     ecut=    29.40 Ry     beta= 0.05
     Davidson diagonalization with overlap
     ethr =  1.09E-03,  avg # of iterations = 10.7

     negative rho (up, down):  1.283E-03 0.000E+00
 
     Adding external electric field

     Computed dipole along edir(3) : 
        Dipole               -1.6160 Ry au,         -4.1075 Debye
        Dipole field         -0.0030 Ry au, 
 
        Potential amp.        0.2827 Ry
        Total length         46.3494 bohr
 

     total cpu time spent up to now is      431.0 secs

     total energy              =   -2974.05540732 Ry
     estimated scf accuracy    <       8.72060171 Ry

     iteration # 22     ecut=    29.40 Ry     beta= 0.05
     Davidson diagonalization with overlap
     ethr =  1.09E-03,  avg # of iterations =  4.3

     negative rho (up, down):  1.257E-03 0.000E+00
 
     Adding external electric field

     Computed dipole along edir(3) : 
        Dipole               -1.7998 Ry au,         -4.5747 Debye
        Dipole field         -0.0034 Ry au, 
 
        Potential amp.        0.3149 Ry
        Total length         46.3494 bohr
 

     total cpu time spent up to now is      442.3 secs

     total energy              =   -2974.05050497 Ry
     estimated scf accuracy    <       4.91097119 Ry

     iteration # 23     ecut=    29.40 Ry     beta= 0.05
     Davidson diagonalization with overlap
     ethr =  1.09E-03,  avg # of iterations =  3.7

     negative rho (up, down):  1.336E-03 0.000E+00
 
     Adding external electric field

     Computed dipole along edir(3) : 
        Dipole               -1.9820 Ry au,         -5.0378 Debye
        Dipole field         -0.0037 Ry au, 
 
        Potential amp.        0.3467 Ry
        Total length         46.3494 bohr
 

     total cpu time spent up to now is      453.4 secs

     total energy              =   -2973.90655844 Ry
     estimated scf accuracy    <       3.38042524 Ry

     iteration # 24     ecut=    29.40 Ry     beta= 0.05
     Davidson diagonalization with overlap
     ethr =  8.39E-04,  avg # of iterations = 12.1

     negative rho (up, down):  1.324E-03 0.000E+00
 
     Adding external electric field

     Computed dipole along edir(3) : 
        Dipole               -2.0708 Ry au,         -5.2635 Debye
        Dipole field         -0.0039 Ry au, 
 
        Potential amp.        0.3623 Ry
        Total length         46.3494 bohr
 

     total cpu time spent up to now is      467.4 secs

     total energy              =   -2974.08292682 Ry
     estimated scf accuracy    <       7.06642796 Ry

     iteration # 25     ecut=    29.40 Ry     beta= 0.05
     Davidson diagonalization with overlap
     ethr =  8.39E-04,  avg # of iterations =  2.1

     negative rho (up, down):  1.351E-03 0.000E+00
 
     Adding external electric field

     Computed dipole along edir(3) : 
        Dipole               -1.9731 Ry au,         -5.0151 Debye
        Dipole field         -0.0037 Ry au, 
 
        Potential amp.        0.3452 Ry
        Total length         46.3494 bohr
 

     total cpu time spent up to now is      478.1 secs

     total energy              =   -2974.11279004 Ry
     estimated scf accuracy    <       9.26764226 Ry

     iteration # 26     ecut=    29.40 Ry     beta= 0.05
     Davidson diagonalization with overlap
     ethr =  8.39E-04,  avg # of iterations =  1.3

     negative rho (up, down):  1.321E-03 0.000E+00
 
     Adding external electric field

     Computed dipole along edir(3) : 
        Dipole               -1.9664 Ry au,         -4.9981 Debye
        Dipole field         -0.0037 Ry au, 
 
        Potential amp.        0.3440 Ry
        Total length         46.3494 bohr
 

     total cpu time spent up to now is      488.3 secs

     total energy              =   -2974.10278783 Ry
     estimated scf accuracy    <       9.93114126 Ry

     iteration # 27     ecut=    29.40 Ry     beta= 0.05
     Davidson diagonalization with overlap
     ethr =  8.39E-04,  avg # of iterations =  1.1

     negative rho (up, down):  1.517E-03 0.000E+00
 
     Adding external electric field

     Computed dipole along edir(3) : 
        Dipole               -1.3824 Ry au,         -3.5137 Debye
        Dipole field         -0.0026 Ry au, 
 
        Potential amp.        0.2418 Ry
        Total length         46.3494 bohr
 

     total cpu time spent up to now is      498.2 secs

     total energy              =   -2974.11604875 Ry
     estimated scf accuracy    <       7.35017551 Ry

     iteration # 28     ecut=    29.40 Ry     beta= 0.05
     Davidson diagonalization with overlap
     ethr =  8.39E-04,  avg # of iterations =  1.2

     negative rho (up, down):  2.041E-03 0.000E+00
 
     Adding external electric field

     Computed dipole along edir(3) : 
        Dipole               -0.6168 Ry au,         -1.5677 Debye
        Dipole field         -0.0012 Ry au, 
 
        Potential amp.        0.1079 Ry
        Total length         46.3494 bohr
 

     total cpu time spent up to now is      508.3 secs

     total energy              =   -2974.04131761 Ry
     estimated scf accuracy    <       3.23728992 Ry

     iteration # 29     ecut=    29.40 Ry     beta= 0.05
     Davidson diagonalization with overlap
     ethr =  8.03E-04,  avg # of iterations =  7.7

     negative rho (up, down):  2.008E-03 0.000E+00
 
     Adding external electric field

     Computed dipole along edir(3) : 
        Dipole               -0.6021 Ry au,         -1.5303 Debye
        Dipole field         -0.0011 Ry au, 
 
        Potential amp.        0.1053 Ry
        Total length         46.3494 bohr
 

     total cpu time spent up to now is      520.7 secs

     total energy              =   -2974.18585811 Ry
     estimated scf accuracy    <       7.21247580 Ry

     iteration # 30     ecut=    29.40 Ry     beta= 0.05
     Davidson diagonalization with overlap
     ethr =  8.03E-04,  avg # of iterations =  1.3

     negative rho (up, down):  2.033E-03 0.000E+00
 
     Adding external electric field

     Computed dipole along edir(3) : 
        Dipole               -0.5810 Ry au,         -1.4768 Debye
        Dipole field         -0.0011 Ry au, 
 
        Potential amp.        0.1016 Ry
        Total length         46.3494 bohr
 

     total cpu time spent up to now is      530.9 secs

     total energy              =   -2974.19495332 Ry
     estimated scf accuracy    <       7.52872190 Ry

     iteration # 31     ecut=    29.40 Ry     beta= 0.05
     Davidson diagonalization with overlap
     ethr =  8.03E-04,  avg # of iterations =  1.8

     negative rho (up, down):  1.965E-03 0.000E+00
 
     Adding external electric field

     Computed dipole along edir(3) : 
        Dipole               -0.6807 Ry au,         -1.7302 Debye
        Dipole field         -0.0013 Ry au, 
 
        Potential amp.        0.1191 Ry
        Total length         46.3494 bohr
 

     total cpu time spent up to now is      541.0 secs

     total energy              =   -2974.17324899 Ry
     estimated scf accuracy    <       7.37165746 Ry

     iteration # 32     ecut=    29.40 Ry     beta= 0.05
     Davidson diagonalization with overlap
     ethr =  8.03E-04,  avg # of iterations =  1.0

     negative rho (up, down):  1.802E-03 0.000E+00
 
     Adding external electric field

     Computed dipole along edir(3) : 
        Dipole               -0.9469 Ry au,         -2.4067 Debye
        Dipole field         -0.0018 Ry au, 
 
        Potential amp.        0.1656 Ry
        Total length         46.3494 bohr
 

     total cpu time spent up to now is      550.9 secs

     total energy              =   -2974.21954430 Ry
     estimated scf accuracy    <       7.24304074 Ry

     iteration # 33     ecut=    29.40 Ry     beta= 0.05
     Davidson diagonalization with overlap
     ethr =  8.03E-04,  avg # of iterations =  1.1

     negative rho (up, down):  2.472E-03 0.000E+00
 
     Adding external electric field

     Computed dipole along edir(3) : 
        Dipole                0.0908 Ry au,          0.2308 Debye
        Dipole field          0.0002 Ry au, 
 
        Potential amp.       -0.0159 Ry
        Total length         46.3494 bohr
 

     total cpu time spent up to now is      560.9 secs

     total energy              =   -2974.12391439 Ry
     estimated scf accuracy    <       8.04841427 Ry

     iteration # 34     ecut=    29.40 Ry     beta= 0.05
     Davidson diagonalization with overlap
     c_bands:  1 eigenvalues not converged
     ethr =  8.03E-04,  avg # of iterations = 14.4

     negative rho (up, down):  1.540E-03 0.000E+00
 
     Adding external electric field

     Computed dipole along edir(3) : 
        Dipole               -1.3354 Ry au,         -3.3942 Debye
        Dipole field         -0.0025 Ry au, 
 
        Potential amp.        0.2336 Ry
        Total length         46.3494 bohr
 

     total cpu time spent up to now is      575.9 secs

     total energy              =   -2973.23539907 Ry
     estimated scf accuracy    <      29.67347889 Ry

     iteration # 35     ecut=    29.40 Ry     beta= 0.05
     Davidson diagonalization with overlap
     ethr =  8.03E-04,  avg # of iterations =  8.1

     negative rho (up, down):  1.664E-03 0.000E+00
 
     Adding external electric field

     Computed dipole along edir(3) : 
        Dipole               -1.1770 Ry au,         -2.9917 Debye
        Dipole field         -0.0022 Ry au, 
 
        Potential amp.        0.2059 Ry
        Total length         46.3494 bohr
 

     total cpu time spent up to now is      588.5 secs

     total energy              =   -2973.96146138 Ry
     estimated scf accuracy    <       1.47725007 Ry

     iteration # 36     ecut=    29.40 Ry     beta= 0.05
     Davidson diagonalization with overlap
     ethr =  3.67E-04,  avg # of iterations =  5.3

     negative rho (up, down):  2.465E-03 0.000E+00
 
     Adding external electric field

     Computed dipole along edir(3) : 
        Dipole               -0.2531 Ry au,         -0.6434 Debye
        Dipole field         -0.0005 Ry au, 
 
        Potential amp.        0.0443 Ry
        Total length         46.3494 bohr
 

     total cpu time spent up to now is      600.2 secs

     total energy              =   -2973.94374132 Ry
     estimated scf accuracy    <       0.63306179 Ry

     iteration # 37     ecut=    29.40 Ry     beta= 0.05
     Davidson diagonalization with overlap
     ethr =  1.57E-04,  avg # of iterations =  7.5

     negative rho (up, down):  2.507E-03 0.000E+00
 
     Adding external electric field

     Computed dipole along edir(3) : 
        Dipole               -0.2720 Ry au,         -0.6913 Debye
        Dipole field         -0.0005 Ry au, 
 
        Potential amp.        0.0476 Ry
        Total length         46.3494 bohr
 

     total cpu time spent up to now is      613.0 secs

     total energy              =   -2973.98704005 Ry
     estimated scf accuracy    <       0.35336558 Ry

     iteration # 38     ecut=    29.40 Ry     beta= 0.05
     Davidson diagonalization with overlap
     c_bands:  4 eigenvalues not converged
     ethr =  8.77E-05,  avg # of iterations = 11.9

     negative rho (up, down):  2.649E-03 0.000E+00
 
     Adding external electric field

     Computed dipole along edir(3) : 
        Dipole               -0.2659 Ry au,         -0.6758 Debye
        Dipole field         -0.0005 Ry au, 
 
        Potential amp.        0.0465 Ry
        Total length         46.3494 bohr
 

     total cpu time spent up to now is      626.7 secs

     total energy              =   -2973.97612601 Ry
     estimated scf accuracy    <       0.26136833 Ry

     iteration # 39     ecut=    29.40 Ry     beta= 0.05
     Davidson diagonalization with overlap
     c_bands:  2 eigenvalues not converged
     c_bands:  1 eigenvalues not converged
     ethr =  6.49E-05,  avg # of iterations = 15.6

     negative rho (up, down):  3.269E-03 0.000E+00
 
     Adding external electric field

     Computed dipole along edir(3) : 
        Dipole                0.0408 Ry au,          0.1036 Debye
        Dipole field          0.0001 Ry au, 
 
        Potential amp.       -0.0071 Ry
        Total length         46.3494 bohr
 

     total cpu time spent up to now is      642.1 secs

     total energy              =   -2973.97216713 Ry
     estimated scf accuracy    <       0.17424666 Ry

     iteration # 40     ecut=    29.40 Ry     beta= 0.05
     Davidson diagonalization with overlap
     c_bands:  1 eigenvalues not converged
     c_bands:  2 eigenvalues not converged
     c_bands:  3 eigenvalues not converged
     c_bands:  3 eigenvalues not converged
     ethr =  4.32E-05,  avg # of iterations = 13.2

     negative rho (up, down):  4.358E-03 0.000E+00
 
     Adding external electric field

     Computed dipole along edir(3) : 
        Dipole                0.3532 Ry au,          0.8978 Debye
        Dipole field          0.0007 Ry au, 
 
        Potential amp.       -0.0618 Ry
        Total length         46.3494 bohr
 

     total cpu time spent up to now is      656.6 secs

     total energy              =   -2973.97775624 Ry
     estimated scf accuracy    <       0.10655179 Ry

     iteration # 41     ecut=    29.40 Ry     beta= 0.05
     Davidson diagonalization with overlap
     c_bands:  1 eigenvalues not converged
     c_bands:  2 eigenvalues not converged
     c_bands:  2 eigenvalues not converged
     c_bands:  3 eigenvalues not converged
     c_bands:  3 eigenvalues not converged
     c_bands:  1 eigenvalues not converged
     c_bands:  3 eigenvalues not converged
     ethr =  2.64E-05,  avg # of iterations = 19.3

     negative rho (up, down):  4.351E-03 0.000E+00
 
     Adding external electric field

     Computed dipole along edir(3) : 
        Dipole                0.3396 Ry au,          0.8632 Debye
        Dipole field          0.0006 Ry au, 
 
        Potential amp.       -0.0594 Ry
        Total length         46.3494 bohr
 

     total cpu time spent up to now is      676.7 secs

     total energy              =   -2973.98538937 Ry
     estimated scf accuracy    <       0.11765247 Ry

     iteration # 42     ecut=    29.40 Ry     beta= 0.05
     Davidson diagonalization with overlap
     ethr =  2.64E-05,  avg # of iterations =  2.5

     negative rho (up, down):  4.389E-03 0.000E+00
 
     Adding external electric field

     Computed dipole along edir(3) : 
        Dipole                0.3469 Ry au,          0.8818 Debye
        Dipole field          0.0007 Ry au, 
 
        Potential amp.       -0.0607 Ry
        Total length         46.3494 bohr
 

     total cpu time spent up to now is      687.4 secs

     total energy              =   -2973.98453349 Ry
     estimated scf accuracy    <       0.11337495 Ry

     iteration # 43     ecut=    29.40 Ry     beta= 0.05
     Davidson diagonalization with overlap
     ethr =  2.64E-05,  avg # of iterations =  1.0

     negative rho (up, down):  8.043E-03 0.000E+00
 
     Adding external electric field

     Computed dipole along edir(3) : 
        Dipole                0.9077 Ry au,          2.3073 Debye
        Dipole field          0.0017 Ry au, 
 
        Potential amp.       -0.1588 Ry
        Total length         46.3494 bohr
 

     total cpu time spent up to now is      697.3 secs

     total energy              =   -2973.96589119 Ry
     estimated scf accuracy    <       0.11163416 Ry

     iteration # 44     ecut=    29.40 Ry     beta= 0.05
     Davidson diagonalization with overlap
     c_bands:  1 eigenvalues not converged
     c_bands:  2 eigenvalues not converged
     c_bands:  1 eigenvalues not converged
     ethr =  2.64E-05,  avg # of iterations = 16.3

     negative rho (up, down):  6.747E-03 0.000E+00
 
     Adding external electric field

     Computed dipole along edir(3) : 
        Dipole                0.7973 Ry au,          2.0264 Debye
        Dipole field          0.0015 Ry au, 
 
        Potential amp.       -0.1395 Ry
        Total length         46.3494 bohr
 

     total cpu time spent up to now is      714.5 secs

     total energy              =   -2973.97638949 Ry
     estimated scf accuracy    <       0.18262775 Ry

     iteration # 45     ecut=    29.40 Ry     beta= 0.05
     Davidson diagonalization with overlap
     ethr =  2.64E-05,  avg # of iterations =  5.6

     negative rho (up, down):  6.977E-03 0.000E+00
 
     Adding external electric field

     Computed dipole along edir(3) : 
        Dipole                0.7952 Ry au,          2.0211 Debye
        Dipole field          0.0015 Ry au, 
 
        Potential amp.       -0.1391 Ry
        Total length         46.3494 bohr
 

     total cpu time spent up to now is      726.0 secs

     total energy              =   -2973.97472529 Ry
     estimated scf accuracy    <       0.07408497 Ry

     iteration # 46     ecut=    29.40 Ry     beta= 0.05
     Davidson diagonalization with overlap
     ethr =  1.84E-05,  avg # of iterations =  7.1

     negative rho (up, down):  9.402E-03 0.000E+00
 
     Adding external electric field

     Computed dipole along edir(3) : 
        Dipole                0.8770 Ry au,          2.2292 Debye
        Dipole field          0.0017 Ry au, 
 
        Potential amp.       -0.1534 Ry
        Total length         46.3494 bohr
 

     total cpu time spent up to now is      738.0 secs

     total energy              =   -2973.97281177 Ry
     estimated scf accuracy    <       0.03752072 Ry

     iteration # 47     ecut=    29.40 Ry     beta= 0.05
     Davidson diagonalization with overlap
     c_bands:  1 eigenvalues not converged
     ethr =  9.31E-06,  avg # of iterations = 14.1

     negative rho (up, down):  1.104E-02 0.000E+00
 
     Adding external electric field

     Computed dipole along edir(3) : 
        Dipole                0.9047 Ry au,          2.2994 Debye
        Dipole field          0.0017 Ry au, 
 
        Potential amp.       -0.1583 Ry
        Total length         46.3494 bohr
 

     total cpu time spent up to now is      753.3 secs

     total energy              =   -2973.97527636 Ry
     estimated scf accuracy    <       0.00895365 Ry

     iteration # 48     ecut=    29.40 Ry     beta= 0.05
     Davidson diagonalization with overlap
     c_bands:  4 eigenvalues not converged
     c_bands:  1 eigenvalues not converged
     c_bands:  2 eigenvalues not converged
     c_bands:  2 eigenvalues not converged
     c_bands:  1 eigenvalues not converged
     c_bands:  2 eigenvalues not converged
     ethr =  2.22E-06,  avg # of iterations = 17.0

     negative rho (up, down):  1.137E-02 0.000E+00
 
     Adding external electric field

     Computed dipole along edir(3) : 
        Dipole                0.8973 Ry au,          2.2807 Debye
        Dipole field          0.0017 Ry au, 
 
        Potential amp.       -0.1570 Ry
        Total length         46.3494 bohr
 

     total cpu time spent up to now is      771.7 secs

     total energy              =   -2973.97580882 Ry
     estimated scf accuracy    <       0.00926655 Ry

     iteration # 49     ecut=    29.40 Ry     beta= 0.05
     Davidson diagonalization with overlap
     c_bands:  1 eigenvalues not converged
     ethr =  2.22E-06,  avg # of iterations = 12.4

     negative rho (up, down):  1.175E-02 0.000E+00
 
     Adding external electric field

     Computed dipole along edir(3) : 
        Dipole                0.9016 Ry au,          2.2916 Debye
        Dipole field          0.0017 Ry au, 
 
        Potential amp.       -0.1577 Ry
        Total length         46.3494 bohr
 

     total cpu time spent up to now is      785.7 secs

     total energy              =   -2973.97611920 Ry
     estimated scf accuracy    <       0.00308699 Ry

     iteration # 50     ecut=    29.40 Ry     beta= 0.05
     Davidson diagonalization with overlap
     c_bands:  1 eigenvalues not converged
     ethr =  7.66E-07,  avg # of iterations = 10.0

     negative rho (up, down):  1.378E-02 0.000E+00
 
     Adding external electric field

     Computed dipole along edir(3) : 
        Dipole                0.8958 Ry au,          2.2768 Debye
        Dipole field          0.0017 Ry au, 
 
        Potential amp.       -0.1567 Ry
        Total length         46.3494 bohr
 

     total cpu time spent up to now is      798.5 secs

     total energy              =   -2973.97580415 Ry
     estimated scf accuracy    <       0.00228737 Ry

     iteration # 51     ecut=    29.40 Ry     beta= 0.05
     Davidson diagonalization with overlap
     c_bands:  3 eigenvalues not converged
     c_bands:  1 eigenvalues not converged
     c_bands:  1 eigenvalues not converged
     ethr =  5.68E-07,  avg # of iterations = 14.8

     negative rho (up, down):  1.487E-02 0.000E+00
 
     Adding external electric field

     Computed dipole along edir(3) : 
        Dipole                0.9156 Ry au,          2.3272 Debye
        Dipole field          0.0017 Ry au, 
 
        Potential amp.       -0.1602 Ry
        Total length         46.3494 bohr
 

     total cpu time spent up to now is      818.2 secs

     total energy              =   -2973.97601041 Ry
     estimated scf accuracy    <       0.00338609 Ry

     iteration # 52     ecut=    29.40 Ry     beta= 0.05
     Davidson diagonalization with overlap
     c_bands:  1 eigenvalues not converged
     ethr =  5.68E-07,  avg # of iterations = 12.5

     negative rho (up, down):  1.656E-02 0.000E+00
 
     Adding external electric field

     Computed dipole along edir(3) : 
        Dipole                0.9447 Ry au,          2.4012 Debye
        Dipole field          0.0018 Ry au, 
 
        Potential amp.       -0.1653 Ry
        Total length         46.3494 bohr
 

     total cpu time spent up to now is      832.7 secs

     total energy              =   -2973.97613566 Ry
     estimated scf accuracy    <       0.00133166 Ry

     iteration # 53     ecut=    29.40 Ry     beta= 0.05
     Davidson diagonalization with overlap
     ethr =  3.30E-07,  avg # of iterations = 10.9

     negative rho (up, down):  1.647E-02 0.000E+00
 
     Adding external electric field

     Computed dipole along edir(3) : 
        Dipole                0.9327 Ry au,          2.3706 Debye
        Dipole field          0.0018 Ry au, 
 
        Potential amp.       -0.1632 Ry
        Total length         46.3494 bohr
 

     total cpu time spent up to now is      851.6 secs

     total energy              =   -2973.97629331 Ry
     estimated scf accuracy    <       0.00124461 Ry

     iteration # 54     ecut=    29.40 Ry     beta= 0.05
     Davidson diagonalization with overlap
     ethr =  3.09E-07,  avg # of iterations =  4.3

     negative rho (up, down):  1.643E-02 0.000E+00
 
     Adding external electric field

     Computed dipole along edir(3) : 
        Dipole                0.8931 Ry au,          2.2699 Debye
        Dipole field          0.0017 Ry au, 
 
        Potential amp.       -0.1562 Ry
        Total length         46.3494 bohr
 

     total cpu time spent up to now is      862.7 secs

     total energy              =   -2973.97607220 Ry
     estimated scf accuracy    <       0.00060294 Ry

     iteration # 55     ecut=    29.40 Ry     beta= 0.05
     Davidson diagonalization with overlap
     ethr =  1.50E-07,  avg # of iterations = 14.5

     negative rho (up, down):  1.692E-02 0.000E+00
 
     Adding external electric field

     Computed dipole along edir(3) : 
        Dipole                0.9113 Ry au,          2.3163 Debye
        Dipole field          0.0017 Ry au, 
 
        Potential amp.       -0.1594 Ry
        Total length         46.3494 bohr
 

     total cpu time spent up to now is      886.7 secs

     total energy              =   -2973.97623485 Ry
     estimated scf accuracy    <       0.00191309 Ry

     iteration # 56     ecut=    29.40 Ry     beta= 0.05
     Davidson diagonalization with overlap
     ethr =  1.50E-07,  avg # of iterations =  8.4

     negative rho (up, down):  1.698E-02 0.000E+00
 
     Adding external electric field

     Computed dipole along edir(3) : 
        Dipole                0.9110 Ry au,          2.3156 Debye
        Dipole field          0.0017 Ry au, 
 
        Potential amp.       -0.1594 Ry
        Total length         46.3494 bohr
 

     total cpu time spent up to now is      901.0 secs

     total energy              =   -2973.97626228 Ry
     estimated scf accuracy    <       0.00045303 Ry

     iteration # 57     ecut=    29.40 Ry     beta= 0.05
     Davidson diagonalization with overlap
     ethr =  1.12E-07,  avg # of iterations =  8.1

     negative rho (up, down):  1.707E-02 0.000E+00
 
     Adding external electric field

     Computed dipole along edir(3) : 
        Dipole                0.9088 Ry au,          2.3099 Debye
        Dipole field          0.0017 Ry au, 
 
        Potential amp.       -0.1590 Ry
        Total length         46.3494 bohr
 

     total cpu time spent up to now is      916.4 secs

     total energy              =   -2973.97633797 Ry
     estimated scf accuracy    <       0.00010124 Ry

     iteration # 58     ecut=    29.40 Ry     beta= 0.05
     Davidson diagonalization with overlap
     ethr =  2.51E-08,  avg # of iterations = 13.0

     negative rho (up, down):  1.713E-02 0.000E+00
 
     Adding external electric field

     Computed dipole along edir(3) : 
        Dipole                0.9120 Ry au,          2.3181 Debye
        Dipole field          0.0017 Ry au, 
 
        Potential amp.       -0.1595 Ry
        Total length         46.3494 bohr
 

     total cpu time spent up to now is      933.9 secs

     total energy              =   -2973.97635712 Ry
     estimated scf accuracy    <       0.00005521 Ry

     iteration # 59     ecut=    29.40 Ry     beta= 0.05
     Davidson diagonalization with overlap
     ethr =  1.37E-08,  avg # of iterations = 11.2

     negative rho (up, down):  1.710E-02 0.000E+00
 
     Adding external electric field

     Computed dipole along edir(3) : 
        Dipole                0.9094 Ry au,          2.3116 Debye
        Dipole field          0.0017 Ry au, 
 
        Potential amp.       -0.1591 Ry
        Total length         46.3494 bohr
 

     total cpu time spent up to now is      950.5 secs

     total energy              =   -2973.97637387 Ry
     estimated scf accuracy    <       0.00004099 Ry

     iteration # 60     ecut=    29.40 Ry     beta= 0.05
     Davidson diagonalization with overlap
     ethr =  1.02E-08,  avg # of iterations =  2.8

     negative rho (up, down):  1.684E-02 0.000E+00
 
     Adding external electric field

     Computed dipole along edir(3) : 
        Dipole                0.9048 Ry au,          2.2997 Debye
        Dipole field          0.0017 Ry au, 
 
        Potential amp.       -0.1583 Ry
        Total length         46.3494 bohr
 

     total cpu time spent up to now is      961.6 secs

     total energy              =   -2973.97637751 Ry
     estimated scf accuracy    <       0.00002661 Ry

     iteration # 61     ecut=    29.40 Ry     beta= 0.05
     Davidson diagonalization with overlap
     ethr =  6.60E-09,  avg # of iterations =  7.4

     negative rho (up, down):  1.682E-02 0.000E+00
 
     Adding external electric field

     Computed dipole along edir(3) : 
        Dipole                0.9086 Ry au,          2.3095 Debye
        Dipole field          0.0017 Ry au, 
 
        Potential amp.       -0.1590 Ry
        Total length         46.3494 bohr
 

     total cpu time spent up to now is      975.2 secs

     total energy              =   -2973.97638827 Ry
     estimated scf accuracy    <       0.00001719 Ry

     iteration # 62     ecut=    29.40 Ry     beta= 0.05
     Davidson diagonalization with overlap
     ethr =  4.26E-09,  avg # of iterations =  9.5

     negative rho (up, down):  1.680E-02 0.000E+00
 
     Adding external electric field

     Computed dipole along edir(3) : 
        Dipole                0.9072 Ry au,          2.3060 Debye
        Dipole field          0.0017 Ry au, 
 
        Potential amp.       -0.1587 Ry
        Total length         46.3494 bohr
 

     total cpu time spent up to now is      990.0 secs

     total energy              =   -2973.97639620 Ry
     estimated scf accuracy    <       0.00001750 Ry

     iteration # 63     ecut=    29.40 Ry     beta= 0.05
     Davidson diagonalization with overlap
     ethr =  4.26E-09,  avg # of iterations =  4.0

     negative rho (up, down):  1.680E-02 0.000E+00
 
     Adding external electric field

     Computed dipole along edir(3) : 
        Dipole                0.9059 Ry au,          2.3025 Debye
        Dipole field          0.0017 Ry au, 
 
        Potential amp.       -0.1585 Ry
        Total length         46.3494 bohr
 

     total cpu time spent up to now is     1001.3 secs

     total energy              =   -2973.97640094 Ry
     estimated scf accuracy    <       0.00000807 Ry

     iteration # 64     ecut=    29.40 Ry     beta= 0.05
     Davidson diagonalization with overlap
     ethr =  2.00E-09,  avg # of iterations = 12.8

     negative rho (up, down):  1.685E-02 0.000E+00
 
     Adding external electric field

     Computed dipole along edir(3) : 
        Dipole                0.9077 Ry au,          2.3070 Debye
        Dipole field          0.0017 Ry au, 
 
        Potential amp.       -0.1588 Ry
        Total length         46.3494 bohr
 

     total cpu time spent up to now is     1021.1 secs

     total energy              =   -2973.97640874 Ry
     estimated scf accuracy    <       0.00000789 Ry

     iteration # 65     ecut=    29.40 Ry     beta= 0.05
     Davidson diagonalization with overlap
     ethr =  1.96E-09,  avg # of iterations =  6.6

     negative rho (up, down):  1.684E-02 0.000E+00
 
     Adding external electric field

     Computed dipole along edir(3) : 
        Dipole                0.9072 Ry au,          2.3059 Debye
        Dipole field          0.0017 Ry au, 
 
        Potential amp.       -0.1587 Ry
        Total length         46.3494 bohr
 

     total cpu time spent up to now is     1033.8 secs

     total energy              =   -2973.97641507 Ry
     estimated scf accuracy    <       0.00000263 Ry

     iteration # 66     ecut=    29.40 Ry     beta= 0.05
     Davidson diagonalization with overlap
     ethr =  6.51E-10,  avg # of iterations =  8.8

     negative rho (up, down):  1.682E-02 0.000E+00
 
     Adding external electric field

     Computed dipole along edir(3) : 
        Dipole                0.9069 Ry au,          2.3051 Debye
        Dipole field          0.0017 Ry au, 
 
        Potential amp.       -0.1587 Ry
        Total length         46.3494 bohr
 

     total cpu time spent up to now is     1051.4 secs

     total energy              =   -2973.97641993 Ry
     estimated scf accuracy    <       0.00000257 Ry

     iteration # 67     ecut=    29.40 Ry     beta= 0.05
     Davidson diagonalization with overlap
     ethr =  6.37E-10,  avg # of iterations =  5.0

     negative rho (up, down):  1.683E-02 0.000E+00
 
     Adding external electric field

     Computed dipole along edir(3) : 
        Dipole                0.9074 Ry au,          2.3063 Debye
        Dipole field          0.0017 Ry au, 
 
        Potential amp.       -0.1587 Ry
        Total length         46.3494 bohr
 

     total cpu time spent up to now is     1063.2 secs

     total energy              =   -2973.97642415 Ry
     estimated scf accuracy    <       0.00000107 Ry

     iteration # 68     ecut=    29.40 Ry     beta= 0.05
     Davidson diagonalization with overlap
     c_bands:  1 eigenvalues not converged
     ethr =  2.66E-10,  avg # of iterations = 13.0

     negative rho (up, down):  1.686E-02 0.000E+00
 
     Adding external electric field

     Computed dipole along edir(3) : 
        Dipole                0.9080 Ry au,          2.3080 Debye
        Dipole field          0.0017 Ry au, 
 
        Potential amp.       -0.1588 Ry
        Total length         46.3494 bohr
 

     total cpu time spent up to now is     1081.9 secs

     total energy              =   -2973.97642823 Ry
     estimated scf accuracy    <       0.00000132 Ry

     iteration # 69     ecut=    29.40 Ry     beta= 0.05
     Davidson diagonalization with overlap
     ethr =  2.66E-10,  avg # of iterations =  8.7

     negative rho (up, down):  1.689E-02 0.000E+00
 
     Adding external electric field

     Computed dipole along edir(3) : 
        Dipole                0.9075 Ry au,          2.3066 Debye
        Dipole field          0.0017 Ry au, 
 
        Potential amp.       -0.1588 Ry
        Total length         46.3494 bohr
 

     total cpu time spent up to now is     1099.0 secs

     total energy              =   -2973.97643190 Ry
     estimated scf accuracy    <       0.00000085 Ry

     iteration # 70     ecut=    29.40 Ry     beta= 0.05
     Davidson diagonalization with overlap
     ethr =  2.11E-10,  avg # of iterations =  9.0

     negative rho (up, down):  1.689E-02 0.000E+00
 
     Adding external electric field

     Computed dipole along edir(3) : 
        Dipole                0.9079 Ry au,          2.3075 Debye
        Dipole field          0.0017 Ry au, 
 
        Potential amp.       -0.1588 Ry
        Total length         46.3494 bohr
 

     total cpu time spent up to now is     1116.2 secs

     total energy              =   -2973.97643512 Ry
     estimated scf accuracy    <       0.00000075 Ry

     iteration # 71     ecut=    29.40 Ry     beta= 0.05
     Davidson diagonalization with overlap
     ethr =  1.86E-10,  avg # of iterations =  2.3

     negative rho (up, down):  1.692E-02 0.000E+00
 
     Adding external electric field

     Computed dipole along edir(3) : 
        Dipole                0.9086 Ry au,          2.3093 Debye
        Dipole field          0.0017 Ry au, 
 
        Potential amp.       -0.1589 Ry
        Total length         46.3494 bohr
 

     total cpu time spent up to now is     1127.1 secs

     total energy              =   -2973.97643779 Ry
     estimated scf accuracy    <       0.00000038 Ry

     iteration # 72     ecut=    29.40 Ry     beta= 0.05
     Davidson diagonalization with overlap
     ethr =  9.39E-11,  avg # of iterations = 12.4

     negative rho (up, down):  1.692E-02 0.000E+00
 
     Adding external electric field

     Computed dipole along edir(3) : 
        Dipole                0.9080 Ry au,          2.3080 Debye
        Dipole field          0.0017 Ry au, 
 
        Potential amp.       -0.1588 Ry
        Total length         46.3494 bohr
 

     total cpu time spent up to now is     1146.1 secs

     total energy              =   -2973.97644040 Ry
     estimated scf accuracy    <       0.00000039 Ry

     iteration # 73     ecut=    29.40 Ry     beta= 0.05
     Davidson diagonalization with overlap
     ethr =  9.39E-11,  avg # of iterations =  9.1

     negative rho (up, down):  1.693E-02 0.000E+00
 
     Adding external electric field

     Computed dipole along edir(3) : 
        Dipole                0.9084 Ry au,          2.3089 Debye
        Dipole field          0.0017 Ry au, 
 
        Potential amp.       -0.1589 Ry
        Total length         46.3494 bohr
 

     total cpu time spent up to now is     1160.9 secs

     total energy              =   -2973.97644267 Ry
     estimated scf accuracy    <       0.00000018 Ry

     iteration # 74     ecut=    29.40 Ry     beta= 0.05
     Davidson diagonalization with overlap
     ethr =  4.51E-11,  avg # of iterations =  9.2

     negative rho (up, down):  1.699E-02 0.000E+00
 
     Adding external electric field

     Computed dipole along edir(3) : 
        Dipole                0.9069 Ry au,          2.3052 Debye
        Dipole field          0.0017 Ry au, 
 
        Potential amp.       -0.1587 Ry
        Total length         46.3494 bohr
 

     total cpu time spent up to now is     1177.2 secs

     End of self-consistent calculation

          k = 0.0000 0.0000 0.0000 ( 18029 PWs)   bands (ev):

   -55.6372 -55.6031 -55.5188 -55.4829 -55.4765 -55.4635 -55.4417 -55.4297
   -55.4247 -55.4072 -55.3906 -55.3900 -55.3563 -55.2388 -54.6232 -54.5892
   -32.1230 -32.0246 -31.9710 -31.9655 -31.9577 -31.9284 -31.9145 -31.8961
   -31.8829 -31.7898 -31.7836 -31.7776 -31.7500 -31.7448 -31.7394 -31.7050
   -31.6946 -31.6814 -31.6763 -31.6684 -31.6617 -31.6600 -31.6444 -31.6414
   -31.6351 -31.6252 -31.6233 -31.6188 -31.6133 -31.6075 -31.6025 -31.5932
   -31.5834 -31.5810 -31.5806 -31.5783 -31.5727 -31.5375 -31.5300 -31.5139
   -31.4395 -31.3673 -31.0301 -30.9417 -30.9194 -30.8471 -30.7607 -30.6493
   -18.4384 -17.7330 -16.3002 -16.1095 -15.8842 -15.7824 -15.7425 -15.5692
   -15.4387 -15.3959 -15.2695 -15.2037 -15.1802 -15.1613 -15.1474 -15.1146
   -15.0916 -15.0677 -15.0660 -15.0467 -15.0220 -14.9993 -14.9714 -14.9536
   -14.9112 -14.7857 -14.7775 -14.7662 -14.7283 -14.6909 -14.2915 -13.1230
   -13.0064 -12.3582  -7.9057  -6.2076  -5.4115  -4.8356  -3.6715  -3.5797
    -3.5472  -3.5232  -3.4458  -3.3264  -3.2294  -3.0353  -2.9262  -2.8964
    -2.8750  -2.7887  -2.7068  -2.6658  -2.5631  -2.5309  -2.5204  -2.4760
    -2.4212  -2.4062  -2.3762  -2.3629  -2.3270  -2.1940  -2.1749  -2.1365
    -2.0253  -2.0087  -2.0006  -1.9584  -1.9549  -1.9244  -1.9139  -1.8961
    -1.8793  -1.8676  -1.8001  -1.7179  -1.6861  -1.6367  -1.5816  -1.5764
    -1.2741  -1.2577  -1.1903  -1.1588  -1.0882  -1.0545  -1.0405  -1.0257
    -0.9938  -0.8936  -0.8046  -0.7854  -0.7221  -0.6610  -0.5617  -0.5474
    -0.4469  -0.3977  -0.3921  -0.3792  -0.3466  -0.2882  -0.2315  -0.1752
    -0.1251  -0.0423   0.0119   0.0211   0.0628   0.1069   0.1364   0.1945
     0.2569   0.2842   0.3173   0.3325   0.3738   0.4341   0.4553   0.4681
     0.5464   0.5871   0.6122   0.7101   0.7189   0.7580   0.8300   1.0147
     1.0605   1.1997   1.3384   1.4018   1.4673   1.5938   1.8737   1.9719
     2.0180   3.4530   3.5869   3.6079   3.6435   3.7152   3.7617   3.9347
     4.0303   4.0523   4.1132

          k = 0.0000 0.0419 0.0000 ( 17933 PWs)   bands (ev):

   -55.6321 -55.6080 -55.5137 -55.4879 -55.4714 -55.4585 -55.4467 -55.4345
   -55.4198 -55.4061 -55.3953 -55.3851 -55.3612 -55.2397 -54.6181 -54.5941
   -32.0690 -31.9691 -31.9274 -31.9235 -31.9227 -31.9155 -31.8733 -31.8607
   -31.8424 -31.8014 -31.7760 -31.7701 -31.7637 -31.7370 -31.7312 -31.7085
   -31.7036 -31.6946 -31.6923 -31.6784 -31.6746 -31.6729 -31.6531 -31.6419
   -31.6382 -31.6371 -31.6333 -31.6261 -31.6227 -31.6203 -31.6162 -31.6105
   -31.6035 -31.5983 -31.5941 -31.5932 -31.5842 -31.5786 -31.5675 -31.5308
   -31.4380 -31.4054 -30.9760 -30.9383 -30.9224 -30.8345 -30.7732 -30.7064
   -18.4352 -17.7338 -16.1707 -15.9969 -15.7777 -15.6861 -15.6645 -15.5130
   -15.4348 -15.3643 -15.3400 -15.2286 -15.1614 -15.1555 -15.1320 -15.1211
   -15.1085 -15.0807 -15.0747 -15.0530 -15.0354 -15.0285 -14.9995 -14.9558
   -14.9490 -14.8416 -14.8309 -14.8205 -14.7854 -14.7503 -14.4141 -13.1270
   -13.0459 -12.3611  -7.9098  -6.2047  -5.4105  -4.8281  -3.4817  -3.4088
    -3.3728  -3.3583  -3.3109  -3.2031  -3.0852  -2.9029  -2.8414  -2.8109
    -2.7869  -2.7178  -2.6759  -2.6173  -2.6107  -2.5647  -2.5571  -2.4866
    -2.4642  -2.4537  -2.4189  -2.3789  -2.3628  -2.3161  -2.3076  -2.2749
    -2.2374  -2.1677  -2.1293  -2.1128  -2.0926  -2.0597  -1.9970  -1.9385
    -1.8929  -1.8341  -1.8174  -1.6843  -1.6397  -1.5497  -1.4134  -1.3680
    -1.3384  -1.2989  -1.2066  -1.0588  -1.0032  -0.9099  -0.8551  -0.8469
    -0.8189  -0.7390  -0.6872  -0.6600  -0.6068  -0.5964  -0.5729  -0.5464
    -0.5000  -0.4737  -0.4515  -0.4126  -0.3863  -0.3250  -0.2719  -0.2406
    -0.1711  -0.1592  -0.1206  -0.0692  -0.0107   0.0494   0.1078   0.1338
     0.1798   0.2039   0.2200   0.2317   0.2627   0.3694   0.4151   0.4783
     0.5011   0.5546   0.5866   0.6196   0.6671   0.6903   0.7334   0.7724
     0.9348   1.0181   1.0400   1.3610   1.5901   1.6789   1.8343   1.9269
     1.9298   3.6771   3.6871   3.8378   3.8492   3.8757   3.8892   3.9322
     4.0072   4.0242   4.0529

          k = 0.0000-0.0839 0.0000 ( 17884 PWs)   bands (ev):

   -55.6201 -55.6200 -55.5041 -55.4974 -55.4610 -55.4571 -55.4466 -55.4462
   -55.4104 -55.4051 -55.4047 -55.3744 -55.3719 -55.2405 -54.6062 -54.6059
   -31.9367 -31.9366 -31.9138 -31.9137 -31.8830 -31.8470 -31.8183 -31.7877
   -31.7768 -31.7721 -31.7640 -31.7424 -31.7422 -31.7382 -31.7352 -31.7323
   -31.7269 -31.7247 -31.7235 -31.7136 -31.7090 -31.7065 -31.7065 -31.7050
   -31.6811 -31.6697 -31.6389 -31.6322 -31.6314 -31.6306 -31.6237 -31.6229
   -31.6180 -31.6153 -31.6132 -31.6066 -31.5950 -31.5923 -31.5752 -31.5324
   -31.4500 -31.4363 -30.9302 -30.9300 -30.8431 -30.8429 -30.8039 -30.8038
   -18.4321 -17.7348 -15.9336 -15.7821 -15.7451 -15.6227 -15.5253 -15.4841
   -15.4650 -15.4054 -15.3858 -15.3246 -15.3062 -15.2267 -15.1629 -15.1248
   -15.0458 -15.0389 -15.0217 -14.9853 -14.9828 -14.9786 -14.9770 -14.9564
   -14.9470 -14.9250 -14.9227 -14.8978 -14.8873 -14.7707 -14.6478 -13.1087
   -13.1085 -12.3639  -7.9140  -6.2018  -5.4095  -4.8206  -3.1902  -3.0878
    -3.0346  -3.0116  -2.9921  -2.9888  -2.9369  -2.9354  -2.9272  -2.9145
    -2.8308  -2.7518  -2.7364  -2.7048  -2.6713  -2.6643  -2.6459  -2.6194
    -2.6002  -2.5683  -2.5601  -2.4898  -2.4412  -2.4008  -2.3705  -2.3231
    -2.2604  -2.2328  -2.2080  -2.1820  -1.9994  -1.9796  -1.8909  -1.8475
    -1.7547  -1.6717  -1.6475  -1.5787  -1.5167  -1.4576  -1.3428  -1.3158
    -1.2935  -1.2296  -1.1780  -1.0830  -1.0642  -1.0468  -1.0118  -0.9917
    -0.9731  -0.9410  -0.9364  -0.8908  -0.7314  -0.7011  -0.5937  -0.4445
    -0.3638  -0.3351  -0.2861  -0.2575  -0.2491  -0.2288  -0.1411  -0.1335
    -0.1057  -0.0928  -0.0801  -0.0568  -0.0305   0.0210   0.0578   0.0710
     0.0840   0.1301   0.1432   0.1600   0.1720   0.2075   0.2232   0.2572
     0.3491   0.3762   0.4552   0.5270   0.5982   0.6027   0.6753   0.6973
     0.9025   0.9462   1.0767   1.1356   1.7336   1.7351   1.8099   1.8628
     1.8633   3.8181   3.8838   3.9310   3.9376   3.9389   4.0350   4.0546
     4.1088   4.1500   4.1566

          k = 0.0380 0.0000 0.0000 ( 17913 PWs)   bands (ev):

   -55.6371 -55.6030 -55.5186 -55.4828 -55.4765 -55.4632 -55.4416 -55.4296
   -55.4247 -55.4069 -55.3905 -55.3900 -55.3562 -55.2387 -54.6231 -54.5891
   -32.1238 -32.0248 -31.9752 -31.9657 -31.9579 -31.9282 -31.9195 -31.8992
   -31.8828 -31.7869 -31.7830 -31.7580 -31.7445 -31.7393 -31.7298 -31.6944
   -31.6895 -31.6797 -31.6721 -31.6682 -31.6612 -31.6592 -31.6546 -31.6446
   -31.6355 -31.6283 -31.6257 -31.6226 -31.6184 -31.6131 -31.6076 -31.5930
   -31.5850 -31.5811 -31.5806 -31.5762 -31.5721 -31.5377 -31.5312 -31.5139
   -31.4430 -31.3672 -31.0296 -30.9451 -30.9174 -30.8469 -30.7606 -30.6491
   -18.4374 -17.7324 -16.2113 -16.0198 -15.8172 -15.7692 -15.6807 -15.6004
   -15.4485 -15.4063 -15.3339 -15.2992 -15.2784 -15.2722 -15.2698 -15.2048
   -15.1787 -15.0720 -15.0491 -14.9593 -14.9217 -14.9040 -14.8872 -14.8525
   -14.8417 -14.8302 -14.8118 -14.7970 -14.7717 -14.7536 -14.2919 -13.1198
   -13.0061 -12.3637  -7.8846  -6.2095  -5.4318  -4.7924  -3.5091  -3.4220
    -3.3350  -3.2957  -3.2731  -3.2697  -3.1773  -3.0528  -3.0128  -2.9572
    -2.9345  -2.8736  -2.8367  -2.7235  -2.6902  -2.6155  -2.5904  -2.4648
    -2.3714  -2.3160  -2.2758  -2.2316  -2.2041  -2.1738  -2.1224  -2.0612
    -2.0288  -2.0187  -2.0032  -1.9794  -1.9614  -1.9311  -1.9215  -1.9101
    -1.8380  -1.7765  -1.7086  -1.6078  -1.5649  -1.5106  -1.4700  -1.4129
    -1.4029  -1.2516  -1.2226  -1.1364  -1.1239  -1.0983  -1.0750  -1.0227
    -1.0017  -0.9561  -0.9079  -0.8937  -0.8369  -0.7818  -0.7356  -0.6189
    -0.5230  -0.4718  -0.3934  -0.3589  -0.3069  -0.2806  -0.2131  -0.1986
    -0.1355  -0.0731  -0.0054   0.0377   0.0635   0.0821   0.0930   0.1264
     0.1686   0.1998   0.2345   0.2768   0.3112   0.3243   0.3698   0.4002
     0.4591   0.5316   0.5604   0.5841   0.6980   0.7378   0.7837   0.8867
     1.0451   1.0569   1.3282   1.3541   1.4136   1.5633   1.8603   1.8677
     1.9358   3.4696   3.5508   3.8432   3.8469   3.9034   3.9140   3.9227
     3.9347   3.9505   4.0272

          k = 0.0380 0.0419 0.0000 ( 17878 PWs)   bands (ev):

   -55.6321 -55.6080 -55.5135 -55.4878 -55.4714 -55.4583 -55.4466 -55.4345
   -55.4198 -55.4059 -55.3953 -55.3851 -55.3612 -55.2396 -54.6181 -54.5940
   -32.0698 -31.9693 -31.9277 -31.9233 -31.9229 -31.9199 -31.8735 -31.8665
   -31.8458 -31.8015 -31.7734 -31.7695 -31.7471 -31.7311 -31.7200 -31.7082
   -31.7028 -31.6840 -31.6816 -31.6766 -31.6729 -31.6635 -31.6613 -31.6511
   -31.6396 -31.6382 -31.6321 -31.6269 -31.6239 -31.6228 -31.6216 -31.6160
   -31.6118 -31.5982 -31.5930 -31.5899 -31.5884 -31.5846 -31.5645 -31.5332
   -31.4421 -31.4053 -30.9756 -30.9409 -30.9214 -30.8344 -30.7733 -30.7063
   -18.4346 -17.7330 -16.0904 -15.9173 -15.7392 -15.6670 -15.5798 -15.5390
   -15.4309 -15.3874 -15.3480 -15.2996 -15.2754 -15.2378 -15.2075 -15.1525
   -15.1253 -15.0874 -15.0757 -15.0127 -14.9885 -14.9753 -14.9580 -14.9248
   -14.8934 -14.8848 -14.8647 -14.8446 -14.8151 -14.8050 -14.4161 -13.1248
   -13.0462 -12.3664  -7.8863  -6.2000  -5.4399  -4.7959  -3.3482  -3.2822
    -3.1871  -3.1435  -3.1131  -3.0975  -3.0280  -2.9379  -2.8563  -2.8371
    -2.7649  -2.7493  -2.6997  -2.6010  -2.5643  -2.5362  -2.5181  -2.4745
    -2.4457  -2.3902  -2.3644  -2.3488  -2.3319  -2.3114  -2.2980  -2.2718
    -2.2188  -2.1808  -2.1374  -2.0922  -2.0739  -2.0090  -1.9471  -1.9239
    -1.8875  -1.7535  -1.7334  -1.6539  -1.6247  -1.5560  -1.4564  -1.3612
    -1.3333  -1.2405  -1.1280  -1.0686  -1.0430  -1.0083  -0.9796  -0.9232
    -0.8716  -0.8404  -0.8237  -0.7647  -0.7518  -0.6937  -0.6445  -0.5961
    -0.5555  -0.5081  -0.4542  -0.4374  -0.4161  -0.3510  -0.3458  -0.2814
    -0.2653  -0.2450  -0.1913  -0.1500  -0.1213  -0.0644  -0.0523   0.0131
     0.0676   0.1004   0.1323   0.1631   0.2253   0.3201   0.3687   0.4254
     0.5040   0.5523   0.5990   0.6428   0.6660   0.7384   0.7627   0.7998
     0.9039   0.9740   1.0507   1.2869   1.6005   1.6821   1.8390   1.8494
     1.9105   3.6665   3.6769   3.8644   3.8780   3.9413   3.9766   4.0203
     4.0566   4.0640   4.0878

          k = 0.0380-0.0839 0.0000 ( 17916 PWs)   bands (ev):

   -55.6201 -55.6200 -55.5041 -55.4974 -55.4611 -55.4572 -55.4466 -55.4462
   -55.4105 -55.4050 -55.4047 -55.3744 -55.3720 -55.2406 -54.6062 -54.6060
   -31.9375 -31.9374 -31.9139 -31.9137 -31.8833 -31.8475 -31.8188 -31.7945
   -31.7840 -31.7741 -31.7652 -31.7465 -31.7424 -31.7411 -31.7407 -31.7313
   -31.7303 -31.7168 -31.7134 -31.7121 -31.7090 -31.7063 -31.6817 -31.6814
   -31.6803 -31.6536 -31.6438 -31.6378 -31.6346 -31.6313 -31.6283 -31.6221
   -31.6183 -31.6156 -31.6131 -31.6064 -31.6053 -31.6036 -31.5795 -31.5354
   -31.4497 -31.4413 -30.9312 -30.9310 -30.8430 -30.8428 -30.8040 -30.8038
   -18.4316 -17.7341 -15.8958 -15.7190 -15.6925 -15.5629 -15.5183 -15.4535
   -15.4077 -15.3831 -15.3690 -15.3155 -15.3111 -15.2351 -15.2107 -15.1248
   -15.0758 -15.0601 -15.0574 -15.0372 -15.0282 -15.0079 -14.9889 -14.9821
   -14.9580 -14.9521 -14.9453 -14.9393 -14.9186 -14.7578 -14.6432 -13.1085
   -13.1083 -12.3690  -7.8900  -6.1976  -5.4405  -4.7884  -3.1690  -3.0612
    -3.0097  -2.8641  -2.8202  -2.8022  -2.7834  -2.7708  -2.7430  -2.7366
    -2.7306  -2.6721  -2.6511  -2.6347  -2.6125  -2.5829  -2.5634  -2.5526
    -2.5223  -2.5205  -2.4837  -2.4390  -2.4145  -2.3885  -2.3571  -2.3041
    -2.2750  -2.2682  -2.2224  -2.1962  -2.0456  -1.9385  -1.8137  -1.7706
    -1.7204  -1.6616  -1.6059  -1.5742  -1.5238  -1.4851  -1.4742  -1.4251
    -1.3976  -1.3532  -1.3258  -1.2860  -1.2714  -1.2333  -1.1923  -1.1523
    -1.0794  -0.9874  -0.9112  -0.8206  -0.7419  -0.7245  -0.6241  -0.6107
    -0.4834  -0.4417  -0.4276  -0.3794  -0.3663  -0.3357  -0.3188  -0.2754
    -0.2632  -0.2436  -0.2295  -0.2015  -0.1886  -0.1733  -0.0933  -0.0512
     0.0300   0.0483   0.1260   0.1761   0.2686   0.3092   0.3468   0.4012
     0.4670   0.4840   0.5341   0.5651   0.6048   0.6568   0.6978   0.7220
     0.8936   0.9237   1.0515   1.1097   1.7467   1.7481   1.8158   1.8525
     1.8532   3.8274   3.8792   3.9050   3.9219   3.9751   4.0466   4.0716
     4.1180   4.1314   4.1786

          k = 0.0380-0.0419 0.0000 ( 17876 PWs)   bands (ev):

   -55.6321 -55.6080 -55.5135 -55.4878 -55.4714 -55.4583 -55.4466 -55.4345
   -55.4198 -55.4059 -55.3953 -55.3851 -55.3611 -55.2396 -54.6181 -54.5940
   -32.0698 -31.9693 -31.9277 -31.9233 -31.9229 -31.9199 -31.8735 -31.8665
   -31.8459 -31.8015 -31.7734 -31.7695 -31.7470 -31.7311 -31.7200 -31.7082
   -31.7028 -31.6841 -31.6802 -31.6765 -31.6735 -31.6634 -31.6612 -31.6506
   -31.6396 -31.6384 -31.6315 -31.6273 -31.6253 -31.6238 -31.6224 -31.6162
   -31.6122 -31.5982 -31.5925 -31.5897 -31.5885 -31.5786 -31.5699 -31.5321
   -31.4422 -31.4051 -30.9756 -30.9409 -30.9214 -30.8344 -30.7733 -30.7063
   -18.4344 -17.7334 -16.0909 -15.9185 -15.7377 -15.6642 -15.5765 -15.5333
   -15.4314 -15.3865 -15.3436 -15.3009 -15.2929 -15.2559 -15.2038 -15.1529
   -15.1231 -15.0861 -15.0689 -15.0135 -14.9880 -14.9684 -14.9565 -14.9235
   -14.8932 -14.8846 -14.8637 -14.8451 -14.8236 -14.7998 -14.4155 -13.1248
   -13.0462 -12.3664  -7.8882  -6.2069  -5.4322  -4.7846  -3.3501  -3.2902
    -3.1964  -3.1422  -3.1023  -3.0955  -3.0229  -2.9344  -2.8599  -2.8311
    -2.7748  -2.7486  -2.6813  -2.6156  -2.5606  -2.5495  -2.5229  -2.4764
    -2.4382  -2.3930  -2.3712  -2.3475  -2.3279  -2.3081  -2.2834  -2.2717
    -2.2358  -2.2010  -2.1460  -2.1114  -2.0672  -2.0262  -1.9529  -1.9232
    -1.9019  -1.7608  -1.7455  -1.6341  -1.5887  -1.5180  -1.4362  -1.3527
    -1.3422  -1.2661  -1.1305  -1.0821  -1.0382  -1.0149  -0.9596  -0.9343
    -0.8407  -0.8339  -0.8120  -0.7897  -0.7215  -0.6671  -0.6019  -0.5862
    -0.5562  -0.5218  -0.4792  -0.4599  -0.3893  -0.3641  -0.3430  -0.3092
    -0.2935  -0.2528  -0.2249  -0.1685  -0.1319  -0.0758  -0.0463   0.0258
     0.0716   0.1041   0.1283   0.1718   0.2394   0.3240   0.3943   0.4472
     0.5139   0.5665   0.6134   0.6409   0.6753   0.7243   0.7671   0.7947
     0.8709   0.9681   1.0443   1.2900   1.6005   1.6820   1.8269   1.8492
     1.9111   3.6681   3.6761   3.8647   3.9085   3.9431   3.9800   4.0059
     4.0529   4.0689   4.0897

          k =-0.0760-0.0000 0.0000 ( 17886 PWs)   bands (ev):

   -55.6370 -55.6030 -55.5184 -55.4828 -55.4766 -55.4630 -55.4416 -55.4295
   -55.4248 -55.4067 -55.3905 -55.3902 -55.3562 -55.2387 -54.6230 -54.5890
   -32.1247 -32.0251 -31.9792 -31.9659 -31.9582 -31.9280 -31.9243 -31.9024
   -31.8828 -31.7839 -31.7826 -31.7444 -31.7396 -31.7130 -31.7066 -31.6948
   -31.6886 -31.6794 -31.6705 -31.6680 -31.6670 -31.6663 -31.6588 -31.6483
   -31.6446 -31.6381 -31.6276 -31.6220 -31.6188 -31.6170 -31.6129 -31.5929
   -31.5864 -31.5816 -31.5814 -31.5751 -31.5717 -31.5382 -31.5325 -31.5140
   -31.4465 -31.3673 -31.0292 -30.9484 -30.9160 -30.8469 -30.7604 -30.6492
   -18.4365 -17.7318 -16.0525 -15.9383 -15.8724 -15.6941 -15.5895 -15.5389
   -15.4911 -15.4210 -15.4169 -15.3614 -15.3551 -15.3268 -15.3146 -15.2881
   -15.2730 -15.0660 -15.0576 -14.9662 -14.9239 -14.9028 -14.8938 -14.8803
   -14.8559 -14.7976 -14.7704 -14.7603 -14.7549 -14.7429 -14.2924 -13.1168
   -13.0058 -12.3693  -7.8633  -6.2120  -5.4504  -4.7485  -3.4700  -3.3860
    -3.2995  -3.1138  -3.0913  -3.0776  -3.0093  -3.0000  -2.9703  -2.9252
    -2.9039  -2.8884  -2.8863  -2.8494  -2.6776  -2.5470  -2.4919  -2.4356
    -2.2420  -2.2263  -2.2023  -2.1414  -2.1338  -2.1046  -2.0947  -2.0669
    -2.0291  -2.0069  -1.9997  -1.9905  -1.9778  -1.9655  -1.9163  -1.8919
    -1.8712  -1.8600  -1.8253  -1.7290  -1.5679  -1.5074  -1.3501  -1.2626
    -1.2454  -1.2316  -1.2258  -1.2181  -1.1809  -1.1651  -1.1219  -1.1042
    -0.9995  -0.9790  -0.9632  -0.9169  -0.8896  -0.8128  -0.8099  -0.7426
    -0.7290  -0.6634  -0.4748  -0.3873  -0.3317  -0.3121  -0.2323  -0.1970
    -0.1430  -0.0998  -0.0843  -0.0712  -0.0461   0.0041   0.0410   0.0748
     0.0957   0.1330   0.1748   0.2066   0.2305   0.2778   0.2965   0.3403
     0.5076   0.5352   0.5816   0.5942   0.6349   0.7998   0.8649   0.9362
     1.0308   1.0422   1.0484   1.3507   1.4347   1.5390   1.7323   1.8562
     1.8804   3.4715   3.5118   3.6745   3.7402   3.8070   3.8465   3.9333
     3.9728   3.9961   4.0221

          k =-0.0760 0.0419 0.0000 ( 17914 PWs)   bands (ev):

   -55.6321 -55.6080 -55.5134 -55.4878 -55.4716 -55.4581 -55.4467 -55.4345
   -55.4200 -55.4058 -55.3954 -55.3853 -55.3612 -55.2397 -54.6181 -54.5941
   -32.0708 -31.9697 -31.9284 -31.9245 -31.9233 -31.9230 -31.8735 -31.8722
   -31.8494 -31.8018 -31.7713 -31.7693 -31.7319 -31.7098 -31.7081 -31.7061
   -31.6979 -31.6894 -31.6768 -31.6735 -31.6707 -31.6607 -31.6587 -31.6516
   -31.6494 -31.6401 -31.6380 -31.6355 -31.6302 -31.6261 -31.6230 -31.6167
   -31.6156 -31.5982 -31.5944 -31.5930 -31.5894 -31.5836 -31.5665 -31.5341
   -31.4466 -31.4052 -30.9754 -30.9437 -30.9207 -30.8344 -30.7733 -30.7064
   -18.4338 -17.7326 -15.9576 -15.8217 -15.8008 -15.5971 -15.5062 -15.4526
   -15.4221 -15.4039 -15.3878 -15.3477 -15.3363 -15.2819 -15.2659 -15.2423
   -15.2231 -15.1145 -15.0880 -15.0178 -14.9735 -14.9527 -14.9413 -14.9264
   -14.9046 -14.9028 -14.8659 -14.8393 -14.8216 -14.7980 -14.4179 -13.1227
   -13.0465 -12.3717  -7.8644  -6.2025  -5.4605  -4.7527  -3.3268  -3.2546
    -3.1562  -2.9711  -2.9064  -2.8319  -2.8178  -2.8003  -2.7826  -2.7407
    -2.7041  -2.6864  -2.6643  -2.6253  -2.5989  -2.5583  -2.4696  -2.4352
    -2.4173  -2.3963  -2.3670  -2.3536  -2.3029  -2.2530  -2.2107  -2.1816
    -2.1629  -2.1451  -2.1345  -2.1153  -2.1073  -2.0731  -2.0118  -1.9770
    -1.7149  -1.6886  -1.6701  -1.6441  -1.5127  -1.4899  -1.4352  -1.4279
    -1.2916  -1.2400  -1.2142  -1.1422  -1.1232  -1.0906  -1.0426  -0.9673
    -0.9452  -0.9148  -0.8777  -0.8687  -0.8550  -0.8376  -0.8187  -0.7325
    -0.7094  -0.6791  -0.6341  -0.5665  -0.5098  -0.4895  -0.4515  -0.3953
    -0.3621  -0.3399  -0.2879  -0.2451  -0.2071  -0.1713  -0.1329  -0.0309
     0.0287   0.0522   0.1314   0.1820   0.2037   0.2475   0.3597   0.3879
     0.5754   0.6191   0.6595   0.6958   0.7640   0.8126   0.8576   0.8927
     0.9371   0.9524   0.9987   1.0767   1.6145   1.6840   1.7722   1.8319
     1.8998   3.6674   3.6703   3.7545   3.8009   3.8580   3.8834   3.9887
     4.0176   4.1556   4.1667

          k =-0.0760-0.0839 0.0000 ( 17948 PWs)   bands (ev):

   -55.6201 -55.6201 -55.5040 -55.4973 -55.4611 -55.4572 -55.4465 -55.4461
   -55.4106 -55.4049 -55.4048 -55.3744 -55.3721 -55.2406 -54.6062 -54.6060
   -31.9382 -31.9382 -31.9139 -31.9138 -31.8835 -31.8478 -31.8190 -31.8003
   -31.7897 -31.7746 -31.7654 -31.7531 -31.7487 -31.7399 -31.7397 -31.7322
   -31.7317 -31.7198 -31.7165 -31.7100 -31.6839 -31.6817 -31.6765 -31.6704
   -31.6558 -31.6535 -31.6525 -31.6389 -31.6331 -31.6311 -31.6274 -31.6272
   -31.6235 -31.6206 -31.6202 -31.6156 -31.6142 -31.6023 -31.5873 -31.5375
   -31.4496 -31.4464 -30.9322 -30.9320 -30.8430 -30.8428 -30.8040 -30.8039
   -18.4311 -17.7333 -15.8509 -15.6072 -15.5936 -15.5569 -15.5381 -15.4190
   -15.3738 -15.3698 -15.3489 -15.2940 -15.2578 -15.2209 -15.1897 -15.1720
   -15.1487 -15.1372 -15.0957 -15.0927 -15.0857 -15.0637 -15.0220 -15.0117
   -14.9873 -14.9669 -14.9624 -14.9500 -14.9174 -14.7491 -14.6394 -13.1083
   -13.1081 -12.3741  -7.8656  -6.1927  -5.4709  -4.7566  -3.1442  -3.0657
    -3.0178  -2.8002  -2.7557  -2.7374  -2.7016  -2.6417  -2.5885  -2.5713
    -2.5528  -2.5244  -2.5148  -2.4622  -2.4366  -2.4105  -2.3861  -2.3699
    -2.3607  -2.3474  -2.3213  -2.3021  -2.2798  -2.2697  -2.2464  -2.2357
    -2.2138  -2.2054  -2.1915  -2.1689  -2.0805  -1.9983  -1.8966  -1.8376
    -1.7941  -1.7937  -1.7632  -1.7343  -1.7063  -1.7018  -1.6625  -1.6331
    -1.5613  -1.5024  -1.3192  -1.3054  -1.2608  -1.1762  -1.1751  -1.1277
    -1.1187  -1.0673  -1.0400  -0.9934  -0.9437  -0.9108  -0.8230  -0.6696
    -0.6212  -0.6013  -0.5955  -0.5799  -0.5393  -0.5249  -0.4726  -0.4553
    -0.4386  -0.3726  -0.3421  -0.3380  -0.2873  -0.2691  -0.1564  -0.0593
    -0.0315   0.0225   0.0620   0.1816   0.2933   0.3617   0.4642   0.4783
     0.4971   0.5506   0.6587   0.6684   0.7137   0.7760   0.8413   0.8469
     0.8773   0.9414   0.9534   0.9903   1.7647   1.7663   1.8221   1.8380
     1.8382   3.8617   3.9025   3.9529   3.9590   3.9829   4.0330   4.0404
     4.0710   4.1214   4.1378

     the Fermi energy is     3.4854 ev

!    total energy              =   -2973.97646347 Ry
     estimated scf accuracy    <       0.00000007 Ry
     smearing contrib. (-TS)   =      -0.01978169 Ry
     internal energy E=F+TS    =   -2973.95668178 Ry

     The total energy is F=E-TS. E is the sum of the following terms:
     one-electron contribution =  -24367.12205730 Ry
     hartree contribution      =   12278.12747890 Ry
     xc contribution           =    -494.12602192 Ry
     ewald contribution        =    9609.16236636 Ry
     electric field correction =       0.00155219 Ry

     convergence has been achieved in  74 iterations

     Forces acting on atoms (cartesian axes, Ry/au):

     atom    1 type  1   force =     0.00016225   -0.00031430    0.09439485
     atom    2 type  1   force =    -0.00007277   -0.00076847   -0.17592104
     atom    3 type  2   force =     0.00005758   -0.00019315   -0.02183589
     atom    4 type  2   force =     0.00003696   -0.00134104    0.05333521
     atom    5 type  2   force =    -0.00869386   -0.00018236    0.00366489
     atom    6 type  2   force =     0.01036095    0.00046959    0.00301854
     atom    7 type  1   force =    -0.00044930    0.00080256   -0.00104813
     atom    8 type  1   force =     0.00044828    0.00751132    0.00862654
     atom    9 type  2   force =     0.00046804    0.00015490    0.00005909
     atom   10 type  2   force =    -0.00262704    0.00131914   -0.01723067
     atom   11 type  2   force =    -0.00008134    0.00009003   -0.00040060
     atom   12 type  2   force =     0.00030023    0.00007689   -0.00007333
     atom   13 type  1   force =    -0.00041243   -0.00038603   -0.00020445
     atom   14 type  1   force =     0.00036128    0.00006589    0.00022750
     atom   15 type  2   force =     0.00013309   -0.00009082   -0.00029310
     atom   16 type  2   force =     0.00020173    0.00017852    0.00003944
     atom   17 type  2   force =    -0.00006877   -0.00010218    0.00002107
     atom   18 type  2   force =     0.00001818   -0.00006428   -0.00011985
     atom   19 type  1   force =    -0.00054434    0.00007263   -0.00067574
     atom   20 type  1   force =     0.00013465   -0.00013447    0.00011005
     atom   21 type  2   force =     0.00006536   -0.00000290    0.10329721
     atom   22 type  2   force =    -0.00026578   -0.00047754   -0.00006582
     atom   23 type  2   force =    -0.07155651   -0.00011777   -0.02737220
     atom   24 type  2   force =     0.07149419    0.00037118   -0.02738431
     atom   25 type  1   force =     0.00004556   -0.00020934    0.09438207
     atom   26 type  1   force =    -0.00013669   -0.00029714   -0.17604366
     atom   27 type  2   force =     0.00003619   -0.00018966   -0.02073240
     atom   28 type  2   force =     0.00009449   -0.00112575    0.05372676
     atom   29 type  2   force =    -0.00877677   -0.00002130    0.00343061
     atom   30 type  2   force =     0.01028956    0.00036573    0.00286365
     atom   31 type  1   force =    -0.00032644    0.00464973    0.00189117
     atom   32 type  1   force =     0.00043031   -0.00852761    0.00857698
     atom   33 type  2   force =    -0.00003459    0.00002962   -0.00000713
     atom   34 type  2   force =    -0.00403327   -0.00112371   -0.01182678
     atom   35 type  2   force =     0.00014241    0.00007460    0.00033862
     atom   36 type  2   force =     0.00052868    0.00005464   -0.00021361
     atom   37 type  1   force =     0.00061513   -0.00019971    0.00001061
     atom   38 type  1   force =     0.00022079   -0.00014519   -0.00009386
     atom   39 type  2   force =    -0.00014003   -0.00002016   -0.00022847
     atom   40 type  2   force =     0.00044134    0.00000983    0.00046938
     atom   41 type  2   force =    -0.00017071    0.00035360    0.00013367
     atom   42 type  2   force =     0.00015892    0.00016165   -0.00011986
     atom   43 type  1   force =    -0.00027201   -0.00001839   -0.00003291
     atom   44 type  1   force =     0.00032335    0.00054746    0.00088988
     atom   45 type  2   force =     0.00005134   -0.00000016    0.10337189
     atom   46 type  2   force =    -0.07155109   -0.00003849   -0.02735936
     atom   47 type  2   force =     0.07149279    0.00035688   -0.02738765
     atom   48 type  3   force =     0.00231935    0.00599224   -0.00788417
     atom   49 type  4   force =    -0.00013657   -0.00010739   -0.00040327
     atom   50 type  5   force =     0.00025505   -0.00146765   -0.00101707
     atom   51 type  3   force =    -0.00046558    0.00042376    0.00099029
     atom   52 type  3   force =    -0.00005853   -0.00023539    0.00006357
     atom   53 type  4   force =    -0.00165333   -0.00597104    0.00813026
     atom   54 type  2   force =     0.00039962   -0.00063736    0.00077412
     atom   55 type  3   force =    -0.00038757    0.00036834   -0.00052655
     atom   56 type  3   force =     0.00082767    0.00001006   -0.00033606

     Total force =     0.364162     Total SCF correction =     0.000933
  @ DRIVER MODE: Message from server: STATUS
  @ DRIVER MODE: Message from server: GETFORCE
  @ DRIVER MODE: Returning v,forces,stress,ensemble 

     Writing output data file ./calc.save/
  @ DRIVER MODE: Message from server: EXIT
  @ DRIVE MODE: Exiting  
 
     init_run     :     10.96s CPU     11.16s WALL (       1 calls)
     electrons    :   1149.10s CPU   1165.81s WALL (       1 calls)
     forces       :      2.38s CPU      2.47s WALL (       1 calls)

     Called by init_run:
     wfcinit      :      4.84s CPU      4.89s WALL (       1 calls)
     potinit      :      5.36s CPU      5.42s WALL (       1 calls)
     hinit0       :      0.41s CPU      0.42s WALL (       1 calls)

     Called by electrons:
     c_bands      :    974.93s CPU    982.08s WALL (      74 calls)
     sum_band     :    118.89s CPU    122.76s WALL (      74 calls)
     v_of_rho     :     41.26s CPU     43.29s WALL (      75 calls)
     newd         :     17.02s CPU     20.73s WALL (      75 calls)
     mix_rho      :      1.53s CPU      1.55s WALL (      74 calls)
     vdW_kernel   :      4.54s CPU      4.56s WALL (       1 calls)

     Called by c_bands:
     init_us_2    :      7.01s CPU      7.04s WALL (    1500 calls)
     cegterg      :    954.72s CPU    961.59s WALL (     755 calls)

     Called by *egterg:
     cdiaghg      :    146.39s CPU    147.03s WALL (    6729 calls)
     h_psi        :    521.40s CPU    526.36s WALL (    6744 calls)
     s_psi        :     67.84s CPU     68.04s WALL (    6744 calls)
     g_psi        :      1.89s CPU      1.90s WALL (    5979 calls)

     Called by h_psi:
     h_psi:calbec :     64.29s CPU     64.65s WALL (    6744 calls)
     vloc_psi     :    385.46s CPU    389.45s WALL (    6744 calls)
     add_vuspsi   :     68.17s CPU     68.58s WALL (    6744 calls)

     General routines
     calbec       :     85.37s CPU     85.79s WALL (    7524 calls)
     fft          :     20.80s CPU     20.96s WALL (    4725 calls)
     ffts         :      0.13s CPU      0.14s WALL (     149 calls)
     fftw         :    431.76s CPU    436.21s WALL ( 1026504 calls)
     interpolate  :      0.43s CPU      0.43s WALL (      75 calls)
     davcio       :      0.00s CPU      0.19s WALL (      10 calls)
 
     Parallel routines
 
     PWSCF        :  19m22.73s CPU  19m40.11s WALL

 
   This run was terminated on:  17:51: 1  15Sep2021            

=------------------------------------------------------------------------------=
   JOB DONE.
=------------------------------------------------------------------------------=
