
     Program PWSCF v.6.7GPU starts on  2Aug2021 at 15:39:32 

     This program is part of the open-source Quantum ESPRESSO suite
     for quantum simulation of materials; please cite
         "P. Giannozzi et al., J. Phys.:Condens. Matter 21 395502 (2009);
         "P. Giannozzi et al., J. Phys.:Condens. Matter 29 465901 (2017);
         "P. Giannozzi et al., J. Chem. Phys. 152 154105 (2020);
          URL http://www.quantum-espresso.org", 
     in publications or presentations arising from this work. More details at
     http://www.quantum-espresso.org/quote

     Parallel version (MPI), running on    16 processors

     MPI processes distributed on     1 nodes
     R & G space division:  proc/nbgrp/npool/nimage =      16
     Reading input from /storage/home/hcoda1/3/ntian30/research/carbon/02Aug_vib_paired/ads_slab/CH3NH_a/out_0015/pw.inp
Warning: card &CELL ignored
Warning: card   CELL_DYNAMICS='IPI', ignored
Warning: card / ignored

     Current dimensions of program PWSCF are:
     Max number of different atomic species (ntypx) = 10
     Max number of k-points (npk) =  40000
     Max angular momentum in pseudopotentials (lmaxx) =  3
     Presently no symmetry can be used with electric field

     Message from routine cell_base_init:
     DEPRECATED: use true lattice parameter, not A to a.u. conversion factor

     **************************************************************************
     Initializing libbeef V0.1.2 with the BEEF-vdW functional.
     Citation: Wellendorff et al., PRB 85, 235149 (2012).
     **************************************************************************


     IMPORTANT: XC functional enforced from input :
     Exchange-correlation= BEEF-VDW
                           (   1   4  43  14   2   0   0)
     Any further DFT definition will be discarded
     Please, verify this is what you really want


     Subspace diagonalization in iterative solution of the eigenvalue problem:
     one sub-group per band group will be used
     scalapack distributed-memory algorithm (size of sub-group:  4*  4 procs)

  @ DRIVER MODE: Connecting to 
 qe_1139763_2482540.sched-torque.pace.gatech.edumq66qwhm_scratch
  using UNIX socket
  @ DRIVER MODE: Message from server: STATUS
  @ DRIVER MODE: Message from server: INIT
  @ DRIVER MODE: Receiving replica           0          -1
  @ DRIVER MODE: Receiving encoded integer          25
  @ DRIVER MODE:  SCF:  T  FORCE:  T  STRESS:  F  VC:  F  ENSEMBLE:  F
  @ DRIVER MODE:  SCF:  T  FORCE:  T  STRESS:  F  VC:  F  ENSEMBLE:  F
 
     Parallelization info
     --------------------
     sticks:   dense  smooth     PW     G-vecs:    dense   smooth      PW
     Min         204      82     23                35422     8962    1367
     Max         205      84     24                35435     8968    1382
     Sum        3275    1317    379               566857   143421   21985
 
     Using Slab Decomposition
 


     bravais-lattice index     =            0
     lattice parameter (alat)  =       1.8897  a.u.
     unit-cell volume          =    6658.9804 (a.u.)^3
     number of atoms/cell      =           53
     number of atomic types    =            5
     number of electrons       =       391.00
     number of Kohn-Sham states=          205
     kinetic-energy cutoff     =      29.3995  Ry
     charge density cutoff     =     293.9946  Ry
     scf convergence threshold =      7.3E-08
     mixing beta               =       0.0500
     number of iterations used =            8  plain     mixing
     Exchange-correlation= BEEF-VDW
                           (   1   4  43  14   2   0   0)

     celldm(1)=   1.889726  celldm(2)=   0.000000  celldm(3)=   0.000000
     celldm(4)=   0.000000  celldm(5)=   0.000000  celldm(6)=   0.000000

     crystal axes: (cart. coord. in units of alat)
               a(1) = (   6.579727   0.000000   0.000000 )  
               a(2) = (  -0.000775   5.961596   0.000000 )  
               a(3) = (   0.000000   0.000000  25.155947 )  

     reciprocal axes: (cart. coord. in units 2 pi/alat)
               b(1) = (  0.151982  0.000020  0.000000 )  
               b(2) = (  0.000000  0.167740  0.000000 )  
               b(3) = (  0.000000  0.000000  0.039752 )  


     PseudoPot. # 1 for Ti read from file:
     /storage/coda1/p-amedford6/0/shared/rich_project_chbe-medford/medford-share/data/pseudos_module/espresso/nninc/pbe/van/Ti.UPF
     MD5 check sum: 8e4df49b7f0d34bbd5052bf3f5ea0213
     Pseudo is Ultrasoft, Zval = 12.0
     Generated by new atomic code, or converted to UPF format
     Using radial grid of  851 points,  6 beta functions with: 
                l(1) =   0
                l(2) =   0
                l(3) =   1
                l(4) =   1
                l(5) =   2
                l(6) =   2
     Q(r) pseudized with  8 coefficients,  rinner =    1.000   1.000   1.000
                                                       1.000   1.000

     PseudoPot. # 2 for O  read from file:
     /storage/coda1/p-amedford6/0/shared/rich_project_chbe-medford/medford-share/data/pseudos_module/espresso/nninc/pbe/van/O.UPF
     MD5 check sum: 78c19812648e8988a0fe644b0f25305e
     Pseudo is Ultrasoft, Zval =  6.0
     Generated by new atomic code, or converted to UPF format
     Using radial grid of  737 points,  4 beta functions with: 
                l(1) =   0
                l(2) =   0
                l(3) =   1
                l(4) =   1
     Q(r) pseudized with  8 coefficients,  rinner =    0.800   0.800   0.800


     PseudoPot. # 3 for H  read from file:
     /storage/coda1/p-amedford6/0/shared/rich_project_chbe-medford/medford-share/data/pseudos_module/espresso/nninc/pbe/van/H.UPF
     MD5 check sum: b5ee9d7bfd3a09ee7748110bda690ff7
     Pseudo is Ultrasoft, Zval =  1.0
     Generated by new atomic code, or converted to UPF format
     Using radial grid of  615 points,  1 beta functions with: 
                l(1) =   0
     Q(r) pseudized with  8 coefficients,  rinner =    0.800

     PseudoPot. # 4 for N  read from file:
     /storage/coda1/p-amedford6/0/shared/rich_project_chbe-medford/medford-share/data/pseudos_module/espresso/nninc/pbe/van/N.UPF
     MD5 check sum: 90d10febe142ad51ac9d5be1deb811c4
     Pseudo is Ultrasoft, Zval =  5.0
     Generated by new atomic code, or converted to UPF format
     Using radial grid of  729 points,  4 beta functions with: 
                l(1) =   0
                l(2) =   0
                l(3) =   1
                l(4) =   1
     Q(r) pseudized with  8 coefficients,  rinner =    0.800   0.800   0.800


     PseudoPot. # 5 for C  read from file:
     /storage/coda1/p-amedford6/0/shared/rich_project_chbe-medford/medford-share/data/pseudos_module/espresso/nninc/pbe/van/C.UPF
     MD5 check sum: 1a69bf6b8db32088f5b2163dbdb77a27
     Pseudo is Ultrasoft, Zval =  4.0
     Generated by new atomic code, or converted to UPF format
     Using radial grid of  721 points,  4 beta functions with: 
                l(1) =   0
                l(2) =   0
                l(3) =   1
                l(4) =   1
     Q(r) pseudized with  8 coefficients,  rinner =    0.800   0.800   0.800


     atomic species   valence    mass     pseudopotential
        Ti1           12.00    47.86700     Ti( 1.00)
        O1             6.00    15.99900     O ( 1.00)
        H1             1.00     1.00800     H ( 1.00)
        N1             5.00    14.00700     N ( 1.00)
        C1             4.00    12.01100     C ( 1.00)

     No symmetry found



   Cartesian axes

     site n.     atom                  positions (alat units)
         1           Ti1 tau(   1) = (   0.0004258   2.9801865   6.0000000  )
         2           Ti1 tau(   2) = (   3.2906075   1.4906267   6.0002472  )
         3           O1  tau(   3) = (   0.0006271   0.0005054   7.9858123  )
         4           O1  tau(   4) = (   3.2906025   0.0005020   7.3038282  )
         5           O1  tau(   5) = (   4.5942328   1.4918067   9.2879030  )
         6           O1  tau(   6) = (   1.9868534   1.4903216   9.2879459  )
         7           Ti1 tau(   7) = (   3.2907910   2.8959150   9.1758416  )
         8           Ti1 tau(   8) = (   0.0015273   1.4827037   9.2680791  )
         9           O1  tau(   9) = (   3.2884659   0.0075485  11.3235732  )
        10           O1  tau(  10) = (   0.0116148   5.9584955  10.6183126  )
        11           O1  tau(  11) = (   1.3171120   1.5008813  12.6157184  )
        12           O1  tau(  12) = (   5.2946386   1.4924346  12.6071097  )
        13           Ti1 tau(  13) = (   6.5241923   2.9548932  12.6217359  )
        14           Ti1 tau(  14) = (   3.2094326   1.4975571  12.4685497  )
        15           O1  tau(  15) = (   6.5712017   0.0435206  14.6415704  )
        16           O1  tau(  16) = (   3.3105969   0.0188825  13.9167609  )
        17           O1  tau(  17) = (   4.5276945   1.5520673  16.0775932  )
        18           O1  tau(  18) = (   2.0451199   1.5488911  16.0433559  )
        19           Ti1 tau(  19) = (   3.3056363   3.0248959  15.6834923  )
        20           Ti1 tau(  20) = (   0.0598299   1.5678558  15.8702049  )
        21           O1  tau(  21) = (   3.2904802   0.0005063   4.7018136  )
        22           O1  tau(  22) = (   0.0261329   0.0581799  17.1997403  )
        23           O1  tau(  23) = (   1.3043587   1.4918075   6.0039043  )
        24           O1  tau(  24) = (   5.2767064   1.4903225   6.0039473  )
        25           Ti1 tau(  25) = (   0.0000382   5.9609847   6.0000000  )
        26           Ti1 tau(  26) = (   3.2902200   4.4714249   6.0002472  )
        27           O1  tau(  27) = (   0.0002396   2.9813036   7.9858123  )
        28           O1  tau(  28) = (   3.2902150   2.9813002   7.3038282  )
        29           O1  tau(  29) = (   4.5938453   4.4726049   9.2879030  )
        30           O1  tau(  30) = (   1.9864658   4.4711199   9.2879459  )
        31           Ti1 tau(  31) = (   3.2891106   5.8743827   9.1763621  )
        32           Ti1 tau(  32) = (   0.0006254   4.4649316   9.2693709  )
        33           O1  tau(  33) = (   3.2900467   2.9919642  11.3219399  )
        34           O1  tau(  34) = (   0.0092240   2.9805883  10.6323155  )
        35           O1  tau(  35) = (   1.3109590   4.4888342  12.6262493  )
        36           O1  tau(  36) = (   5.2962169   4.4808628  12.6191006  )
        37           Ti1 tau(  37) = (   6.5213093   5.9327278  12.5667326  )
        38           Ti1 tau(  38) = (   3.2063601   4.4772876  12.4706241  )
        39           O1  tau(  39) = (   6.5765807   2.9606619  14.6437028  )
        40           O1  tau(  40) = (   3.3047873   3.0036736  13.8926904  )
        41           O1  tau(  41) = (   4.5386289   4.5058657  16.0833063  )
        42           O1  tau(  42) = (   2.0584685   4.5123608  16.0729366  )
        43           Ti1 tau(  43) = (   3.3398093   0.0384087  15.7085799  )
        44           Ti1 tau(  44) = (   0.0478225   4.6849499  16.0879628  )
        45           O1  tau(  45) = (   3.2900926   2.9813045   4.7018136  )
        46           O1  tau(  46) = (   1.3039711   4.4726057   6.0039043  )
        47           O1  tau(  47) = (   5.2763189   4.4711207   6.0039473  )
        48           H1  tau(  48) = (   5.6109407   2.9912845  17.7881963  )
        49           N1  tau(  49) = (   6.5652763   3.0051276  17.4431066  )
        50           C1  tau(  50) = (   0.8863280   2.9791452  18.6126320  )
        51           H1  tau(  51) = (   1.3596840   3.9617220  18.7724638  )
        52           H1  tau(  52) = (   0.3315535   2.7344040  19.5171108  )
        53           H1  tau(  53) = (   1.6705027   2.2407838  18.4910999  )

     number of k points=    10  Fermi-Dirac smearing, width (Ry)=  0.0073
                       cart. coord. in units 2pi/alat
        k(    1) = (   0.0000000   0.0000000   0.0000000), wk =   0.1250000
        k(    2) = (   0.0000000   0.0419351   0.0000000), wk =   0.2500000
        k(    3) = (   0.0000000  -0.0838702   0.0000000), wk =   0.1250000
        k(    4) = (   0.0379955   0.0000049   0.0000000), wk =   0.2500000
        k(    5) = (   0.0379955   0.0419400   0.0000000), wk =   0.2500000
        k(    6) = (   0.0379955  -0.0838652   0.0000000), wk =   0.2500000
        k(    7) = (   0.0379955  -0.0419301   0.0000000), wk =   0.2500000
        k(    8) = (  -0.0759910  -0.0000099   0.0000000), wk =   0.1250000
        k(    9) = (  -0.0759910   0.0419252   0.0000000), wk =   0.2500000
        k(   10) = (  -0.0759910  -0.0838800   0.0000000), wk =   0.1250000

     Dense  grid:   566857 G-vectors     FFT dimensions: (  72,  64, 270)

     Smooth grid:   143421 G-vectors     FFT dimensions: (  45,  40, 180)

     Estimated max dynamical RAM per process >     229.32 MB

     Estimated total dynamical RAM >       3.58 GB
     Cannot read rho : file not found

     Initial potential from superposition of free atoms

     starting charge  374.99916, renormalised to  391.00000

     negative rho (up, down):  1.779E-02 0.000E+00


     %%%%%%%%%%%%%%%%%%%%%%%%%%%%%%%%%%%%%%%%%%%%%%%%%%%%%%%%%%%%%%%%%%%%%%%%
     %                                                                      %
     % You are using vdW-DF, which was implemented by the Thonhauser group. %
     % Please cite the following two papers that made this development      %
     % possible and the two reviews that describe the various versions:     %
     %                                                                      %
     %   T. Thonhauser et al., PRL 115, 136402 (2015).                      %
     %   T. Thonhauser et al., PRB 76, 125112 (2007).                       %
     %   K. Berland et al., Rep. Prog. Phys. 78, 066501 (2015).             %
     %   D.C. Langreth et al., J. Phys.: Condens. Matter 21, 084203 (2009). %
     %                                                                      %
     %                                                                      %
     % If you are calculating the stress with vdW-DF, please also cite:     %
     %                                                                      %
     %   R. Sabatini et al., J. Phys.: Condens. Matter 24, 424209 (2012).   %
     %                                                                      %
     %%%%%%%%%%%%%%%%%%%%%%%%%%%%%%%%%%%%%%%%%%%%%%%%%%%%%%%%%%%%%%%%%%%%%%%%


 
     Adding external electric field

     Computed dipole along edir(3) : 
        Dipole               -5.8084 Ry au,        -14.7635 Debye
        Dipole field         -0.0110 Ry au, 
 
        Potential amp.        1.0161 Ry
        Total length         46.3494 bohr
 
     Starting wfcs are  296 atomic wfcs
  @ DRIVER MODE: Message from server: STATUS
  @ DRIVER MODE: Message from server: POSDATA
  @ DRIVER MODE: Reading and sharing cell 
  @ DRIVER MODE: Reading and sharing positions 
  @ DRIVER MODE: Received positions 

     total cpu time spent up to now is        8.2 secs

     Self-consistent Calculation

     iteration #  1     ecut=    29.40 Ry     beta= 0.05
     Davidson diagonalization with overlap
     c_bands:  3 eigenvalues not converged
     c_bands:  1 eigenvalues not converged
     c_bands:  1 eigenvalues not converged
     c_bands:  2 eigenvalues not converged
     c_bands:  4 eigenvalues not converged
     c_bands:  2 eigenvalues not converged
     c_bands:  1 eigenvalues not converged
     c_bands:  1 eigenvalues not converged
     c_bands:  2 eigenvalues not converged
     ethr =  1.00E-05,  avg # of iterations = 19.5

     negative rho (up, down):  1.706E-02 0.000E+00
 
     Adding external electric field

     Computed dipole along edir(3) : 
        Dipole               25.9852 Ry au,         66.0479 Debye
        Dipole field          0.0490 Ry au, 
 
        Potential amp.       -4.5457 Ry
        Total length         46.3494 bohr
 

     total cpu time spent up to now is       36.2 secs

     total energy              =   -2770.91750406 Ry
     estimated scf accuracy    <    1638.60794339 Ry

     iteration #  2     ecut=    29.40 Ry     beta= 0.05
     Davidson diagonalization with overlap
     ethr =  1.00E-02,  avg # of iterations = 18.3

     negative rho (up, down):  6.650E-03 0.000E+00
 
     Adding external electric field

     Computed dipole along edir(3) : 
        Dipole               -2.4199 Ry au,         -6.1508 Debye
        Dipole field         -0.0046 Ry au, 
 
        Potential amp.        0.4233 Ry
        Total length         46.3494 bohr
 

     total cpu time spent up to now is       68.7 secs

     total energy              =   -2640.73337108 Ry
     estimated scf accuracy    <   36966.82715593 Ry

     iteration #  3     ecut=    29.40 Ry     beta= 0.05
     Davidson diagonalization with overlap
     ethr =  1.00E-02,  avg # of iterations = 15.9

     negative rho (up, down):  6.702E-03 0.000E+00
 
     Adding external electric field

     Computed dipole along edir(3) : 
        Dipole               -3.5768 Ry au,         -9.0912 Debye
        Dipole field         -0.0067 Ry au, 
 
        Potential amp.        0.6257 Ry
        Total length         46.3494 bohr
 

     total cpu time spent up to now is       96.3 secs

     total energy              =   -2908.22993493 Ry
     estimated scf accuracy    <    1367.51412490 Ry

     iteration #  4     ecut=    29.40 Ry     beta= 0.05
     Davidson diagonalization with overlap
     ethr =  1.00E-02,  avg # of iterations =  5.9

     negative rho (up, down):  6.824E-03 0.000E+00
 
     Adding external electric field

     Computed dipole along edir(3) : 
        Dipole               -4.6209 Ry au,        -11.7452 Debye
        Dipole field         -0.0087 Ry au, 
 
        Potential amp.        0.8084 Ry
        Total length         46.3494 bohr
 

     total cpu time spent up to now is      104.7 secs

     total energy              =   -2899.87258483 Ry
     estimated scf accuracy    <    1047.61957134 Ry

     iteration #  5     ecut=    29.40 Ry     beta= 0.05
     Davidson diagonalization with overlap
     ethr =  1.00E-02,  avg # of iterations = 12.3

     negative rho (up, down):  6.624E-03 0.000E+00
 
     Adding external electric field

     Computed dipole along edir(3) : 
        Dipole               -4.3521 Ry au,        -11.0618 Debye
        Dipole field         -0.0082 Ry au, 
 
        Potential amp.        0.7613 Ry
        Total length         46.3494 bohr
 

     total cpu time spent up to now is      119.6 secs

     total energy              =   -2922.86332489 Ry
     estimated scf accuracy    <      13.68643985 Ry

     iteration #  6     ecut=    29.40 Ry     beta= 0.05
     Davidson diagonalization with overlap
     ethr =  3.50E-03,  avg # of iterations =  2.3

     negative rho (up, down):  7.013E-03 0.000E+00
 
     Adding external electric field

     Computed dipole along edir(3) : 
        Dipole               -2.4892 Ry au,         -6.3269 Debye
        Dipole field         -0.0047 Ry au, 
 
        Potential amp.        0.4354 Ry
        Total length         46.3494 bohr
 

     total cpu time spent up to now is      127.0 secs

     total energy              =   -2919.16208226 Ry
     estimated scf accuracy    <      12.17295677 Ry

     iteration #  7     ecut=    29.40 Ry     beta= 0.05
     Davidson diagonalization with overlap
     ethr =  3.11E-03,  avg # of iterations =  6.4

     negative rho (up, down):  6.976E-03 0.000E+00
 
     Adding external electric field

     Computed dipole along edir(3) : 
        Dipole               -2.4438 Ry au,         -6.2114 Debye
        Dipole field         -0.0046 Ry au, 
 
        Potential amp.        0.4275 Ry
        Total length         46.3494 bohr
 

     total cpu time spent up to now is      135.9 secs

     total energy              =   -2920.78688501 Ry
     estimated scf accuracy    <      68.86498890 Ry

     iteration #  8     ecut=    29.40 Ry     beta= 0.05
     Davidson diagonalization with overlap
     ethr =  3.11E-03,  avg # of iterations =  1.5

     negative rho (up, down):  6.978E-03 0.000E+00
 
     Adding external electric field

     Computed dipole along edir(3) : 
        Dipole               -2.4138 Ry au,         -6.1353 Debye
        Dipole field         -0.0046 Ry au, 
 
        Potential amp.        0.4223 Ry
        Total length         46.3494 bohr
 

     total cpu time spent up to now is      142.8 secs

     total energy              =   -2920.39917845 Ry
     estimated scf accuracy    <      75.31875740 Ry

     iteration #  9     ecut=    29.40 Ry     beta= 0.05
     Davidson diagonalization with overlap
     ethr =  3.11E-03,  avg # of iterations =  1.0

     negative rho (up, down):  7.039E-03 0.000E+00
 
     Adding external electric field

     Computed dipole along edir(3) : 
        Dipole               -2.2470 Ry au,         -5.7113 Debye
        Dipole field         -0.0042 Ry au, 
 
        Potential amp.        0.3931 Ry
        Total length         46.3494 bohr
 

     total cpu time spent up to now is      149.4 secs

     total energy              =   -2920.34686493 Ry
     estimated scf accuracy    <      43.53694814 Ry

     iteration # 10     ecut=    29.40 Ry     beta= 0.05
     Davidson diagonalization with overlap
     ethr =  3.11E-03,  avg # of iterations =  1.1

     negative rho (up, down):  6.985E-03 0.000E+00
 
     Adding external electric field

     Computed dipole along edir(3) : 
        Dipole               -2.1888 Ry au,         -5.5634 Debye
        Dipole field         -0.0041 Ry au, 
 
        Potential amp.        0.3829 Ry
        Total length         46.3494 bohr
 

     total cpu time spent up to now is      156.2 secs

     total energy              =   -2920.07474825 Ry
     estimated scf accuracy    <      23.40802545 Ry

     iteration # 11     ecut=    29.40 Ry     beta= 0.05
     Davidson diagonalization with overlap
     ethr =  3.11E-03,  avg # of iterations =  1.0

     negative rho (up, down):  6.954E-03 0.000E+00
 
     Adding external electric field

     Computed dipole along edir(3) : 
        Dipole               -1.9182 Ry au,         -4.8756 Debye
        Dipole field         -0.0036 Ry au, 
 
        Potential amp.        0.3356 Ry
        Total length         46.3494 bohr
 

     total cpu time spent up to now is      162.8 secs

     total energy              =   -2920.41711425 Ry
     estimated scf accuracy    <       1.41154118 Ry

     iteration # 12     ecut=    29.40 Ry     beta= 0.05
     Davidson diagonalization with overlap
     c_bands:  1 eigenvalues not converged
     c_bands:  1 eigenvalues not converged
     ethr =  3.61E-04,  avg # of iterations = 18.0

     negative rho (up, down):  6.867E-03 0.000E+00
 
     Adding external electric field

     Computed dipole along edir(3) : 
        Dipole               -1.9665 Ry au,         -4.9983 Debye
        Dipole field         -0.0037 Ry au, 
 
        Potential amp.        0.3440 Ry
        Total length         46.3494 bohr
 

     total cpu time spent up to now is      178.3 secs

     total energy              =   -2920.55845117 Ry
     estimated scf accuracy    <       2.08268068 Ry

     iteration # 13     ecut=    29.40 Ry     beta= 0.05
     Davidson diagonalization with overlap
     ethr =  3.61E-04,  avg # of iterations =  1.1

     negative rho (up, down):  6.896E-03 0.000E+00
 
     Adding external electric field

     Computed dipole along edir(3) : 
        Dipole               -1.7180 Ry au,         -4.3668 Debye
        Dipole field         -0.0032 Ry au, 
 
        Potential amp.        0.3005 Ry
        Total length         46.3494 bohr
 

     total cpu time spent up to now is      185.0 secs

     total energy              =   -2920.21566901 Ry
     estimated scf accuracy    <       1.68265556 Ry

     iteration # 14     ecut=    29.40 Ry     beta= 0.05
     Davidson diagonalization with overlap
     ethr =  3.61E-04,  avg # of iterations = 14.6

     negative rho (up, down):  7.254E-03 0.000E+00
 
     Adding external electric field

     Computed dipole along edir(3) : 
        Dipole               -0.7476 Ry au,         -1.9001 Debye
        Dipole field         -0.0014 Ry au, 
 
        Potential amp.        0.1308 Ry
        Total length         46.3494 bohr
 

     total cpu time spent up to now is      198.9 secs

     total energy              =   -2920.34236452 Ry
     estimated scf accuracy    <       0.83837322 Ry

     iteration # 15     ecut=    29.40 Ry     beta= 0.05
     Davidson diagonalization with overlap
     ethr =  2.14E-04,  avg # of iterations =  5.9

     negative rho (up, down):  7.479E-03 0.000E+00
 
     Adding external electric field

     Computed dipole along edir(3) : 
        Dipole               -0.2628 Ry au,         -0.6681 Debye
        Dipole field         -0.0005 Ry au, 
 
        Potential amp.        0.0460 Ry
        Total length         46.3494 bohr
 

     total cpu time spent up to now is      207.3 secs

     total energy              =   -2920.37161409 Ry
     estimated scf accuracy    <       0.27629207 Ry

     iteration # 16     ecut=    29.40 Ry     beta= 0.05
     Davidson diagonalization with overlap
     c_bands:  2 eigenvalues not converged
     c_bands:  2 eigenvalues not converged
     c_bands:  2 eigenvalues not converged
     c_bands:  1 eigenvalues not converged
     c_bands:  5 eigenvalues not converged
     c_bands:  1 eigenvalues not converged
     c_bands:  1 eigenvalues not converged
     ethr =  7.07E-05,  avg # of iterations = 19.0

     negative rho (up, down):  7.599E-03 0.000E+00
 
     Adding external electric field

     Computed dipole along edir(3) : 
        Dipole               -0.0302 Ry au,         -0.0768 Debye
        Dipole field         -0.0001 Ry au, 
 
        Potential amp.        0.0053 Ry
        Total length         46.3494 bohr
 

     total cpu time spent up to now is      226.2 secs

     total energy              =   -2920.65998352 Ry
     estimated scf accuracy    <       1.04767106 Ry

     iteration # 17     ecut=    29.40 Ry     beta= 0.05
     Davidson diagonalization with overlap
     ethr =  7.07E-05,  avg # of iterations =  4.4

     negative rho (up, down):  7.698E-03 0.000E+00
 
     Adding external electric field

     Computed dipole along edir(3) : 
        Dipole                0.2800 Ry au,          0.7117 Debye
        Dipole field          0.0005 Ry au, 
 
        Potential amp.       -0.0490 Ry
        Total length         46.3494 bohr
 

     total cpu time spent up to now is      235.6 secs

     total energy              =   -2920.51096052 Ry
     estimated scf accuracy    <       1.74508302 Ry

     iteration # 18     ecut=    29.40 Ry     beta= 0.05
     Davidson diagonalization with overlap
     ethr =  7.07E-05,  avg # of iterations =  2.7

     negative rho (up, down):  8.103E-03 0.000E+00
 
     Adding external electric field

     Computed dipole along edir(3) : 
        Dipole                0.7375 Ry au,          1.8747 Debye
        Dipole field          0.0014 Ry au, 
 
        Potential amp.       -0.1290 Ry
        Total length         46.3494 bohr
 

     total cpu time spent up to now is      243.0 secs

     total energy              =   -2920.33780807 Ry
     estimated scf accuracy    <       1.13557593 Ry

     iteration # 19     ecut=    29.40 Ry     beta= 0.05
     Davidson diagonalization with overlap
     ethr =  7.07E-05,  avg # of iterations = 12.3

     negative rho (up, down):  8.096E-03 0.000E+00
 
     Adding external electric field

     Computed dipole along edir(3) : 
        Dipole                0.8448 Ry au,          2.1473 Debye
        Dipole field          0.0016 Ry au, 
 
        Potential amp.       -0.1478 Ry
        Total length         46.3494 bohr
 

     total cpu time spent up to now is      256.7 secs

     total energy              =   -2920.43085012 Ry
     estimated scf accuracy    <       0.46948015 Ry

     iteration # 20     ecut=    29.40 Ry     beta= 0.05
     Davidson diagonalization with overlap
     ethr =  7.07E-05,  avg # of iterations =  1.5

     negative rho (up, down):  8.204E-03 0.000E+00
 
     Adding external electric field

     Computed dipole along edir(3) : 
        Dipole                0.7799 Ry au,          1.9823 Debye
        Dipole field          0.0015 Ry au, 
 
        Potential amp.       -0.1364 Ry
        Total length         46.3494 bohr
 

     total cpu time spent up to now is      269.0 secs

     total energy              =   -2920.42046834 Ry
     estimated scf accuracy    <       0.60976915 Ry

     iteration # 21     ecut=    29.40 Ry     beta= 0.05
     Davidson diagonalization with overlap
     ethr =  7.07E-05,  avg # of iterations =  1.0

     negative rho (up, down):  8.398E-03 0.000E+00
 
     Adding external electric field

     Computed dipole along edir(3) : 
        Dipole                0.7735 Ry au,          1.9661 Debye
        Dipole field          0.0015 Ry au, 
 
        Potential amp.       -0.1353 Ry
        Total length         46.3494 bohr
 

     total cpu time spent up to now is      279.1 secs

     total energy              =   -2920.41396823 Ry
     estimated scf accuracy    <       0.28109426 Ry

     iteration # 22     ecut=    29.40 Ry     beta= 0.05
     Davidson diagonalization with overlap
     ethr =  7.07E-05,  avg # of iterations =  2.8

     negative rho (up, down):  8.372E-03 0.000E+00
 
     Adding external electric field

     Computed dipole along edir(3) : 
        Dipole                0.7229 Ry au,          1.8375 Debye
        Dipole field          0.0014 Ry au, 
 
        Potential amp.       -0.1265 Ry
        Total length         46.3494 bohr
 

     total cpu time spent up to now is      286.8 secs

     total energy              =   -2920.43255170 Ry
     estimated scf accuracy    <       0.15943570 Ry

     iteration # 23     ecut=    29.40 Ry     beta= 0.05
     Davidson diagonalization with overlap
     ethr =  4.08E-05,  avg # of iterations =  9.3

     negative rho (up, down):  8.691E-03 0.000E+00
 
     Adding external electric field

     Computed dipole along edir(3) : 
        Dipole                0.6609 Ry au,          1.6797 Debye
        Dipole field          0.0012 Ry au, 
 
        Potential amp.       -0.1156 Ry
        Total length         46.3494 bohr
 

     total cpu time spent up to now is      299.2 secs

     total energy              =   -2920.46874920 Ry
     estimated scf accuracy    <       0.28670799 Ry

     iteration # 24     ecut=    29.40 Ry     beta= 0.05
     Davidson diagonalization with overlap
     ethr =  4.08E-05,  avg # of iterations =  1.9

     negative rho (up, down):  9.901E-03 0.000E+00
 
     Adding external electric field

     Computed dipole along edir(3) : 
        Dipole                0.5216 Ry au,          1.3257 Debye
        Dipole field          0.0010 Ry au, 
 
        Potential amp.       -0.0912 Ry
        Total length         46.3494 bohr
 

     total cpu time spent up to now is      306.3 secs

     total energy              =   -2920.41959466 Ry
     estimated scf accuracy    <       0.30121606 Ry

     iteration # 25     ecut=    29.40 Ry     beta= 0.05
     Davidson diagonalization with overlap
     c_bands:  2 eigenvalues not converged
     ethr =  4.08E-05,  avg # of iterations =  9.3

     negative rho (up, down):  1.084E-02 0.000E+00
 
     Adding external electric field

     Computed dipole along edir(3) : 
        Dipole                0.5685 Ry au,          1.4450 Debye
        Dipole field          0.0011 Ry au, 
 
        Potential amp.       -0.0995 Ry
        Total length         46.3494 bohr
 

     total cpu time spent up to now is      315.7 secs

     total energy              =   -2920.41423206 Ry
     estimated scf accuracy    <       0.15471331 Ry

     iteration # 26     ecut=    29.40 Ry     beta= 0.05
     Davidson diagonalization with overlap
     ethr =  3.96E-05,  avg # of iterations =  4.2

     negative rho (up, down):  1.132E-02 0.000E+00
 
     Adding external electric field

     Computed dipole along edir(3) : 
        Dipole                0.5850 Ry au,          1.4869 Debye
        Dipole field          0.0011 Ry au, 
 
        Potential amp.       -0.1023 Ry
        Total length         46.3494 bohr
 

     total cpu time spent up to now is      323.5 secs

     total energy              =   -2920.41536061 Ry
     estimated scf accuracy    <       0.08906401 Ry

     iteration # 27     ecut=    29.40 Ry     beta= 0.05
     Davidson diagonalization with overlap
     ethr =  2.28E-05,  avg # of iterations =  5.0

     negative rho (up, down):  1.114E-02 0.000E+00
 
     Adding external electric field

     Computed dipole along edir(3) : 
        Dipole                0.5874 Ry au,          1.4931 Debye
        Dipole field          0.0011 Ry au, 
 
        Potential amp.       -0.1028 Ry
        Total length         46.3494 bohr
 

     total cpu time spent up to now is      331.6 secs

     total energy              =   -2920.41107174 Ry
     estimated scf accuracy    <       0.06452401 Ry

     iteration # 28     ecut=    29.40 Ry     beta= 0.05
     Davidson diagonalization with overlap
     ethr =  1.65E-05,  avg # of iterations =  5.7

     negative rho (up, down):  1.116E-02 0.000E+00
 
     Adding external electric field

     Computed dipole along edir(3) : 
        Dipole                0.5963 Ry au,          1.5156 Debye
        Dipole field          0.0011 Ry au, 
 
        Potential amp.       -0.1043 Ry
        Total length         46.3494 bohr
 

     total cpu time spent up to now is      341.7 secs

     total energy              =   -2920.41321530 Ry
     estimated scf accuracy    <       0.02596296 Ry

     iteration # 29     ecut=    29.40 Ry     beta= 0.05
     Davidson diagonalization with overlap
     c_bands:  2 eigenvalues not converged
     c_bands:  1 eigenvalues not converged
     c_bands:  1 eigenvalues not converged
     c_bands:  2 eigenvalues not converged
     ethr =  6.64E-06,  avg # of iterations = 14.4

     negative rho (up, down):  1.176E-02 0.000E+00
 
     Adding external electric field

     Computed dipole along edir(3) : 
        Dipole                0.5843 Ry au,          1.4852 Debye
        Dipole field          0.0011 Ry au, 
 
        Potential amp.       -0.1022 Ry
        Total length         46.3494 bohr
 

     total cpu time spent up to now is      363.0 secs

     total energy              =   -2920.41709640 Ry
     estimated scf accuracy    <       0.00593086 Ry

     iteration # 30     ecut=    29.40 Ry     beta= 0.05
     Davidson diagonalization with overlap
     c_bands:  1 eigenvalues not converged
     c_bands:  2 eigenvalues not converged
     c_bands:  1 eigenvalues not converged
     ethr =  1.52E-06,  avg # of iterations = 13.6

     negative rho (up, down):  1.253E-02 0.000E+00
 
     Adding external electric field

     Computed dipole along edir(3) : 
        Dipole                0.6149 Ry au,          1.5629 Debye
        Dipole field          0.0012 Ry au, 
 
        Potential amp.       -0.1076 Ry
        Total length         46.3494 bohr
 

     total cpu time spent up to now is      377.7 secs

     total energy              =   -2920.41801021 Ry
     estimated scf accuracy    <       0.00394483 Ry

     iteration # 31     ecut=    29.40 Ry     beta= 0.05
     Davidson diagonalization with overlap
     ethr =  1.01E-06,  avg # of iterations =  6.2

     negative rho (up, down):  1.584E-02 0.000E+00
 
     Adding external electric field

     Computed dipole along edir(3) : 
        Dipole                0.6828 Ry au,          1.7356 Debye
        Dipole field          0.0013 Ry au, 
 
        Potential amp.       -0.1194 Ry
        Total length         46.3494 bohr
 

     total cpu time spent up to now is      386.2 secs

     total energy              =   -2920.41847345 Ry
     estimated scf accuracy    <       0.00216352 Ry

     iteration # 32     ecut=    29.40 Ry     beta= 0.05
     Davidson diagonalization with overlap
     c_bands:  1 eigenvalues not converged
     c_bands:  2 eigenvalues not converged
     c_bands:  2 eigenvalues not converged
     c_bands:  1 eigenvalues not converged
     c_bands:  2 eigenvalues not converged
     ethr =  5.53E-07,  avg # of iterations = 17.8

     negative rho (up, down):  1.553E-02 0.000E+00
 
     Adding external electric field

     Computed dipole along edir(3) : 
        Dipole                0.6725 Ry au,          1.7094 Debye
        Dipole field          0.0013 Ry au, 
 
        Potential amp.       -0.1176 Ry
        Total length         46.3494 bohr
 

     total cpu time spent up to now is      405.5 secs

     total energy              =   -2920.41926194 Ry
     estimated scf accuracy    <       0.00907909 Ry

     iteration # 33     ecut=    29.40 Ry     beta= 0.05
     Davidson diagonalization with overlap
     c_bands:  1 eigenvalues not converged
     ethr =  5.53E-07,  avg # of iterations =  5.2

     negative rho (up, down):  1.566E-02 0.000E+00
 
     Adding external electric field

     Computed dipole along edir(3) : 
        Dipole                0.6726 Ry au,          1.7095 Debye
        Dipole field          0.0013 Ry au, 
 
        Potential amp.       -0.1177 Ry
        Total length         46.3494 bohr
 

     total cpu time spent up to now is      413.7 secs

     total energy              =   -2920.41789860 Ry
     estimated scf accuracy    <       0.00569703 Ry

     iteration # 34     ecut=    29.40 Ry     beta= 0.05
     Davidson diagonalization with overlap
     c_bands:  4 eigenvalues not converged
     ethr =  5.53E-07,  avg # of iterations = 15.2

     negative rho (up, down):  1.670E-02 0.000E+00
 
     Adding external electric field

     Computed dipole along edir(3) : 
        Dipole                0.6807 Ry au,          1.7301 Debye
        Dipole field          0.0013 Ry au, 
 
        Potential amp.       -0.1191 Ry
        Total length         46.3494 bohr
 

     total cpu time spent up to now is      439.4 secs

     total energy              =   -2920.41911721 Ry
     estimated scf accuracy    <       0.00075557 Ry

     iteration # 35     ecut=    29.40 Ry     beta= 0.05
     Davidson diagonalization with overlap
     c_bands:  3 eigenvalues not converged
     ethr =  1.93E-07,  avg # of iterations = 10.8

     negative rho (up, down):  1.785E-02 0.000E+00
 
     Adding external electric field

     Computed dipole along edir(3) : 
        Dipole                0.6979 Ry au,          1.7740 Debye
        Dipole field          0.0013 Ry au, 
 
        Potential amp.       -0.1221 Ry
        Total length         46.3494 bohr
 

     total cpu time spent up to now is      449.5 secs

     total energy              =   -2920.41923928 Ry
     estimated scf accuracy    <       0.00036841 Ry

     iteration # 36     ecut=    29.40 Ry     beta= 0.05
     Davidson diagonalization with overlap
     ethr =  9.42E-08,  avg # of iterations = 11.4

     negative rho (up, down):  1.796E-02 0.000E+00
 
     Adding external electric field

     Computed dipole along edir(3) : 
        Dipole                0.7044 Ry au,          1.7905 Debye
        Dipole field          0.0013 Ry au, 
 
        Potential amp.       -0.1232 Ry
        Total length         46.3494 bohr
 

     total cpu time spent up to now is      462.4 secs

     total energy              =   -2920.41936973 Ry
     estimated scf accuracy    <       0.00038552 Ry

     iteration # 37     ecut=    29.40 Ry     beta= 0.05
     Davidson diagonalization with overlap
     ethr =  9.42E-08,  avg # of iterations =  3.6

     negative rho (up, down):  1.819E-02 0.000E+00
 
     Adding external electric field

     Computed dipole along edir(3) : 
        Dipole                0.6975 Ry au,          1.7730 Debye
        Dipole field          0.0013 Ry au, 
 
        Potential amp.       -0.1220 Ry
        Total length         46.3494 bohr
 

     total cpu time spent up to now is      470.2 secs

     total energy              =   -2920.41933844 Ry
     estimated scf accuracy    <       0.00032782 Ry

     iteration # 38     ecut=    29.40 Ry     beta= 0.05
     Davidson diagonalization with overlap
     c_bands:  1 eigenvalues not converged
     ethr =  8.38E-08,  avg # of iterations = 12.6

     negative rho (up, down):  1.820E-02 0.000E+00
 
     Adding external electric field

     Computed dipole along edir(3) : 
        Dipole                0.6985 Ry au,          1.7754 Debye
        Dipole field          0.0013 Ry au, 
 
        Potential amp.       -0.1222 Ry
        Total length         46.3494 bohr
 

     total cpu time spent up to now is      482.7 secs

     total energy              =   -2920.41941860 Ry
     estimated scf accuracy    <       0.00008281 Ry

     iteration # 39     ecut=    29.40 Ry     beta= 0.05
     Davidson diagonalization with overlap
     c_bands:  1 eigenvalues not converged
     ethr =  2.12E-08,  avg # of iterations =  9.2

     negative rho (up, down):  1.833E-02 0.000E+00
 
     Adding external electric field

     Computed dipole along edir(3) : 
        Dipole                0.7037 Ry au,          1.7887 Debye
        Dipole field          0.0013 Ry au, 
 
        Potential amp.       -0.1231 Ry
        Total length         46.3494 bohr
 

     total cpu time spent up to now is      492.1 secs

     total energy              =   -2920.41944124 Ry
     estimated scf accuracy    <       0.00007467 Ry

     iteration # 40     ecut=    29.40 Ry     beta= 0.05
     Davidson diagonalization with overlap
     ethr =  1.91E-08,  avg # of iterations = 13.3

     negative rho (up, down):  1.837E-02 0.000E+00
 
     Adding external electric field

     Computed dipole along edir(3) : 
        Dipole                0.6956 Ry au,          1.7680 Debye
        Dipole field          0.0013 Ry au, 
 
        Potential amp.       -0.1217 Ry
        Total length         46.3494 bohr
 

     total cpu time spent up to now is      506.0 secs

     total energy              =   -2920.41945491 Ry
     estimated scf accuracy    <       0.00007313 Ry

     iteration # 41     ecut=    29.40 Ry     beta= 0.05
     Davidson diagonalization with overlap
     c_bands:  1 eigenvalues not converged
     ethr =  1.87E-08,  avg # of iterations = 15.9

     negative rho (up, down):  1.836E-02 0.000E+00
 
     Adding external electric field

     Computed dipole along edir(3) : 
        Dipole                0.6985 Ry au,          1.7755 Debye
        Dipole field          0.0013 Ry au, 
 
        Potential amp.       -0.1222 Ry
        Total length         46.3494 bohr
 

     total cpu time spent up to now is      523.5 secs

     total energy              =   -2920.41949398 Ry
     estimated scf accuracy    <       0.00013170 Ry

     iteration # 42     ecut=    29.40 Ry     beta= 0.05
     Davidson diagonalization with overlap
     ethr =  1.87E-08,  avg # of iterations =  7.7

     negative rho (up, down):  1.832E-02 0.000E+00
 
     Adding external electric field

     Computed dipole along edir(3) : 
        Dipole                0.6980 Ry au,          1.7740 Debye
        Dipole field          0.0013 Ry au, 
 
        Potential amp.       -0.1221 Ry
        Total length         46.3494 bohr
 

     total cpu time spent up to now is      533.6 secs

     total energy              =   -2920.41952272 Ry
     estimated scf accuracy    <       0.00003286 Ry

     iteration # 43     ecut=    29.40 Ry     beta= 0.05
     Davidson diagonalization with overlap
     ethr =  8.41E-09,  avg # of iterations = 11.0

     negative rho (up, down):  1.828E-02 0.000E+00
 
     Adding external electric field

     Computed dipole along edir(3) : 
        Dipole                0.6981 Ry au,          1.7745 Debye
        Dipole field          0.0013 Ry au, 
 
        Potential amp.       -0.1221 Ry
        Total length         46.3494 bohr
 

     total cpu time spent up to now is      545.4 secs

     total energy              =   -2920.41954874 Ry
     estimated scf accuracy    <       0.00000733 Ry

     iteration # 44     ecut=    29.40 Ry     beta= 0.05
     Davidson diagonalization with overlap
     ethr =  1.87E-09,  avg # of iterations =  8.9

     negative rho (up, down):  1.821E-02 0.000E+00
 
     Adding external electric field

     Computed dipole along edir(3) : 
        Dipole                0.6972 Ry au,          1.7721 Debye
        Dipole field          0.0013 Ry au, 
 
        Potential amp.       -0.1220 Ry
        Total length         46.3494 bohr
 

     total cpu time spent up to now is      556.4 secs

     total energy              =   -2920.41956881 Ry
     estimated scf accuracy    <       0.00000472 Ry

     iteration # 45     ecut=    29.40 Ry     beta= 0.05
     Davidson diagonalization with overlap
     ethr =  1.21E-09,  avg # of iterations = 10.9

     negative rho (up, down):  1.821E-02 0.000E+00
 
     Adding external electric field

     Computed dipole along edir(3) : 
        Dipole                0.6959 Ry au,          1.7688 Debye
        Dipole field          0.0013 Ry au, 
 
        Potential amp.       -0.1217 Ry
        Total length         46.3494 bohr
 

     total cpu time spent up to now is      567.3 secs

     total energy              =   -2920.41958747 Ry
     estimated scf accuracy    <       0.00000236 Ry

     iteration # 46     ecut=    29.40 Ry     beta= 0.05
     Davidson diagonalization with overlap
     ethr =  6.03E-10,  avg # of iterations = 10.7

     negative rho (up, down):  1.822E-02 0.000E+00
 
     Adding external electric field

     Computed dipole along edir(3) : 
        Dipole                0.6960 Ry au,          1.7690 Debye
        Dipole field          0.0013 Ry au, 
 
        Potential amp.       -0.1218 Ry
        Total length         46.3494 bohr
 

     total cpu time spent up to now is      580.8 secs

     total energy              =   -2920.41960333 Ry
     estimated scf accuracy    <       0.00000370 Ry

     iteration # 47     ecut=    29.40 Ry     beta= 0.05
     Davidson diagonalization with overlap
     ethr =  6.03E-10,  avg # of iterations =  7.1

     negative rho (up, down):  1.823E-02 0.000E+00
 
     Adding external electric field

     Computed dipole along edir(3) : 
        Dipole                0.6958 Ry au,          1.7685 Debye
        Dipole field          0.0013 Ry au, 
 
        Potential amp.       -0.1217 Ry
        Total length         46.3494 bohr
 

     total cpu time spent up to now is      592.5 secs

     total energy              =   -2920.41961869 Ry
     estimated scf accuracy    <       0.00000094 Ry

     iteration # 48     ecut=    29.40 Ry     beta= 0.05
     Davidson diagonalization with overlap
     ethr =  2.40E-10,  avg # of iterations =  6.8

     negative rho (up, down):  1.824E-02 0.000E+00
 
     Adding external electric field

     Computed dipole along edir(3) : 
        Dipole                0.6957 Ry au,          1.7683 Debye
        Dipole field          0.0013 Ry au, 
 
        Potential amp.       -0.1217 Ry
        Total length         46.3494 bohr
 

     total cpu time spent up to now is      602.1 secs

     total energy              =   -2920.41963214 Ry
     estimated scf accuracy    <       0.00000041 Ry

     iteration # 49     ecut=    29.40 Ry     beta= 0.05
     Davidson diagonalization with overlap
     c_bands:  1 eigenvalues not converged
     ethr =  1.04E-10,  avg # of iterations = 12.6

     negative rho (up, down):  1.824E-02 0.000E+00
 
     Adding external electric field

     Computed dipole along edir(3) : 
        Dipole                0.6957 Ry au,          1.7683 Debye
        Dipole field          0.0013 Ry au, 
 
        Potential amp.       -0.1217 Ry
        Total length         46.3494 bohr
 

     total cpu time spent up to now is      616.1 secs

     total energy              =   -2920.41964398 Ry
     estimated scf accuracy    <       0.00000041 Ry

     iteration # 50     ecut=    29.40 Ry     beta= 0.05
     Davidson diagonalization with overlap
     ethr =  1.04E-10,  avg # of iterations =  8.4

     negative rho (up, down):  1.824E-02 0.000E+00
 
     Adding external electric field

     Computed dipole along edir(3) : 
        Dipole                0.6955 Ry au,          1.7677 Debye
        Dipole field          0.0013 Ry au, 
 
        Potential amp.       -0.1217 Ry
        Total length         46.3494 bohr
 

     total cpu time spent up to now is      625.5 secs

     total energy              =   -2920.41965479 Ry
     estimated scf accuracy    <       0.00000018 Ry

     iteration # 51     ecut=    29.40 Ry     beta= 0.05
     Davidson diagonalization with overlap
     c_bands:  1 eigenvalues not converged
     ethr =  4.59E-11,  avg # of iterations = 13.2

     negative rho (up, down):  1.823E-02 0.000E+00
 
     Adding external electric field

     Computed dipole along edir(3) : 
        Dipole                0.6956 Ry au,          1.7679 Debye
        Dipole field          0.0013 Ry au, 
 
        Potential amp.       -0.1217 Ry
        Total length         46.3494 bohr
 

     total cpu time spent up to now is      639.5 secs

     total energy              =   -2920.41966455 Ry
     estimated scf accuracy    <       0.00000015 Ry

     iteration # 52     ecut=    29.40 Ry     beta= 0.05
     Davidson diagonalization with overlap
     ethr =  3.84E-11,  avg # of iterations = 11.4

     negative rho (up, down):  1.823E-02 0.000E+00
 
     Adding external electric field

     Computed dipole along edir(3) : 
        Dipole                0.6956 Ry au,          1.7680 Debye
        Dipole field          0.0013 Ry au, 
 
        Potential amp.       -0.1217 Ry
        Total length         46.3494 bohr
 

     total cpu time spent up to now is      651.0 secs

     total energy              =   -2920.41967334 Ry
     estimated scf accuracy    <       0.00000012 Ry

     iteration # 53     ecut=    29.40 Ry     beta= 0.05
     Davidson diagonalization with overlap
     ethr =  3.02E-11,  avg # of iterations =  2.6

     negative rho (up, down):  1.825E-02 0.000E+00
 
     Adding external electric field

     Computed dipole along edir(3) : 
        Dipole                0.6952 Ry au,          1.7671 Debye
        Dipole field          0.0013 Ry au, 
 
        Potential amp.       -0.1216 Ry
        Total length         46.3494 bohr
 

     total cpu time spent up to now is      658.6 secs

     End of self-consistent calculation

          k = 0.0000 0.0000 0.0000 ( 18029 PWs)   bands (ev):

   -55.9820 -55.9733 -55.9480 -55.9372 -55.8853 -55.8246 -55.8198 -55.7870
   -55.7852 -55.7531 -55.7461 -55.7124 -55.5539 -55.2762 -54.9544 -54.9204
   -32.5333 -32.4636 -32.3344 -32.3211 -32.3006 -32.2862 -32.2752 -32.2372
   -32.2235 -32.2207 -32.1964 -32.1894 -32.1566 -32.1341 -32.1251 -32.1182
   -32.1163 -32.0856 -32.0649 -32.0392 -32.0310 -32.0269 -32.0112 -31.9891
   -31.9799 -31.9778 -31.9733 -31.9631 -31.9496 -31.9429 -31.9404 -31.9351
   -31.9231 -31.9172 -31.8994 -31.8939 -31.8587 -31.8189 -31.7231 -31.5500
   -31.5439 -31.4728 -31.3613 -31.2736 -31.2512 -31.1781 -31.0916 -30.9805
   -16.7428 -16.4595 -16.2802 -16.1372 -16.1040 -16.0188 -15.8185 -15.6934
   -15.6802 -15.5771 -15.5393 -15.5165 -15.5087 -15.4818 -15.4786 -15.4197
   -15.4166 -15.4043 -15.3920 -15.3357 -15.3118 -15.2720 -15.1778 -15.1539
   -15.1383 -15.1119 -15.0308 -15.0236 -14.5837 -14.1015 -13.4570 -13.3407
    -8.9348  -4.3782  -4.1135  -3.9366  -3.8979  -3.8846  -3.8358  -3.5842
    -3.5678  -3.2974  -3.2011  -3.1696  -3.1680  -3.1506  -3.1376  -3.1174
    -2.8809  -2.8101  -2.7968  -2.7737  -2.7674  -2.7640  -2.7520  -2.7476
    -2.7056  -2.6473  -2.5294  -2.5168  -2.4090  -2.3617  -2.3395  -2.2916
    -2.2468  -2.2412  -2.2290  -2.2123  -2.1986  -2.1783  -2.1603  -2.0258
    -1.9619  -1.8343  -1.7861  -1.7797  -1.5825  -1.5382  -1.4481  -1.4250
    -1.4083  -1.4009  -1.3688  -1.2884  -1.1970  -1.1400  -1.1274  -1.0738
    -0.9973  -0.9855  -0.8756  -0.8708  -0.8117  -0.7510  -0.7416  -0.7322
    -0.6872  -0.6169  -0.5385  -0.4664  -0.4166  -0.3959  -0.3683  -0.2894
    -0.2595  -0.1629  -0.1447  -0.0974  -0.0946  -0.0454  -0.0037   0.0063
     0.0129   0.0276   0.0453   0.1939   0.3009   0.3580   0.3907   0.4017
     0.5573   0.5933   0.6814   0.7689   0.9944   1.0675   1.1612   1.2604
     1.3291   1.6382   1.6836   3.1610   3.2400   3.2932   3.3017   3.4031
     3.4057   3.6108   3.6235   3.6340   3.7022

          k = 0.0000 0.0419 0.0000 ( 17933 PWs)   bands (ev):

   -55.9770 -55.9680 -55.9529 -55.9424 -55.8827 -55.8271 -55.8148 -55.7901
   -55.7819 -55.7579 -55.7411 -55.7172 -55.5534 -55.2766 -54.9493 -54.9253
   -32.4758 -32.4097 -32.2884 -32.2805 -32.2705 -32.2665 -32.2614 -32.2283
   -32.2086 -32.2001 -32.1845 -32.1827 -32.1623 -32.1581 -32.1422 -32.1342
   -32.1203 -32.1063 -32.0531 -32.0517 -32.0264 -32.0240 -32.0169 -31.9995
   -31.9919 -31.9877 -31.9865 -31.9754 -31.9732 -31.9630 -31.9531 -31.9452
   -31.9302 -31.9193 -31.9184 -31.9147 -31.9023 -31.8180 -31.7201 -31.5756
   -31.5442 -31.4873 -31.3072 -31.2701 -31.2542 -31.1655 -31.1041 -31.0376
   -16.6071 -16.3399 -16.1699 -16.0297 -16.0053 -15.9809 -15.8687 -15.7641
   -15.7331 -15.5981 -15.5921 -15.5165 -15.4979 -15.4844 -15.4585 -15.4522
   -15.4352 -15.4315 -15.3608 -15.3600 -15.3175 -15.2434 -15.2286 -15.1931
   -15.1710 -15.1702 -15.0873 -15.0385 -14.6561 -14.1147 -13.4611 -13.3802
    -8.9348  -4.3848  -3.9229  -3.7718  -3.7307  -3.7086  -3.6767  -3.4252
    -3.3532  -3.2575  -3.2346  -3.1675  -3.0997  -3.0606  -3.0341  -3.0142
    -2.9573  -2.9469  -2.9244  -2.8649  -2.8462  -2.8260  -2.7755  -2.7297
    -2.7146  -2.6670  -2.6549  -2.6387  -2.6104  -2.4817  -2.4707  -2.4368
    -2.3969  -2.3446  -2.2545  -2.2302  -2.2099  -2.1292  -2.0602  -1.9561
    -1.9052  -1.7581  -1.7193  -1.6540  -1.6285  -1.5783  -1.4523  -1.3488
    -1.3153  -1.2947  -1.2188  -1.1937  -1.0911  -1.0337  -1.0057  -0.9317
    -0.9217  -0.9042  -0.8760  -0.8686  -0.8276  -0.7910  -0.7372  -0.6996
    -0.6702  -0.6424  -0.5692  -0.5398  -0.4843  -0.4728  -0.4473  -0.4350
    -0.2816  -0.2473  -0.2231  -0.1897  -0.1604  -0.1304  -0.1083  -0.0664
    -0.0117   0.0437   0.0680   0.1346   0.2114   0.2781   0.2999   0.3574
     0.3714   0.4057   0.5453   0.6868   0.7010   1.0317   1.2539   1.2572
     1.3415   1.5922   1.5956   3.3509   3.3767   3.4109   3.4563   3.5104
     3.5596   3.6037   3.6317   3.6907   3.7082

          k = 0.0000-0.0839 0.0000 ( 17884 PWs)   bands (ev):

   -55.9653 -55.9645 -55.9562 -55.9541 -55.8799 -55.8298 -55.8045 -55.8003
   -55.7708 -55.7690 -55.7297 -55.7285 -55.5529 -55.2770 -54.9373 -54.9372
   -32.3371 -32.3342 -32.2777 -32.2771 -32.2659 -32.2608 -32.2601 -32.2454
   -32.1826 -32.1810 -32.1599 -32.1565 -32.1474 -32.1350 -32.1301 -32.1177
   -32.0886 -32.0871 -32.0868 -32.0863 -32.0812 -32.0515 -32.0486 -32.0412
   -32.0197 -32.0195 -32.0080 -32.0023 -31.9946 -31.9855 -31.9632 -31.9622
   -31.9421 -31.9405 -31.9105 -31.9103 -31.8879 -31.8170 -31.7182 -31.6137
   -31.5441 -31.4982 -31.2620 -31.2619 -31.1742 -31.1741 -31.1348 -31.1348
   -16.2695 -16.2565 -16.0638 -16.0576 -15.9240 -15.9114 -15.8134 -15.7950
   -15.7682 -15.7419 -15.7038 -15.7017 -15.5414 -15.5369 -15.3690 -15.3619
   -15.3580 -15.3534 -15.3354 -15.3218 -15.3202 -15.3132 -15.3101 -15.2319
   -15.2298 -15.2176 -15.1842 -15.0222 -14.7607 -14.1270 -13.4430 -13.4428
    -8.9348  -4.3928  -3.4946  -3.4596  -3.3769  -3.3729  -3.3646  -3.3568
    -3.3448  -3.3249  -3.2704  -3.2702  -3.1976  -3.1026  -3.0993  -3.0876
    -3.0657  -3.0327  -3.0021  -2.9429  -2.9263  -2.9218  -2.8214  -2.7853
    -2.7772  -2.7287  -2.7053  -2.6425  -2.6154  -2.5745  -2.5420  -2.4362
    -2.3672  -2.3538  -2.3363  -2.3082  -2.0415  -1.9901  -1.8815  -1.8431
    -1.8131  -1.6985  -1.6732  -1.6194  -1.5733  -1.4874  -1.4165  -1.4109
    -1.3718  -1.3596  -1.3301  -1.2986  -1.2015  -1.1700  -1.1632  -1.1135
    -1.0692  -0.8500  -0.7863  -0.7028  -0.6656  -0.6359  -0.6154  -0.6105
    -0.5867  -0.5656  -0.5426  -0.5110  -0.4643  -0.4275  -0.4123  -0.4000
    -0.3593  -0.3395  -0.2930  -0.2624  -0.2489  -0.2307  -0.1817  -0.1640
    -0.1299  -0.1131  -0.0801   0.0041   0.0286   0.1020   0.2656   0.2676
     0.2733   0.2981   0.6129   0.6558   0.7197   0.7589   1.2374   1.4005
     1.4007   1.5292   1.5299   3.4365   3.4627   3.4946   3.5152   3.5904
     3.6000   3.6713   3.7049   3.7507   3.7573

          k = 0.0380 0.0000 0.0000 ( 17913 PWs)   bands (ev):

   -55.9819 -55.9732 -55.9479 -55.9371 -55.8852 -55.8245 -55.8198 -55.7868
   -55.7851 -55.7529 -55.7461 -55.7123 -55.5538 -55.2761 -54.9543 -54.9203
   -32.5334 -32.4645 -32.3359 -32.3273 -32.3005 -32.2864 -32.2750 -32.2419
   -32.2236 -32.2205 -32.1927 -32.1772 -32.1565 -32.1312 -32.1177 -32.1159
   -32.1133 -32.0853 -32.0473 -32.0444 -32.0390 -32.0267 -32.0144 -31.9854
   -31.9792 -31.9775 -31.9664 -31.9633 -31.9494 -31.9441 -31.9425 -31.9399
   -31.9349 -31.9171 -31.8995 -31.8929 -31.8589 -31.8213 -31.7230 -31.5500
   -31.5442 -31.4726 -31.3608 -31.2769 -31.2492 -31.1779 -31.0915 -30.9803
   -16.6748 -16.3730 -16.1997 -16.1154 -16.0344 -16.0176 -15.8625 -15.6908
   -15.6815 -15.6772 -15.6712 -15.6375 -15.5922 -15.5719 -15.5238 -15.4971
   -15.3614 -15.3379 -15.2911 -15.2436 -15.2284 -15.2245 -15.1823 -15.1721
   -15.1636 -15.1524 -15.1091 -15.0112 -14.5810 -14.0970 -13.4538 -13.3404
    -8.9377  -4.4283  -4.0478  -3.7239  -3.6722  -3.6138  -3.6041  -3.5527
    -3.5133  -3.4543  -3.2953  -3.2202  -3.2171  -3.1734  -3.0965  -3.0563
    -2.9941  -2.9488  -2.8528  -2.7616  -2.7538  -2.7082  -2.6937  -2.6189
    -2.5847  -2.5612  -2.5174  -2.4837  -2.4386  -2.3687  -2.3204  -2.3162
    -2.2520  -2.2076  -2.1870  -2.1496  -2.0274  -1.9961  -1.9645  -1.9138
    -1.8726  -1.8528  -1.7966  -1.7676  -1.6596  -1.5790  -1.5505  -1.5334
    -1.4392  -1.4140  -1.3871  -1.2838  -1.2678  -1.2560  -1.2211  -1.1605
    -1.1150  -1.0083  -0.8848  -0.8539  -0.8416  -0.8097  -0.7842  -0.7413
    -0.7047  -0.6256  -0.5612  -0.5033  -0.4488  -0.4099  -0.3577  -0.3298
    -0.2670  -0.2467  -0.2178  -0.1846  -0.1642  -0.1305  -0.1200  -0.1019
    -0.0881  -0.0569   0.0966   0.1523   0.2065   0.2288   0.3218   0.3811
     0.4269   0.4778   0.6528   0.7149   0.9976   1.0265   1.0794   1.2300
     1.3264   1.5268   1.6007   3.1989   3.2153   3.4983   3.5170   3.5365
     3.5704   3.5856   3.6104   3.6357   3.6649

          k = 0.0380 0.0419 0.0000 ( 17878 PWs)   bands (ev):

   -55.9769 -55.9679 -55.9529 -55.9424 -55.8827 -55.8270 -55.8147 -55.7901
   -55.7817 -55.7579 -55.7411 -55.7172 -55.5533 -55.2765 -54.9493 -54.9252
   -32.4759 -32.4105 -32.2883 -32.2819 -32.2742 -32.2703 -32.2616 -32.2283
   -32.2086 -32.2004 -32.1894 -32.1705 -32.1621 -32.1584 -32.1423 -32.1234
   -32.1178 -32.1023 -32.0527 -32.0408 -32.0343 -32.0236 -32.0166 -32.0001
   -31.9911 -31.9888 -31.9758 -31.9749 -31.9729 -31.9631 -31.9531 -31.9459
   -31.9405 -31.9297 -31.9179 -31.9104 -31.9069 -31.8202 -31.7201 -31.5755
   -31.5448 -31.4872 -31.3068 -31.2727 -31.2532 -31.1653 -31.1042 -31.0375
   -16.5459 -16.2602 -16.0961 -16.0100 -15.9819 -15.9321 -15.8687 -15.7980
   -15.7345 -15.6351 -15.6344 -15.5969 -15.5911 -15.5598 -15.4712 -15.4575
   -15.4301 -15.3938 -15.3611 -15.3049 -15.2898 -15.2611 -15.2255 -15.2214
   -15.2044 -15.1772 -15.1392 -15.0286 -14.6541 -14.1114 -13.4589 -13.3805
    -8.9371  -4.4091  -3.8712  -3.5561  -3.5120  -3.4662  -3.4331  -3.3602
    -3.3501  -3.2943  -3.2418  -3.1612  -3.0994  -3.0699  -3.0144  -2.9945
    -2.9608  -2.8706  -2.8643  -2.8441  -2.7874  -2.7625  -2.7358  -2.7030
    -2.6890  -2.6869  -2.6301  -2.6044  -2.5973  -2.5248  -2.4642  -2.4393
    -2.3400  -2.2871  -2.2603  -2.1819  -2.1231  -2.0494  -1.9876  -1.9643
    -1.9365  -1.7543  -1.7176  -1.6804  -1.5884  -1.5267  -1.4357  -1.4230
    -1.3993  -1.3097  -1.2852  -1.2601  -1.2279  -1.1470  -1.1138  -1.1000
    -1.0440  -0.9730  -0.9373  -0.9110  -0.8719  -0.8193  -0.7849  -0.7396
    -0.6989  -0.6764  -0.6591  -0.6371  -0.6007  -0.5613  -0.5449  -0.4807
    -0.4425  -0.4007  -0.3081  -0.2846  -0.2745  -0.2250  -0.1740  -0.0823
    -0.0441  -0.0143   0.1000   0.1581   0.2097   0.2564   0.3330   0.3819
     0.4124   0.4492   0.4719   0.6097   0.6752   0.9695   1.2618   1.2681
     1.3460   1.5147   1.5764   3.3399   3.4088   3.4430   3.5169   3.5796
     3.6017   3.6679   3.6957   3.7239   3.7479

          k = 0.0380-0.0839 0.0000 ( 17916 PWs)   bands (ev):

   -55.9653 -55.9646 -55.9562 -55.9542 -55.8799 -55.8298 -55.8046 -55.8004
   -55.7707 -55.7689 -55.7298 -55.7286 -55.5529 -55.2770 -54.9374 -54.9372
   -32.3374 -32.3345 -32.2784 -32.2779 -32.2660 -32.2609 -32.2601 -32.2455
   -32.1830 -32.1817 -32.1699 -32.1661 -32.1483 -32.1194 -32.1171 -32.1129
   -32.0874 -32.0861 -32.0859 -32.0852 -32.0819 -32.0626 -32.0601 -32.0386
   -32.0156 -32.0100 -31.9969 -31.9960 -31.9943 -31.9856 -31.9632 -31.9621
   -31.9421 -31.9405 -31.9222 -31.9220 -31.8877 -31.8193 -31.7182 -31.6136
   -31.5451 -31.4982 -31.2630 -31.2629 -31.1741 -31.1740 -31.1349 -31.1348
   -16.2342 -16.2137 -16.0129 -16.0064 -15.8875 -15.8792 -15.7783 -15.7690
   -15.7498 -15.7345 -15.6756 -15.6685 -15.5555 -15.5507 -15.4557 -15.4392
   -15.4047 -15.3991 -15.3891 -15.3858 -15.3411 -15.3324 -15.2939 -15.2773
   -15.2685 -15.2142 -15.1598 -15.0161 -14.7571 -14.1248 -13.4428 -13.4426
    -8.9367  -4.3913  -3.4895  -3.4507  -3.2970  -3.2363  -3.2279  -3.2086
    -3.1634  -3.1501  -3.1102  -3.0809  -3.0590  -3.0471  -3.0287  -2.9897
    -2.9787  -2.9495  -2.9188  -2.8750  -2.8206  -2.8138  -2.8038  -2.7838
    -2.7426  -2.6972  -2.6904  -2.6657  -2.6252  -2.5946  -2.5625  -2.5079
    -2.4513  -2.2853  -2.1006  -2.0763  -2.0657  -1.9599  -1.8953  -1.8756
    -1.8289  -1.8172  -1.7668  -1.7367  -1.7142  -1.6805  -1.6309  -1.6114
    -1.5563  -1.4782  -1.4464  -1.4093  -1.2573  -1.1932  -1.1502  -1.1086
    -1.0069  -0.9851  -0.9243  -0.9046  -0.8336  -0.7776  -0.7472  -0.7350
    -0.7164  -0.6938  -0.6713  -0.6291  -0.5924  -0.5800  -0.5534  -0.5295
    -0.5195  -0.4380  -0.4078  -0.3469  -0.3246  -0.2593  -0.1478  -0.1255
    -0.0224   0.0356   0.1138   0.1205   0.1610   0.1763   0.1948   0.2399
     0.3766   0.4012   0.5594   0.5773   0.7018   0.7599   1.2580   1.4136
     1.4140   1.5182   1.5190   3.4144   3.4282   3.5085   3.5302   3.5751
     3.5838   3.7268   3.7580   3.7828   3.7869

          k = 0.0380-0.0419 0.0000 ( 17876 PWs)   bands (ev):

   -55.9769 -55.9679 -55.9529 -55.9424 -55.8827 -55.8270 -55.8147 -55.7901
   -55.7817 -55.7579 -55.7411 -55.7172 -55.5533 -55.2765 -54.9493 -54.9252
   -32.4759 -32.4105 -32.2883 -32.2819 -32.2742 -32.2703 -32.2616 -32.2283
   -32.2085 -32.2004 -32.1894 -32.1710 -32.1617 -32.1584 -32.1423 -32.1236
   -32.1178 -32.1023 -32.0527 -32.0404 -32.0343 -32.0240 -32.0166 -31.9999
   -31.9910 -31.9891 -31.9759 -31.9747 -31.9729 -31.9631 -31.9531 -31.9456
   -31.9407 -31.9296 -31.9179 -31.9104 -31.9069 -31.8203 -31.7201 -31.5754
   -31.5449 -31.4872 -31.3068 -31.2727 -31.2532 -31.1653 -31.1042 -31.0375
   -16.5457 -16.2601 -16.0964 -16.0092 -15.9822 -15.9316 -15.8699 -15.7980
   -15.7350 -15.6350 -15.6315 -15.5972 -15.5920 -15.5600 -15.4715 -15.4576
   -15.4333 -15.3921 -15.3607 -15.3045 -15.2916 -15.2596 -15.2255 -15.2204
   -15.2044 -15.1776 -15.1394 -15.0287 -14.6539 -14.1114 -13.4589 -13.3805
    -8.9372  -4.4074  -3.8719  -3.5533  -3.5109  -3.4621  -3.4323  -3.3594
    -3.3438  -3.3008  -3.2496  -3.1685  -3.0985  -3.0689  -3.0181  -2.9962
    -2.9595  -2.8718  -2.8620  -2.8257  -2.7956  -2.7683  -2.7233  -2.7030
    -2.6881  -2.6807  -2.6308  -2.6148  -2.5811  -2.5245  -2.4647  -2.4385
    -2.3503  -2.2974  -2.2392  -2.1789  -2.1176  -2.0381  -1.9823  -1.9708
    -1.9304  -1.7836  -1.7293  -1.6835  -1.6032  -1.5346  -1.4403  -1.4175
    -1.3984  -1.3120  -1.2953  -1.2641  -1.2148  -1.1433  -1.1131  -1.1011
    -1.0489  -0.9881  -0.9438  -0.9089  -0.8783  -0.8250  -0.7859  -0.7641
    -0.7048  -0.6835  -0.6588  -0.6306  -0.6070  -0.5761  -0.5125  -0.4731
    -0.4278  -0.3919  -0.3088  -0.2861  -0.2742  -0.2190  -0.1763  -0.0517
    -0.0399  -0.0109   0.1249   0.1514   0.2046   0.2583   0.3380   0.3715
     0.4176   0.4416   0.4740   0.6125   0.6765   0.9711   1.2646   1.2684
     1.3458   1.5144   1.5770   3.3405   3.4077   3.4387   3.5356   3.5617
     3.5856   3.6553   3.7022   3.7159   3.7426

          k =-0.0760-0.0000 0.0000 ( 17886 PWs)   bands (ev):

   -55.9819 -55.9731 -55.9479 -55.9371 -55.8852 -55.8245 -55.8198 -55.7866
   -55.7851 -55.7529 -55.7462 -55.7123 -55.5538 -55.2761 -54.9542 -54.9202
   -32.5336 -32.4654 -32.3374 -32.3332 -32.3003 -32.2865 -32.2748 -32.2464
   -32.2237 -32.2204 -32.1922 -32.1566 -32.1561 -32.1284 -32.1158 -32.1114
   -32.1084 -32.0852 -32.0690 -32.0393 -32.0266 -32.0172 -32.0004 -31.9894
   -31.9826 -31.9791 -31.9766 -31.9634 -31.9602 -31.9493 -31.9424 -31.9395
   -31.9350 -31.9170 -31.9003 -31.8923 -31.8595 -31.8242 -31.7229 -31.5500
   -31.5449 -31.4725 -31.3604 -31.2802 -31.2478 -31.1778 -31.0914 -30.9803
   -16.5900 -16.2763 -16.1208 -16.0655 -16.0196 -15.9719 -15.8319 -15.7617
   -15.7544 -15.6955 -15.6874 -15.6760 -15.6748 -15.6598 -15.6302 -15.5471
   -15.3404 -15.3207 -15.3075 -15.2952 -15.2527 -15.2254 -15.1760 -15.1513
   -15.1351 -15.1313 -15.0644 -15.0082 -14.5788 -14.0928 -13.4508 -13.3401
    -8.9408  -4.4617  -4.0292  -3.6512  -3.5838  -3.5383  -3.3752  -3.3704
    -3.3152  -3.2875  -3.2565  -3.2397  -3.2254  -3.1961  -3.1790  -3.0125
    -2.9781  -2.8611  -2.7818  -2.7419  -2.7348  -2.6207  -2.6186  -2.5463
    -2.5432  -2.4818  -2.4763  -2.4087  -2.3599  -2.3100  -2.2851  -2.2738
    -2.2370  -2.2095  -2.2078  -2.1544  -2.1341  -2.1104  -2.0667  -1.9942
    -1.7990  -1.7880  -1.7780  -1.6349  -1.6210  -1.5945  -1.5727  -1.5626
    -1.5500  -1.4636  -1.4438  -1.3612  -1.3394  -1.3109  -1.2566  -1.2081
    -1.1834  -1.1373  -1.1331  -1.0612  -0.8573  -0.8242  -0.8153  -0.7272
    -0.6651  -0.6506  -0.6312  -0.5927  -0.5266  -0.4946  -0.4705  -0.4105
    -0.3828  -0.2991  -0.2579  -0.2400  -0.2116  -0.1755  -0.1640  -0.1278
    -0.0782   0.0012   0.0358   0.0797   0.1317   0.2738   0.2820   0.3271
     0.5064   0.5194   0.6399   0.7151   0.7637   1.0094   1.1005   1.2057
     1.3217   1.3975   1.5451   3.1987   3.2056   3.3220   3.4409   3.4894
     3.5744   3.6098   3.6647   3.6847   3.6917

          k =-0.0760 0.0419 0.0000 ( 17914 PWs)   bands (ev):

   -55.9769 -55.9679 -55.9529 -55.9424 -55.8827 -55.8270 -55.8148 -55.7902
   -55.7816 -55.7579 -55.7413 -55.7173 -55.5534 -55.2766 -54.9493 -54.9253
   -32.4762 -32.4115 -32.2884 -32.2834 -32.2814 -32.2703 -32.2618 -32.2282
   -32.2086 -32.2006 -32.1944 -32.1629 -32.1589 -32.1542 -32.1426 -32.1157
   -32.1137 -32.0985 -32.0575 -32.0526 -32.0238 -32.0166 -32.0019 -32.0007
   -31.9923 -31.9898 -31.9794 -31.9743 -31.9722 -31.9636 -31.9615 -31.9530
   -31.9432 -31.9291 -31.9176 -31.9134 -31.9103 -31.8228 -31.7201 -31.5755
   -31.5458 -31.4873 -31.3066 -31.2755 -31.2525 -31.1653 -31.1042 -31.0375
   -16.4705 -16.1632 -16.0323 -15.9803 -15.9588 -15.8826 -15.8700 -15.7352
   -15.7278 -15.7160 -15.6643 -15.6436 -15.6341 -15.6076 -15.5848 -15.5410
   -15.4120 -15.3901 -15.3738 -15.3597 -15.3062 -15.2624 -15.2449 -15.2286
   -15.1788 -15.1556 -15.1354 -15.0254 -14.6524 -14.1083 -13.4568 -13.3808
    -8.9397  -4.4248  -3.8587  -3.4881  -3.3570  -3.3126  -3.2693  -3.2061
    -3.1663  -3.1305  -3.0956  -3.0746  -3.0527  -3.0252  -2.9832  -2.9669
    -2.9432  -2.9235  -2.8458  -2.7904  -2.7567  -2.7373  -2.6997  -2.6801
    -2.6678  -2.6379  -2.5819  -2.5618  -2.4680  -2.4567  -2.4529  -2.4338
    -2.3389  -2.2275  -2.1945  -2.1109  -2.1041  -2.0677  -2.0185  -1.9509
    -1.9316  -1.7664  -1.7413  -1.6303  -1.5888  -1.5412  -1.5338  -1.4676
    -1.4569  -1.4133  -1.3869  -1.3089  -1.2935  -1.2637  -1.2153  -1.2042
    -1.1918  -1.1433  -1.1181  -1.0824  -1.0268  -0.9993  -0.9727  -0.9155
    -0.8213  -0.7864  -0.7463  -0.7147  -0.6999  -0.6644  -0.6081  -0.5731
    -0.5272  -0.4931  -0.3915  -0.3187  -0.2845  -0.2662  -0.1458  -0.0730
     0.0174   0.0572   0.1047   0.2127   0.2543   0.3258   0.3681   0.4087
     0.4710   0.4818   0.5442   0.5941   0.6194   0.8177   1.2714   1.2829
     1.3492   1.4381   1.5657   3.3266   3.3837   3.4061   3.4750   3.4901
     3.5182   3.6436   3.6789   3.7306   3.7859

          k =-0.0760-0.0839 0.0000 ( 17948 PWs)   bands (ev):

   -55.9653 -55.9646 -55.9562 -55.9541 -55.8799 -55.8298 -55.8046 -55.8004
   -55.7707 -55.7689 -55.7299 -55.7287 -55.5529 -55.2771 -54.9374 -54.9372
   -32.3377 -32.3348 -32.2792 -32.2787 -32.2661 -32.2609 -32.2602 -32.2457
   -32.1834 -32.1824 -32.1758 -32.1720 -32.1489 -32.1206 -32.1020 -32.0979
   -32.0874 -32.0847 -32.0840 -32.0839 -32.0819 -32.0699 -32.0675 -32.0360
   -32.0250 -32.0193 -31.9949 -31.9856 -31.9674 -31.9670 -31.9629 -31.9617
   -31.9449 -31.9442 -31.9422 -31.9404 -31.8874 -31.8216 -31.7182 -31.6135
   -31.5461 -31.4982 -31.2639 -31.2638 -31.1741 -31.1740 -31.1349 -31.1349
   -16.1947 -16.1613 -15.9258 -15.9163 -15.9073 -15.8913 -15.7466 -15.6948
   -15.6863 -15.6796 -15.6553 -15.6315 -15.5802 -15.5496 -15.5160 -15.5094
   -15.5029 -15.4975 -15.4411 -15.4347 -15.4124 -15.4050 -15.2914 -15.2872
   -15.2857 -15.2095 -15.1453 -15.0120 -14.7538 -14.1226 -13.4426 -13.4424
    -8.9386  -4.3893  -3.4892  -3.4510  -3.2754  -3.1785  -3.1624  -3.1523
    -3.1323  -3.0515  -2.8922  -2.8777  -2.8593  -2.8460  -2.8060  -2.8008
    -2.7892  -2.7758  -2.7688  -2.7505  -2.7167  -2.6766  -2.6470  -2.6402
    -2.6313  -2.6069  -2.5945  -2.5688  -2.5627  -2.5296  -2.5216  -2.5029
    -2.4790  -2.2185  -2.1989  -2.1816  -2.1121  -2.1053  -2.0705  -2.0624
    -2.0436  -2.0301  -1.9785  -1.8775  -1.7142  -1.6807  -1.6716  -1.6525
    -1.5869  -1.5661  -1.4163  -1.3877  -1.3714  -1.3326  -1.2833  -1.2529
    -1.2159  -1.1758  -1.1392  -1.0786  -1.0705  -0.9914  -0.9415  -0.9410
    -0.9141  -0.8439  -0.7655  -0.7478  -0.7361  -0.6950  -0.6817  -0.5998
    -0.5769  -0.4788  -0.4660  -0.3986  -0.3637  -0.2964  -0.0952   0.0034
     0.0623   0.0858   0.1388   0.2363   0.2907   0.3046   0.3376   0.3426
     0.4026   0.4433   0.5577   0.5653   0.6337   0.7373   1.2761   1.4318
     1.4325   1.5034   1.5035   3.4230   3.4289   3.4782   3.5090   3.6607
     3.6651   3.6878   3.6889   3.8102   3.8293

     the Fermi energy is     3.1542 ev

!    total energy              =   -2920.41975409 Ry
     estimated scf accuracy    <       0.00000007 Ry
     smearing contrib. (-TS)   =      -0.02203002 Ry
     internal energy E=F+TS    =   -2920.39772407 Ry

     The total energy is F=E-TS. E is the sum of the following terms:
     one-electron contribution =  -24727.70355327 Ry
     hartree contribution      =   12448.51601348 Ry
     xc contribution           =    -480.87565247 Ry
     ewald contribution        =    9839.66455605 Ry
     electric field correction =       0.00091215 Ry

     convergence has been achieved in  53 iterations

     Forces acting on atoms (cartesian axes, Ry/au):

     atom    1 type  1   force =     0.00011701   -0.00017300    0.09688198
     atom    2 type  1   force =     0.00005079   -0.00047184   -0.17504285
     atom    3 type  2   force =     0.00012873    0.00000636   -0.02535060
     atom    4 type  2   force =    -0.00003602   -0.00128012    0.05234753
     atom    5 type  2   force =    -0.01223168   -0.00000514    0.00298782
     atom    6 type  2   force =     0.01366842    0.00058974    0.00231892
     atom    7 type  1   force =     0.00056579    0.00034964   -0.01302569
     atom    8 type  1   force =     0.00045817    0.00730976    0.03072118
     atom    9 type  2   force =     0.00056107    0.00002764   -0.00020568
     atom   10 type  2   force =    -0.00267784    0.00210992   -0.01739171
     atom   11 type  2   force =    -0.00014747    0.00007759   -0.00003360
     atom   12 type  2   force =     0.00047624    0.00033820    0.00018013
     atom   13 type  1   force =    -0.00009572   -0.00054116   -0.00017901
     atom   14 type  1   force =    -0.00043713    0.00004047    0.00080304
     atom   15 type  2   force =    -0.00001372   -0.00088840    0.00082263
     atom   16 type  2   force =     0.00025452    0.00063150   -0.00047691
     atom   17 type  2   force =     0.00056394    0.00006219    0.00062488
     atom   18 type  2   force =    -0.00006746   -0.00005269    0.00009207
     atom   19 type  1   force =     0.00002001    0.00047893   -0.00029111
     atom   20 type  1   force =    -0.00029282   -0.00052915   -0.00010202
     atom   21 type  2   force =     0.00006170   -0.00002806    0.10310249
     atom   22 type  2   force =     0.00012938   -0.00085145    0.00104706
     atom   23 type  2   force =    -0.07165857   -0.00015615   -0.02783140
     atom   24 type  2   force =     0.07155402    0.00034316   -0.02788879
     atom   25 type  1   force =     0.00007679   -0.00013117    0.09660158
     atom   26 type  1   force =     0.00008942   -0.00019799   -0.17516162
     atom   27 type  2   force =     0.00011653   -0.00011649   -0.02441140
     atom   28 type  2   force =     0.00004319   -0.00104020    0.05226160
     atom   29 type  2   force =    -0.01243125    0.00064130    0.00277740
     atom   30 type  2   force =     0.01373801    0.00098506    0.00212313
     atom   31 type  1   force =     0.00045277    0.00316572   -0.01358156
     atom   32 type  1   force =     0.00032124   -0.00952923    0.03109658
     atom   33 type  2   force =    -0.00007016    0.00031165   -0.00060006
     atom   34 type  2   force =    -0.00206540    0.00182237   -0.02538096
     atom   35 type  2   force =    -0.00018385   -0.00029678    0.00036437
     atom   36 type  2   force =     0.00026228   -0.00079132    0.00039221
     atom   37 type  1   force =     0.00005075    0.00026877    0.00103920
     atom   38 type  1   force =    -0.00021643    0.00038353    0.00076786
     atom   39 type  2   force =    -0.00007164   -0.00017815   -0.00057568
     atom   40 type  2   force =     0.00041853    0.00006975    0.00058137
     atom   41 type  2   force =     0.00036068   -0.00028251    0.00001610
     atom   42 type  2   force =    -0.00049435   -0.00041188   -0.00037568
     atom   43 type  1   force =    -0.00078481   -0.00021398    0.00043154
     atom   44 type  1   force =    -0.00024918   -0.00068160    0.00059049
     atom   45 type  2   force =     0.00003952   -0.00004926    0.10312456
     atom   46 type  2   force =    -0.07165129   -0.00007034   -0.02782788
     atom   47 type  2   force =     0.07157037    0.00034969   -0.02789754
     atom   48 type  3   force =    -0.00001547   -0.00041010   -0.00001901
     atom   49 type  4   force =    -0.00012665   -0.00232256   -0.00037195
     atom   50 type  5   force =     0.00006436    0.01941571    0.00050042
     atom   51 type  3   force =    -0.00405739   -0.00877934   -0.00055498
     atom   52 type  3   force =    -0.00098041   -0.00286354    0.00135067
     atom   53 type  3   force =     0.00484246   -0.00643508   -0.00137112

     Total force =     0.369184     Total SCF correction =     0.000619
  @ DRIVER MODE: Message from server: STATUS
  @ DRIVER MODE: Message from server: GETFORCE
  @ DRIVER MODE: Returning v,forces,stress,ensemble 

     Writing output data file ./calc.save/
  @ DRIVER MODE: Message from server: EXIT
  @ DRIVE MODE: Exiting  
 
     init_run     :      7.21s CPU      7.34s WALL (       1 calls)
     electrons    :    638.79s CPU    650.40s WALL (       1 calls)
     forces       :      1.61s CPU      1.65s WALL (       1 calls)

     Called by init_run:
     wfcinit      :      3.20s CPU      3.25s WALL (       1 calls)
     potinit      :      3.53s CPU      3.57s WALL (       1 calls)
     hinit0       :      0.19s CPU      0.20s WALL (       1 calls)

     Called by electrons:
     c_bands      :    548.27s CPU    555.94s WALL (      53 calls)
     sum_band     :     64.80s CPU     66.39s WALL (      53 calls)
     v_of_rho     :     20.24s CPU     20.78s WALL (      54 calls)
     newd         :      7.75s CPU      9.56s WALL (      54 calls)
     mix_rho      :      0.68s CPU      0.69s WALL (      53 calls)
     vdW_kernel   :      3.04s CPU      3.04s WALL (       1 calls)

     Called by c_bands:
     init_us_2    :      3.42s CPU      3.44s WALL (    1080 calls)
     cegterg      :    538.79s CPU    546.20s WALL (     531 calls)

     Called by *egterg:
     cdiaghg      :    123.84s CPU    124.29s WALL (    5175 calls)
     h_psi        :    259.06s CPU    265.36s WALL (    5185 calls)
     s_psi        :     31.15s CPU     31.25s WALL (    5185 calls)
     g_psi        :      0.85s CPU      0.86s WALL (    4644 calls)

     Called by h_psi:
     h_psi:calbec :     31.72s CPU     31.92s WALL (    5185 calls)
     vloc_psi     :    194.16s CPU    200.13s WALL (    5185 calls)
     add_vuspsi   :     31.44s CPU     31.56s WALL (    5185 calls)

     General routines
     calbec       :     42.17s CPU     42.40s WALL (    5755 calls)
     fft          :     10.02s CPU     10.12s WALL (    3402 calls)
     ffts         :      0.08s CPU      0.08s WALL (     107 calls)
     fftw         :    225.80s CPU    232.02s WALL (  725586 calls)
     interpolate  :      0.24s CPU      0.24s WALL (      54 calls)
     davcio       :      0.00s CPU      0.25s WALL (      10 calls)
 
     Parallel routines
 
     PWSCF        :  10m48.80s CPU  11m36.66s WALL

 
   This run was terminated on:  15:51: 9   2Aug2021            

=------------------------------------------------------------------------------=
   JOB DONE.
=------------------------------------------------------------------------------=
