
     Program PWSCF v.6.7GPU starts on 24Sep2021 at 13:45: 6 

     This program is part of the open-source Quantum ESPRESSO suite
     for quantum simulation of materials; please cite
         "P. Giannozzi et al., J. Phys.:Condens. Matter 21 395502 (2009);
         "P. Giannozzi et al., J. Phys.:Condens. Matter 29 465901 (2017);
         "P. Giannozzi et al., J. Chem. Phys. 152 154105 (2020);
          URL http://www.quantum-espresso.org", 
     in publications or presentations arising from this work. More details at
     http://www.quantum-espresso.org/quote

     Parallel version (MPI), running on     8 processors

     MPI processes distributed on     1 nodes
     R & G space division:  proc/nbgrp/npool/nimage =       8
     Reading input from /storage/home/hcoda1/3/ntian30/research/carbon/CxH_vib/H2O_calc/ads_slab/CH3NH2NHHO_c/out_0061/pw.inp
Warning: card &CELL ignored
Warning: card   CELL_DYNAMICS='IPI', ignored
Warning: card / ignored

     Current dimensions of program PWSCF are:
     Max number of different atomic species (ntypx) = 10
     Max number of k-points (npk) =  40000
     Max angular momentum in pseudopotentials (lmaxx) =  3
     Presently no symmetry can be used with electric field

     Message from routine cell_base_init:
     DEPRECATED: use true lattice parameter, not A to a.u. conversion factor

     **************************************************************************
     Initializing libbeef V0.1.2 with the BEEF-vdW functional.
     Citation: Wellendorff et al., PRB 85, 235149 (2012).
     **************************************************************************


     IMPORTANT: XC functional enforced from input :
     Exchange-correlation= BEEF-VDW
                           (   1   4  43  14   2   0   0)
     Any further DFT definition will be discarded
     Please, verify this is what you really want


     Subspace diagonalization in iterative solution of the eigenvalue problem:
     one sub-group per band group will be used
     scalapack distributed-memory algorithm (size of sub-group:  2*  2 procs)

  @ DRIVER MODE: Connecting to 
 qe_1139763_2947310.sched-torque.pace.gatech.edusc_qpuqc_scratch
  using UNIX socket
  @ DRIVER MODE: Message from server: STATUS
  @ DRIVER MODE: Message from server: INIT
  @ DRIVER MODE: Receiving replica           0          -1
  @ DRIVER MODE: Receiving encoded integer          25
  @ DRIVER MODE:  SCF:  T  FORCE:  T  STRESS:  F  VC:  F  ENSEMBLE:  F
  @ DRIVER MODE:  SCF:  T  FORCE:  T  STRESS:  F  VC:  F  ENSEMBLE:  F
 
     Parallelization info
     --------------------
     sticks:   dense  smooth     PW     G-vecs:    dense   smooth      PW
     Min         409     164     47                70857    17926    2743
     Max         411     165     48                70858    17931    2751
     Sum        3275    1317    379               566857   143421   21985
 
     Using Slab Decomposition
 


     bravais-lattice index     =            0
     lattice parameter (alat)  =       1.8897  a.u.
     unit-cell volume          =    6658.9804 (a.u.)^3
     number of atoms/cell      =           58
     number of atomic types    =            5
     number of electrons       =       405.00
     number of Kohn-Sham states=          212
     kinetic-energy cutoff     =      29.3995  Ry
     charge density cutoff     =     293.9946  Ry
     scf convergence threshold =      7.3E-08
     mixing beta               =       0.0500
     number of iterations used =            8  plain     mixing
     Exchange-correlation= BEEF-VDW
                           (   1   4  43  14   2   0   0)

     celldm(1)=   1.889726  celldm(2)=   0.000000  celldm(3)=   0.000000
     celldm(4)=   0.000000  celldm(5)=   0.000000  celldm(6)=   0.000000

     crystal axes: (cart. coord. in units of alat)
               a(1) = (   6.579727   0.000000   0.000000 )  
               a(2) = (  -0.000775   5.961596   0.000000 )  
               a(3) = (   0.000000   0.000000  25.155947 )  

     reciprocal axes: (cart. coord. in units 2 pi/alat)
               b(1) = (  0.151982  0.000020  0.000000 )  
               b(2) = (  0.000000  0.167740  0.000000 )  
               b(3) = (  0.000000  0.000000  0.039752 )  


     PseudoPot. # 1 for Ti read from file:
     /storage/coda1/p-amedford6/0/shared/rich_project_chbe-medford/medford-share/data/pseudos_module/espresso/nninc/pbe/van/Ti.UPF
     MD5 check sum: 8e4df49b7f0d34bbd5052bf3f5ea0213
     Pseudo is Ultrasoft, Zval = 12.0
     Generated by new atomic code, or converted to UPF format
     Using radial grid of  851 points,  6 beta functions with: 
                l(1) =   0
                l(2) =   0
                l(3) =   1
                l(4) =   1
                l(5) =   2
                l(6) =   2
     Q(r) pseudized with  8 coefficients,  rinner =    1.000   1.000   1.000
                                                       1.000   1.000

     PseudoPot. # 2 for O  read from file:
     /storage/coda1/p-amedford6/0/shared/rich_project_chbe-medford/medford-share/data/pseudos_module/espresso/nninc/pbe/van/O.UPF
     MD5 check sum: 78c19812648e8988a0fe644b0f25305e
     Pseudo is Ultrasoft, Zval =  6.0
     Generated by new atomic code, or converted to UPF format
     Using radial grid of  737 points,  4 beta functions with: 
                l(1) =   0
                l(2) =   0
                l(3) =   1
                l(4) =   1
     Q(r) pseudized with  8 coefficients,  rinner =    0.800   0.800   0.800


     PseudoPot. # 3 for N  read from file:
     /storage/coda1/p-amedford6/0/shared/rich_project_chbe-medford/medford-share/data/pseudos_module/espresso/nninc/pbe/van/N.UPF
     MD5 check sum: 90d10febe142ad51ac9d5be1deb811c4
     Pseudo is Ultrasoft, Zval =  5.0
     Generated by new atomic code, or converted to UPF format
     Using radial grid of  729 points,  4 beta functions with: 
                l(1) =   0
                l(2) =   0
                l(3) =   1
                l(4) =   1
     Q(r) pseudized with  8 coefficients,  rinner =    0.800   0.800   0.800


     PseudoPot. # 4 for C  read from file:
     /storage/coda1/p-amedford6/0/shared/rich_project_chbe-medford/medford-share/data/pseudos_module/espresso/nninc/pbe/van/C.UPF
     MD5 check sum: 1a69bf6b8db32088f5b2163dbdb77a27
     Pseudo is Ultrasoft, Zval =  4.0
     Generated by new atomic code, or converted to UPF format
     Using radial grid of  721 points,  4 beta functions with: 
                l(1) =   0
                l(2) =   0
                l(3) =   1
                l(4) =   1
     Q(r) pseudized with  8 coefficients,  rinner =    0.800   0.800   0.800


     PseudoPot. # 5 for H  read from file:
     /storage/coda1/p-amedford6/0/shared/rich_project_chbe-medford/medford-share/data/pseudos_module/espresso/nninc/pbe/van/H.UPF
     MD5 check sum: b5ee9d7bfd3a09ee7748110bda690ff7
     Pseudo is Ultrasoft, Zval =  1.0
     Generated by new atomic code, or converted to UPF format
     Using radial grid of  615 points,  1 beta functions with: 
                l(1) =   0
     Q(r) pseudized with  8 coefficients,  rinner =    0.800

     atomic species   valence    mass     pseudopotential
        Ti1           12.00    47.86700     Ti( 1.00)
        O1             6.00    15.99900     O ( 1.00)
        N1             5.00    14.00700     N ( 1.00)
        C1             4.00    12.01100     C ( 1.00)
        H1             1.00     1.00800     H ( 1.00)

     No symmetry found



   Cartesian axes

     site n.     atom                  positions (alat units)
         1           Ti1 tau(   1) = (   0.0004258   2.9801865   6.0000000  )
         2           Ti1 tau(   2) = (   3.2906075   1.4906267   6.0002472  )
         3           O1  tau(   3) = (   0.0006271   0.0005054   7.9858123  )
         4           O1  tau(   4) = (   3.2906025   0.0005020   7.3038282  )
         5           O1  tau(   5) = (   4.5942328   1.4918067   9.2879030  )
         6           O1  tau(   6) = (   1.9868534   1.4903216   9.2879459  )
         7           Ti1 tau(   7) = (   3.2907910   2.8959150   9.1758416  )
         8           Ti1 tau(   8) = (   0.0015273   1.4827037   9.2680791  )
         9           O1  tau(   9) = (   3.2766908   5.9368450  11.3531397  )
        10           O1  tau(  10) = (   0.0116148   5.9584955  10.6183126  )
        11           O1  tau(  11) = (   1.2656210   1.4746568  12.6519442  )
        12           O1  tau(  12) = (   5.2821112   1.4671822  12.6528637  )
        13           Ti1 tau(  13) = (   0.0097886   3.0246942  12.5604876  )
        14           Ti1 tau(  14) = (   3.2716845   1.2919425  12.6923688  )
        15           O1  tau(  15) = (   6.5701288   5.9533353  14.7096902  )
        16           O1  tau(  16) = (   3.2612835   0.0684280  14.0222998  )
        17           O1  tau(  17) = (   4.5366247   1.5847279  16.0182572  )
        18           O1  tau(  18) = (   1.9973522   1.5932486  16.1410213  )
        19           Ti1 tau(  19) = (   3.3011230   3.0369928  15.6528835  )
        20           Ti1 tau(  20) = (   6.4616919   1.5442775  15.7581475  )
        21           O1  tau(  21) = (   3.2904802   0.0005063   4.7018136  )
        22           O1  tau(  22) = (   6.5264998   0.0144113  17.2942622  )
        23           O1  tau(  23) = (   1.3043587   1.4918075   6.0039043  )
        24           O1  tau(  24) = (   5.2767064   1.4903225   6.0039473  )
        25           Ti1 tau(  25) = (   0.0000382   5.9609847   6.0000000  )
        26           Ti1 tau(  26) = (   3.2902200   4.4714249   6.0002472  )
        27           O1  tau(  27) = (   0.0002396   2.9813036   7.9858123  )
        28           O1  tau(  28) = (   3.2902150   2.9813002   7.3038282  )
        29           O1  tau(  29) = (   4.5938453   4.4726049   9.2879030  )
        30           O1  tau(  30) = (   1.9864658   4.4711199   9.2879459  )
        31           Ti1 tau(  31) = (   3.2891106   5.8743827   9.1763621  )
        32           Ti1 tau(  32) = (   0.0006254   4.4649316   9.2693709  )
        33           O1  tau(  33) = (   3.2807216   2.9716845  11.3098041  )
        34           O1  tau(  34) = (   0.0092240   2.9805883  10.6323155  )
        35           O1  tau(  35) = (   1.2724369   4.4570745  12.6376724  )
        36           O1  tau(  36) = (   5.2808598   4.4590940  12.6336130  )
        37           Ti1 tau(  37) = (   6.5522345   0.0346224  12.5198063  )
        38           Ti1 tau(  38) = (   3.2841791   4.3624788  12.4156291  )
        39           O1  tau(  39) = (   6.5678423   2.9906399  14.7075790  )
        40           O1  tau(  40) = (   3.2630306   2.9991211  13.8878987  )
        41           O1  tau(  41) = (   4.5399391   4.4365880  16.1202346  )
        42           O1  tau(  42) = (   1.9952260   4.4486394  16.1468368  )
        43           Ti1 tau(  43) = (   3.1909378   0.0332154  16.1742435  )
        44           Ti1 tau(  44) = (   6.5525253   4.6749982  16.1158565  )
        45           O1  tau(  45) = (   3.2900926   2.9813045   4.7018136  )
        46           O1  tau(  46) = (   1.3039711   4.4726057   6.0039043  )
        47           O1  tau(  47) = (   5.2763189   4.4711207   6.0039473  )
        48           N1  tau(  48) = (   0.9351815   2.3805788  18.4294677  )
        49           N1  tau(  49) = (   6.5001775   2.8750743  17.5309975  )
        50           C1  tau(  50) = (   1.3386797   3.2909482  19.5301671  )
        51           H1  tau(  51) = (   0.4734699   3.4817333  20.1622224  )
        52           H1  tau(  52) = (   2.1262835   2.8019037  20.1042238  )
        53           H1  tau(  53) = (   1.7016266   4.2178517  19.0939426  )
        54           H1  tau(  54) = (   0.6429753   1.4474929  18.7566963  )
        55           H1  tau(  55) = (   5.6191021   2.8022447  18.0351622  )
        56           H1  tau(  56) = (   1.7303324   2.1440475  17.7969061  )
        57           O1  tau(  57) = (   3.3671931   0.1367260  18.0860582  )
        58           H1  tau(  58) = (   4.2909782   5.9598238  18.3144400  )

     number of k points=    10  Fermi-Dirac smearing, width (Ry)=  0.0073
                       cart. coord. in units 2pi/alat
        k(    1) = (   0.0000000   0.0000000   0.0000000), wk =   0.1250000
        k(    2) = (   0.0000000   0.0419351   0.0000000), wk =   0.2500000
        k(    3) = (   0.0000000  -0.0838702   0.0000000), wk =   0.1250000
        k(    4) = (   0.0379955   0.0000049   0.0000000), wk =   0.2500000
        k(    5) = (   0.0379955   0.0419400   0.0000000), wk =   0.2500000
        k(    6) = (   0.0379955  -0.0838652   0.0000000), wk =   0.2500000
        k(    7) = (   0.0379955  -0.0419301   0.0000000), wk =   0.2500000
        k(    8) = (  -0.0759910  -0.0000099   0.0000000), wk =   0.1250000
        k(    9) = (  -0.0759910   0.0419252   0.0000000), wk =   0.2500000
        k(   10) = (  -0.0759910  -0.0838800   0.0000000), wk =   0.1250000

     Dense  grid:   566857 G-vectors     FFT dimensions: (  72,  64, 270)

     Smooth grid:   143421 G-vectors     FFT dimensions: (  45,  40, 180)

     Estimated max dynamical RAM per process >     458.11 MB

     Estimated total dynamical RAM >       3.58 GB
     Cannot read rho : file not found

     Initial potential from superposition of free atoms

     starting charge  388.99913, renormalised to  405.00000

     negative rho (up, down):  1.469E-02 0.000E+00


     %%%%%%%%%%%%%%%%%%%%%%%%%%%%%%%%%%%%%%%%%%%%%%%%%%%%%%%%%%%%%%%%%%%%%%%%
     %                                                                      %
     % You are using vdW-DF, which was implemented by the Thonhauser group. %
     % Please cite the following two papers that made this development      %
     % possible and the two reviews that describe the various versions:     %
     %                                                                      %
     %   T. Thonhauser et al., PRL 115, 136402 (2015).                      %
     %   T. Thonhauser et al., PRB 76, 125112 (2007).                       %
     %   K. Berland et al., Rep. Prog. Phys. 78, 066501 (2015).             %
     %   D.C. Langreth et al., J. Phys.: Condens. Matter 21, 084203 (2009). %
     %                                                                      %
     %                                                                      %
     % If you are calculating the stress with vdW-DF, please also cite:     %
     %                                                                      %
     %   R. Sabatini et al., J. Phys.: Condens. Matter 24, 424209 (2012).   %
     %                                                                      %
     %%%%%%%%%%%%%%%%%%%%%%%%%%%%%%%%%%%%%%%%%%%%%%%%%%%%%%%%%%%%%%%%%%%%%%%%


 
     Adding external electric field

     Computed dipole along edir(3) : 
        Dipole              -13.9957 Ry au,        -35.5736 Debye
        Dipole field         -0.0264 Ry au, 
 
        Potential amp.        2.4483 Ry
        Total length         46.3494 bohr
 
     Starting wfcs are  307 atomic wfcs
  @ DRIVER MODE: Message from server: STATUS
  @ DRIVER MODE: Message from server: POSDATA
  @ DRIVER MODE: Reading and sharing cell 
  @ DRIVER MODE: Reading and sharing positions 
  @ DRIVER MODE: Received positions 

     total cpu time spent up to now is       92.5 secs

     Self-consistent Calculation

     iteration #  1     ecut=    29.40 Ry     beta= 0.05
     Davidson diagonalization with overlap
     c_bands:  5 eigenvalues not converged
     c_bands:  4 eigenvalues not converged
     c_bands:  1 eigenvalues not converged
     c_bands:  1 eigenvalues not converged
     c_bands:  2 eigenvalues not converged
     c_bands:  3 eigenvalues not converged
     ethr =  1.00E-05,  avg # of iterations = 28.8

     negative rho (up, down):  8.219E-03 0.000E+00
 
     Adding external electric field

     Computed dipole along edir(3) : 
        Dipole               60.0521 Ry au,        152.6371 Debye
        Dipole field          0.1133 Ry au, 
 
        Potential amp.      -10.5052 Ry
        Total length         46.3494 bohr
 

     total cpu time spent up to now is      154.2 secs

     total energy              =   -2225.15696267 Ry
     estimated scf accuracy    <    8520.08089142 Ry

     iteration #  2     ecut=    29.40 Ry     beta= 0.05
     Davidson diagonalization with overlap
     ethr =  1.00E-02,  avg # of iterations = 25.3

     negative rho (up, down):  2.514E-04 0.000E+00
 
     Adding external electric field

     Computed dipole along edir(3) : 
        Dipole                1.1350 Ry au,          2.8848 Debye
        Dipole field          0.0021 Ry au, 
 
        Potential amp.       -0.1985 Ry
        Total length         46.3494 bohr
 

     total cpu time spent up to now is      265.4 secs

     total energy              =   -2492.57620585 Ry
     estimated scf accuracy    <   74916.55239876 Ry

     iteration #  3     ecut=    29.40 Ry     beta= 0.05
     Davidson diagonalization with overlap
     ethr =  1.00E-02,  avg # of iterations = 16.2

     negative rho (up, down):  3.004E-04 0.000E+00
 
     Adding external electric field

     Computed dipole along edir(3) : 
        Dipole               -2.7420 Ry au,         -6.9695 Debye
        Dipole field         -0.0052 Ry au, 
 
        Potential amp.        0.4797 Ry
        Total length         46.3494 bohr
 

     total cpu time spent up to now is      328.3 secs

     total energy              =   -2959.36725703 Ry
     estimated scf accuracy    <    8078.84593295 Ry

     iteration #  4     ecut=    29.40 Ry     beta= 0.05
     Davidson diagonalization with overlap
     ethr =  1.00E-02,  avg # of iterations = 12.3

     negative rho (up, down):  3.120E-04 0.000E+00
 
     Adding external electric field

     Computed dipole along edir(3) : 
        Dipole               -4.2193 Ry au,        -10.7245 Debye
        Dipole field         -0.0080 Ry au, 
 
        Potential amp.        0.7381 Ry
        Total length         46.3494 bohr
 

     total cpu time spent up to now is      360.5 secs

     total energy              =   -2973.80124933 Ry
     estimated scf accuracy    <    1959.93661938 Ry

     iteration #  5     ecut=    29.40 Ry     beta= 0.05
     Davidson diagonalization with overlap
     ethr =  1.00E-02,  avg # of iterations =  3.2

     negative rho (up, down):  3.584E-04 0.000E+00
 
     Adding external electric field

     Computed dipole along edir(3) : 
        Dipole               -6.8258 Ry au,        -17.3494 Debye
        Dipole field         -0.0129 Ry au, 
 
        Potential amp.        1.1941 Ry
        Total length         46.3494 bohr
 

     total cpu time spent up to now is      374.9 secs

     total energy              =   -2949.57476217 Ry
     estimated scf accuracy    <    2008.12074978 Ry

     iteration #  6     ecut=    29.40 Ry     beta= 0.05
     Davidson diagonalization with overlap
     ethr =  1.00E-02,  avg # of iterations = 11.5

     negative rho (up, down):  3.631E-04 0.000E+00
 
     Adding external electric field

     Computed dipole along edir(3) : 
        Dipole               -6.0127 Ry au,        -15.2828 Debye
        Dipole field         -0.0113 Ry au, 
 
        Potential amp.        1.0518 Ry
        Total length         46.3494 bohr
 

     total cpu time spent up to now is      406.0 secs

     total energy              =   -2981.29486426 Ry
     estimated scf accuracy    <      22.05732038 Ry

     iteration #  7     ecut=    29.40 Ry     beta= 0.05
     Davidson diagonalization with overlap
     ethr =  5.45E-03,  avg # of iterations =  1.5

     negative rho (up, down):  4.704E-04 0.000E+00
 
     Adding external electric field

     Computed dipole along edir(3) : 
        Dipole               -0.5785 Ry au,         -1.4705 Debye
        Dipole field         -0.0011 Ry au, 
 
        Potential amp.        0.1012 Ry
        Total length         46.3494 bohr
 

     total cpu time spent up to now is      419.3 secs

     total energy              =   -2975.24729752 Ry
     estimated scf accuracy    <      19.57549638 Ry

     iteration #  8     ecut=    29.40 Ry     beta= 0.05
     Davidson diagonalization with overlap
     c_bands:  5 eigenvalues not converged
     c_bands:  4 eigenvalues not converged
     c_bands:  1 eigenvalues not converged
     c_bands:  2 eigenvalues not converged
     c_bands:  3 eigenvalues not converged
     c_bands:  3 eigenvalues not converged
     c_bands:  2 eigenvalues not converged
     ethr =  4.83E-03,  avg # of iterations = 19.6

     negative rho (up, down):  4.790E-04 0.000E+00
 
     Adding external electric field

     Computed dipole along edir(3) : 
        Dipole               -1.9419 Ry au,         -4.9357 Debye
        Dipole field         -0.0037 Ry au, 
 
        Potential amp.        0.3397 Ry
        Total length         46.3494 bohr
 

     total cpu time spent up to now is      445.9 secs

     total energy              =   -2979.90864735 Ry
     estimated scf accuracy    <    1106.67848659 Ry

     iteration #  9     ecut=    29.40 Ry     beta= 0.05
     Davidson diagonalization with overlap
     ethr =  4.83E-03,  avg # of iterations =  3.4

     negative rho (up, down):  4.824E-04 0.000E+00
 
     Adding external electric field

     Computed dipole along edir(3) : 
        Dipole               -1.9124 Ry au,         -4.8607 Debye
        Dipole field         -0.0036 Ry au, 
 
        Potential amp.        0.3345 Ry
        Total length         46.3494 bohr
 

     total cpu time spent up to now is      460.0 secs

     total energy              =   -2981.19592445 Ry
     estimated scf accuracy    <     656.50057741 Ry

     iteration # 10     ecut=    29.40 Ry     beta= 0.05
     Davidson diagonalization with overlap
     ethr =  4.83E-03,  avg # of iterations =  1.2

     negative rho (up, down):  6.003E-04 0.000E+00
 
     Adding external electric field

     Computed dipole along edir(3) : 
        Dipole               -0.7599 Ry au,         -1.9316 Debye
        Dipole field         -0.0014 Ry au, 
 
        Potential amp.        0.1329 Ry
        Total length         46.3494 bohr
 

     total cpu time spent up to now is      473.0 secs

     total energy              =   -2983.52700658 Ry
     estimated scf accuracy    <     670.12882262 Ry

     iteration # 11     ecut=    29.40 Ry     beta= 0.05
     Davidson diagonalization with overlap
     ethr =  4.83E-03,  avg # of iterations =  2.3

     negative rho (up, down):  6.422E-04 0.000E+00
 
     Adding external electric field

     Computed dipole along edir(3) : 
        Dipole               -4.2927 Ry au,        -10.9110 Debye
        Dipole field         -0.0081 Ry au, 
 
        Potential amp.        0.7509 Ry
        Total length         46.3494 bohr
 

     total cpu time spent up to now is      486.3 secs

     total energy              =   -2960.64212807 Ry
     estimated scf accuracy    <     930.13788544 Ry

     iteration # 12     ecut=    29.40 Ry     beta= 0.05
     Davidson diagonalization with overlap
     ethr =  4.83E-03,  avg # of iterations = 13.6

     negative rho (up, down):  6.575E-04 0.000E+00
 
     Adding external electric field

     Computed dipole along edir(3) : 
        Dipole               -2.5099 Ry au,         -6.3795 Debye
        Dipole field         -0.0047 Ry au, 
 
        Potential amp.        0.4391 Ry
        Total length         46.3494 bohr
 

     total cpu time spent up to now is      513.5 secs

     total energy              =   -2976.03728692 Ry
     estimated scf accuracy    <      30.27880026 Ry

     iteration # 13     ecut=    29.40 Ry     beta= 0.05
     Davidson diagonalization with overlap
     ethr =  4.83E-03,  avg # of iterations =  1.7

     negative rho (up, down):  7.101E-04 0.000E+00
 
     Adding external electric field

     Computed dipole along edir(3) : 
        Dipole               -0.6522 Ry au,         -1.6576 Debye
        Dipole field         -0.0012 Ry au, 
 
        Potential amp.        0.1141 Ry
        Total length         46.3494 bohr
 

     total cpu time spent up to now is      526.9 secs

     total energy              =   -2977.09144004 Ry
     estimated scf accuracy    <       2.23044670 Ry

     iteration # 14     ecut=    29.40 Ry     beta= 0.05
     Davidson diagonalization with overlap
     c_bands:  2 eigenvalues not converged
     c_bands:  1 eigenvalues not converged
     c_bands:  5 eigenvalues not converged
     c_bands:  3 eigenvalues not converged
     c_bands:  1 eigenvalues not converged
     c_bands:  1 eigenvalues not converged
     ethr =  5.51E-04,  avg # of iterations = 19.0

     negative rho (up, down):  7.147E-04 0.000E+00
 
     Adding external electric field

     Computed dipole along edir(3) : 
        Dipole                0.3152 Ry au,          0.8011 Debye
        Dipole field          0.0006 Ry au, 
 
        Potential amp.       -0.0551 Ry
        Total length         46.3494 bohr
 

     total cpu time spent up to now is      559.6 secs

     total energy              =   -2985.30784041 Ry
     estimated scf accuracy    <     482.16444957 Ry

     iteration # 15     ecut=    29.40 Ry     beta= 0.05
     Davidson diagonalization with overlap
     c_bands:  2 eigenvalues not converged
     c_bands:  4 eigenvalues not converged
     c_bands:  1 eigenvalues not converged
     c_bands:  3 eigenvalues not converged
     c_bands:  3 eigenvalues not converged
     c_bands:  1 eigenvalues not converged
     ethr =  5.51E-04,  avg # of iterations = 19.1

     negative rho (up, down):  7.112E-04 0.000E+00
 
     Adding external electric field

     Computed dipole along edir(3) : 
        Dipole               -2.4983 Ry au,         -6.3500 Debye
        Dipole field         -0.0047 Ry au, 
 
        Potential amp.        0.4370 Ry
        Total length         46.3494 bohr
 

     total cpu time spent up to now is      587.3 secs

     total energy              =   -2966.85044562 Ry
     estimated scf accuracy    <    1284.12278887 Ry

     iteration # 16     ecut=    29.40 Ry     beta= 0.05
     Davidson diagonalization with overlap
     c_bands:  3 eigenvalues not converged
     c_bands:  5 eigenvalues not converged
     c_bands:  1 eigenvalues not converged
     c_bands:  4 eigenvalues not converged
     c_bands:  2 eigenvalues not converged
     c_bands:  2 eigenvalues not converged
     c_bands:  2 eigenvalues not converged
     c_bands:  3 eigenvalues not converged
     c_bands:  1 eigenvalues not converged
     ethr =  5.51E-04,  avg # of iterations = 20.2

     negative rho (up, down):  7.051E-04 0.000E+00
 
     Adding external electric field

     Computed dipole along edir(3) : 
        Dipole               -2.0833 Ry au,         -5.2952 Debye
        Dipole field         -0.0039 Ry au, 
 
        Potential amp.        0.3644 Ry
        Total length         46.3494 bohr
 

     total cpu time spent up to now is      632.1 secs

     total energy              =   -2976.70589159 Ry
     estimated scf accuracy    <       2.22904378 Ry

     iteration # 17     ecut=    29.40 Ry     beta= 0.05
     Davidson diagonalization with overlap
     ethr =  5.50E-04,  avg # of iterations =  1.8

     negative rho (up, down):  7.837E-04 0.000E+00
 
     Adding external electric field

     Computed dipole along edir(3) : 
        Dipole               -1.2827 Ry au,         -3.2603 Debye
        Dipole field         -0.0024 Ry au, 
 
        Potential amp.        0.2244 Ry
        Total length         46.3494 bohr
 

     total cpu time spent up to now is      645.7 secs

     total energy              =   -2976.68211202 Ry
     estimated scf accuracy    <       2.12393088 Ry

     iteration # 18     ecut=    29.40 Ry     beta= 0.05
     Davidson diagonalization with overlap
     ethr =  5.24E-04,  avg # of iterations =  9.4

     negative rho (up, down):  9.552E-04 0.000E+00
 
     Adding external electric field

     Computed dipole along edir(3) : 
        Dipole               -0.6986 Ry au,         -1.7757 Debye
        Dipole field         -0.0013 Ry au, 
 
        Potential amp.        0.1222 Ry
        Total length         46.3494 bohr
 

     total cpu time spent up to now is      662.8 secs

     total energy              =   -2976.70236318 Ry
     estimated scf accuracy    <       9.61856255 Ry

     iteration # 19     ecut=    29.40 Ry     beta= 0.05
     Davidson diagonalization with overlap
     ethr =  5.24E-04,  avg # of iterations =  1.4

     negative rho (up, down):  1.423E-03 0.000E+00
 
     Adding external electric field

     Computed dipole along edir(3) : 
        Dipole                0.4372 Ry au,          1.1114 Debye
        Dipole field          0.0008 Ry au, 
 
        Potential amp.       -0.0765 Ry
        Total length         46.3494 bohr
 

     total cpu time spent up to now is      676.0 secs

     total energy              =   -2976.84211342 Ry
     estimated scf accuracy    <       5.93337088 Ry

     iteration # 20     ecut=    29.40 Ry     beta= 0.05
     Davidson diagonalization with overlap
     ethr =  5.24E-04,  avg # of iterations =  8.3

     negative rho (up, down):  1.092E-03 0.000E+00
 
     Adding external electric field

     Computed dipole along edir(3) : 
        Dipole               -0.1509 Ry au,         -0.3835 Debye
        Dipole field         -0.0003 Ry au, 
 
        Potential amp.        0.0264 Ry
        Total length         46.3494 bohr
 

     total cpu time spent up to now is      692.4 secs

     total energy              =   -2976.75412976 Ry
     estimated scf accuracy    <      41.96224809 Ry

     iteration # 21     ecut=    29.40 Ry     beta= 0.05
     Davidson diagonalization with overlap
     ethr =  5.24E-04,  avg # of iterations =  1.3

     negative rho (up, down):  1.077E-03 0.000E+00
 
     Adding external electric field

     Computed dipole along edir(3) : 
        Dipole               -0.0128 Ry au,         -0.0327 Debye
        Dipole field         -0.0000 Ry au, 
 
        Potential amp.        0.0022 Ry
        Total length         46.3494 bohr
 

     total cpu time spent up to now is      705.6 secs

     total energy              =   -2976.67336169 Ry
     estimated scf accuracy    <      17.17106130 Ry

     iteration # 22     ecut=    29.40 Ry     beta= 0.05
     Davidson diagonalization with overlap
     ethr =  5.24E-04,  avg # of iterations =  1.4

     negative rho (up, down):  1.639E-03 0.000E+00
 
     Adding external electric field

     Computed dipole along edir(3) : 
        Dipole                1.3402 Ry au,          3.4064 Debye
        Dipole field          0.0025 Ry au, 
 
        Potential amp.       -0.2344 Ry
        Total length         46.3494 bohr
 

     total cpu time spent up to now is      718.7 secs

     total energy              =   -2976.48978962 Ry
     estimated scf accuracy    <       9.04458358 Ry

     iteration # 23     ecut=    29.40 Ry     beta= 0.05
     Davidson diagonalization with overlap
     ethr =  5.24E-04,  avg # of iterations =  3.3

     negative rho (up, down):  1.683E-03 0.000E+00
 
     Adding external electric field

     Computed dipole along edir(3) : 
        Dipole                1.3704 Ry au,          3.4832 Debye
        Dipole field          0.0026 Ry au, 
 
        Potential amp.       -0.2397 Ry
        Total length         46.3494 bohr
 

     total cpu time spent up to now is      732.9 secs

     total energy              =   -2976.46157250 Ry
     estimated scf accuracy    <       4.16338985 Ry

     iteration # 24     ecut=    29.40 Ry     beta= 0.05
     Davidson diagonalization with overlap
     ethr =  5.24E-04,  avg # of iterations =  3.8

     negative rho (up, down):  1.906E-03 0.000E+00
 
     Adding external electric field

     Computed dipole along edir(3) : 
        Dipole                1.0856 Ry au,          2.7594 Debye
        Dipole field          0.0020 Ry au, 
 
        Potential amp.       -0.1899 Ry
        Total length         46.3494 bohr
 

     total cpu time spent up to now is      747.6 secs

     total energy              =   -2976.46129017 Ry
     estimated scf accuracy    <       1.16038275 Ry

     iteration # 25     ecut=    29.40 Ry     beta= 0.05
     Davidson diagonalization with overlap
     ethr =  2.87E-04,  avg # of iterations =  4.2

     negative rho (up, down):  1.843E-03 0.000E+00
 
     Adding external electric field

     Computed dipole along edir(3) : 
        Dipole                0.9421 Ry au,          2.3945 Debye
        Dipole field          0.0018 Ry au, 
 
        Potential amp.       -0.1648 Ry
        Total length         46.3494 bohr
 

     total cpu time spent up to now is      762.3 secs

     total energy              =   -2976.48800726 Ry
     estimated scf accuracy    <       0.53371578 Ry

     iteration # 26     ecut=    29.40 Ry     beta= 0.05
     Davidson diagonalization with overlap
     c_bands:  1 eigenvalues not converged
     c_bands:  1 eigenvalues not converged
     c_bands:  1 eigenvalues not converged
     ethr =  1.32E-04,  avg # of iterations = 14.2

     negative rho (up, down):  1.967E-03 0.000E+00
 
     Adding external electric field

     Computed dipole along edir(3) : 
        Dipole                1.0059 Ry au,          2.5567 Debye
        Dipole field          0.0019 Ry au, 
 
        Potential amp.       -0.1760 Ry
        Total length         46.3494 bohr
 

     total cpu time spent up to now is      782.6 secs

     total energy              =   -2976.46789702 Ry
     estimated scf accuracy    <       0.46370183 Ry

     iteration # 27     ecut=    29.40 Ry     beta= 0.05
     Davidson diagonalization with overlap
     ethr =  1.14E-04,  avg # of iterations =  4.3

     negative rho (up, down):  2.066E-03 0.000E+00
 
     Adding external electric field

     Computed dipole along edir(3) : 
        Dipole                1.0757 Ry au,          2.7341 Debye
        Dipole field          0.0020 Ry au, 
 
        Potential amp.       -0.1882 Ry
        Total length         46.3494 bohr
 

     total cpu time spent up to now is      797.2 secs

     total energy              =   -2976.47616333 Ry
     estimated scf accuracy    <       0.13849229 Ry

     iteration # 28     ecut=    29.40 Ry     beta= 0.05
     Davidson diagonalization with overlap
     ethr =  3.42E-05,  avg # of iterations = 16.6

     negative rho (up, down):  2.462E-03 0.000E+00
 
     Adding external electric field

     Computed dipole along edir(3) : 
        Dipole                0.9833 Ry au,          2.4992 Debye
        Dipole field          0.0019 Ry au, 
 
        Potential amp.       -0.1720 Ry
        Total length         46.3494 bohr
 

     total cpu time spent up to now is      824.7 secs

     total energy              =   -2976.47929066 Ry
     estimated scf accuracy    <       0.16238239 Ry

     iteration # 29     ecut=    29.40 Ry     beta= 0.05
     Davidson diagonalization with overlap
     c_bands:  1 eigenvalues not converged
     c_bands:  2 eigenvalues not converged
     ethr =  3.42E-05,  avg # of iterations = 10.4

     negative rho (up, down):  2.777E-03 0.000E+00
 
     Adding external electric field

     Computed dipole along edir(3) : 
        Dipole                0.9075 Ry au,          2.3065 Debye
        Dipole field          0.0017 Ry au, 
 
        Potential amp.       -0.1587 Ry
        Total length         46.3494 bohr
 

     total cpu time spent up to now is      841.9 secs

     total energy              =   -2976.47904110 Ry
     estimated scf accuracy    <       0.07925740 Ry

     iteration # 30     ecut=    29.40 Ry     beta= 0.05
     Davidson diagonalization with overlap
     ethr =  1.96E-05,  avg # of iterations = 14.7

     negative rho (up, down):  2.889E-03 0.000E+00
 
     Adding external electric field

     Computed dipole along edir(3) : 
        Dipole                1.0108 Ry au,          2.5692 Debye
        Dipole field          0.0019 Ry au, 
 
        Potential amp.       -0.1768 Ry
        Total length         46.3494 bohr
 

     total cpu time spent up to now is      868.5 secs

     total energy              =   -2976.48870402 Ry
     estimated scf accuracy    <       0.10446526 Ry

     iteration # 31     ecut=    29.40 Ry     beta= 0.05
     Davidson diagonalization with overlap
     ethr =  1.96E-05,  avg # of iterations =  2.1

     negative rho (up, down):  3.792E-03 0.000E+00
 
     Adding external electric field

     Computed dipole along edir(3) : 
        Dipole                1.1932 Ry au,          3.0328 Debye
        Dipole field          0.0023 Ry au, 
 
        Potential amp.       -0.2087 Ry
        Total length         46.3494 bohr
 

     total cpu time spent up to now is      882.1 secs

     total energy              =   -2976.48131719 Ry
     estimated scf accuracy    <       0.07400184 Ry

     iteration # 32     ecut=    29.40 Ry     beta= 0.05
     Davidson diagonalization with overlap
     c_bands:  2 eigenvalues not converged
     c_bands:  1 eigenvalues not converged
     ethr =  1.83E-05,  avg # of iterations = 11.0

     negative rho (up, down):  3.820E-03 0.000E+00
 
     Adding external electric field

     Computed dipole along edir(3) : 
        Dipole                1.2475 Ry au,          3.1709 Debye
        Dipole field          0.0024 Ry au, 
 
        Potential amp.       -0.2182 Ry
        Total length         46.3494 bohr
 

     total cpu time spent up to now is      904.6 secs

     total energy              =   -2976.48799067 Ry
     estimated scf accuracy    <       0.14930842 Ry

     iteration # 33     ecut=    29.40 Ry     beta= 0.05
     Davidson diagonalization with overlap
     ethr =  1.83E-05,  avg # of iterations =  2.9

     negative rho (up, down):  4.238E-03 0.000E+00
 
     Adding external electric field

     Computed dipole along edir(3) : 
        Dipole                1.2601 Ry au,          3.2028 Debye
        Dipole field          0.0024 Ry au, 
 
        Potential amp.       -0.2204 Ry
        Total length         46.3494 bohr
 

     total cpu time spent up to now is      918.8 secs

     total energy              =   -2976.48039509 Ry
     estimated scf accuracy    <       0.06860615 Ry

     iteration # 34     ecut=    29.40 Ry     beta= 0.05
     Davidson diagonalization with overlap
     c_bands:  1 eigenvalues not converged
     c_bands:  2 eigenvalues not converged
     c_bands:  1 eigenvalues not converged
     ethr =  1.69E-05,  avg # of iterations = 13.5

     negative rho (up, down):  6.995E-03 0.000E+00
 
     Adding external electric field

     Computed dipole along edir(3) : 
        Dipole                1.3696 Ry au,          3.4813 Debye
        Dipole field          0.0026 Ry au, 
 
        Potential amp.       -0.2396 Ry
        Total length         46.3494 bohr
 

     total cpu time spent up to now is      943.4 secs

     total energy              =   -2976.49070360 Ry
     estimated scf accuracy    <       0.09240209 Ry

     iteration # 35     ecut=    29.40 Ry     beta= 0.05
     Davidson diagonalization with overlap
     ethr =  1.69E-05,  avg # of iterations =  2.8

     negative rho (up, down):  8.666E-03 0.000E+00
 
     Adding external electric field

     Computed dipole along edir(3) : 
        Dipole                1.4326 Ry au,          3.6414 Debye
        Dipole field          0.0027 Ry au, 
 
        Potential amp.       -0.2506 Ry
        Total length         46.3494 bohr
 

     total cpu time spent up to now is      957.4 secs

     total energy              =   -2976.48793173 Ry
     estimated scf accuracy    <       0.04361271 Ry

     iteration # 36     ecut=    29.40 Ry     beta= 0.05
     Davidson diagonalization with overlap
     ethr =  1.08E-05,  avg # of iterations =  9.2

     negative rho (up, down):  8.207E-03 0.000E+00
 
     Adding external electric field

     Computed dipole along edir(3) : 
        Dipole                1.4073 Ry au,          3.5771 Debye
        Dipole field          0.0027 Ry au, 
 
        Potential amp.       -0.2462 Ry
        Total length         46.3494 bohr
 

     total cpu time spent up to now is      975.1 secs

     total energy              =   -2976.49060272 Ry
     estimated scf accuracy    <       0.01064493 Ry

     iteration # 37     ecut=    29.40 Ry     beta= 0.05
     Davidson diagonalization with overlap
     ethr =  2.63E-06,  avg # of iterations = 14.7

     negative rho (up, down):  9.607E-03 0.000E+00
 
     Adding external electric field

     Computed dipole along edir(3) : 
        Dipole                1.3804 Ry au,          3.5087 Debye
        Dipole field          0.0026 Ry au, 
 
        Potential amp.       -0.2415 Ry
        Total length         46.3494 bohr
 

     total cpu time spent up to now is      999.4 secs

     total energy              =   -2976.49156098 Ry
     estimated scf accuracy    <       0.00458400 Ry

     iteration # 38     ecut=    29.40 Ry     beta= 0.05
     Davidson diagonalization with overlap
     ethr =  1.13E-06,  avg # of iterations =  9.5

     negative rho (up, down):  1.185E-02 0.000E+00
 
     Adding external electric field

     Computed dipole along edir(3) : 
        Dipole                1.4977 Ry au,          3.8067 Debye
        Dipole field          0.0028 Ry au, 
 
        Potential amp.       -0.2620 Ry
        Total length         46.3494 bohr
 

     total cpu time spent up to now is     1020.5 secs

     total energy              =   -2976.49178365 Ry
     estimated scf accuracy    <       0.00501375 Ry

     iteration # 39     ecut=    29.40 Ry     beta= 0.05
     Davidson diagonalization with overlap
     c_bands:  2 eigenvalues not converged
     ethr =  1.13E-06,  avg # of iterations = 11.5

     negative rho (up, down):  1.416E-02 0.000E+00
 
     Adding external electric field

     Computed dipole along edir(3) : 
        Dipole                1.5245 Ry au,          3.8749 Debye
        Dipole field          0.0029 Ry au, 
 
        Potential amp.       -0.2667 Ry
        Total length         46.3494 bohr
 

     total cpu time spent up to now is     1038.9 secs

     total energy              =   -2976.49240780 Ry
     estimated scf accuracy    <       0.00311350 Ry

     iteration # 40     ecut=    29.40 Ry     beta= 0.05
     Davidson diagonalization with overlap
     c_bands:  2 eigenvalues not converged
     ethr =  7.69E-07,  avg # of iterations = 10.9

     negative rho (up, down):  1.448E-02 0.000E+00
 
     Adding external electric field

     Computed dipole along edir(3) : 
        Dipole                1.5148 Ry au,          3.8502 Debye
        Dipole field          0.0029 Ry au, 
 
        Potential amp.       -0.2650 Ry
        Total length         46.3494 bohr
 

     total cpu time spent up to now is     1058.9 secs

     total energy              =   -2976.49252717 Ry
     estimated scf accuracy    <       0.00358402 Ry

     iteration # 41     ecut=    29.40 Ry     beta= 0.05
     Davidson diagonalization with overlap
     c_bands:  1 eigenvalues not converged
     ethr =  7.69E-07,  avg # of iterations =  7.4

     negative rho (up, down):  1.459E-02 0.000E+00
 
     Adding external electric field

     Computed dipole along edir(3) : 
        Dipole                1.5126 Ry au,          3.8445 Debye
        Dipole field          0.0029 Ry au, 
 
        Potential amp.       -0.2646 Ry
        Total length         46.3494 bohr
 

     total cpu time spent up to now is     1074.7 secs

     total energy              =   -2976.49255215 Ry
     estimated scf accuracy    <       0.00124318 Ry

     iteration # 42     ecut=    29.40 Ry     beta= 0.05
     Davidson diagonalization with overlap
     ethr =  3.07E-07,  avg # of iterations =  8.4

     negative rho (up, down):  1.453E-02 0.000E+00
 
     Adding external electric field

     Computed dipole along edir(3) : 
        Dipole                1.5231 Ry au,          3.8713 Debye
        Dipole field          0.0029 Ry au, 
 
        Potential amp.       -0.2664 Ry
        Total length         46.3494 bohr
 

     total cpu time spent up to now is     1092.0 secs

     total energy              =   -2976.49271383 Ry
     estimated scf accuracy    <       0.00042177 Ry

     iteration # 43     ecut=    29.40 Ry     beta= 0.05
     Davidson diagonalization with overlap
     ethr =  1.04E-07,  avg # of iterations =  8.4

     negative rho (up, down):  1.465E-02 0.000E+00
 
     Adding external electric field

     Computed dipole along edir(3) : 
        Dipole                1.5226 Ry au,          3.8700 Debye
        Dipole field          0.0029 Ry au, 
 
        Potential amp.       -0.2664 Ry
        Total length         46.3494 bohr
 

     total cpu time spent up to now is     1109.8 secs

     total energy              =   -2976.49276403 Ry
     estimated scf accuracy    <       0.00049037 Ry

     iteration # 44     ecut=    29.40 Ry     beta= 0.05
     Davidson diagonalization with overlap
     ethr =  1.04E-07,  avg # of iterations =  5.9

     negative rho (up, down):  1.441E-02 0.000E+00
 
     Adding external electric field

     Computed dipole along edir(3) : 
        Dipole                1.4992 Ry au,          3.8106 Debye
        Dipole field          0.0028 Ry au, 
 
        Potential amp.       -0.2623 Ry
        Total length         46.3494 bohr
 

     total cpu time spent up to now is     1124.9 secs

     total energy              =   -2976.49266384 Ry
     estimated scf accuracy    <       0.00047511 Ry

     iteration # 45     ecut=    29.40 Ry     beta= 0.05
     Davidson diagonalization with overlap
     ethr =  1.04E-07,  avg # of iterations =  9.7

     negative rho (up, down):  1.480E-02 0.000E+00
 
     Adding external electric field

     Computed dipole along edir(3) : 
        Dipole                1.5048 Ry au,          3.8248 Debye
        Dipole field          0.0028 Ry au, 
 
        Potential amp.       -0.2632 Ry
        Total length         46.3494 bohr
 

     total cpu time spent up to now is     1145.5 secs

     total energy              =   -2976.49277359 Ry
     estimated scf accuracy    <       0.00011288 Ry

     iteration # 46     ecut=    29.40 Ry     beta= 0.05
     Davidson diagonalization with overlap
     ethr =  2.79E-08,  avg # of iterations = 10.3

     negative rho (up, down):  1.519E-02 0.000E+00
 
     Adding external electric field

     Computed dipole along edir(3) : 
        Dipole                1.5020 Ry au,          3.8177 Debye
        Dipole field          0.0028 Ry au, 
 
        Potential amp.       -0.2628 Ry
        Total length         46.3494 bohr
 

     total cpu time spent up to now is     1166.5 secs

     total energy              =   -2976.49281308 Ry
     estimated scf accuracy    <       0.00009249 Ry

     iteration # 47     ecut=    29.40 Ry     beta= 0.05
     Davidson diagonalization with overlap
     ethr =  2.28E-08,  avg # of iterations = 10.6

     negative rho (up, down):  1.563E-02 0.000E+00
 
     Adding external electric field

     Computed dipole along edir(3) : 
        Dipole                1.5020 Ry au,          3.8178 Debye
        Dipole field          0.0028 Ry au, 
 
        Potential amp.       -0.2628 Ry
        Total length         46.3494 bohr
 

     total cpu time spent up to now is     1184.8 secs

     total energy              =   -2976.49284662 Ry
     estimated scf accuracy    <       0.00003546 Ry

     iteration # 48     ecut=    29.40 Ry     beta= 0.05
     Davidson diagonalization with overlap
     ethr =  8.75E-09,  avg # of iterations = 12.8

     negative rho (up, down):  1.555E-02 0.000E+00
 
     Adding external electric field

     Computed dipole along edir(3) : 
        Dipole                1.5010 Ry au,          3.8151 Debye
        Dipole field          0.0028 Ry au, 
 
        Potential amp.       -0.2626 Ry
        Total length         46.3494 bohr
 

     total cpu time spent up to now is     1211.4 secs

     total energy              =   -2976.49287278 Ry
     estimated scf accuracy    <       0.00004056 Ry

     iteration # 49     ecut=    29.40 Ry     beta= 0.05
     Davidson diagonalization with overlap
     ethr =  8.75E-09,  avg # of iterations =  7.2

     negative rho (up, down):  1.553E-02 0.000E+00
 
     Adding external electric field

     Computed dipole along edir(3) : 
        Dipole                1.5016 Ry au,          3.8166 Debye
        Dipole field          0.0028 Ry au, 
 
        Potential amp.       -0.2627 Ry
        Total length         46.3494 bohr
 

     total cpu time spent up to now is     1226.8 secs

     total energy              =   -2976.49289101 Ry
     estimated scf accuracy    <       0.00001819 Ry

     iteration # 50     ecut=    29.40 Ry     beta= 0.05
     Davidson diagonalization with overlap
     ethr =  4.49E-09,  avg # of iterations =  9.7

     negative rho (up, down):  1.567E-02 0.000E+00
 
     Adding external electric field

     Computed dipole along edir(3) : 
        Dipole                1.5020 Ry au,          3.8176 Debye
        Dipole field          0.0028 Ry au, 
 
        Potential amp.       -0.2627 Ry
        Total length         46.3494 bohr
 

     total cpu time spent up to now is     1247.9 secs

     total energy              =   -2976.49291279 Ry
     estimated scf accuracy    <       0.00000723 Ry

     iteration # 51     ecut=    29.40 Ry     beta= 0.05
     Davidson diagonalization with overlap
     ethr =  1.79E-09,  avg # of iterations = 14.0

     negative rho (up, down):  1.570E-02 0.000E+00
 
     Adding external electric field

     Computed dipole along edir(3) : 
        Dipole                1.5022 Ry au,          3.8181 Debye
        Dipole field          0.0028 Ry au, 
 
        Potential amp.       -0.2628 Ry
        Total length         46.3494 bohr
 

     total cpu time spent up to now is     1274.4 secs

     total energy              =   -2976.49292977 Ry
     estimated scf accuracy    <       0.00001284 Ry

     iteration # 52     ecut=    29.40 Ry     beta= 0.05
     Davidson diagonalization with overlap
     ethr =  1.79E-09,  avg # of iterations =  6.6

     negative rho (up, down):  1.569E-02 0.000E+00
 
     Adding external electric field

     Computed dipole along edir(3) : 
        Dipole                1.5023 Ry au,          3.8186 Debye
        Dipole field          0.0028 Ry au, 
 
        Potential amp.       -0.2628 Ry
        Total length         46.3494 bohr
 

     total cpu time spent up to now is     1290.2 secs

     total energy              =   -2976.49294304 Ry
     estimated scf accuracy    <       0.00000919 Ry

     iteration # 53     ecut=    29.40 Ry     beta= 0.05
     Davidson diagonalization with overlap
     ethr =  1.79E-09,  avg # of iterations =  3.1

     negative rho (up, down):  1.564E-02 0.000E+00
 
     Adding external electric field

     Computed dipole along edir(3) : 
        Dipole                1.5006 Ry au,          3.8142 Debye
        Dipole field          0.0028 Ry au, 
 
        Potential amp.       -0.2625 Ry
        Total length         46.3494 bohr
 

     total cpu time spent up to now is     1304.9 secs

     total energy              =   -2976.49295569 Ry
     estimated scf accuracy    <       0.00000494 Ry

     iteration # 54     ecut=    29.40 Ry     beta= 0.05
     Davidson diagonalization with overlap
     ethr =  1.22E-09,  avg # of iterations =  8.2

     negative rho (up, down):  1.564E-02 0.000E+00
 
     Adding external electric field

     Computed dipole along edir(3) : 
        Dipole                1.5004 Ry au,          3.8137 Debye
        Dipole field          0.0028 Ry au, 
 
        Potential amp.       -0.2625 Ry
        Total length         46.3494 bohr
 

     total cpu time spent up to now is     1322.2 secs

     total energy              =   -2976.49296745 Ry
     estimated scf accuracy    <       0.00000195 Ry

     iteration # 55     ecut=    29.40 Ry     beta= 0.05
     Davidson diagonalization with overlap
     ethr =  4.83E-10,  avg # of iterations =  9.4

     negative rho (up, down):  1.565E-02 0.000E+00
 
     Adding external electric field

     Computed dipole along edir(3) : 
        Dipole                1.5012 Ry au,          3.8158 Debye
        Dipole field          0.0028 Ry au, 
 
        Potential amp.       -0.2626 Ry
        Total length         46.3494 bohr
 

     total cpu time spent up to now is     1345.0 secs

     total energy              =   -2976.49297816 Ry
     estimated scf accuracy    <       0.00000143 Ry

     iteration # 56     ecut=    29.40 Ry     beta= 0.05
     Davidson diagonalization with overlap
     ethr =  3.52E-10,  avg # of iterations =  2.0

     negative rho (up, down):  1.561E-02 0.000E+00
 
     Adding external electric field

     Computed dipole along edir(3) : 
        Dipole                1.5020 Ry au,          3.8176 Debye
        Dipole field          0.0028 Ry au, 
 
        Potential amp.       -0.2627 Ry
        Total length         46.3494 bohr
 

     total cpu time spent up to now is     1358.9 secs

     total energy              =   -2976.49298752 Ry
     estimated scf accuracy    <       0.00000095 Ry

     iteration # 57     ecut=    29.40 Ry     beta= 0.05
     Davidson diagonalization with overlap
     ethr =  2.35E-10,  avg # of iterations = 16.4

     negative rho (up, down):  1.560E-02 0.000E+00
 
     Adding external electric field

     Computed dipole along edir(3) : 
        Dipole                1.5012 Ry au,          3.8156 Debye
        Dipole field          0.0028 Ry au, 
 
        Potential amp.       -0.2626 Ry
        Total length         46.3494 bohr
 

     total cpu time spent up to now is     1387.7 secs

     total energy              =   -2976.49299608 Ry
     estimated scf accuracy    <       0.00000133 Ry

     iteration # 58     ecut=    29.40 Ry     beta= 0.05
     Davidson diagonalization with overlap
     ethr =  2.35E-10,  avg # of iterations = 10.2

     negative rho (up, down):  1.559E-02 0.000E+00
 
     Adding external electric field

     Computed dipole along edir(3) : 
        Dipole                1.5008 Ry au,          3.8147 Debye
        Dipole field          0.0028 Ry au, 
 
        Potential amp.       -0.2625 Ry
        Total length         46.3494 bohr
 

     total cpu time spent up to now is     1407.1 secs

     total energy              =   -2976.49300380 Ry
     estimated scf accuracy    <       0.00000031 Ry

     iteration # 59     ecut=    29.40 Ry     beta= 0.05
     Davidson diagonalization with overlap
     ethr =  7.70E-11,  avg # of iterations = 10.7

     negative rho (up, down):  1.559E-02 0.000E+00
 
     Adding external electric field

     Computed dipole along edir(3) : 
        Dipole                1.5010 Ry au,          3.8152 Debye
        Dipole field          0.0028 Ry au, 
 
        Potential amp.       -0.2626 Ry
        Total length         46.3494 bohr
 

     total cpu time spent up to now is     1432.5 secs

     total energy              =   -2976.49301072 Ry
     estimated scf accuracy    <       0.00000029 Ry

     iteration # 60     ecut=    29.40 Ry     beta= 0.05
     Davidson diagonalization with overlap
     ethr =  7.15E-11,  avg # of iterations =  6.0

     negative rho (up, down):  1.558E-02 0.000E+00
 
     Adding external electric field

     Computed dipole along edir(3) : 
        Dipole                1.5012 Ry au,          3.8156 Debye
        Dipole field          0.0028 Ry au, 
 
        Potential amp.       -0.2626 Ry
        Total length         46.3494 bohr
 

     total cpu time spent up to now is     1448.1 secs

     total energy              =   -2976.49301694 Ry
     estimated scf accuracy    <       0.00000013 Ry

     iteration # 61     ecut=    29.40 Ry     beta= 0.05
     Davidson diagonalization with overlap
     ethr =  3.33E-11,  avg # of iterations = 12.8

     negative rho (up, down):  1.558E-02 0.000E+00
 
     Adding external electric field

     Computed dipole along edir(3) : 
        Dipole                1.5011 Ry au,          3.8154 Debye
        Dipole field          0.0028 Ry au, 
 
        Potential amp.       -0.2626 Ry
        Total length         46.3494 bohr
 

     total cpu time spent up to now is     1473.4 secs

     total energy              =   -2976.49302261 Ry
     estimated scf accuracy    <       0.00000012 Ry

     iteration # 62     ecut=    29.40 Ry     beta= 0.05
     Davidson diagonalization with overlap
     ethr =  3.06E-11,  avg # of iterations =  2.8

     negative rho (up, down):  1.567E-02 0.000E+00
 
     Adding external electric field

     Computed dipole along edir(3) : 
        Dipole                1.5003 Ry au,          3.8133 Debye
        Dipole field          0.0028 Ry au, 
 
        Potential amp.       -0.2624 Ry
        Total length         46.3494 bohr
 

     total cpu time spent up to now is     1487.7 secs

     End of self-consistent calculation

          k = 0.0000 0.0000 0.0000 ( 18029 PWs)   bands (ev):

   -55.2999 -55.1744 -55.1404 -55.0045 -54.9950 -54.9908 -54.9696 -54.9613
   -54.9313 -54.8826 -54.8507 -54.8144 -54.7913 -54.7509 -54.1379 -54.1039
   -31.6571 -31.6270 -31.5458 -31.4963 -31.4940 -31.4910 -31.4666 -31.4474
   -31.4200 -31.4153 -31.3708 -31.3341 -31.3267 -31.2791 -31.2661 -31.2588
   -31.2521 -31.2318 -31.2164 -31.1992 -31.1853 -31.1829 -31.1727 -31.1690
   -31.1502 -31.1274 -31.1249 -31.1213 -31.1115 -31.1036 -31.0977 -31.0773
   -31.0678 -31.0556 -31.0380 -31.0247 -31.0238 -31.0122 -31.0090 -31.0063
   -30.9802 -30.9407 -30.5436 -30.4583 -30.4358 -30.3611 -30.2748 -30.1630
   -18.8696 -16.0990 -15.8103 -15.6591 -15.4895 -15.3421 -15.2555 -15.0561
   -14.9402 -14.9010 -14.8821 -14.8084 -14.7061 -14.7055 -14.6616 -14.6343
   -14.6299 -14.6011 -14.5899 -14.5881 -14.5696 -14.5211 -14.5062 -14.4613
   -14.4551 -14.4156 -14.3037 -14.2341 -14.1895 -14.1174 -13.9972 -13.0862
   -12.6371 -12.5209 -10.7875  -7.5746  -6.2389  -5.5803  -3.7459  -3.6300
    -3.4646  -3.1667  -3.1001  -3.0722  -3.0450  -2.8919  -2.7666  -2.5860
    -2.4755  -2.4312  -2.3137  -2.2960  -2.2140  -2.1659  -2.1217  -2.0734
    -2.0433  -1.9784  -1.9610  -1.9564  -1.9281  -1.8615  -1.8338  -1.7186
    -1.6901  -1.6257  -1.5681  -1.4981  -1.4825  -1.4757  -1.4684  -1.4575
    -1.4287  -1.4135  -1.3822  -1.3417  -1.2612  -1.2073  -1.2011  -1.1598
    -1.0768  -0.8920  -0.7687  -0.7445  -0.6871  -0.6433  -0.5918  -0.5798
    -0.5562  -0.5179  -0.4119  -0.3981  -0.3349  -0.3062  -0.2428  -0.1925
    -0.1647  -0.1007  -0.0399   0.0482   0.0682   0.0861   0.1275   0.1745
     0.2454   0.2811   0.3203   0.3511   0.4391   0.4931   0.5533   0.5602
     0.5925   0.6653   0.7211   0.7685   0.7891   0.8082   0.8594   0.8749
     0.9186   0.9730   1.0151   1.0311   1.1006   1.1592   1.2045   1.2400
     1.3376   1.3547   1.5124   1.5678   1.8354   1.8878   1.9556   2.0813
     2.4543   2.4991   3.9342   4.0545   4.0657   4.0884   4.1673   4.2302
     4.3971   4.4044   4.5164   4.6172

          k = 0.0000 0.0419 0.0000 ( 17933 PWs)   bands (ev):

   -55.2995 -55.1694 -55.1453 -54.9994 -54.9911 -54.9900 -54.9746 -54.9662
   -54.9281 -54.8857 -54.8465 -54.8185 -54.7880 -54.7540 -54.1329 -54.1088
   -31.6032 -31.5962 -31.5430 -31.4906 -31.4619 -31.4607 -31.4393 -31.4300
   -31.4072 -31.3620 -31.3381 -31.3357 -31.3129 -31.2954 -31.2539 -31.2505
   -31.2457 -31.2440 -31.2424 -31.2027 -31.1963 -31.1888 -31.1753 -31.1683
   -31.1666 -31.1619 -31.1559 -31.1301 -31.1261 -31.1173 -31.0995 -31.0933
   -31.0818 -31.0755 -31.0626 -31.0470 -31.0262 -31.0225 -31.0091 -31.0052
   -30.9948 -30.9718 -30.4895 -30.4548 -30.4388 -30.3486 -30.2873 -30.2201
   -18.8678 -16.0872 -15.6881 -15.5502 -15.3877 -15.2516 -15.1687 -15.0050
   -14.9539 -14.9491 -14.8863 -14.8344 -14.8276 -14.6895 -14.6588 -14.6465
   -14.6354 -14.6133 -14.6097 -14.5749 -14.5572 -14.5327 -14.5248 -14.4962
   -14.4426 -14.4162 -14.3620 -14.2914 -14.2486 -14.1695 -14.0709 -13.0908
   -12.6413 -12.5605 -10.7887  -7.5766  -6.2378  -5.5769  -3.7282  -3.6465
    -3.4431  -2.9991  -2.9522  -2.8979  -2.8799  -2.7406  -2.6383  -2.4668
    -2.3340  -2.2773  -2.2558  -2.2287  -2.1763  -2.1495  -2.1427  -2.0980
    -2.0762  -2.0665  -2.0310  -1.9980  -1.9392  -1.9106  -1.8753  -1.8387
    -1.8297  -1.7876  -1.7613  -1.7044  -1.6769  -1.6456  -1.5987  -1.5809
    -1.4747  -1.3900  -1.3555  -1.2772  -1.2000  -1.1498  -1.0550  -0.9501
    -0.9068  -0.8685  -0.8476  -0.7964  -0.6749  -0.5855  -0.5763  -0.4674
    -0.3811  -0.3522  -0.3331  -0.2878  -0.1980  -0.1829  -0.1543  -0.1198
    -0.0841  -0.0609  -0.0167   0.0162   0.0319   0.0764   0.1114   0.1603
     0.1909   0.2630   0.2846   0.3030   0.3502   0.3937   0.4653   0.5256
     0.5687   0.5821   0.6301   0.6717   0.7098   0.7161   0.7472   0.8028
     0.8673   0.8940   0.9782   1.0085   1.0645   1.0838   1.1108   1.1738
     1.1953   1.2198   1.2993   1.4340   1.5078   1.8382   2.0777   2.1715
     2.4093   2.4115   4.1588   4.1701   4.2063   4.3128   4.3594   4.3852
     4.4083   4.5042   4.5114   4.5490

          k = 0.0000-0.0839 0.0000 ( 17884 PWs)   bands (ev):

   -55.2991 -55.1578 -55.1568 -54.9914 -54.9885 -54.9856 -54.9789 -54.9771
   -54.9244 -54.8893 -54.8404 -54.8245 -54.7840 -54.7579 -54.1212 -54.1203
   -31.5582 -31.5401 -31.4923 -31.4713 -31.4706 -31.4524 -31.4515 -31.4142
   -31.3103 -31.3051 -31.2995 -31.2976 -31.2946 -31.2798 -31.2788 -31.2646
   -31.2448 -31.2434 -31.2291 -31.2199 -31.2161 -31.2140 -31.2085 -31.2067
   -31.2039 -31.2014 -31.1623 -31.1545 -31.1500 -31.1458 -31.1224 -31.1121
   -31.0890 -31.0876 -31.0735 -31.0678 -31.0319 -31.0208 -31.0172 -31.0085
   -31.0038 -30.9924 -30.4469 -30.4463 -30.3572 -30.3560 -30.3183 -30.3176
   -18.8661 -16.0779 -15.4505 -15.3301 -15.2560 -15.2413 -15.1612 -15.0948
   -14.9960 -14.9452 -14.9055 -14.8700 -14.8099 -14.7783 -14.7679 -14.6955
   -14.6704 -14.6130 -14.5740 -14.5250 -14.5061 -14.5026 -14.4978 -14.4465
   -14.4186 -14.4136 -14.4071 -14.3743 -14.3604 -14.2575 -14.1808 -13.0953
   -12.6235 -12.6229 -10.7901  -7.5786  -6.2369  -5.5736  -3.6914  -3.6874
    -3.4182  -2.6790  -2.6230  -2.6201  -2.5114  -2.4789  -2.4622  -2.4598
    -2.4385  -2.4069  -2.3834  -2.3197  -2.2433  -2.2178  -2.1950  -2.1742
    -2.1302  -2.1094  -2.0777  -2.0648  -2.0607  -2.0008  -1.9518  -1.9236
    -1.8738  -1.8471  -1.8224  -1.7401  -1.6978  -1.6723  -1.5122  -1.4576
    -1.4205  -1.3106  -1.2520  -1.2257  -1.1084  -1.0764  -1.0099  -0.8861
    -0.8486  -0.8349  -0.7865  -0.6908  -0.6073  -0.5954  -0.5574  -0.5377
    -0.5297  -0.4790  -0.4604  -0.3987  -0.3655  -0.2961  -0.2697  -0.1584
    -0.0456   0.0046   0.0794   0.1185   0.1789   0.1984   0.2081   0.2638
     0.2854   0.3109   0.3184   0.3458   0.3826   0.3886   0.4232   0.4343
     0.4796   0.4974   0.5170   0.5691   0.6058   0.6286   0.6884   0.7166
     0.7425   0.7620   0.8070   0.8981   0.9381   0.9996   1.0327   1.0965
     1.1005   1.1386   1.2765   1.3714   1.5772   1.5999   2.2193   2.2283
     2.3450   2.3464   4.3433   4.3598   4.3935   4.4051   4.4474   4.4825
     4.5303   4.5359   4.5399   4.5857

          k = 0.0380 0.0000 0.0000 ( 17913 PWs)   bands (ev):

   -55.2998 -55.1743 -55.1403 -55.0044 -54.9948 -54.9907 -54.9695 -54.9612
   -54.9313 -54.8825 -54.8507 -54.8143 -54.7912 -54.7508 -54.1378 -54.1038
   -31.6580 -31.6284 -31.5434 -31.4969 -31.4959 -31.4908 -31.4664 -31.4475
   -31.4208 -31.4199 -31.3711 -31.3345 -31.3238 -31.2788 -31.2519 -31.2505
   -31.2449 -31.2316 -31.2160 -31.1946 -31.1826 -31.1780 -31.1726 -31.1688
   -31.1481 -31.1401 -31.1272 -31.1247 -31.1110 -31.1034 -31.0976 -31.0782
   -31.0678 -31.0555 -31.0379 -31.0331 -31.0306 -31.0119 -31.0081 -31.0037
   -30.9800 -30.9406 -30.5431 -30.4616 -30.4338 -30.3609 -30.2747 -30.1628
   -18.8690 -16.0908 -15.7308 -15.5801 -15.4171 -15.3071 -15.2135 -15.0973
   -15.0077 -14.9408 -14.9092 -14.8611 -14.7703 -14.7617 -14.7196 -14.7087
   -14.6918 -14.6728 -14.6469 -14.5530 -14.5110 -14.4689 -14.4189 -14.4142
   -14.3618 -14.3381 -14.3257 -14.2998 -14.2649 -14.1147 -13.9966 -13.0871
   -12.6338 -12.5206 -10.7882  -7.5786  -6.2307  -5.5806  -3.7634  -3.6193
    -3.4283  -3.0024  -2.8998  -2.8723  -2.7972  -2.7798  -2.6847  -2.5720
    -2.5079  -2.4778  -2.4461  -2.4293  -2.3562  -2.2438  -2.2338  -2.0962
    -1.9925  -1.9529  -1.8995  -1.8576  -1.8092  -1.7846  -1.7231  -1.6946
    -1.6503  -1.5949  -1.5719  -1.5371  -1.5245  -1.4437  -1.4363  -1.4210
    -1.4010  -1.3646  -1.2716  -1.2388  -1.1847  -1.1247  -1.0706  -1.0376
    -0.9353  -0.9205  -0.8613  -0.8105  -0.7600  -0.6682  -0.6411  -0.6025
    -0.5704  -0.5298  -0.4809  -0.4569  -0.4075  -0.3717  -0.3386  -0.3039
    -0.2715  -0.2149  -0.1088  -0.0373   0.0142   0.1330   0.1605   0.1963
     0.2108   0.2632   0.3232   0.3601   0.4331   0.4647   0.5188   0.5367
     0.5758   0.5930   0.6397   0.6611   0.6943   0.7295   0.7528   0.7790
     0.8420   0.8927   0.9998   1.0153   1.0601   1.0671   1.1061   1.1992
     1.2275   1.3403   1.4483   1.5381   1.8164   1.8515   1.8996   2.0511
     2.3434   2.4172   3.9554   4.0230   4.1611   4.3200   4.3429   4.4014
     4.4046   4.4147   4.4604   4.4840

          k = 0.0380 0.0419 0.0000 ( 17878 PWs)   bands (ev):

   -55.2994 -55.1693 -55.1453 -54.9993 -54.9910 -54.9898 -54.9746 -54.9661
   -54.9281 -54.8857 -54.8465 -54.8184 -54.7880 -54.7540 -54.1328 -54.1087
   -31.6040 -31.5974 -31.5410 -31.4905 -31.4617 -31.4608 -31.4416 -31.4301
   -31.4074 -31.3684 -31.3386 -31.3358 -31.3104 -31.2954 -31.2517 -31.2453
   -31.2422 -31.2388 -31.2343 -31.1978 -31.1887 -31.1854 -31.1754 -31.1671
   -31.1653 -31.1615 -31.1558 -31.1349 -31.1299 -31.1263 -31.0993 -31.0912
   -31.0859 -31.0753 -31.0626 -31.0471 -31.0294 -31.0286 -31.0103 -31.0067
   -30.9944 -30.9715 -30.4892 -30.4574 -30.4378 -30.3484 -30.2874 -30.2200
   -18.8674 -16.0820 -15.6163 -15.4752 -15.3264 -15.2200 -15.1111 -15.0430
   -14.9966 -14.9469 -14.8885 -14.8646 -14.8228 -14.7862 -14.7489 -14.7043
   -14.6614 -14.6558 -14.6242 -14.5946 -14.5320 -14.5022 -14.4616 -14.4417
   -14.4112 -14.4014 -14.3816 -14.3458 -14.3150 -14.1657 -14.0707 -13.0913
   -12.6390 -12.5608 -10.7886  -7.5799  -6.2319  -5.5747  -3.7354  -3.6343
    -3.4263  -2.8400  -2.7699  -2.7351  -2.6235  -2.6122  -2.5388  -2.4378
    -2.3436  -2.3332  -2.2786  -2.2272  -2.1891  -2.1625  -2.0962  -2.0627
    -2.0413  -2.0094  -1.9915  -1.9575  -1.8958  -1.8645  -1.8510  -1.8328
    -1.7886  -1.7721  -1.7396  -1.7171  -1.6664  -1.6206  -1.5656  -1.5157
    -1.4217  -1.3352  -1.2829  -1.2464  -1.1757  -1.1299  -1.0983  -0.9981
    -0.9388  -0.8520  -0.8012  -0.7667  -0.6848  -0.6481  -0.5788  -0.5412
    -0.5067  -0.4375  -0.4143  -0.3550  -0.3320  -0.2829  -0.2646  -0.2065
    -0.1604  -0.1152  -0.0994  -0.0717  -0.0084   0.0535   0.0735   0.1076
     0.1273   0.1763   0.1967   0.2335   0.2614   0.3503   0.4044   0.4301
     0.4503   0.4739   0.5407   0.5595   0.6022   0.6381   0.7294   0.8023
     0.8312   0.8916   0.9641   1.0131   1.0426   1.0997   1.1562   1.1890
     1.2285   1.2597   1.2889   1.4194   1.4812   1.7761   2.0879   2.1752
     2.3320   2.3920   4.1467   4.1668   4.2117   4.3605   4.4027   4.4508
     4.4637   4.5222   4.5367   4.5642

          k = 0.0380-0.0839 0.0000 ( 17916 PWs)   bands (ev):

   -55.2991 -55.1578 -55.1568 -54.9914 -54.9884 -54.9856 -54.9789 -54.9771
   -54.9245 -54.8894 -54.8404 -54.8246 -54.7841 -54.7580 -54.1213 -54.1203
   -31.5592 -31.5387 -31.4923 -31.4720 -31.4714 -31.4524 -31.4515 -31.4142
   -31.3126 -31.3065 -31.3009 -31.2994 -31.2953 -31.2787 -31.2776 -31.2661
   -31.2593 -31.2437 -31.2396 -31.2149 -31.2034 -31.2024 -31.2006 -31.1992
   -31.1984 -31.1898 -31.1607 -31.1541 -31.1503 -31.1457 -31.1235 -31.1216
   -31.0973 -31.0890 -31.0731 -31.0679 -31.0320 -31.0258 -31.0175 -31.0124
   -31.0069 -30.9927 -30.4479 -30.4472 -30.3571 -30.3559 -30.3183 -30.3176
   -18.8658 -16.0749 -15.4145 -15.2723 -15.1971 -15.1869 -15.1190 -15.0408
   -14.9688 -14.9471 -14.8948 -14.8591 -14.8533 -14.8097 -14.7745 -14.7352
   -14.6987 -14.6150 -14.5949 -14.5758 -14.5702 -14.5114 -14.5013 -14.4770
   -14.4606 -14.4572 -14.4293 -14.3804 -14.3524 -14.2451 -14.1813 -13.0962
   -12.6233 -12.6227 -10.7899  -7.5821  -6.2308  -5.5719  -3.6861  -3.6716
    -3.4198  -2.5945  -2.5064  -2.4683  -2.4325  -2.3423  -2.3070  -2.2667
    -2.2593  -2.2518  -2.2337  -2.2157  -2.1987  -2.1469  -2.1200  -2.0876
    -2.0708  -2.0409  -2.0330  -2.0188  -1.9899  -1.9786  -1.9054  -1.8726
    -1.8538  -1.8274  -1.8119  -1.7962  -1.7236  -1.6926  -1.5127  -1.3875
    -1.3495  -1.2888  -1.2534  -1.1694  -1.1079  -1.0640  -0.9945  -0.9832
    -0.9580  -0.9357  -0.9110  -0.8927  -0.8469  -0.8045  -0.7857  -0.6733
    -0.6522  -0.5567  -0.4758  -0.4394  -0.3970  -0.3202  -0.2715  -0.2313
    -0.1881  -0.0533  -0.0351  -0.0163   0.0334   0.0764   0.0901   0.1090
     0.1399   0.1780   0.1928   0.2416   0.2667   0.2747   0.2919   0.3249
     0.3790   0.4168   0.4944   0.5127   0.5401   0.6726   0.7252   0.7914
     0.8198   0.8918   0.9445   0.9643   0.9987   1.0135   1.0591   1.1213
     1.1817   1.1941   1.2900   1.3691   1.5594   1.5700   2.2324   2.2409
     2.3343   2.3357   4.2435   4.3468   4.3862   4.3911   4.4432   4.4715
     4.5495   4.5583   4.5800   4.6122

          k = 0.0380-0.0419 0.0000 ( 17876 PWs)   bands (ev):

   -55.2994 -55.1693 -55.1453 -54.9993 -54.9910 -54.9898 -54.9746 -54.9661
   -54.9281 -54.8857 -54.8465 -54.8184 -54.7880 -54.7540 -54.1328 -54.1087
   -31.6040 -31.5974 -31.5410 -31.4905 -31.4617 -31.4608 -31.4416 -31.4301
   -31.4074 -31.3684 -31.3386 -31.3358 -31.3105 -31.2960 -31.2511 -31.2453
   -31.2423 -31.2387 -31.2343 -31.1978 -31.1886 -31.1853 -31.1753 -31.1670
   -31.1651 -31.1619 -31.1558 -31.1351 -31.1299 -31.1262 -31.0993 -31.0912
   -31.0858 -31.0753 -31.0627 -31.0470 -31.0298 -31.0293 -31.0101 -31.0052
   -30.9948 -30.9718 -30.4892 -30.4574 -30.4378 -30.3484 -30.2874 -30.2200
   -18.8673 -16.0822 -15.6164 -15.4756 -15.3267 -15.2210 -15.1117 -15.0434
   -14.9987 -14.9472 -14.8899 -14.8562 -14.8227 -14.7902 -14.7427 -14.7127
   -14.6614 -14.6559 -14.6200 -14.5941 -14.5324 -14.5017 -14.4607 -14.4407
   -14.4116 -14.4015 -14.3822 -14.3462 -14.3141 -14.1660 -14.0715 -13.0920
   -12.6390 -12.5608 -10.7893  -7.5806  -6.2295  -5.5776  -3.7343  -3.6331
    -3.4238  -2.8376  -2.7607  -2.7293  -2.6232  -2.6122  -2.5437  -2.4632
    -2.3434  -2.3209  -2.2779  -2.2342  -2.1919  -2.1663  -2.1034  -2.0651
    -2.0443  -2.0055  -1.9879  -1.9647  -1.9000  -1.8642  -1.8526  -1.8282
    -1.7839  -1.7687  -1.7531  -1.6991  -1.6797  -1.6197  -1.5638  -1.5156
    -1.3920  -1.3360  -1.2901  -1.2560  -1.1679  -1.1248  -1.0846  -0.9824
    -0.9426  -0.8435  -0.8252  -0.7735  -0.6940  -0.6515  -0.6085  -0.5426
    -0.4783  -0.4149  -0.4047  -0.3624  -0.3339  -0.2754  -0.2540  -0.2041
    -0.1681  -0.1128  -0.1028  -0.0478  -0.0107   0.0415   0.0704   0.1150
     0.1344   0.1836   0.1985   0.2198   0.2652   0.3266   0.3805   0.4261
     0.4443   0.4893   0.5373   0.5641   0.5940   0.6337   0.7248   0.7862
     0.8127   0.8946   0.9737   1.0149   1.0475   1.1249   1.1472   1.1862
     1.2170   1.2704   1.2926   1.4256   1.4822   1.7753   2.0879   2.1753
     2.3318   2.3926   4.1475   4.1683   4.2361   4.3546   4.4105   4.4519
     4.4661   4.5244   4.5361   4.5673

          k =-0.0760-0.0000 0.0000 ( 17886 PWs)   bands (ev):

   -55.2997 -55.1743 -55.1403 -55.0043 -54.9946 -54.9907 -54.9695 -54.9612
   -54.9313 -54.8825 -54.8506 -54.8143 -54.7912 -54.7508 -54.1377 -54.1037
   -31.6588 -31.6298 -31.5413 -31.4988 -31.4964 -31.4906 -31.4662 -31.4476
   -31.4260 -31.4200 -31.3715 -31.3350 -31.3210 -31.2788 -31.2515 -31.2385
   -31.2319 -31.2160 -31.2128 -31.1899 -31.1823 -31.1736 -31.1729 -31.1710
   -31.1685 -31.1468 -31.1272 -31.1247 -31.1111 -31.1033 -31.0976 -31.0793
   -31.0679 -31.0554 -31.0435 -31.0381 -31.0377 -31.0119 -31.0069 -31.0016
   -30.9799 -30.9407 -30.5428 -30.4648 -30.4325 -30.3609 -30.2746 -30.1629
   -18.8684 -16.0840 -15.5990 -15.5144 -15.3408 -15.2822 -15.1914 -15.0765
   -15.0620 -14.9553 -14.9441 -14.9292 -14.8521 -14.8379 -14.8350 -14.7435
   -14.6906 -14.6810 -14.6308 -14.5540 -14.5001 -14.4859 -14.4379 -14.4152
   -14.3721 -14.3249 -14.3158 -14.2533 -14.2394 -14.1146 -13.9964 -13.0880
   -12.6309 -12.5203 -10.7891  -7.5825  -6.2228  -5.5808  -3.7768  -3.6136
    -3.3979  -2.9382  -2.8761  -2.6403  -2.5981  -2.5764  -2.5676  -2.5335
    -2.4684  -2.4583  -2.4278  -2.4211  -2.4120  -2.3797  -2.1371  -2.0096
    -1.9786  -1.8504  -1.8028  -1.7357  -1.7288  -1.7085  -1.6676  -1.6651
    -1.6289  -1.5597  -1.5215  -1.5176  -1.4672  -1.4579  -1.4122  -1.4002
    -1.3938  -1.3727  -1.3144  -1.3067  -1.2967  -1.1848  -1.1699  -1.0612
    -0.8999  -0.7777  -0.7632  -0.7514  -0.7446  -0.7345  -0.6776  -0.6461
    -0.6290  -0.6167  -0.5723  -0.5319  -0.4972  -0.4435  -0.4374  -0.3348
    -0.3083  -0.2461  -0.2286  -0.1947  -0.0825   0.0682   0.1191   0.1635
     0.1905   0.2287   0.2396   0.2921   0.3981   0.4192   0.4368   0.4697
     0.5154   0.5653   0.5793   0.6065   0.6222   0.7058   0.7183   0.7578
     0.8019   0.8460   0.8745   0.9366   1.0623   1.0911   1.1123   1.2453
     1.2638   1.3825   1.5160   1.5330   1.5442   1.8510   1.9206   2.0268
     2.2163   2.3620   3.9585   3.9870   4.2276   4.2406   4.2608   4.3060
     4.3907   4.4026   4.4573   4.4944

          k =-0.0760 0.0419 0.0000 ( 17914 PWs)   bands (ev):

   -55.2994 -55.1693 -55.1453 -54.9993 -54.9911 -54.9898 -54.9746 -54.9661
   -54.9282 -54.8857 -54.8465 -54.8185 -54.7880 -54.7540 -54.1328 -54.1088
   -31.6050 -31.5989 -31.5393 -31.4905 -31.4617 -31.4611 -31.4441 -31.4303
   -31.4076 -31.3746 -31.3393 -31.3361 -31.3084 -31.2961 -31.2525 -31.2452
   -31.2422 -31.2261 -31.2126 -31.1935 -31.1883 -31.1770 -31.1746 -31.1681
   -31.1664 -31.1614 -31.1593 -31.1522 -31.1298 -31.1264 -31.0993 -31.0913
   -31.0897 -31.0752 -31.0628 -31.0471 -31.0376 -31.0333 -31.0111 -31.0063
   -30.9946 -30.9717 -30.4889 -30.4602 -30.4371 -30.3484 -30.2874 -30.2200
   -18.8669 -16.0775 -15.5079 -15.4015 -15.2468 -15.1976 -15.1190 -15.0412
   -14.9837 -14.9302 -14.9122 -14.8868 -14.8540 -14.8457 -14.7873 -14.7596
   -14.7355 -14.6926 -14.6546 -14.6020 -14.5240 -14.4976 -14.4649 -14.4518
   -14.4323 -14.4010 -14.3564 -14.3436 -14.3211 -14.1644 -14.0721 -13.0926
   -12.6370 -12.5611 -10.7893  -7.5839  -6.2238  -5.5754  -3.7396  -3.6243
    -3.4080  -2.7803  -2.7491  -2.4901  -2.4279  -2.3769  -2.3586  -2.3108
    -2.2525  -2.2388  -2.2192  -2.2081  -2.1899  -2.1231  -2.1128  -2.1004
    -2.0342  -2.0167  -1.9174  -1.9017  -1.8572  -1.8358  -1.8277  -1.7529
    -1.7352  -1.7168  -1.6622  -1.6448  -1.6383  -1.6221  -1.5777  -1.5189
    -1.3593  -1.3034  -1.2917  -1.1829  -1.1513  -1.1360  -1.1051  -1.0455
    -0.9534  -0.8519  -0.8344  -0.7819  -0.7320  -0.6671  -0.6387  -0.6160
    -0.5791  -0.5128  -0.4786  -0.4477  -0.4215  -0.4024  -0.3879  -0.3527
    -0.3322  -0.2885  -0.2406  -0.2167  -0.1673  -0.1236  -0.0724  -0.0278
     0.0607   0.0909   0.1204   0.1497   0.1997   0.2697   0.2762   0.3538
     0.3902   0.4780   0.5221   0.5913   0.6396   0.6678   0.6910   0.7190
     0.7717   0.8981   0.9429   0.9729   1.1265   1.1783   1.2106   1.2408
     1.2958   1.3530   1.3965   1.4133   1.4890   1.5791   2.1015   2.1776
     2.2552   2.3813   4.1461   4.1629   4.2299   4.2892   4.3191   4.3424
     4.3811   4.4715   4.5712   4.6225

          k =-0.0760-0.0839 0.0000 ( 17948 PWs)   bands (ev):

   -55.2991 -55.1578 -55.1568 -54.9914 -54.9884 -54.9856 -54.9789 -54.9771
   -54.9246 -54.8894 -54.8405 -54.8246 -54.7841 -54.7580 -54.1213 -54.1204
   -31.5604 -31.5372 -31.4923 -31.4728 -31.4721 -31.4525 -31.4516 -31.4142
   -31.3148 -31.3080 -31.3023 -31.3009 -31.2957 -31.2775 -31.2765 -31.2675
   -31.2671 -31.2460 -31.2436 -31.2150 -31.2021 -31.1984 -31.1973 -31.1913
   -31.1767 -31.1666 -31.1585 -31.1533 -31.1506 -31.1457 -31.1414 -31.1222
   -31.1107 -31.0890 -31.0726 -31.0680 -31.0322 -31.0309 -31.0183 -31.0166
   -31.0099 -30.9928 -30.4488 -30.4482 -30.3571 -30.3559 -30.3183 -30.3177
   -18.8654 -16.0719 -15.3745 -15.1702 -15.1078 -15.0842 -15.0701 -15.0332
   -15.0069 -14.9528 -14.9335 -14.8758 -14.8450 -14.8320 -14.7603 -14.7448
   -14.6893 -14.6599 -14.6473 -14.6076 -14.6030 -14.5807 -14.5484 -14.5398
   -14.4745 -14.4606 -14.4571 -14.3647 -14.3554 -14.2351 -14.1828 -13.0971
   -12.6231 -12.6225 -10.7897  -7.5855  -6.2248  -5.5701  -3.6837  -3.6530
    -3.4208  -2.5863  -2.4486  -2.4383  -2.3028  -2.2895  -2.1937  -2.1467
    -2.0938  -2.0757  -2.0531  -2.0345  -2.0038  -1.9707  -1.9543  -1.9472
    -1.9191  -1.8968  -1.8714  -1.8659  -1.8301  -1.8253  -1.8040  -1.7808
    -1.7706  -1.7356  -1.7222  -1.7182  -1.7039  -1.6505  -1.6318  -1.4689
    -1.4380  -1.3474  -1.3137  -1.2905  -1.2813  -1.2556  -1.2384  -1.2177
    -1.1624  -1.1093  -1.0484  -0.9212  -0.8761  -0.8123  -0.7765  -0.6986
    -0.6573  -0.6243  -0.5960  -0.5725  -0.5387  -0.4823  -0.4045  -0.3501
    -0.3045  -0.2632  -0.1655  -0.1460  -0.1237  -0.1124  -0.0788  -0.0198
    -0.0132   0.0431   0.0617   0.1250   0.1398   0.1555   0.1736   0.2563
     0.3515   0.4322   0.4552   0.5467   0.5649   0.6536   0.7006   0.8016
     0.9142   0.9591   0.9994   1.0089   1.0924   1.0992   1.1540   1.1771
     1.2585   1.3481   1.4126   1.4208   1.4407   1.4946   2.2507   2.2593
     2.3193   2.3197   4.1849   4.3472   4.4272   4.4389   4.4709   4.4819
     4.5142   4.5168   4.6030   4.6141

     the Fermi energy is     3.9533 ev

!    total energy              =   -2976.49307423 Ry
     estimated scf accuracy    <       0.00000006 Ry
     smearing contrib. (-TS)   =      -0.02057086 Ry
     internal energy E=F+TS    =   -2976.47250337 Ry

     The total energy is F=E-TS. E is the sum of the following terms:
     one-electron contribution =  -23617.16162201 Ry
     hartree contribution      =   11908.30527101 Ry
     xc contribution           =    -495.77633984 Ry
     ewald contribution        =    9228.15593991 Ry
     electric field correction =       0.00424756 Ry

     convergence has been achieved in  62 iterations

     Forces acting on atoms (cartesian axes, Ry/au):

     atom    1 type  1   force =     0.00014532   -0.00012832    0.09535503
     atom    2 type  1   force =    -0.00003035    0.00039802   -0.17474777
     atom    3 type  2   force =     0.00004165   -0.00018203   -0.02255495
     atom    4 type  2   force =     0.00001465   -0.00200528    0.05319119
     atom    5 type  2   force =    -0.00813990   -0.00302462    0.00228364
     atom    6 type  2   force =     0.00923703   -0.00231977    0.00057600
     atom    7 type  1   force =    -0.00079294   -0.00508348    0.00569858
     atom    8 type  1   force =     0.00083761    0.00657083    0.01468600
     atom    9 type  2   force =     0.00011668    0.00043343    0.00075711
     atom   10 type  2   force =    -0.00346569    0.00091863   -0.01236578
     atom   11 type  2   force =    -0.00000191   -0.00055836    0.00027811
     atom   12 type  2   force =     0.00006429   -0.00043506    0.00022977
     atom   13 type  1   force =     0.00092351    0.00087240    0.00013263
     atom   14 type  1   force =    -0.00019301    0.00013622   -0.00044258
     atom   15 type  2   force =     0.00014560   -0.00075412   -0.00077511
     atom   16 type  2   force =     0.00011507   -0.00012878    0.00097596
     atom   17 type  2   force =    -0.00008533    0.00009727   -0.00003660
     atom   18 type  2   force =    -0.00000501    0.00026198   -0.00003214
     atom   19 type  1   force =     0.00017533   -0.00004658   -0.00007321
     atom   20 type  1   force =     0.00010630   -0.00004292   -0.00014626
     atom   21 type  2   force =     0.00009162   -0.00000078    0.10302134
     atom   22 type  2   force =     0.00021264    0.00016560    0.00044687
     atom   23 type  2   force =    -0.07212605   -0.00022356   -0.02759199
     atom   24 type  2   force =     0.07208360    0.00026433   -0.02760778
     atom   25 type  1   force =     0.00016696   -0.00030007    0.09519685
     atom   26 type  1   force =     0.00001354   -0.00124191   -0.17523644
     atom   27 type  2   force =    -0.00000292    0.00008155   -0.02152273
     atom   28 type  2   force =     0.00005480   -0.00043866    0.04876907
     atom   29 type  2   force =    -0.00786140    0.00198349    0.00252353
     atom   30 type  2   force =     0.00888868    0.00234224    0.00070274
     atom   31 type  1   force =    -0.00068999    0.00834435   -0.00446136
     atom   32 type  1   force =     0.00106173   -0.00751813    0.01446418
     atom   33 type  2   force =     0.00012628    0.00024035    0.00001633
     atom   34 type  2   force =    -0.00269964   -0.00027926   -0.01824031
     atom   35 type  2   force =    -0.00055527    0.00026697    0.00007957
     atom   36 type  2   force =     0.00072163    0.00039612    0.00023512
     atom   37 type  1   force =     0.00018604   -0.00037971    0.00027390
     atom   38 type  1   force =    -0.00006367   -0.00007862   -0.00074409
     atom   39 type  2   force =     0.00028727    0.00032209   -0.00015784
     atom   40 type  2   force =     0.00023426    0.00000305    0.00067503
     atom   41 type  2   force =    -0.00028349   -0.00028227    0.00006839
     atom   42 type  2   force =     0.00050161   -0.00014963    0.00046352
     atom   43 type  1   force =    -0.00016022    0.00021275   -0.00068625
     atom   44 type  1   force =     0.00032560    0.00000318    0.00012533
     atom   45 type  2   force =     0.00008865   -0.00009983    0.10283800
     atom   46 type  2   force =    -0.07217395   -0.00003846   -0.02761667
     atom   47 type  2   force =     0.07211801    0.00035799   -0.02762515
     atom   48 type  3   force =     0.00030718    0.00013553    0.00000858
     atom   49 type  3   force =    -0.00068313    0.00050644   -0.00036250
     atom   50 type  4   force =     0.00010623    0.00070833    0.00035157
     atom   51 type  5   force =     0.00024428    0.00043942   -0.00024564
     atom   52 type  5   force =    -0.00027156   -0.00022145   -0.00051984
     atom   53 type  5   force =     0.00041233    0.00015221   -0.00024832
     atom   54 type  5   force =    -0.00016982   -0.00041320   -0.00000475
     atom   55 type  5   force =    -0.00025220   -0.00033010   -0.00008412
     atom   56 type  5   force =    -0.00007672    0.00009702   -0.00048563
     atom   57 type  2   force =    -0.01776199    0.00213913   -0.00470146
     atom   58 type  5   force =     0.01839019   -0.00214597    0.00489331

     Total force =     0.364506     Total SCF correction =     0.000523
  @ DRIVER MODE: Message from server: STATUS
  @ DRIVER MODE: Message from server: GETFORCE
  @ DRIVER MODE: Returning v,forces,stress,ensemble 

     Writing output data file ./calc.save/
  @ DRIVER MODE: Message from server: EXIT
  @ DRIVE MODE: Exiting  
 
     init_run     :     13.40s CPU     13.81s WALL (       1 calls)
     electrons    :   1366.33s CPU   1395.30s WALL (       1 calls)
     forces       :      2.99s CPU      3.11s WALL (       1 calls)

     Called by init_run:
     wfcinit      :      5.91s CPU      6.08s WALL (       1 calls)
     potinit      :      6.76s CPU      6.85s WALL (       1 calls)
     hinit0       :      0.36s CPU      0.38s WALL (       1 calls)

     Called by electrons:
     c_bands      :   1184.29s CPU   1200.71s WALL (      62 calls)
     sum_band     :    127.03s CPU    132.91s WALL (      62 calls)
     v_of_rho     :     42.86s CPU     44.57s WALL (      63 calls)
     newd         :     16.29s CPU     21.01s WALL (      63 calls)
     mix_rho      :      1.74s CPU      1.89s WALL (      62 calls)
     vdW_kernel   :      5.84s CPU      5.86s WALL (       1 calls)

     Called by c_bands:
     init_us_2    :      6.29s CPU      6.34s WALL (    1260 calls)
     cegterg      :   1163.40s CPU   1179.42s WALL (     637 calls)

     Called by *egterg:
     cdiaghg      :    196.01s CPU    196.92s WALL (    6379 calls)
     h_psi        :    618.45s CPU    628.88s WALL (    6394 calls)
     s_psi        :     79.19s CPU     79.47s WALL (    6394 calls)
     g_psi        :      2.23s CPU      2.25s WALL (    5747 calls)

     Called by h_psi:
     h_psi:calbec :     76.71s CPU     77.89s WALL (    6394 calls)
     vloc_psi     :    459.97s CPU    465.51s WALL (    6394 calls)
     add_vuspsi   :     79.40s CPU     81.06s WALL (    6394 calls)

     General routines
     calbec       :     99.80s CPU    101.05s WALL (    7054 calls)
     fft          :     20.88s CPU     21.01s WALL (    3969 calls)
     ffts         :      0.18s CPU      0.18s WALL (     125 calls)
     fftw         :    508.13s CPU    514.11s WALL (  933150 calls)
     interpolate  :      0.47s CPU      0.47s WALL (      63 calls)
     davcio       :      0.00s CPU      3.95s WALL (      10 calls)
 
     Parallel routines
 
     PWSCF        :  23m 3.24s CPU  26m 1.60s WALL

 
   This run was terminated on:  14:11: 7  24Sep2021            

=------------------------------------------------------------------------------=
   JOB DONE.
=------------------------------------------------------------------------------=
