
     Program PWSCF v.6.7GPU starts on 15Sep2021 at 14:15:10 

     This program is part of the open-source Quantum ESPRESSO suite
     for quantum simulation of materials; please cite
         "P. Giannozzi et al., J. Phys.:Condens. Matter 21 395502 (2009);
         "P. Giannozzi et al., J. Phys.:Condens. Matter 29 465901 (2017);
         "P. Giannozzi et al., J. Chem. Phys. 152 154105 (2020);
          URL http://www.quantum-espresso.org", 
     in publications or presentations arising from this work. More details at
     http://www.quantum-espresso.org/quote

     Parallel version (MPI), running on    10 processors

     MPI processes distributed on     1 nodes
     R & G space division:  proc/nbgrp/npool/nimage =      10
     Reading input from /storage/home/hcoda1/3/ntian30/research/carbon/CxH_vib/CH_calc/ads_slab/CHNHNH2_b/out_0015/pw.inp
Warning: card &CELL ignored
Warning: card   CELL_DYNAMICS='IPI', ignored
Warning: card / ignored

     Current dimensions of program PWSCF are:
     Max number of different atomic species (ntypx) = 10
     Max number of k-points (npk) =  40000
     Max angular momentum in pseudopotentials (lmaxx) =  3
     Presently no symmetry can be used with electric field

     Message from routine cell_base_init:
     DEPRECATED: use true lattice parameter, not A to a.u. conversion factor

     **************************************************************************
     Initializing libbeef V0.1.2 with the BEEF-vdW functional.
     Citation: Wellendorff et al., PRB 85, 235149 (2012).
     **************************************************************************


     IMPORTANT: XC functional enforced from input :
     Exchange-correlation= BEEF-VDW
                           (   1   4  43  14   2   0   0)
     Any further DFT definition will be discarded
     Please, verify this is what you really want


     Subspace diagonalization in iterative solution of the eigenvalue problem:
     one sub-group per band group will be used
     scalapack distributed-memory algorithm (size of sub-group:  3*  3 procs)

  @ DRIVER MODE: Connecting to 
 qe_1139763_2850203.sched-torque.pace.gatech.edu1zvopxpd_scratch
  using UNIX socket
  @ DRIVER MODE: Message from server: STATUS
  @ DRIVER MODE: Message from server: INIT
  @ DRIVER MODE: Receiving replica           0          -1
  @ DRIVER MODE: Receiving encoded integer          25
  @ DRIVER MODE:  SCF:  T  FORCE:  T  STRESS:  F  VC:  F  ENSEMBLE:  F
  @ DRIVER MODE:  SCF:  T  FORCE:  T  STRESS:  F  VC:  F  ENSEMBLE:  F
 
     Parallelization info
     --------------------
     sticks:   dense  smooth     PW     G-vecs:    dense   smooth      PW
     Min         327     131     37                56683    14340    2191
     Max         328     133     38                56694    14346    2206
     Sum        3275    1317    379               566857   143421   21985
 
     Using Slab Decomposition
 


     bravais-lattice index     =            0
     lattice parameter (alat)  =       1.8897  a.u.
     unit-cell volume          =    6658.9804 (a.u.)^3
     number of atoms/cell      =           54
     number of atomic types    =            5
     number of electrons       =       396.00
     number of Kohn-Sham states=          208
     kinetic-energy cutoff     =      29.3995  Ry
     charge density cutoff     =     293.9946  Ry
     scf convergence threshold =      7.3E-08
     mixing beta               =       0.0500
     number of iterations used =            8  plain     mixing
     Exchange-correlation= BEEF-VDW
                           (   1   4  43  14   2   0   0)

     celldm(1)=   1.889726  celldm(2)=   0.000000  celldm(3)=   0.000000
     celldm(4)=   0.000000  celldm(5)=   0.000000  celldm(6)=   0.000000

     crystal axes: (cart. coord. in units of alat)
               a(1) = (   6.579727   0.000000   0.000000 )  
               a(2) = (  -0.000775   5.961596   0.000000 )  
               a(3) = (   0.000000   0.000000  25.155947 )  

     reciprocal axes: (cart. coord. in units 2 pi/alat)
               b(1) = (  0.151982  0.000020  0.000000 )  
               b(2) = (  0.000000  0.167740  0.000000 )  
               b(3) = (  0.000000  0.000000  0.039752 )  


     PseudoPot. # 1 for Ti read from file:
     /storage/coda1/p-amedford6/0/shared/rich_project_chbe-medford/medford-share/data/pseudos_module/espresso/nninc/pbe/van/Ti.UPF
     MD5 check sum: 8e4df49b7f0d34bbd5052bf3f5ea0213
     Pseudo is Ultrasoft, Zval = 12.0
     Generated by new atomic code, or converted to UPF format
     Using radial grid of  851 points,  6 beta functions with: 
                l(1) =   0
                l(2) =   0
                l(3) =   1
                l(4) =   1
                l(5) =   2
                l(6) =   2
     Q(r) pseudized with  8 coefficients,  rinner =    1.000   1.000   1.000
                                                       1.000   1.000

     PseudoPot. # 2 for O  read from file:
     /storage/coda1/p-amedford6/0/shared/rich_project_chbe-medford/medford-share/data/pseudos_module/espresso/nninc/pbe/van/O.UPF
     MD5 check sum: 78c19812648e8988a0fe644b0f25305e
     Pseudo is Ultrasoft, Zval =  6.0
     Generated by new atomic code, or converted to UPF format
     Using radial grid of  737 points,  4 beta functions with: 
                l(1) =   0
                l(2) =   0
                l(3) =   1
                l(4) =   1
     Q(r) pseudized with  8 coefficients,  rinner =    0.800   0.800   0.800


     PseudoPot. # 3 for N  read from file:
     /storage/coda1/p-amedford6/0/shared/rich_project_chbe-medford/medford-share/data/pseudos_module/espresso/nninc/pbe/van/N.UPF
     MD5 check sum: 90d10febe142ad51ac9d5be1deb811c4
     Pseudo is Ultrasoft, Zval =  5.0
     Generated by new atomic code, or converted to UPF format
     Using radial grid of  729 points,  4 beta functions with: 
                l(1) =   0
                l(2) =   0
                l(3) =   1
                l(4) =   1
     Q(r) pseudized with  8 coefficients,  rinner =    0.800   0.800   0.800


     PseudoPot. # 4 for C  read from file:
     /storage/coda1/p-amedford6/0/shared/rich_project_chbe-medford/medford-share/data/pseudos_module/espresso/nninc/pbe/van/C.UPF
     MD5 check sum: 1a69bf6b8db32088f5b2163dbdb77a27
     Pseudo is Ultrasoft, Zval =  4.0
     Generated by new atomic code, or converted to UPF format
     Using radial grid of  721 points,  4 beta functions with: 
                l(1) =   0
                l(2) =   0
                l(3) =   1
                l(4) =   1
     Q(r) pseudized with  8 coefficients,  rinner =    0.800   0.800   0.800


     PseudoPot. # 5 for H  read from file:
     /storage/coda1/p-amedford6/0/shared/rich_project_chbe-medford/medford-share/data/pseudos_module/espresso/nninc/pbe/van/H.UPF
     MD5 check sum: b5ee9d7bfd3a09ee7748110bda690ff7
     Pseudo is Ultrasoft, Zval =  1.0
     Generated by new atomic code, or converted to UPF format
     Using radial grid of  615 points,  1 beta functions with: 
                l(1) =   0
     Q(r) pseudized with  8 coefficients,  rinner =    0.800

     atomic species   valence    mass     pseudopotential
        Ti1           12.00    47.86700     Ti( 1.00)
        O1             6.00    15.99900     O ( 1.00)
        N1             5.00    14.00700     N ( 1.00)
        C1             4.00    12.01100     C ( 1.00)
        H1             1.00     1.00800     H ( 1.00)

     No symmetry found



   Cartesian axes

     site n.     atom                  positions (alat units)
         1           Ti1 tau(   1) = (   0.0004258   2.9801865   6.0000000  )
         2           Ti1 tau(   2) = (   3.2906075   1.4906267   6.0002472  )
         3           O1  tau(   3) = (   0.0006271   0.0005054   7.9858123  )
         4           O1  tau(   4) = (   3.2906025   0.0005020   7.3038282  )
         5           O1  tau(   5) = (   4.5942328   1.4918067   9.2879030  )
         6           O1  tau(   6) = (   1.9868534   1.4903216   9.2879459  )
         7           Ti1 tau(   7) = (   3.2907910   2.8959150   9.1758416  )
         8           Ti1 tau(   8) = (   0.0015273   1.4827037   9.2680791  )
         9           O1  tau(   9) = (   3.2793096   0.0109766  11.3808719  )
        10           O1  tau(  10) = (   0.0116148   5.9584955  10.6183126  )
        11           O1  tau(  11) = (   1.2765542   1.4933007  12.7034215  )
        12           O1  tau(  12) = (   5.2857700   1.4936877  12.6893616  )
        13           Ti1 tau(  13) = (   6.5704964   2.9736084  12.5041408  )
        14           Ti1 tau(  14) = (   3.2751742   1.4933391  12.5393049  )
        15           O1  tau(  15) = (   6.5372820   5.8718772  14.6936981  )
        16           O1  tau(  16) = (   3.2837545   5.9462538  13.9991140  )
        17           O1  tau(  17) = (   4.5218413   1.5222141  16.1415557  )
        18           O1  tau(  18) = (   2.0028246   1.5144184  16.0917912  )
        19           Ti1 tau(  19) = (   3.2608137   3.0032599  15.7731319  )
        20           Ti1 tau(  20) = (   6.5347537   1.3176600  15.8357148  )
        21           O1  tau(  21) = (   3.2904802   0.0005063   4.7018136  )
        22           O1  tau(  22) = (   0.0001116   0.1817366  17.2468837  )
        23           O1  tau(  23) = (   1.3043587   1.4918075   6.0039043  )
        24           O1  tau(  24) = (   5.2767064   1.4903225   6.0039473  )
        25           Ti1 tau(  25) = (   0.0000382   5.9609847   6.0000000  )
        26           Ti1 tau(  26) = (   3.2902200   4.4714249   6.0002472  )
        27           O1  tau(  27) = (   0.0002396   2.9813036   7.9858123  )
        28           O1  tau(  28) = (   3.2902150   2.9813002   7.3038282  )
        29           O1  tau(  29) = (   4.5938453   4.4726049   9.2879030  )
        30           O1  tau(  30) = (   1.9864658   4.4711199   9.2879459  )
        31           Ti1 tau(  31) = (   3.2891106   5.8743827   9.1763621  )
        32           Ti1 tau(  32) = (   0.0006254   4.4649316   9.2693709  )
        33           O1  tau(  33) = (   3.2784652   2.9723947  11.3763700  )
        34           O1  tau(  34) = (   0.0092240   2.9805883  10.6323155  )
        35           O1  tau(  35) = (   1.2785823   4.4627939  12.6603399  )
        36           O1  tau(  36) = (   5.2819334   4.4612839  12.6411408  )
        37           Ti1 tau(  37) = (   6.5651122   5.9414744  12.5010122  )
        38           Ti1 tau(  38) = (   3.2748416   4.4711967  12.5285960  )
        39           O1  tau(  39) = (   6.5535135   3.0442902  14.9788272  )
        40           O1  tau(  40) = (   3.2854610   3.0101546  13.9792171  )
        41           O1  tau(  41) = (   4.5276217   4.4805847  16.2446860  )
        42           O1  tau(  42) = (   2.0020726   4.4828838  16.2214318  )
        43           Ti1 tau(  43) = (   3.2599196   0.0196740  15.7976440  )
        44           Ti1 tau(  44) = (   6.5457193   4.5363361  16.0654255  )
        45           O1  tau(  45) = (   3.2900926   2.9813045   4.7018136  )
        46           O1  tau(  46) = (   1.3039711   4.4726057   6.0039043  )
        47           O1  tau(  47) = (   5.2763189   4.4711207   6.0039473  )
        48           N1  tau(  48) = (   1.1367570   2.6896871  18.7516802  )
        49           N1  tau(  49) = (   6.5001796   3.3781512  18.2049158  )
        50           C1  tau(  50) = (   2.1807708   3.2022984  19.2750733  )
        51           H1  tau(  51) = (   2.0427863   4.2979755  19.4033283  )
        52           H1  tau(  52) = (   1.0785778   1.7047639  18.4906217  )
        53           H1  tau(  53) = (   6.4055442   4.2515232  18.7250902  )
        54           H1  tau(  54) = (   5.6874363   2.7987760  18.4315970  )

     number of k points=    10  Fermi-Dirac smearing, width (Ry)=  0.0073
                       cart. coord. in units 2pi/alat
        k(    1) = (   0.0000000   0.0000000   0.0000000), wk =   0.1250000
        k(    2) = (   0.0000000   0.0419351   0.0000000), wk =   0.2500000
        k(    3) = (   0.0000000  -0.0838702   0.0000000), wk =   0.1250000
        k(    4) = (   0.0379955   0.0000049   0.0000000), wk =   0.2500000
        k(    5) = (   0.0379955   0.0419400   0.0000000), wk =   0.2500000
        k(    6) = (   0.0379955  -0.0838652   0.0000000), wk =   0.2500000
        k(    7) = (   0.0379955  -0.0419301   0.0000000), wk =   0.2500000
        k(    8) = (  -0.0759910  -0.0000099   0.0000000), wk =   0.1250000
        k(    9) = (  -0.0759910   0.0419252   0.0000000), wk =   0.2500000
        k(   10) = (  -0.0759910  -0.0838800   0.0000000), wk =   0.1250000

     Dense  grid:   566857 G-vectors     FFT dimensions: (  72,  64, 270)

     Smooth grid:   143421 G-vectors     FFT dimensions: (  45,  40, 180)

     Estimated max dynamical RAM per process >     363.73 MB

     Estimated total dynamical RAM >       3.55 GB
     Cannot read rho : file not found

     Initial potential from superposition of free atoms

     starting charge  379.99915, renormalised to  396.00000

     negative rho (up, down):  1.651E-02 0.000E+00


     %%%%%%%%%%%%%%%%%%%%%%%%%%%%%%%%%%%%%%%%%%%%%%%%%%%%%%%%%%%%%%%%%%%%%%%%
     %                                                                      %
     % You are using vdW-DF, which was implemented by the Thonhauser group. %
     % Please cite the following two papers that made this development      %
     % possible and the two reviews that describe the various versions:     %
     %                                                                      %
     %   T. Thonhauser et al., PRL 115, 136402 (2015).                      %
     %   T. Thonhauser et al., PRB 76, 125112 (2007).                       %
     %   K. Berland et al., Rep. Prog. Phys. 78, 066501 (2015).             %
     %   D.C. Langreth et al., J. Phys.: Condens. Matter 21, 084203 (2009). %
     %                                                                      %
     %                                                                      %
     % If you are calculating the stress with vdW-DF, please also cite:     %
     %                                                                      %
     %   R. Sabatini et al., J. Phys.: Condens. Matter 24, 424209 (2012).   %
     %                                                                      %
     %%%%%%%%%%%%%%%%%%%%%%%%%%%%%%%%%%%%%%%%%%%%%%%%%%%%%%%%%%%%%%%%%%%%%%%%


 
     Adding external electric field

     Computed dipole along edir(3) : 
        Dipole               -9.9915 Ry au,        -25.3958 Debye
        Dipole field         -0.0189 Ry au, 
 
        Potential amp.        1.7479 Ry
        Total length         46.3494 bohr
 
     Starting wfcs are  300 atomic wfcs
  @ DRIVER MODE: Message from server: STATUS
  @ DRIVER MODE: Message from server: POSDATA
  @ DRIVER MODE: Reading and sharing cell 
  @ DRIVER MODE: Reading and sharing positions 
  @ DRIVER MODE: Received positions 

     total cpu time spent up to now is       12.3 secs

     Self-consistent Calculation

     iteration #  1     ecut=    29.40 Ry     beta= 0.05
     Davidson diagonalization with overlap
     c_bands:  2 eigenvalues not converged
     c_bands:  2 eigenvalues not converged
     c_bands:  3 eigenvalues not converged
     c_bands:  2 eigenvalues not converged
     c_bands:  3 eigenvalues not converged
     c_bands:  1 eigenvalues not converged
     c_bands:  3 eigenvalues not converged
     c_bands:  2 eigenvalues not converged
     c_bands:  1 eigenvalues not converged
     c_bands:  1 eigenvalues not converged
     ethr =  1.00E-05,  avg # of iterations = 20.0

     negative rho (up, down):  1.263E-02 0.000E+00
 
     Adding external electric field

     Computed dipole along edir(3) : 
        Dipole               43.6874 Ry au,        111.0423 Debye
        Dipole field          0.0824 Ry au, 
 
        Potential amp.       -7.6425 Ry
        Total length         46.3494 bohr
 

     total cpu time spent up to now is       54.1 secs

     total energy              =   -2520.89468835 Ry
     estimated scf accuracy    <    4691.08924775 Ry

     iteration #  2     ecut=    29.40 Ry     beta= 0.05
     Davidson diagonalization with overlap
     ethr =  1.00E-02,  avg # of iterations = 24.7

     negative rho (up, down):  3.579E-03 0.000E+00
 
     Adding external electric field

     Computed dipole along edir(3) : 
        Dipole               -2.2462 Ry au,         -5.7092 Debye
        Dipole field         -0.0042 Ry au, 
 
        Potential amp.        0.3929 Ry
        Total length         46.3494 bohr
 

     total cpu time spent up to now is      130.2 secs

     total energy              =   -2461.66272936 Ry
     estimated scf accuracy    <   66215.58978451 Ry

     iteration #  3     ecut=    29.40 Ry     beta= 0.05
     Davidson diagonalization with overlap
     ethr =  1.00E-02,  avg # of iterations = 15.1

     negative rho (up, down):  3.638E-03 0.000E+00
 
     Adding external electric field

     Computed dipole along edir(3) : 
        Dipole               -4.4100 Ry au,        -11.2092 Debye
        Dipole field         -0.0083 Ry au, 
 
        Potential amp.        0.7715 Ry
        Total length         46.3494 bohr
 

     total cpu time spent up to now is      177.8 secs

     total energy              =   -2925.12190941 Ry
     estimated scf accuracy    <    4224.68476352 Ry

     iteration #  4     ecut=    29.40 Ry     beta= 0.05
     Davidson diagonalization with overlap
     c_bands:  1 eigenvalues not converged
     ethr =  1.00E-02,  avg # of iterations = 15.4

     negative rho (up, down):  3.676E-03 0.000E+00
 
     Adding external electric field

     Computed dipole along edir(3) : 
        Dipole               -5.8389 Ry au,        -14.8409 Debye
        Dipole field         -0.0110 Ry au, 
 
        Potential amp.        1.0214 Ry
        Total length         46.3494 bohr
 

     total cpu time spent up to now is      197.7 secs

     total energy              =   -2928.68465320 Ry
     estimated scf accuracy    <    1351.69777412 Ry

     iteration #  5     ecut=    29.40 Ry     beta= 0.05
     Davidson diagonalization with overlap
     c_bands:  3 eigenvalues not converged
     ethr =  1.00E-02,  avg # of iterations = 15.1

     negative rho (up, down):  3.695E-03 0.000E+00
 
     Adding external electric field

     Computed dipole along edir(3) : 
        Dipole               -5.4430 Ry au,        -13.8348 Debye
        Dipole field         -0.0103 Ry au, 
 
        Potential amp.        0.9522 Ry
        Total length         46.3494 bohr
 

     total cpu time spent up to now is      215.6 secs

     total energy              =   -2940.75256542 Ry
     estimated scf accuracy    <      96.76774215 Ry

     iteration #  6     ecut=    29.40 Ry     beta= 0.05
     Davidson diagonalization with overlap
     ethr =  1.00E-02,  avg # of iterations =  1.8

     negative rho (up, down):  3.735E-03 0.000E+00
 
     Adding external electric field

     Computed dipole along edir(3) : 
        Dipole               -4.9225 Ry au,        -12.5118 Debye
        Dipole field         -0.0093 Ry au, 
 
        Potential amp.        0.8611 Ry
        Total length         46.3494 bohr
 

     total cpu time spent up to now is      226.1 secs

     total energy              =   -2940.28142009 Ry
     estimated scf accuracy    <      84.44631592 Ry

     iteration #  7     ecut=    29.40 Ry     beta= 0.05
     Davidson diagonalization with overlap
     ethr =  1.00E-02,  avg # of iterations =  1.4

     negative rho (up, down):  4.095E-03 0.000E+00
 
     Adding external electric field

     Computed dipole along edir(3) : 
        Dipole               -2.9818 Ry au,         -7.5789 Debye
        Dipole field         -0.0056 Ry au, 
 
        Potential amp.        0.5216 Ry
        Total length         46.3494 bohr
 

     total cpu time spent up to now is      236.5 secs

     total energy              =   -2937.19403268 Ry
     estimated scf accuracy    <      75.48574213 Ry

     iteration #  8     ecut=    29.40 Ry     beta= 0.05
     Davidson diagonalization with overlap
     ethr =  1.00E-02,  avg # of iterations =  1.0

     negative rho (up, down):  4.520E-03 0.000E+00
 
     Adding external electric field

     Computed dipole along edir(3) : 
        Dipole               -1.4967 Ry au,         -3.8042 Debye
        Dipole field         -0.0028 Ry au, 
 
        Potential amp.        0.2618 Ry
        Total length         46.3494 bohr
 

     total cpu time spent up to now is      246.7 secs

     total energy              =   -2936.45030182 Ry
     estimated scf accuracy    <      84.48145117 Ry

     iteration #  9     ecut=    29.40 Ry     beta= 0.05
     Davidson diagonalization with overlap
     ethr =  1.00E-02,  avg # of iterations =  3.3

     negative rho (up, down):  4.411E-03 0.000E+00
 
     Adding external electric field

     Computed dipole along edir(3) : 
        Dipole               -2.2096 Ry au,         -5.6163 Debye
        Dipole field         -0.0042 Ry au, 
 
        Potential amp.        0.3865 Ry
        Total length         46.3494 bohr
 

     total cpu time spent up to now is      257.9 secs

     total energy              =   -2937.02265208 Ry
     estimated scf accuracy    <      67.33836163 Ry

     iteration # 10     ecut=    29.40 Ry     beta= 0.05
     Davidson diagonalization with overlap
     ethr =  1.00E-02,  avg # of iterations =  3.2

     negative rho (up, down):  4.611E-03 0.000E+00
 
     Adding external electric field

     Computed dipole along edir(3) : 
        Dipole               -1.5557 Ry au,         -3.9541 Debye
        Dipole field         -0.0029 Ry au, 
 
        Potential amp.        0.2721 Ry
        Total length         46.3494 bohr
 

     total cpu time spent up to now is      269.2 secs

     total energy              =   -2938.24946529 Ry
     estimated scf accuracy    <      48.41705489 Ry

     iteration # 11     ecut=    29.40 Ry     beta= 0.05
     Davidson diagonalization with overlap
     ethr =  1.00E-02,  avg # of iterations =  3.4

     negative rho (up, down):  4.481E-03 0.000E+00
 
     Adding external electric field

     Computed dipole along edir(3) : 
        Dipole               -1.9839 Ry au,         -5.0425 Debye
        Dipole field         -0.0037 Ry au, 
 
        Potential amp.        0.3470 Ry
        Total length         46.3494 bohr
 

     total cpu time spent up to now is      280.6 secs

     total energy              =   -2938.65385541 Ry
     estimated scf accuracy    <      38.24182671 Ry

     iteration # 12     ecut=    29.40 Ry     beta= 0.05
     Davidson diagonalization with overlap
     c_bands:  4 eigenvalues not converged
     ethr =  9.66E-03,  avg # of iterations =  4.2

     negative rho (up, down):  4.526E-03 0.000E+00
 
     Adding external electric field

     Computed dipole along edir(3) : 
        Dipole               -1.3748 Ry au,         -3.4945 Debye
        Dipole field         -0.0026 Ry au, 
 
        Potential amp.        0.2405 Ry
        Total length         46.3494 bohr
 

     total cpu time spent up to now is      291.8 secs

     total energy              =   -2940.02254415 Ry
     estimated scf accuracy    <      10.81132170 Ry

     iteration # 13     ecut=    29.40 Ry     beta= 0.05
     Davidson diagonalization with overlap
     ethr =  2.73E-03,  avg # of iterations =  5.4

     negative rho (up, down):  4.510E-03 0.000E+00
 
     Adding external electric field

     Computed dipole along edir(3) : 
        Dipole               -0.9755 Ry au,         -2.4794 Debye
        Dipole field         -0.0018 Ry au, 
 
        Potential amp.        0.1706 Ry
        Total length         46.3494 bohr
 

     total cpu time spent up to now is      304.6 secs

     total energy              =   -2941.04183801 Ry
     estimated scf accuracy    <       6.24117752 Ry

     iteration # 14     ecut=    29.40 Ry     beta= 0.05
     Davidson diagonalization with overlap
     ethr =  1.58E-03,  avg # of iterations =  1.5

     negative rho (up, down):  4.432E-03 0.000E+00
 
     Adding external electric field

     Computed dipole along edir(3) : 
        Dipole               -0.3353 Ry au,         -0.8521 Debye
        Dipole field         -0.0006 Ry au, 
 
        Potential amp.        0.0586 Ry
        Total length         46.3494 bohr
 

     total cpu time spent up to now is      315.1 secs

     total energy              =   -2940.55597448 Ry
     estimated scf accuracy    <       5.38628421 Ry

     iteration # 15     ecut=    29.40 Ry     beta= 0.05
     Davidson diagonalization with overlap
     ethr =  1.36E-03,  avg # of iterations =  6.3

     negative rho (up, down):  4.406E-03 0.000E+00
 
     Adding external electric field

     Computed dipole along edir(3) : 
        Dipole               -0.4016 Ry au,         -1.0209 Debye
        Dipole field         -0.0008 Ry au, 
 
        Potential amp.        0.0703 Ry
        Total length         46.3494 bohr
 

     total cpu time spent up to now is      327.8 secs

     total energy              =   -2940.84892830 Ry
     estimated scf accuracy    <      32.25156887 Ry

     iteration # 16     ecut=    29.40 Ry     beta= 0.05
     Davidson diagonalization with overlap
     ethr =  1.36E-03,  avg # of iterations =  1.5

     negative rho (up, down):  4.411E-03 0.000E+00
 
     Adding external electric field

     Computed dipole along edir(3) : 
        Dipole               -0.2336 Ry au,         -0.5936 Debye
        Dipole field         -0.0004 Ry au, 
 
        Potential amp.        0.0409 Ry
        Total length         46.3494 bohr
 

     total cpu time spent up to now is      338.1 secs

     total energy              =   -2940.98932535 Ry
     estimated scf accuracy    <      25.27585087 Ry

     iteration # 17     ecut=    29.40 Ry     beta= 0.05
     Davidson diagonalization with overlap
     ethr =  1.36E-03,  avg # of iterations =  1.1

     negative rho (up, down):  4.365E-03 0.000E+00
 
     Adding external electric field

     Computed dipole along edir(3) : 
        Dipole               -0.5487 Ry au,         -1.3947 Debye
        Dipole field         -0.0010 Ry au, 
 
        Potential amp.        0.0960 Ry
        Total length         46.3494 bohr
 

     total cpu time spent up to now is      348.2 secs

     total energy              =   -2940.53165183 Ry
     estimated scf accuracy    <      58.17349050 Ry

     iteration # 18     ecut=    29.40 Ry     beta= 0.05
     Davidson diagonalization with overlap
     ethr =  1.36E-03,  avg # of iterations =  2.1

     negative rho (up, down):  4.394E-03 0.000E+00
 
     Adding external electric field

     Computed dipole along edir(3) : 
        Dipole               -1.9266 Ry au,         -4.8968 Debye
        Dipole field         -0.0036 Ry au, 
 
        Potential amp.        0.3370 Ry
        Total length         46.3494 bohr
 

     total cpu time spent up to now is      359.1 secs

     total energy              =   -2939.72004584 Ry
     estimated scf accuracy    <      15.39324524 Ry

     iteration # 19     ecut=    29.40 Ry     beta= 0.05
     Davidson diagonalization with overlap
     ethr =  1.36E-03,  avg # of iterations =  2.4

     negative rho (up, down):  4.510E-03 0.000E+00
 
     Adding external electric field

     Computed dipole along edir(3) : 
        Dipole               -2.0861 Ry au,         -5.3024 Debye
        Dipole field         -0.0039 Ry au, 
 
        Potential amp.        0.3649 Ry
        Total length         46.3494 bohr
 

     total cpu time spent up to now is      370.6 secs

     total energy              =   -2940.34028506 Ry
     estimated scf accuracy    <       2.03912819 Ry

     iteration # 20     ecut=    29.40 Ry     beta= 0.05
     Davidson diagonalization with overlap
     c_bands:  2 eigenvalues not converged
     c_bands:  5 eigenvalues not converged
     c_bands:  5 eigenvalues not converged
     c_bands:  1 eigenvalues not converged
     c_bands:  3 eigenvalues not converged
     ethr =  5.15E-04,  avg # of iterations = 13.1

     negative rho (up, down):  4.638E-03 0.000E+00
 
     Adding external electric field

     Computed dipole along edir(3) : 
        Dipole               -1.6103 Ry au,         -4.0930 Debye
        Dipole field         -0.0030 Ry au, 
 
        Potential amp.        0.2817 Ry
        Total length         46.3494 bohr
 

     total cpu time spent up to now is      386.2 secs

     total energy              =   -2940.35002218 Ry
     estimated scf accuracy    <       3.44835537 Ry

     iteration # 21     ecut=    29.40 Ry     beta= 0.05
     Davidson diagonalization with overlap
     ethr =  5.15E-04,  avg # of iterations =  2.2

     negative rho (up, down):  5.191E-03 0.000E+00
 
     Adding external electric field

     Computed dipole along edir(3) : 
        Dipole               -0.4423 Ry au,         -1.1241 Debye
        Dipole field         -0.0008 Ry au, 
 
        Potential amp.        0.0774 Ry
        Total length         46.3494 bohr
 

     total cpu time spent up to now is      397.0 secs

     total energy              =   -2940.17675296 Ry
     estimated scf accuracy    <       1.08647572 Ry

     iteration # 22     ecut=    29.40 Ry     beta= 0.05
     Davidson diagonalization with overlap
     c_bands:  1 eigenvalues not converged
     c_bands:  2 eigenvalues not converged
     c_bands:  1 eigenvalues not converged
     ethr =  2.74E-04,  avg # of iterations = 15.5

     negative rho (up, down):  5.222E-03 0.000E+00
 
     Adding external electric field

     Computed dipole along edir(3) : 
        Dipole               -0.7852 Ry au,         -1.9958 Debye
        Dipole field         -0.0015 Ry au, 
 
        Potential amp.        0.1374 Ry
        Total length         46.3494 bohr
 

     total cpu time spent up to now is      414.8 secs

     total energy              =   -2940.28555881 Ry
     estimated scf accuracy    <       0.64838111 Ry

     iteration # 23     ecut=    29.40 Ry     beta= 0.05
     Davidson diagonalization with overlap
     c_bands:  2 eigenvalues not converged
     c_bands:  1 eigenvalues not converged
     c_bands:  1 eigenvalues not converged
     c_bands:  1 eigenvalues not converged
     ethr =  1.64E-04,  avg # of iterations = 14.0

     negative rho (up, down):  5.110E-03 0.000E+00
 
     Adding external electric field

     Computed dipole along edir(3) : 
        Dipole               -1.3150 Ry au,         -3.3424 Debye
        Dipole field         -0.0025 Ry au, 
 
        Potential amp.        0.2300 Ry
        Total length         46.3494 bohr
 

     total cpu time spent up to now is      430.7 secs

     total energy              =   -2940.33299849 Ry
     estimated scf accuracy    <       0.91097141 Ry

     iteration # 24     ecut=    29.40 Ry     beta= 0.05
     Davidson diagonalization with overlap
     c_bands:  1 eigenvalues not converged
     c_bands:  3 eigenvalues not converged
     c_bands:  1 eigenvalues not converged
     c_bands:  3 eigenvalues not converged
     c_bands:  4 eigenvalues not converged
     c_bands:  1 eigenvalues not converged
     c_bands:  2 eigenvalues not converged
     c_bands:  4 eigenvalues not converged
     ethr =  1.64E-04,  avg # of iterations = 21.0

     negative rho (up, down):  5.353E-03 0.000E+00
 
     Adding external electric field

     Computed dipole along edir(3) : 
        Dipole               -1.5200 Ry au,         -3.8634 Debye
        Dipole field         -0.0029 Ry au, 
 
        Potential amp.        0.2659 Ry
        Total length         46.3494 bohr
 

     total cpu time spent up to now is      450.6 secs

     total energy              =   -2940.55664641 Ry
     estimated scf accuracy    <       3.15391934 Ry

     iteration # 25     ecut=    29.40 Ry     beta= 0.05
     Davidson diagonalization with overlap
     c_bands:  1 eigenvalues not converged
     c_bands:  1 eigenvalues not converged
     c_bands:  5 eigenvalues not converged
     c_bands:  1 eigenvalues not converged
     c_bands:  1 eigenvalues not converged
     c_bands:  2 eigenvalues not converged
     c_bands:  2 eigenvalues not converged
     ethr =  1.64E-04,  avg # of iterations = 17.7

     negative rho (up, down):  5.864E-03 0.000E+00
 
     Adding external electric field

     Computed dipole along edir(3) : 
        Dipole               -0.5870 Ry au,         -1.4921 Debye
        Dipole field         -0.0011 Ry au, 
 
        Potential amp.        0.1027 Ry
        Total length         46.3494 bohr
 

     total cpu time spent up to now is      467.6 secs

     total energy              =   -2940.30282260 Ry
     estimated scf accuracy    <       4.69982019 Ry

     iteration # 26     ecut=    29.40 Ry     beta= 0.05
     Davidson diagonalization with overlap
     ethr =  1.64E-04,  avg # of iterations =  9.4

     negative rho (up, down):  6.400E-03 0.000E+00
 
     Adding external electric field

     Computed dipole along edir(3) : 
        Dipole                0.7608 Ry au,          1.9338 Debye
        Dipole field          0.0014 Ry au, 
 
        Potential amp.       -0.1331 Ry
        Total length         46.3494 bohr
 

     total cpu time spent up to now is      481.3 secs

     total energy              =   -2940.02097958 Ry
     estimated scf accuracy    <       2.65001315 Ry

     iteration # 27     ecut=    29.40 Ry     beta= 0.05
     Davidson diagonalization with overlap
     c_bands:  3 eigenvalues not converged
     c_bands:  2 eigenvalues not converged
     c_bands:  2 eigenvalues not converged
     c_bands:  3 eigenvalues not converged
     c_bands:  5 eigenvalues not converged
     c_bands:  1 eigenvalues not converged
     c_bands:  5 eigenvalues not converged
     c_bands:  5 eigenvalues not converged
     ethr =  1.64E-04,  avg # of iterations = 19.7

     negative rho (up, down):  6.421E-03 0.000E+00
 
     Adding external electric field

     Computed dipole along edir(3) : 
        Dipole                0.6163 Ry au,          1.5665 Debye
        Dipole field          0.0012 Ry au, 
 
        Potential amp.       -0.1078 Ry
        Total length         46.3494 bohr
 

     total cpu time spent up to now is      504.5 secs

     total energy              =   -2940.36197572 Ry
     estimated scf accuracy    <       2.43166762 Ry

     iteration # 28     ecut=    29.40 Ry     beta= 0.05
     Davidson diagonalization with overlap
     ethr =  1.64E-04,  avg # of iterations =  7.2

     negative rho (up, down):  6.420E-03 0.000E+00
 
     Adding external electric field

     Computed dipole along edir(3) : 
        Dipole                0.5554 Ry au,          1.4116 Debye
        Dipole field          0.0010 Ry au, 
 
        Potential amp.       -0.0972 Ry
        Total length         46.3494 bohr
 

     total cpu time spent up to now is      516.8 secs

     total energy              =   -2940.34562185 Ry
     estimated scf accuracy    <       1.09029307 Ry

     iteration # 29     ecut=    29.40 Ry     beta= 0.05
     Davidson diagonalization with overlap
     ethr =  1.64E-04,  avg # of iterations =  1.1

     negative rho (up, down):  6.915E-03 0.000E+00
 
     Adding external electric field

     Computed dipole along edir(3) : 
        Dipole                0.5703 Ry au,          1.4497 Debye
        Dipole field          0.0011 Ry au, 
 
        Potential amp.       -0.0998 Ry
        Total length         46.3494 bohr
 

     total cpu time spent up to now is      527.1 secs

     total energy              =   -2940.25787317 Ry
     estimated scf accuracy    <       0.91174755 Ry

     iteration # 30     ecut=    29.40 Ry     beta= 0.05
     Davidson diagonalization with overlap
     ethr =  1.64E-04,  avg # of iterations =  5.6

     negative rho (up, down):  7.207E-03 0.000E+00
 
     Adding external electric field

     Computed dipole along edir(3) : 
        Dipole                0.6575 Ry au,          1.6711 Debye
        Dipole field          0.0012 Ry au, 
 
        Potential amp.       -0.1150 Ry
        Total length         46.3494 bohr
 

     total cpu time spent up to now is      539.2 secs

     total energy              =   -2940.26484594 Ry
     estimated scf accuracy    <       0.75848221 Ry

     iteration # 31     ecut=    29.40 Ry     beta= 0.05
     Davidson diagonalization with overlap
     ethr =  1.64E-04,  avg # of iterations =  2.8

     negative rho (up, down):  7.435E-03 0.000E+00
 
     Adding external electric field

     Computed dipole along edir(3) : 
        Dipole                0.5534 Ry au,          1.4066 Debye
        Dipole field          0.0010 Ry au, 
 
        Potential amp.       -0.0968 Ry
        Total length         46.3494 bohr
 

     total cpu time spent up to now is      550.3 secs

     total energy              =   -2940.25031203 Ry
     estimated scf accuracy    <       0.51400315 Ry

     iteration # 32     ecut=    29.40 Ry     beta= 0.05
     Davidson diagonalization with overlap
     c_bands:  5 eigenvalues not converged
     ethr =  1.30E-04,  avg # of iterations = 10.5

     negative rho (up, down):  7.040E-03 0.000E+00
 
     Adding external electric field

     Computed dipole along edir(3) : 
        Dipole                0.3233 Ry au,          0.8218 Debye
        Dipole field          0.0006 Ry au, 
 
        Potential amp.       -0.0566 Ry
        Total length         46.3494 bohr
 

     total cpu time spent up to now is      564.1 secs

     total energy              =   -2940.24745868 Ry
     estimated scf accuracy    <       0.34019542 Ry

     iteration # 33     ecut=    29.40 Ry     beta= 0.05
     Davidson diagonalization with overlap
     c_bands:  1 eigenvalues not converged
     c_bands:  4 eigenvalues not converged
     ethr =  8.59E-05,  avg # of iterations = 13.7

     negative rho (up, down):  6.998E-03 0.000E+00
 
     Adding external electric field

     Computed dipole along edir(3) : 
        Dipole                0.2829 Ry au,          0.7190 Debye
        Dipole field          0.0005 Ry au, 
 
        Potential amp.       -0.0495 Ry
        Total length         46.3494 bohr
 

     total cpu time spent up to now is      578.8 secs

     total energy              =   -2940.25125797 Ry
     estimated scf accuracy    <       0.16565199 Ry

     iteration # 34     ecut=    29.40 Ry     beta= 0.05
     Davidson diagonalization with overlap
     c_bands:  1 eigenvalues not converged
     c_bands:  1 eigenvalues not converged
     c_bands:  1 eigenvalues not converged
     ethr =  4.18E-05,  avg # of iterations = 14.8

     negative rho (up, down):  6.931E-03 0.000E+00
 
     Adding external electric field

     Computed dipole along edir(3) : 
        Dipole                0.2875 Ry au,          0.7308 Debye
        Dipole field          0.0005 Ry au, 
 
        Potential amp.       -0.0503 Ry
        Total length         46.3494 bohr
 

     total cpu time spent up to now is      594.8 secs

     total energy              =   -2940.24636443 Ry
     estimated scf accuracy    <       0.08330654 Ry

     iteration # 35     ecut=    29.40 Ry     beta= 0.05
     Davidson diagonalization with overlap
     c_bands:  4 eigenvalues not converged
     c_bands:  2 eigenvalues not converged
     c_bands:  2 eigenvalues not converged
     c_bands:  1 eigenvalues not converged
     c_bands:  2 eigenvalues not converged
     c_bands:  3 eigenvalues not converged
     ethr =  2.10E-05,  avg # of iterations = 17.0

     negative rho (up, down):  6.952E-03 0.000E+00
 
     Adding external electric field

     Computed dipole along edir(3) : 
        Dipole                0.3782 Ry au,          0.9613 Debye
        Dipole field          0.0007 Ry au, 
 
        Potential amp.       -0.0662 Ry
        Total length         46.3494 bohr
 

     total cpu time spent up to now is      612.2 secs

     total energy              =   -2940.25235119 Ry
     estimated scf accuracy    <       0.05063741 Ry

     iteration # 36     ecut=    29.40 Ry     beta= 0.05
     Davidson diagonalization with overlap
     c_bands:  2 eigenvalues not converged
     c_bands:  1 eigenvalues not converged
     c_bands:  1 eigenvalues not converged
     ethr =  1.28E-05,  avg # of iterations = 17.0

     negative rho (up, down):  6.945E-03 0.000E+00
 
     Adding external electric field

     Computed dipole along edir(3) : 
        Dipole                0.3167 Ry au,          0.8051 Debye
        Dipole field          0.0006 Ry au, 
 
        Potential amp.       -0.0554 Ry
        Total length         46.3494 bohr
 

     total cpu time spent up to now is      628.3 secs

     total energy              =   -2940.25113227 Ry
     estimated scf accuracy    <       0.06475909 Ry

     iteration # 37     ecut=    29.40 Ry     beta= 0.05
     Davidson diagonalization with overlap
     c_bands:  1 eigenvalues not converged
     c_bands:  2 eigenvalues not converged
     c_bands:  1 eigenvalues not converged
     c_bands:  3 eigenvalues not converged
     ethr =  1.28E-05,  avg # of iterations = 15.9

     negative rho (up, down):  7.288E-03 0.000E+00
 
     Adding external electric field

     Computed dipole along edir(3) : 
        Dipole                0.4424 Ry au,          1.1245 Debye
        Dipole field          0.0008 Ry au, 
 
        Potential amp.       -0.0774 Ry
        Total length         46.3494 bohr
 

     total cpu time spent up to now is      643.7 secs

     total energy              =   -2940.25027164 Ry
     estimated scf accuracy    <       0.06503373 Ry

     iteration # 38     ecut=    29.40 Ry     beta= 0.05
     Davidson diagonalization with overlap
     ethr =  1.28E-05,  avg # of iterations =  5.1

     negative rho (up, down):  8.007E-03 0.000E+00
 
     Adding external electric field

     Computed dipole along edir(3) : 
        Dipole                0.5684 Ry au,          1.4447 Debye
        Dipole field          0.0011 Ry au, 
 
        Potential amp.       -0.0994 Ry
        Total length         46.3494 bohr
 

     total cpu time spent up to now is      655.8 secs

     total energy              =   -2940.25365071 Ry
     estimated scf accuracy    <       0.03397499 Ry

     iteration # 39     ecut=    29.40 Ry     beta= 0.05
     Davidson diagonalization with overlap
     c_bands:  1 eigenvalues not converged
     c_bands:  1 eigenvalues not converged
     c_bands:  2 eigenvalues not converged
     c_bands:  1 eigenvalues not converged
     ethr =  8.58E-06,  avg # of iterations = 13.7

     negative rho (up, down):  8.440E-03 0.000E+00
 
     Adding external electric field

     Computed dipole along edir(3) : 
        Dipole                0.6222 Ry au,          1.5816 Debye
        Dipole field          0.0012 Ry au, 
 
        Potential amp.       -0.1088 Ry
        Total length         46.3494 bohr
 

     total cpu time spent up to now is      670.9 secs

     total energy              =   -2940.25487512 Ry
     estimated scf accuracy    <       0.02952456 Ry

     iteration # 40     ecut=    29.40 Ry     beta= 0.05
     Davidson diagonalization with overlap
     c_bands:  1 eigenvalues not converged
     ethr =  7.46E-06,  avg # of iterations =  8.7

     negative rho (up, down):  9.594E-03 0.000E+00
 
     Adding external electric field

     Computed dipole along edir(3) : 
        Dipole                0.6656 Ry au,          1.6917 Debye
        Dipole field          0.0013 Ry au, 
 
        Potential amp.       -0.1164 Ry
        Total length         46.3494 bohr
 

     total cpu time spent up to now is      683.5 secs

     total energy              =   -2940.25415675 Ry
     estimated scf accuracy    <       0.02967753 Ry

     iteration # 41     ecut=    29.40 Ry     beta= 0.05
     Davidson diagonalization with overlap
     c_bands:  1 eigenvalues not converged
     ethr =  7.46E-06,  avg # of iterations =  9.4

     negative rho (up, down):  1.309E-02 0.000E+00
 
     Adding external electric field

     Computed dipole along edir(3) : 
        Dipole                0.7855 Ry au,          1.9966 Debye
        Dipole field          0.0015 Ry au, 
 
        Potential amp.       -0.1374 Ry
        Total length         46.3494 bohr
 

     total cpu time spent up to now is      696.6 secs

     total energy              =   -2940.25533779 Ry
     estimated scf accuracy    <       0.00324815 Ry

     iteration # 42     ecut=    29.40 Ry     beta= 0.05
     Davidson diagonalization with overlap
     c_bands:  1 eigenvalues not converged
     c_bands:  2 eigenvalues not converged
     c_bands:  1 eigenvalues not converged
     c_bands:  3 eigenvalues not converged
     c_bands:  1 eigenvalues not converged
     ethr =  8.20E-07,  avg # of iterations = 19.0

     negative rho (up, down):  1.352E-02 0.000E+00
 
     Adding external electric field

     Computed dipole along edir(3) : 
        Dipole                0.7943 Ry au,          2.0190 Debye
        Dipole field          0.0015 Ry au, 
 
        Potential amp.       -0.1390 Ry
        Total length         46.3494 bohr
 

     total cpu time spent up to now is      718.2 secs

     total energy              =   -2940.25559253 Ry
     estimated scf accuracy    <       0.00224106 Ry

     iteration # 43     ecut=    29.40 Ry     beta= 0.05
     Davidson diagonalization with overlap
     c_bands:  1 eigenvalues not converged
     c_bands:  1 eigenvalues not converged
     c_bands:  1 eigenvalues not converged
     c_bands:  1 eigenvalues not converged
     ethr =  5.66E-07,  avg # of iterations = 16.4

     negative rho (up, down):  1.432E-02 0.000E+00
 
     Adding external electric field

     Computed dipole along edir(3) : 
        Dipole                0.8023 Ry au,          2.0392 Debye
        Dipole field          0.0015 Ry au, 
 
        Potential amp.       -0.1403 Ry
        Total length         46.3494 bohr
 

     total cpu time spent up to now is      735.3 secs

     total energy              =   -2940.25576189 Ry
     estimated scf accuracy    <       0.00148650 Ry

     iteration # 44     ecut=    29.40 Ry     beta= 0.05
     Davidson diagonalization with overlap
     ethr =  3.75E-07,  avg # of iterations =  5.5

     negative rho (up, down):  1.469E-02 0.000E+00
 
     Adding external electric field

     Computed dipole along edir(3) : 
        Dipole                0.8086 Ry au,          2.0553 Debye
        Dipole field          0.0015 Ry au, 
 
        Potential amp.       -0.1415 Ry
        Total length         46.3494 bohr
 

     total cpu time spent up to now is      747.7 secs

     total energy              =   -2940.25579827 Ry
     estimated scf accuracy    <       0.00075562 Ry

     iteration # 45     ecut=    29.40 Ry     beta= 0.05
     Davidson diagonalization with overlap
     ethr =  1.91E-07,  avg # of iterations = 11.1

     negative rho (up, down):  1.469E-02 0.000E+00
 
     Adding external electric field

     Computed dipole along edir(3) : 
        Dipole                0.8112 Ry au,          2.0618 Debye
        Dipole field          0.0015 Ry au, 
 
        Potential amp.       -0.1419 Ry
        Total length         46.3494 bohr
 

     total cpu time spent up to now is      765.6 secs

     total energy              =   -2940.25586381 Ry
     estimated scf accuracy    <       0.00047810 Ry

     iteration # 46     ecut=    29.40 Ry     beta= 0.05
     Davidson diagonalization with overlap
     ethr =  1.21E-07,  avg # of iterations = 12.2

     negative rho (up, down):  1.490E-02 0.000E+00
 
     Adding external electric field

     Computed dipole along edir(3) : 
        Dipole                0.8114 Ry au,          2.0624 Debye
        Dipole field          0.0015 Ry au, 
 
        Potential amp.       -0.1419 Ry
        Total length         46.3494 bohr
 

     total cpu time spent up to now is      781.1 secs

     total energy              =   -2940.25589649 Ry
     estimated scf accuracy    <       0.00028231 Ry

     iteration # 47     ecut=    29.40 Ry     beta= 0.05
     Davidson diagonalization with overlap
     c_bands:  1 eigenvalues not converged
     ethr =  7.13E-08,  avg # of iterations = 13.1

     negative rho (up, down):  1.517E-02 0.000E+00
 
     Adding external electric field

     Computed dipole along edir(3) : 
        Dipole                0.8101 Ry au,          2.0590 Debye
        Dipole field          0.0015 Ry au, 
 
        Potential amp.       -0.1417 Ry
        Total length         46.3494 bohr
 

     total cpu time spent up to now is      796.5 secs

     total energy              =   -2940.25593353 Ry
     estimated scf accuracy    <       0.00025029 Ry

     iteration # 48     ecut=    29.40 Ry     beta= 0.05
     Davidson diagonalization with overlap
     c_bands:  1 eigenvalues not converged
     ethr =  6.32E-08,  avg # of iterations = 12.3

     negative rho (up, down):  1.557E-02 0.000E+00
 
     Adding external electric field

     Computed dipole along edir(3) : 
        Dipole                0.8124 Ry au,          2.0650 Debye
        Dipole field          0.0015 Ry au, 
 
        Potential amp.       -0.1421 Ry
        Total length         46.3494 bohr
 

     total cpu time spent up to now is      811.6 secs

     total energy              =   -2940.25597963 Ry
     estimated scf accuracy    <       0.00011556 Ry

     iteration # 49     ecut=    29.40 Ry     beta= 0.05
     Davidson diagonalization with overlap
     ethr =  2.92E-08,  avg # of iterations =  9.3

     negative rho (up, down):  1.572E-02 0.000E+00
 
     Adding external electric field

     Computed dipole along edir(3) : 
        Dipole                0.8155 Ry au,          2.0729 Debye
        Dipole field          0.0015 Ry au, 
 
        Potential amp.       -0.1427 Ry
        Total length         46.3494 bohr
 

     total cpu time spent up to now is      825.3 secs

     total energy              =   -2940.25599525 Ry
     estimated scf accuracy    <       0.00010324 Ry

     iteration # 50     ecut=    29.40 Ry     beta= 0.05
     Davidson diagonalization with overlap
     ethr =  2.61E-08,  avg # of iterations = 11.2

     negative rho (up, down):  1.583E-02 0.000E+00
 
     Adding external electric field

     Computed dipole along edir(3) : 
        Dipole                0.8168 Ry au,          2.0761 Debye
        Dipole field          0.0015 Ry au, 
 
        Potential amp.       -0.1429 Ry
        Total length         46.3494 bohr
 

     total cpu time spent up to now is      839.9 secs

     total energy              =   -2940.25601435 Ry
     estimated scf accuracy    <       0.00003886 Ry

     iteration # 51     ecut=    29.40 Ry     beta= 0.05
     Davidson diagonalization with overlap
     ethr =  9.81E-09,  avg # of iterations =  8.6

     negative rho (up, down):  1.614E-02 0.000E+00
 
     Adding external electric field

     Computed dipole along edir(3) : 
        Dipole                0.8183 Ry au,          2.0800 Debye
        Dipole field          0.0015 Ry au, 
 
        Potential amp.       -0.1432 Ry
        Total length         46.3494 bohr
 

     total cpu time spent up to now is      853.3 secs

     total energy              =   -2940.25603023 Ry
     estimated scf accuracy    <       0.00002111 Ry

     iteration # 52     ecut=    29.40 Ry     beta= 0.05
     Davidson diagonalization with overlap
     ethr =  5.33E-09,  avg # of iterations = 12.1

     negative rho (up, down):  1.620E-02 0.000E+00
 
     Adding external electric field

     Computed dipole along edir(3) : 
        Dipole                0.8183 Ry au,          2.0800 Debye
        Dipole field          0.0015 Ry au, 
 
        Potential amp.       -0.1432 Ry
        Total length         46.3494 bohr
 

     total cpu time spent up to now is      869.2 secs

     total energy              =   -2940.25604229 Ry
     estimated scf accuracy    <       0.00001091 Ry

     iteration # 53     ecut=    29.40 Ry     beta= 0.05
     Davidson diagonalization with overlap
     c_bands:  1 eigenvalues not converged
     ethr =  2.75E-09,  avg # of iterations = 11.3

     negative rho (up, down):  1.611E-02 0.000E+00
 
     Adding external electric field

     Computed dipole along edir(3) : 
        Dipole                0.8159 Ry au,          2.0738 Debye
        Dipole field          0.0015 Ry au, 
 
        Potential amp.       -0.1427 Ry
        Total length         46.3494 bohr
 

     total cpu time spent up to now is      883.3 secs

     total energy              =   -2940.25605111 Ry
     estimated scf accuracy    <       0.00000551 Ry

     iteration # 54     ecut=    29.40 Ry     beta= 0.05
     Davidson diagonalization with overlap
     ethr =  1.39E-09,  avg # of iterations = 11.3

     negative rho (up, down):  1.609E-02 0.000E+00
 
     Adding external electric field

     Computed dipole along edir(3) : 
        Dipole                0.8154 Ry au,          2.0726 Debye
        Dipole field          0.0015 Ry au, 
 
        Potential amp.       -0.1426 Ry
        Total length         46.3494 bohr
 

     total cpu time spent up to now is      899.7 secs

     total energy              =   -2940.25605999 Ry
     estimated scf accuracy    <       0.00000275 Ry

     iteration # 55     ecut=    29.40 Ry     beta= 0.05
     Davidson diagonalization with overlap
     ethr =  6.95E-10,  avg # of iterations =  5.4

     negative rho (up, down):  1.606E-02 0.000E+00
 
     Adding external electric field

     Computed dipole along edir(3) : 
        Dipole                0.8147 Ry au,          2.0707 Debye
        Dipole field          0.0015 Ry au, 
 
        Potential amp.       -0.1425 Ry
        Total length         46.3494 bohr
 

     total cpu time spent up to now is      911.5 secs

     total energy              =   -2940.25606745 Ry
     estimated scf accuracy    <       0.00000204 Ry

     iteration # 56     ecut=    29.40 Ry     beta= 0.05
     Davidson diagonalization with overlap
     ethr =  5.16E-10,  avg # of iterations = 10.5

     negative rho (up, down):  1.604E-02 0.000E+00
 
     Adding external electric field

     Computed dipole along edir(3) : 
        Dipole                0.8144 Ry au,          2.0699 Debye
        Dipole field          0.0015 Ry au, 
 
        Potential amp.       -0.1425 Ry
        Total length         46.3494 bohr
 

     total cpu time spent up to now is      926.2 secs

     total energy              =   -2940.25607455 Ry
     estimated scf accuracy    <       0.00000163 Ry

     iteration # 57     ecut=    29.40 Ry     beta= 0.05
     Davidson diagonalization with overlap
     ethr =  4.13E-10,  avg # of iterations =  8.5

     negative rho (up, down):  1.605E-02 0.000E+00
 
     Adding external electric field

     Computed dipole along edir(3) : 
        Dipole                0.8141 Ry au,          2.0692 Debye
        Dipole field          0.0015 Ry au, 
 
        Potential amp.       -0.1424 Ry
        Total length         46.3494 bohr
 

     total cpu time spent up to now is      939.4 secs

     total energy              =   -2940.25608078 Ry
     estimated scf accuracy    <       0.00000064 Ry

     iteration # 58     ecut=    29.40 Ry     beta= 0.05
     Davidson diagonalization with overlap
     c_bands:  2 eigenvalues not converged
     ethr =  1.62E-10,  avg # of iterations = 12.8

     negative rho (up, down):  1.606E-02 0.000E+00
 
     Adding external electric field

     Computed dipole along edir(3) : 
        Dipole                0.8142 Ry au,          2.0696 Debye
        Dipole field          0.0015 Ry au, 
 
        Potential amp.       -0.1424 Ry
        Total length         46.3494 bohr
 

     total cpu time spent up to now is      955.2 secs

     total energy              =   -2940.25608642 Ry
     estimated scf accuracy    <       0.00000043 Ry

     iteration # 59     ecut=    29.40 Ry     beta= 0.05
     Davidson diagonalization with overlap
     ethr =  1.08E-10,  avg # of iterations =  1.9

     negative rho (up, down):  1.607E-02 0.000E+00
 
     Adding external electric field

     Computed dipole along edir(3) : 
        Dipole                0.8145 Ry au,          2.0704 Debye
        Dipole field          0.0015 Ry au, 
 
        Potential amp.       -0.1425 Ry
        Total length         46.3494 bohr
 

     total cpu time spent up to now is      966.2 secs

     total energy              =   -2940.25609142 Ry
     estimated scf accuracy    <       0.00000035 Ry

     iteration # 60     ecut=    29.40 Ry     beta= 0.05
     Davidson diagonalization with overlap
     c_bands:  1 eigenvalues not converged
     ethr =  8.80E-11,  avg # of iterations = 12.3

     negative rho (up, down):  1.606E-02 0.000E+00
 
     Adding external electric field

     Computed dipole along edir(3) : 
        Dipole                0.8141 Ry au,          2.0693 Debye
        Dipole field          0.0015 Ry au, 
 
        Potential amp.       -0.1424 Ry
        Total length         46.3494 bohr
 

     total cpu time spent up to now is      983.9 secs

     total energy              =   -2940.25609600 Ry
     estimated scf accuracy    <       0.00000026 Ry

     iteration # 61     ecut=    29.40 Ry     beta= 0.05
     Davidson diagonalization with overlap
     ethr =  6.45E-11,  avg # of iterations =  8.4

     negative rho (up, down):  1.604E-02 0.000E+00
 
     Adding external electric field

     Computed dipole along edir(3) : 
        Dipole                0.8140 Ry au,          2.0689 Debye
        Dipole field          0.0015 Ry au, 
 
        Potential amp.       -0.1424 Ry
        Total length         46.3494 bohr
 

     total cpu time spent up to now is      997.3 secs

     total energy              =   -2940.25610013 Ry
     estimated scf accuracy    <       0.00000015 Ry

     iteration # 62     ecut=    29.40 Ry     beta= 0.05
     Davidson diagonalization with overlap
     ethr =  3.82E-11,  avg # of iterations = 13.6

     negative rho (up, down):  1.605E-02 0.000E+00
 
     Adding external electric field

     Computed dipole along edir(3) : 
        Dipole                0.8142 Ry au,          2.0695 Debye
        Dipole field          0.0015 Ry au, 
 
        Potential amp.       -0.1424 Ry
        Total length         46.3494 bohr
 

     total cpu time spent up to now is     1014.6 secs

     total energy              =   -2940.25610386 Ry
     estimated scf accuracy    <       0.00000014 Ry

     iteration # 63     ecut=    29.40 Ry     beta= 0.05
     Davidson diagonalization with overlap
     c_bands:  1 eigenvalues not converged
     ethr =  3.58E-11,  avg # of iterations = 14.2

     negative rho (up, down):  1.606E-02 0.000E+00
 
     Adding external electric field

     Computed dipole along edir(3) : 
        Dipole                0.8142 Ry au,          2.0695 Debye
        Dipole field          0.0015 Ry au, 
 
        Potential amp.       -0.1424 Ry
        Total length         46.3494 bohr
 

     total cpu time spent up to now is     1033.8 secs

     total energy              =   -2940.25610723 Ry
     estimated scf accuracy    <       0.00000009 Ry

     iteration # 64     ecut=    29.40 Ry     beta= 0.05
     Davidson diagonalization with overlap
     ethr =  2.16E-11,  avg # of iterations =  4.8

     negative rho (up, down):  1.606E-02 0.000E+00
 
     Adding external electric field

     Computed dipole along edir(3) : 
        Dipole                0.8142 Ry au,          2.0694 Debye
        Dipole field          0.0015 Ry au, 
 
        Potential amp.       -0.1424 Ry
        Total length         46.3494 bohr
 

     total cpu time spent up to now is     1045.8 secs

     total energy              =   -2940.25611022 Ry
     estimated scf accuracy    <       0.00000009 Ry

     iteration # 65     ecut=    29.40 Ry     beta= 0.05
     Davidson diagonalization with overlap
     ethr =  2.16E-11,  avg # of iterations =  1.4

     negative rho (up, down):  1.612E-02 0.000E+00
 
     Adding external electric field

     Computed dipole along edir(3) : 
        Dipole                0.8149 Ry au,          2.0713 Debye
        Dipole field          0.0015 Ry au, 
 
        Potential amp.       -0.1426 Ry
        Total length         46.3494 bohr
 

     total cpu time spent up to now is     1056.5 secs

     End of self-consistent calculation

          k = 0.0000 0.0000 0.0000 ( 18029 PWs)   bands (ev):

   -55.6656 -55.6284 -55.6167 -55.5850 -55.5826 -55.5474 -55.5426 -55.5081
   -55.4888 -55.4783 -55.4544 -55.4481 -55.4144 -55.3300 -54.6482 -54.6142
   -32.2307 -32.1230 -32.1096 -32.0308 -31.9783 -31.9770 -31.9742 -31.9543
   -31.9056 -31.8993 -31.8745 -31.8707 -31.8616 -31.8497 -31.8326 -31.8211
   -31.8191 -31.8104 -31.8024 -31.7848 -31.7694 -31.7664 -31.7311 -31.7310
   -31.7205 -31.7192 -31.7070 -31.6911 -31.6740 -31.6734 -31.6684 -31.6481
   -31.6470 -31.6445 -31.6376 -31.6351 -31.6022 -31.5941 -31.5762 -31.5595
   -31.5382 -31.5257 -31.0577 -30.9632 -30.9412 -30.8741 -30.7873 -30.6764
   -18.5146 -16.4960 -16.2346 -16.0896 -15.9776 -15.8662 -15.7537 -15.7107
   -15.5966 -15.5225 -15.3940 -15.3597 -15.3225 -15.3074 -15.2946 -15.2937
   -15.2128 -15.2071 -15.1884 -15.1640 -15.1611 -15.1177 -15.1065 -15.0658
   -15.0417 -15.0110 -14.9130 -14.8275 -14.7538 -14.6032 -14.5213 -13.1511
   -13.0336  -9.5803  -6.7557  -5.7981  -4.0839  -3.9049  -3.8198  -3.6868
    -3.5816  -3.5586  -3.5057  -3.4215  -3.2478  -3.1119  -3.0602  -2.9545
    -2.8753  -2.8638  -2.8330  -2.7086  -2.6642  -2.6212  -2.5488  -2.5305
    -2.4728  -2.4512  -2.4345  -2.4179  -2.3973  -2.3866  -2.2974  -2.2360
    -2.1371  -2.0874  -2.0690  -2.0199  -2.0053  -1.9790  -1.9558  -1.9465
    -1.8937  -1.8893  -1.8611  -1.8124  -1.6939  -1.5601  -1.5280  -1.4278
    -1.3057  -1.2680  -1.2491  -1.1596  -1.1490  -1.1235  -1.0744  -1.0440
    -1.0078  -0.9334  -0.8795  -0.7898  -0.7470  -0.7400  -0.6788  -0.6551
    -0.5661  -0.4813  -0.4475  -0.4329  -0.4087  -0.2960  -0.2735  -0.2087
    -0.1495  -0.1389  -0.1309  -0.0518  -0.0064   0.0675   0.1000   0.1211
     0.2128   0.2341   0.2643   0.2660   0.2977   0.3186   0.3636   0.4058
     0.4322   0.5194   0.6358   0.8592   0.9441   0.9484   1.2707   1.2786
     1.3743   1.5577   1.6267   1.9507   1.9991   3.4313   3.5028   3.5775
     3.5815   3.5953   3.6675   3.9103   3.9309   3.9381   3.9410   3.9666

          k = 0.0000 0.0419 0.0000 ( 17933 PWs)   bands (ev):

   -55.6605 -55.6334 -55.6116 -55.5875 -55.5843 -55.5452 -55.5375 -55.5130
   -55.4837 -55.4803 -55.4593 -55.4431 -55.4193 -55.3306 -54.6432 -54.6191
   -32.1737 -32.0859 -32.0556 -31.9761 -31.9633 -31.9257 -31.9245 -31.9113
   -31.9088 -31.9006 -31.8923 -31.8633 -31.8575 -31.8545 -31.8423 -31.8358
   -31.8137 -31.8120 -31.8059 -31.7876 -31.7703 -31.7701 -31.7554 -31.7322
   -31.7163 -31.7149 -31.7143 -31.7021 -31.6946 -31.6912 -31.6877 -31.6808
   -31.6582 -31.6557 -31.6489 -31.6381 -31.6342 -31.6302 -31.6136 -31.5865
   -31.5635 -31.5366 -31.0035 -30.9598 -30.9441 -30.8614 -30.7999 -30.7336
   -18.5128 -16.3678 -16.1209 -16.0004 -15.9019 -15.7600 -15.7055 -15.6760
   -15.5751 -15.5244 -15.4812 -15.3965 -15.3551 -15.3400 -15.2887 -15.2757
   -15.2409 -15.2351 -15.1829 -15.1671 -15.1514 -15.1500 -15.1248 -15.1017
   -15.0511 -15.0375 -14.9687 -14.8826 -14.8135 -14.6928 -14.5450 -13.1546
   -13.0728  -9.5774  -6.7570  -5.7954  -4.0806  -3.8407  -3.6399  -3.5190
    -3.4252  -3.3824  -3.3796  -3.2771  -3.0258  -3.0105  -2.9671  -2.9100
    -2.8385  -2.8144  -2.7614  -2.7424  -2.6857  -2.6811  -2.6334  -2.6164
    -2.6083  -2.5667  -2.5351  -2.4655  -2.4431  -2.4129  -2.3847  -2.3132
    -2.2704  -2.2261  -2.2225  -2.1819  -2.1623  -2.0937  -2.0229  -1.9784
    -1.9376  -1.8225  -1.6961  -1.6039  -1.5976  -1.4927  -1.4758  -1.4104
    -1.3382  -1.2523  -1.2005  -1.0553  -1.0203  -1.0101  -0.9897  -0.9115
    -0.8867  -0.8476  -0.8393  -0.7880  -0.6781  -0.6669  -0.6546  -0.5983
    -0.5849  -0.5000  -0.4885  -0.4859  -0.4440  -0.3775  -0.2955  -0.2663
    -0.2606  -0.1763  -0.1672  -0.1161  -0.0702  -0.0210   0.0630   0.0709
     0.0844   0.1203   0.1386   0.1621   0.2651   0.2875   0.3273   0.3631
     0.4413   0.5110   0.6286   0.6401   0.7006   0.8192   0.9818   1.1462
     1.5576   1.6175   1.6334   1.9056   1.9093   3.6284   3.6372   3.6668
     3.7232   3.8052   3.8111   3.8452   3.8620   3.9158   3.9267   4.0016

          k = 0.0000-0.0839 0.0000 ( 17884 PWs)   bands (ev):

   -55.6517 -55.6421 -55.5999 -55.5992 -55.5836 -55.5429 -55.5268 -55.5236
   -55.4826 -55.4729 -55.4701 -55.4314 -55.4309 -55.3312 -54.6313 -54.6309
   -32.0425 -32.0382 -32.0304 -31.9428 -31.9233 -31.9228 -31.9204 -31.8909
   -31.8905 -31.8620 -31.8512 -31.8494 -31.8375 -31.8370 -31.8364 -31.8294
   -31.8085 -31.8050 -31.8045 -31.7970 -31.7935 -31.7896 -31.7580 -31.7426
   -31.7383 -31.7345 -31.7342 -31.7315 -31.7303 -31.7219 -31.7214 -31.7055
   -31.7030 -31.7002 -31.6962 -31.6633 -31.6308 -31.6284 -31.6121 -31.6121
   -31.6037 -31.5352 -30.9519 -30.9516 -30.8704 -30.8702 -30.8307 -30.8306
   -18.5110 -16.1252 -15.9961 -15.8733 -15.8073 -15.7644 -15.6700 -15.6557
   -15.5624 -15.5276 -15.5192 -15.4913 -15.4491 -15.4184 -15.2843 -15.2779
   -15.2630 -15.2598 -15.2004 -15.1333 -15.1186 -15.1097 -15.0914 -15.0752
   -15.0734 -15.0243 -15.0093 -14.9597 -14.9553 -14.8640 -14.5528 -13.1355
   -13.1354  -9.5750  -6.7584  -5.7926  -4.0729  -3.7957  -3.2127  -3.2015
    -3.1438  -3.1065  -3.0893  -3.0795  -3.0436  -3.0070  -2.9882  -2.9400
    -2.9381  -2.8709  -2.8673  -2.8254  -2.8154  -2.7850  -2.7255  -2.6719
    -2.6473  -2.6050  -2.5513  -2.5406  -2.5161  -2.5120  -2.4949  -2.3995
    -2.3929  -2.3020  -2.2782  -2.1563  -2.1069  -2.0764  -2.0369  -1.8441
    -1.8002  -1.7279  -1.6967  -1.5798  -1.4671  -1.4417  -1.4245  -1.4157
    -1.1862  -1.1820  -1.1733  -1.1519  -1.1296  -1.0928  -1.0594  -1.0553
    -1.0413  -0.8936  -0.8684  -0.8395  -0.7925  -0.7234  -0.6012  -0.4987
    -0.4694  -0.4133  -0.3802  -0.3733  -0.3122  -0.2910  -0.2732  -0.2730
    -0.2214  -0.1799  -0.1474  -0.1419  -0.0930  -0.0654  -0.0505  -0.0331
    -0.0268   0.0276   0.0620   0.0842   0.1212   0.1218   0.1481   0.1537
     0.4816   0.5284   0.5423   0.5471   0.7065   0.7205   0.8898   0.8981
     1.6020   1.6995   1.6999   1.8412   1.8414   3.6924   3.7037   3.7546
     3.7601   3.8145   3.8563   3.9134   3.9163   4.0080   4.0181   4.0324

          k = 0.0380 0.0000 0.0000 ( 17913 PWs)   bands (ev):

   -55.6654 -55.6283 -55.6166 -55.5849 -55.5825 -55.5473 -55.5425 -55.5080
   -55.4885 -55.4782 -55.4543 -55.4481 -55.4143 -55.3300 -54.6481 -54.6141
   -32.2308 -32.1231 -32.1105 -32.0362 -31.9821 -31.9804 -31.9745 -31.9546
   -31.9054 -31.8992 -31.8707 -31.8615 -31.8576 -31.8495 -31.8325 -31.8187
   -31.8102 -31.8048 -31.7959 -31.7677 -31.7663 -31.7638 -31.7399 -31.7377
   -31.7307 -31.7189 -31.7068 -31.6911 -31.6737 -31.6726 -31.6609 -31.6566
   -31.6480 -31.6468 -31.6443 -31.6376 -31.6010 -31.5936 -31.5761 -31.5598
   -31.5407 -31.5257 -31.0572 -30.9667 -30.9391 -30.8739 -30.7872 -30.6762
   -18.5140 -16.4161 -16.1483 -16.0914 -15.9311 -15.7781 -15.7536 -15.7106
   -15.6179 -15.5261 -15.4560 -15.4476 -15.4198 -15.3662 -15.3615 -15.3351
   -15.2958 -15.2635 -15.1687 -15.1636 -15.1130 -15.0710 -15.0455 -15.0337
   -14.9877 -14.9256 -14.9025 -14.8871 -14.8400 -14.6044 -14.5225 -13.1477
   -13.0333  -9.5786  -6.7491  -5.7979  -4.0845  -3.8529  -3.7067  -3.5468
    -3.4534  -3.3344  -3.3146  -3.2703  -3.2279  -3.1953  -3.1116  -3.0664
    -3.0075  -2.9569  -2.8126  -2.7418  -2.7317  -2.6429  -2.5915  -2.4588
    -2.4362  -2.4231  -2.3791  -2.3388  -2.3257  -2.2651  -2.2542  -2.1919
    -2.0839  -2.0494  -2.0224  -2.0042  -1.9804  -1.9690  -1.9082  -1.8888
    -1.8295  -1.7737  -1.7426  -1.7102  -1.6335  -1.5951  -1.4772  -1.4673
    -1.3413  -1.3010  -1.2787  -1.2193  -1.1829  -1.1435  -1.1125  -1.0803
    -1.0632  -1.0175  -0.9865  -0.8280  -0.7574  -0.7111  -0.6674  -0.6010
    -0.5505  -0.5434  -0.5179  -0.4986  -0.3700  -0.3496  -0.3023  -0.2719
    -0.2449  -0.1708  -0.1375  -0.1185  -0.0624  -0.0085   0.0220   0.0635
     0.0697   0.0962   0.1510   0.1887   0.2649   0.2753   0.2995   0.3389
     0.3527   0.4397   0.5209   0.6196   0.7690   0.9959   1.1310   1.2840
     1.3862   1.5265   1.5850   1.8380   1.9163   3.4466   3.5364   3.6935
     3.7312   3.7658   3.8231   3.8725   3.8854   3.9223   3.9351   3.9423

          k = 0.0380 0.0419 0.0000 ( 17878 PWs)   bands (ev):

   -55.6604 -55.6333 -55.6116 -55.5875 -55.5842 -55.5452 -55.5375 -55.5130
   -55.4835 -55.4803 -55.4593 -55.4431 -55.4193 -55.3306 -54.6431 -54.6191
   -32.1738 -32.0861 -32.0564 -31.9825 -31.9632 -31.9297 -31.9287 -31.9116
   -31.9088 -31.9004 -31.8925 -31.8577 -31.8552 -31.8492 -31.8421 -31.8359
   -31.8058 -31.8023 -31.7989 -31.7877 -31.7705 -31.7544 -31.7512 -31.7380
   -31.7308 -31.7162 -31.7145 -31.6996 -31.6948 -31.6875 -31.6832 -31.6787
   -31.6674 -31.6571 -31.6481 -31.6428 -31.6376 -31.6366 -31.6134 -31.5866
   -31.5632 -31.5396 -31.0031 -30.9626 -30.9431 -30.8613 -30.7999 -30.7334
   -18.5123 -16.2949 -16.0499 -16.0103 -15.8352 -15.7165 -15.6786 -15.6544
   -15.5852 -15.5428 -15.4791 -15.4357 -15.4178 -15.3609 -15.3388 -15.3182
   -15.3114 -15.2346 -15.2265 -15.1999 -15.1450 -15.1177 -15.0870 -15.0722
   -15.0402 -14.9923 -14.9588 -14.9503 -14.8939 -14.6894 -14.5486 -13.1523
   -13.0731  -9.5756  -6.7507  -5.7952  -4.0850  -3.8167  -3.5311  -3.3975
    -3.2873  -3.1770  -3.1607  -3.0991  -3.0641  -3.0095  -2.9688  -2.9290
    -2.8608  -2.7915  -2.7503  -2.7050  -2.6876  -2.6617  -2.6119  -2.5677
    -2.5320  -2.4939  -2.4700  -2.4492  -2.4268  -2.3722  -2.3640  -2.3125
    -2.2826  -2.2544  -2.1767  -2.1376  -2.1089  -2.0646  -1.9704  -1.9448
    -1.8724  -1.7347  -1.6768  -1.6531  -1.5987  -1.4833  -1.4535  -1.3883
    -1.3082  -1.2463  -1.1998  -1.1518  -1.0930  -1.0855  -1.0277  -1.0111
    -0.9696  -0.9427  -0.9076  -0.8402  -0.7930  -0.7508  -0.7098  -0.6387
    -0.6147  -0.6072  -0.5595  -0.4657  -0.4444  -0.4249  -0.3739  -0.3555
    -0.3218  -0.2955  -0.2808  -0.2475  -0.1977  -0.1186  -0.1046  -0.0574
    -0.0176   0.0523   0.0735   0.1466   0.2166   0.2840   0.3112   0.3908
     0.4376   0.4820   0.5797   0.6191   0.7528   0.7609   0.9263   1.1020
     1.5685   1.5782   1.6364   1.8278   1.8911   3.6147   3.6271   3.6570
     3.7706   3.7969   3.8414   3.8634   3.9454   3.9839   4.0012   4.0291

          k = 0.0380-0.0839 0.0000 ( 17916 PWs)   bands (ev):

   -55.6518 -55.6421 -55.5999 -55.5992 -55.5836 -55.5429 -55.5269 -55.5237
   -55.4826 -55.4729 -55.4700 -55.4315 -55.4310 -55.3312 -54.6313 -54.6309
   -32.0427 -32.0385 -32.0306 -31.9430 -31.9241 -31.9236 -31.9206 -31.8910
   -31.8906 -31.8668 -31.8622 -31.8573 -31.8529 -31.8313 -31.8159 -31.8115
   -31.8093 -31.8029 -31.8000 -31.7975 -31.7954 -31.7941 -31.7537 -31.7443
   -31.7402 -31.7330 -31.7314 -31.7211 -31.7205 -31.7141 -31.7113 -31.7090
   -31.7054 -31.7045 -31.7028 -31.6658 -31.6425 -31.6400 -31.6121 -31.6121
   -31.6031 -31.5389 -30.9529 -30.9526 -30.8703 -30.8701 -30.8308 -30.8306
   -18.5105 -16.0878 -15.9481 -15.8532 -15.7598 -15.7491 -15.6284 -15.6013
   -15.5553 -15.5231 -15.5126 -15.4797 -15.4120 -15.3779 -15.2945 -15.2909
   -15.2827 -15.2630 -15.2542 -15.2156 -15.1681 -15.1452 -15.1055 -15.0983
   -15.0818 -15.0434 -15.0301 -15.0099 -15.0089 -14.8522 -14.5549 -13.1353
   -13.1352  -9.5732  -6.7514  -5.7926  -4.0778  -3.7908  -3.1572  -3.1487
    -3.1207  -2.9632  -2.9329  -2.9207  -2.8715  -2.8576  -2.8243  -2.8030
    -2.7859  -2.7671  -2.7460  -2.7423  -2.7167  -2.7090  -2.6510  -2.6472
    -2.6022  -2.5821  -2.5534  -2.5195  -2.5067  -2.4400  -2.4021  -2.3676
    -2.3479  -2.3229  -2.2878  -2.2335  -2.1872  -1.9436  -1.8832  -1.8635
    -1.7944  -1.7089  -1.6574  -1.6189  -1.5952  -1.5506  -1.5297  -1.4391
    -1.4095  -1.3728  -1.3496  -1.3443  -1.2396  -1.2297  -1.1276  -1.0743
    -1.0175  -0.9930  -0.9607  -0.9179  -0.7781  -0.7463  -0.6998  -0.6294
    -0.6067  -0.5826  -0.5178  -0.4907  -0.4704  -0.4614  -0.4192  -0.3559
    -0.3123  -0.3055  -0.2767  -0.2315  -0.1977  -0.1829  -0.1536  -0.1364
    -0.0018   0.0588   0.0597   0.0930   0.2053   0.2279   0.3912   0.3957
     0.4215   0.4794   0.5531   0.5794   0.6597   0.6709   0.8803   0.8877
     1.5618   1.7129   1.7133   1.8318   1.8325   3.6036   3.6970   3.7171
     3.7509   3.8337   3.8585   3.8902   3.9173   4.0180   4.0351   4.0834

          k = 0.0380-0.0419 0.0000 ( 17876 PWs)   bands (ev):

   -55.6604 -55.6333 -55.6116 -55.5875 -55.5842 -55.5452 -55.5375 -55.5130
   -55.4835 -55.4803 -55.4593 -55.4431 -55.4193 -55.3306 -54.6431 -54.6191
   -32.1738 -32.0861 -32.0564 -31.9825 -31.9632 -31.9297 -31.9287 -31.9116
   -31.9088 -31.9004 -31.8925 -31.8577 -31.8552 -31.8492 -31.8421 -31.8359
   -31.8058 -31.8023 -31.7990 -31.7877 -31.7705 -31.7544 -31.7512 -31.7379
   -31.7308 -31.7161 -31.7145 -31.6996 -31.6948 -31.6875 -31.6832 -31.6787
   -31.6675 -31.6570 -31.6482 -31.6426 -31.6377 -31.6366 -31.6134 -31.5866
   -31.5633 -31.5396 -31.0031 -30.9626 -30.9431 -30.8613 -30.7999 -30.7334
   -18.5122 -16.2951 -16.0505 -16.0098 -15.8359 -15.7164 -15.6782 -15.6542
   -15.5849 -15.5431 -15.4792 -15.4367 -15.4183 -15.3588 -15.3386 -15.3179
   -15.3119 -15.2334 -15.2264 -15.1997 -15.1449 -15.1176 -15.0870 -15.0718
   -15.0402 -14.9917 -14.9586 -14.9507 -14.8942 -14.6937 -14.5465 -13.1523
   -13.0731  -9.5757  -6.7496  -5.7953  -4.0808  -3.8177  -3.5303  -3.3983
    -3.2873  -3.1814  -3.1593  -3.0979  -3.0636  -3.0080  -2.9683  -2.9292
    -2.8638  -2.7922  -2.7501  -2.7071  -2.6881  -2.6599  -2.6116  -2.5684
    -2.5341  -2.4956  -2.4705  -2.4462  -2.4275  -2.3722  -2.3639  -2.3120
    -2.2844  -2.2544  -2.1772  -2.1325  -2.1058  -2.0672  -1.9851  -1.9376
    -1.8750  -1.7351  -1.6773  -1.6583  -1.5901  -1.4832  -1.4522  -1.3891
    -1.3325  -1.2473  -1.1915  -1.1518  -1.0965  -1.0838  -1.0502  -1.0134
    -0.9714  -0.9389  -0.8619  -0.8371  -0.7947  -0.7557  -0.6901  -0.6303
    -0.6178  -0.6014  -0.5728  -0.4633  -0.4445  -0.4256  -0.3756  -0.3613
    -0.3178  -0.2915  -0.2798  -0.2500  -0.1939  -0.1324  -0.1042  -0.0614
    -0.0156   0.0537   0.0719   0.1509   0.2104   0.2829   0.3124   0.3954
     0.4370   0.4835   0.5777   0.6157   0.7525   0.7614   0.9267   1.1025
     1.5685   1.5781   1.6364   1.8276   1.8917   3.6186   3.6295   3.6586
     3.7721   3.7992   3.8423   3.8625   3.9436   3.9716   4.0024   4.0243

          k =-0.0760-0.0000 0.0000 ( 17886 PWs)   bands (ev):

   -55.6653 -55.6283 -55.6165 -55.5847 -55.5825 -55.5473 -55.5425 -55.5080
   -55.4883 -55.4782 -55.4543 -55.4482 -55.4143 -55.3299 -54.6481 -54.6141
   -32.2309 -32.1234 -32.1114 -32.0413 -31.9860 -31.9838 -31.9743 -31.9549
   -31.9052 -31.8992 -31.8708 -31.8615 -31.8500 -31.8326 -31.8324 -31.8186
   -31.8097 -31.7903 -31.7758 -31.7663 -31.7637 -31.7633 -31.7614 -31.7310
   -31.7306 -31.7192 -31.7068 -31.6911 -31.6906 -31.6740 -31.6724 -31.6523
   -31.6484 -31.6470 -31.6445 -31.6414 -31.6001 -31.5935 -31.5760 -31.5605
   -31.5433 -31.5258 -31.0568 -30.9702 -30.9378 -30.8738 -30.7871 -30.6762
   -18.5135 -16.2720 -16.1903 -16.0107 -15.8647 -15.7279 -15.7102 -15.7073
   -15.5783 -15.5643 -15.5248 -15.5044 -15.4761 -15.4471 -15.4184 -15.3816
   -15.3630 -15.2792 -15.1639 -15.1096 -15.1043 -15.0775 -15.0761 -15.0735
   -15.0000 -14.9524 -14.9116 -14.8352 -14.7988 -14.6058 -14.5237 -13.1446
   -13.0330  -9.5770  -6.7425  -5.7977  -4.0871  -3.8241  -3.6705  -3.5250
    -3.3057  -3.2130  -3.1712  -3.1580  -3.1556  -3.1272  -3.0876  -3.0530
    -2.9827  -2.9124  -2.8964  -2.7302  -2.6031  -2.5858  -2.5115  -2.4368
    -2.3825  -2.3127  -2.2717  -2.2525  -2.2351  -2.2094  -2.1714  -2.1461
    -2.1296  -2.0484  -2.0347  -2.0211  -2.0030  -1.9801  -1.9649  -1.9574
    -1.8695  -1.8068  -1.7475  -1.6371  -1.5383  -1.4756  -1.3924  -1.3618
    -1.3154  -1.3087  -1.2832  -1.2746  -1.2308  -1.2226  -1.1916  -1.1473
    -1.1072  -1.0365  -1.0086  -0.9619  -0.9467  -0.8731  -0.8140  -0.6617
    -0.6094  -0.5600  -0.5273  -0.5090  -0.4506  -0.3915  -0.3659  -0.3260
    -0.2701  -0.2247  -0.2039  -0.1791  -0.1664  -0.0985  -0.0795  -0.0098
     0.0164   0.0757   0.1090   0.1313   0.1664   0.1765   0.2322   0.2737
     0.3349   0.4550   0.5645   0.5807   0.8152   0.8553   1.0224   1.2886
     1.4076   1.5015   1.5471   1.7078   1.8613   3.4465   3.4933   3.5770
     3.7015   3.7543   3.8168   3.8721   3.9072   3.9214   3.9415   4.0167

          k =-0.0760 0.0419 0.0000 ( 17914 PWs)   bands (ev):

   -55.6604 -55.6333 -55.6116 -55.5875 -55.5842 -55.5452 -55.5375 -55.5130
   -55.4834 -55.4803 -55.4593 -55.4433 -55.4193 -55.3306 -54.6431 -54.6191
   -32.1741 -32.0863 -32.0575 -31.9886 -31.9633 -31.9337 -31.9330 -31.9122
   -31.9089 -31.9004 -31.8925 -31.8579 -31.8549 -31.8429 -31.8360 -31.8316
   -31.8055 -31.7931 -31.7880 -31.7761 -31.7705 -31.7535 -31.7509 -31.7503
   -31.7191 -31.7162 -31.7154 -31.6989 -31.6978 -31.6949 -31.6872 -31.6859
   -31.6572 -31.6561 -31.6544 -31.6484 -31.6448 -31.6381 -31.6140 -31.5866
   -31.5632 -31.5428 -31.0029 -30.9655 -30.9424 -30.8613 -30.8000 -30.7335
   -18.5118 -16.1554 -16.1154 -15.9245 -15.7732 -15.6805 -15.6330 -15.6313
   -15.5786 -15.5285 -15.4746 -15.4672 -15.4595 -15.4274 -15.3953 -15.3635
   -15.3535 -15.2820 -15.2215 -15.2072 -15.1421 -15.1271 -15.0983 -15.0951
   -15.0501 -15.0476 -14.9558 -14.9229 -14.9059 -14.6910 -14.5501 -13.1501
   -13.0734  -9.5740  -6.7435  -5.7951  -4.0865  -3.8024  -3.5039  -3.3807
    -3.0859  -3.0447  -2.9872  -2.9642  -2.9293  -2.8963  -2.8885  -2.8696
    -2.8146  -2.7662  -2.6966  -2.6695  -2.6378  -2.6220  -2.6091  -2.5559
    -2.4876  -2.4774  -2.3926  -2.3866  -2.3449  -2.3134  -2.2664  -2.2469
    -2.2262  -2.2143  -2.1923  -2.1613  -2.1265  -2.0182  -1.8886  -1.8432
    -1.8321  -1.8124  -1.7428  -1.6404  -1.5077  -1.4369  -1.4256  -1.4050
    -1.3215  -1.2991  -1.2589  -1.2375  -1.1966  -1.1690  -1.0813  -1.0744
    -1.0519  -1.0117  -0.9883  -0.9468  -0.9259  -0.8799  -0.8729  -0.8399
    -0.7601  -0.7429  -0.7069  -0.6534  -0.6303  -0.5129  -0.4681  -0.4531
    -0.4284  -0.4014  -0.3681  -0.3485  -0.2223  -0.1876  -0.1433  -0.1127
    -0.0380   0.0562   0.0912   0.1522   0.2140   0.2414   0.3055   0.4205
     0.5418   0.5593   0.6014   0.6585   0.7438   0.8299   0.8446   0.9849
     1.5404   1.5838   1.6385   1.7499   1.8802   3.6070   3.6289   3.6513
     3.6615   3.7476   3.7924   3.8342   3.8957   3.9691   4.0129   4.0631

          k =-0.0760-0.0839 0.0000 ( 17948 PWs)   bands (ev):

   -55.6517 -55.6421 -55.5999 -55.5992 -55.5836 -55.5430 -55.5269 -55.5237
   -55.4826 -55.4728 -55.4699 -55.4316 -55.4311 -55.3313 -54.6313 -54.6310
   -32.0429 -32.0388 -32.0309 -31.9431 -31.9249 -31.9244 -31.9209 -31.8910
   -31.8906 -31.8748 -31.8650 -31.8622 -31.8545 -31.8314 -31.8190 -31.8066
   -31.8054 -31.8017 -31.7986 -31.7907 -31.7892 -31.7857 -31.7456 -31.7431
   -31.7415 -31.7384 -31.7322 -31.7210 -31.7197 -31.7191 -31.7154 -31.7055
   -31.7029 -31.6858 -31.6826 -31.6676 -31.6653 -31.6624 -31.6121 -31.6121
   -31.6027 -31.5428 -30.9540 -30.9537 -30.8703 -30.8701 -30.8308 -30.8306
   -18.5101 -16.0408 -15.8857 -15.8580 -15.7081 -15.6745 -15.6311 -15.6168
   -15.5099 -15.4563 -15.4361 -15.4181 -15.4175 -15.3681 -15.3663 -15.3613
   -15.2892 -15.2703 -15.2675 -15.2417 -15.1860 -15.1794 -15.1728 -15.1677
   -15.1160 -15.1123 -15.0708 -15.0214 -15.0180 -14.8435 -14.5571 -13.1351
   -13.1350  -9.5714  -6.7445  -5.7927  -4.0829  -3.7874  -3.1494  -3.1385
    -3.1185  -2.9233  -2.8546  -2.8247  -2.8214  -2.7283  -2.6874  -2.6498
    -2.6475  -2.5852  -2.5744  -2.5467  -2.5131  -2.5011  -2.4852  -2.4642
    -2.4315  -2.4013  -2.3909  -2.3797  -2.3783  -2.3262  -2.3138  -2.3020
    -2.2693  -2.2493  -2.2302  -2.2193  -2.1515  -2.0504  -2.0332  -1.9498
    -1.8755  -1.8712  -1.7993  -1.7745  -1.7363  -1.7086  -1.6999  -1.6357
    -1.4736  -1.4377  -1.4137  -1.4026  -1.2946  -1.2730  -1.2475  -1.1855
    -1.1725  -1.1513  -1.0242  -0.9888  -0.9755  -0.8918  -0.8810  -0.8011
    -0.7611  -0.6912  -0.6692  -0.6226  -0.6208  -0.5785  -0.5694  -0.5082
    -0.4722  -0.4352  -0.4017  -0.3880  -0.3505  -0.1558  -0.1427  -0.1342
     0.0045   0.0220   0.1856   0.2123   0.2657   0.3621   0.3870   0.4444
     0.4778   0.6201   0.6389   0.6458   0.7076   0.7196   0.7839   0.7953
     1.5221   1.7306   1.7311   1.8190   1.8192   3.5750   3.6871   3.7018
     3.7355   3.8455   3.8709   3.9494   3.9786   4.0163   4.0194   4.0813

     the Fermi energy is     3.4952 ev

!    total energy              =   -2940.25613787 Ry
     estimated scf accuracy    <       0.00000006 Ry
     smearing contrib. (-TS)   =      -0.03709964 Ry
     internal energy E=F+TS    =   -2940.21903823 Ry

     The total energy is F=E-TS. E is the sum of the following terms:
     one-electron contribution =  -23762.81644143 Ry
     hartree contribution      =   11970.30019000 Ry
     xc contribution           =    -485.99121773 Ry
     ewald contribution        =    9338.28717773 Ry
     electric field correction =       0.00125318 Ry

     convergence has been achieved in  65 iterations

     Forces acting on atoms (cartesian axes, Ry/au):

     atom    1 type  1   force =     0.00023466   -0.00026011    0.09313331
     atom    2 type  1   force =    -0.00000026   -0.00049593   -0.17827943
     atom    3 type  2   force =     0.00007850   -0.00041086   -0.02007148
     atom    4 type  2   force =     0.00003989   -0.00193145    0.05909795
     atom    5 type  2   force =    -0.01029906   -0.00073491    0.00827871
     atom    6 type  2   force =     0.01152159   -0.00008432    0.00662379
     atom    7 type  1   force =    -0.00058379    0.00210769   -0.01395773
     atom    8 type  1   force =     0.00069522   -0.00093303   -0.00579271
     atom    9 type  2   force =     0.00007125   -0.00012282    0.00006238
     atom   10 type  2   force =    -0.00259833    0.00235768    0.00052579
     atom   11 type  2   force =    -0.00006409   -0.00005717    0.00006790
     atom   12 type  2   force =     0.00003750    0.00018839   -0.00006495
     atom   13 type  1   force =    -0.00008547    0.00007851    0.00004775
     atom   14 type  1   force =    -0.00009858   -0.00035197   -0.00004006
     atom   15 type  2   force =    -0.00015300    0.00009680    0.00009510
     atom   16 type  2   force =     0.00017717   -0.00003375    0.00019357
     atom   17 type  2   force =    -0.00000295    0.00000227   -0.00001178
     atom   18 type  2   force =     0.00010847   -0.00008889    0.00028741
     atom   19 type  1   force =     0.00013024   -0.00010361   -0.00009134
     atom   20 type  1   force =    -0.00025329    0.00017996   -0.00019004
     atom   21 type  2   force =     0.00014036   -0.00010930    0.10397298
     atom   22 type  2   force =     0.00000417    0.00023165    0.00000765
     atom   23 type  2   force =    -0.07025018   -0.00021020   -0.02685984
     atom   24 type  2   force =     0.07029132    0.00025371   -0.02689579
     atom   25 type  1   force =     0.00023213   -0.00018336    0.09281234
     atom   26 type  1   force =     0.00002683   -0.00044904   -0.17842295
     atom   27 type  2   force =     0.00013140   -0.00024238   -0.01913477
     atom   28 type  2   force =     0.00006886   -0.00174185    0.05853579
     atom   29 type  2   force =    -0.01092795   -0.00101220    0.00903633
     atom   30 type  2   force =     0.01204576   -0.00059261    0.00745149
     atom   31 type  1   force =    -0.00057740    0.00639760   -0.01469105
     atom   32 type  1   force =     0.00075267    0.00032038   -0.00608553
     atom   33 type  2   force =    -0.00008691   -0.00016926    0.00004964
     atom   34 type  2   force =    -0.00184399   -0.00249941   -0.00038706
     atom   35 type  2   force =    -0.00009342    0.00021493   -0.00008992
     atom   36 type  2   force =     0.00012834    0.00009585   -0.00014892
     atom   37 type  1   force =     0.00008597    0.00011656   -0.00001399
     atom   38 type  1   force =     0.00007015   -0.00043849   -0.00001979
     atom   39 type  2   force =     0.00014071    0.00015135   -0.00013684
     atom   40 type  2   force =    -0.00009727   -0.00007544    0.00017001
     atom   41 type  2   force =    -0.00007174   -0.00000267    0.00008971
     atom   42 type  2   force =     0.00006005    0.00002138   -0.00005542
     atom   43 type  1   force =     0.00031354   -0.00014694    0.00014310
     atom   44 type  1   force =     0.00027039    0.00028668   -0.00006981
     atom   45 type  2   force =     0.00012626   -0.00011082    0.10394995
     atom   46 type  2   force =    -0.07024783   -0.00010773   -0.02685441
     atom   47 type  2   force =     0.07023699    0.00030180   -0.02686954
     atom   48 type  3   force =    -0.00696335   -0.00882072   -0.00311377
     atom   49 type  3   force =     0.00015719    0.00048103    0.00010943
     atom   50 type  4   force =     0.00463307    0.01827849    0.00494323
     atom   51 type  5   force =     0.00251215   -0.01107897   -0.00099720
     atom   52 type  5   force =    -0.00120675    0.00110042   -0.00066876
     atom   53 type  5   force =     0.00055954   -0.00021483    0.00008740
     atom   54 type  5   force =     0.00042327    0.00055189    0.00024217

     Total force =     0.367163     Total SCF correction =     0.000782
  @ DRIVER MODE: Message from server: STATUS
  @ DRIVER MODE: Message from server: GETFORCE
  @ DRIVER MODE: Returning v,forces,stress,ensemble 

     Writing output data file ./calc.save/
  @ DRIVER MODE: Message from server: EXIT
  @ DRIVE MODE: Exiting  
 
     init_run     :     11.01s CPU     11.53s WALL (       1 calls)
     electrons    :   1024.83s CPU   1044.20s WALL (       1 calls)
     forces       :      2.44s CPU      2.52s WALL (       1 calls)

     Called by init_run:
     wfcinit      :      4.71s CPU      5.04s WALL (       1 calls)
     potinit      :      5.63s CPU      5.71s WALL (       1 calls)
     hinit0       :      0.31s CPU      0.33s WALL (       1 calls)

     Called by electrons:
     c_bands      :    866.80s CPU    876.44s WALL (      65 calls)
     sum_band     :    107.41s CPU    111.55s WALL (      65 calls)
     v_of_rho     :     38.27s CPU     40.29s WALL (      66 calls)
     newd         :     15.75s CPU     19.22s WALL (      66 calls)
     mix_rho      :      1.40s CPU      1.48s WALL (      65 calls)
     vdW_kernel   :      4.81s CPU      4.83s WALL (       1 calls)

     Called by c_bands:
     init_us_2    :      5.87s CPU      5.95s WALL (    1320 calls)
     cegterg      :    849.40s CPU    858.65s WALL (     662 calls)

     Called by *egterg:
     cdiaghg      :    140.29s CPU    141.39s WALL (    6974 calls)
     h_psi        :    455.29s CPU    461.50s WALL (    6984 calls)
     s_psi        :     58.96s CPU     59.43s WALL (    6984 calls)
     g_psi        :      1.53s CPU      1.55s WALL (    6312 calls)

     Called by h_psi:
     h_psi:calbec :     56.60s CPU     57.16s WALL (    6984 calls)
     vloc_psi     :    336.59s CPU    341.48s WALL (    6984 calls)
     add_vuspsi   :     59.30s CPU     59.86s WALL (    6984 calls)

     General routines
     calbec       :     75.28s CPU     76.01s WALL (    7674 calls)
     fft          :     20.21s CPU     20.50s WALL (    4158 calls)
     ffts         :      0.14s CPU      0.14s WALL (     131 calls)
     fftw         :    381.19s CPU    386.80s WALL (  857268 calls)
     interpolate  :      0.39s CPU      0.39s WALL (      66 calls)
     davcio       :      0.00s CPU      0.07s WALL (      10 calls)
 
     Parallel routines
 
     PWSCF        :  17m18.61s CPU  17m39.67s WALL

 
   This run was terminated on:  14:32:50  15Sep2021            

=------------------------------------------------------------------------------=
   JOB DONE.
=------------------------------------------------------------------------------=
