
     Program PWSCF v.6.7GPU starts on  3Aug2021 at  0:38:33 

     This program is part of the open-source Quantum ESPRESSO suite
     for quantum simulation of materials; please cite
         "P. Giannozzi et al., J. Phys.:Condens. Matter 21 395502 (2009);
         "P. Giannozzi et al., J. Phys.:Condens. Matter 29 465901 (2017);
         "P. Giannozzi et al., J. Chem. Phys. 152 154105 (2020);
          URL http://www.quantum-espresso.org", 
     in publications or presentations arising from this work. More details at
     http://www.quantum-espresso.org/quote

     Parallel version (MPI), running on    16 processors

     MPI processes distributed on     1 nodes
     R & G space division:  proc/nbgrp/npool/nimage =      16
     Reading input from /storage/home/hcoda1/3/ntian30/research/carbon/02Aug_vib_paired/ads_slab/CH3NNH3_a/out_0045/pw.inp
Warning: card &CELL ignored
Warning: card   CELL_DYNAMICS='IPI', ignored
Warning: card / ignored

     Current dimensions of program PWSCF are:
     Max number of different atomic species (ntypx) = 10
     Max number of k-points (npk) =  40000
     Max angular momentum in pseudopotentials (lmaxx) =  3
     Presently no symmetry can be used with electric field

     Message from routine cell_base_init:
     DEPRECATED: use true lattice parameter, not A to a.u. conversion factor

     **************************************************************************
     Initializing libbeef V0.1.2 with the BEEF-vdW functional.
     Citation: Wellendorff et al., PRB 85, 235149 (2012).
     **************************************************************************


     IMPORTANT: XC functional enforced from input :
     Exchange-correlation= BEEF-VDW
                           (   1   4  43  14   2   0   0)
     Any further DFT definition will be discarded
     Please, verify this is what you really want


     Subspace diagonalization in iterative solution of the eigenvalue problem:
     one sub-group per band group will be used
     scalapack distributed-memory algorithm (size of sub-group:  4*  4 procs)

  @ DRIVER MODE: Connecting to 
 qe_1139763_2482544.sched-torque.pace.gatech.edu7yun_cs5_scratch
  using UNIX socket
  @ DRIVER MODE: Message from server: STATUS
  @ DRIVER MODE: Message from server: INIT
  @ DRIVER MODE: Receiving replica           0          -1
  @ DRIVER MODE: Receiving encoded integer          25
  @ DRIVER MODE:  SCF:  T  FORCE:  T  STRESS:  F  VC:  F  ENSEMBLE:  F
  @ DRIVER MODE:  SCF:  T  FORCE:  T  STRESS:  F  VC:  F  ENSEMBLE:  F
 
     Parallelization info
     --------------------
     sticks:   dense  smooth     PW     G-vecs:    dense   smooth      PW
     Min         204      82     23                35422     8962    1367
     Max         205      84     24                35435     8968    1382
     Sum        3275    1317    379               566857   143421   21985
 
     Using Slab Decomposition
 


     bravais-lattice index     =            0
     lattice parameter (alat)  =       1.8897  a.u.
     unit-cell volume          =    6658.9804 (a.u.)^3
     number of atoms/cell      =           56
     number of atomic types    =            5
     number of electrons       =       398.00
     number of Kohn-Sham states=          209
     kinetic-energy cutoff     =      29.3995  Ry
     charge density cutoff     =     293.9946  Ry
     scf convergence threshold =      7.3E-08
     mixing beta               =       0.0500
     number of iterations used =            8  plain     mixing
     Exchange-correlation= BEEF-VDW
                           (   1   4  43  14   2   0   0)

     celldm(1)=   1.889726  celldm(2)=   0.000000  celldm(3)=   0.000000
     celldm(4)=   0.000000  celldm(5)=   0.000000  celldm(6)=   0.000000

     crystal axes: (cart. coord. in units of alat)
               a(1) = (   6.579727   0.000000   0.000000 )  
               a(2) = (  -0.000775   5.961596   0.000000 )  
               a(3) = (   0.000000   0.000000  25.155947 )  

     reciprocal axes: (cart. coord. in units 2 pi/alat)
               b(1) = (  0.151982  0.000020  0.000000 )  
               b(2) = (  0.000000  0.167740  0.000000 )  
               b(3) = (  0.000000  0.000000  0.039752 )  


     PseudoPot. # 1 for Ti read from file:
     /storage/coda1/p-amedford6/0/shared/rich_project_chbe-medford/medford-share/data/pseudos_module/espresso/nninc/pbe/van/Ti.UPF
     MD5 check sum: 8e4df49b7f0d34bbd5052bf3f5ea0213
     Pseudo is Ultrasoft, Zval = 12.0
     Generated by new atomic code, or converted to UPF format
     Using radial grid of  851 points,  6 beta functions with: 
                l(1) =   0
                l(2) =   0
                l(3) =   1
                l(4) =   1
                l(5) =   2
                l(6) =   2
     Q(r) pseudized with  8 coefficients,  rinner =    1.000   1.000   1.000
                                                       1.000   1.000

     PseudoPot. # 2 for O  read from file:
     /storage/coda1/p-amedford6/0/shared/rich_project_chbe-medford/medford-share/data/pseudos_module/espresso/nninc/pbe/van/O.UPF
     MD5 check sum: 78c19812648e8988a0fe644b0f25305e
     Pseudo is Ultrasoft, Zval =  6.0
     Generated by new atomic code, or converted to UPF format
     Using radial grid of  737 points,  4 beta functions with: 
                l(1) =   0
                l(2) =   0
                l(3) =   1
                l(4) =   1
     Q(r) pseudized with  8 coefficients,  rinner =    0.800   0.800   0.800


     PseudoPot. # 3 for N  read from file:
     /storage/coda1/p-amedford6/0/shared/rich_project_chbe-medford/medford-share/data/pseudos_module/espresso/nninc/pbe/van/N.UPF
     MD5 check sum: 90d10febe142ad51ac9d5be1deb811c4
     Pseudo is Ultrasoft, Zval =  5.0
     Generated by new atomic code, or converted to UPF format
     Using radial grid of  729 points,  4 beta functions with: 
                l(1) =   0
                l(2) =   0
                l(3) =   1
                l(4) =   1
     Q(r) pseudized with  8 coefficients,  rinner =    0.800   0.800   0.800


     PseudoPot. # 4 for C  read from file:
     /storage/coda1/p-amedford6/0/shared/rich_project_chbe-medford/medford-share/data/pseudos_module/espresso/nninc/pbe/van/C.UPF
     MD5 check sum: 1a69bf6b8db32088f5b2163dbdb77a27
     Pseudo is Ultrasoft, Zval =  4.0
     Generated by new atomic code, or converted to UPF format
     Using radial grid of  721 points,  4 beta functions with: 
                l(1) =   0
                l(2) =   0
                l(3) =   1
                l(4) =   1
     Q(r) pseudized with  8 coefficients,  rinner =    0.800   0.800   0.800


     PseudoPot. # 5 for H  read from file:
     /storage/coda1/p-amedford6/0/shared/rich_project_chbe-medford/medford-share/data/pseudos_module/espresso/nninc/pbe/van/H.UPF
     MD5 check sum: b5ee9d7bfd3a09ee7748110bda690ff7
     Pseudo is Ultrasoft, Zval =  1.0
     Generated by new atomic code, or converted to UPF format
     Using radial grid of  615 points,  1 beta functions with: 
                l(1) =   0
     Q(r) pseudized with  8 coefficients,  rinner =    0.800

     atomic species   valence    mass     pseudopotential
        Ti1           12.00    47.86700     Ti( 1.00)
        O1             6.00    15.99900     O ( 1.00)
        N1             5.00    14.00700     N ( 1.00)
        C1             4.00    12.01100     C ( 1.00)
        H1             1.00     1.00800     H ( 1.00)

     No symmetry found



   Cartesian axes

     site n.     atom                  positions (alat units)
         1           Ti1 tau(   1) = (   0.0004258   2.9801865   6.0000000  )
         2           Ti1 tau(   2) = (   3.2906075   1.4906267   6.0002472  )
         3           O1  tau(   3) = (   0.0006271   0.0005054   7.9858123  )
         4           O1  tau(   4) = (   3.2906025   0.0005020   7.3038282  )
         5           O1  tau(   5) = (   4.5942328   1.4918067   9.2879030  )
         6           O1  tau(   6) = (   1.9868534   1.4903216   9.2879459  )
         7           Ti1 tau(   7) = (   3.2907910   2.8959150   9.1758416  )
         8           Ti1 tau(   8) = (   0.0015273   1.4827037   9.2680791  )
         9           O1  tau(   9) = (   3.2727297   5.9424138  11.2974721  )
        10           O1  tau(  10) = (   0.0116148   5.9584955  10.6183126  )
        11           O1  tau(  11) = (   1.3027692   1.4721713  12.6242268  )
        12           O1  tau(  12) = (   5.2784376   1.4723552  12.6258992  )
        13           Ti1 tau(  13) = (   6.4570204   2.9507206  12.7630554  )
        14           Ti1 tau(  14) = (   3.1467966   1.4649636  12.4688949  )
        15           O1  tau(  15) = (   6.5600513   5.9133837  14.5918744  )
        16           O1  tau(  16) = (   3.2766225   5.9390981  13.8789110  )
        17           O1  tau(  17) = (   4.4915826   1.4834571  16.0540230  )
        18           O1  tau(  18) = (   2.0416982   1.4849982  16.0411193  )
        19           Ti1 tau(  19) = (   3.2679172   2.9642910  15.6858091  )
        20           Ti1 tau(  20) = (   6.5495220   1.5641796  16.1095294  )
        21           O1  tau(  21) = (   3.2904802   0.0005063   4.7018136  )
        22           O1  tau(  22) = (   6.5606002   0.0080969  17.2010096  )
        23           O1  tau(  23) = (   1.3043587   1.4918075   6.0039043  )
        24           O1  tau(  24) = (   5.2767064   1.4903225   6.0039473  )
        25           Ti1 tau(  25) = (   0.0000382   5.9609847   6.0000000  )
        26           Ti1 tau(  26) = (   3.2902200   4.4714249   6.0002472  )
        27           O1  tau(  27) = (   0.0002396   2.9813036   7.9858123  )
        28           O1  tau(  28) = (   3.2902150   2.9813002   7.3038282  )
        29           O1  tau(  29) = (   4.5938453   4.4726049   9.2879030  )
        30           O1  tau(  30) = (   1.9864658   4.4711199   9.2879459  )
        31           Ti1 tau(  31) = (   3.2891106   5.8743827   9.1763621  )
        32           Ti1 tau(  32) = (   0.0006254   4.4649316   9.2693709  )
        33           O1  tau(  33) = (   3.2718307   2.9587034  11.2961003  )
        34           O1  tau(  34) = (   0.0092240   2.9805883  10.6323155  )
        35           O1  tau(  35) = (   1.3028232   4.4416136  12.6207192  )
        36           O1  tau(  36) = (   5.2777600   4.4366566  12.6238879  )
        37           Ti1 tau(  37) = (   6.4830488   5.9304874  12.7660964  )
        38           Ti1 tau(  38) = (   3.1463657   4.4448748  12.4639736  )
        39           O1  tau(  39) = (   6.5417323   2.9404903  14.6589984  )
        40           O1  tau(  40) = (   3.2789452   2.9619718  13.8791424  )
        41           O1  tau(  41) = (   4.4971312   4.4676043  16.0556370  )
        42           O1  tau(  42) = (   2.0400509   4.4648231  16.0515753  )
        43           Ti1 tau(  43) = (   3.2598176   5.9476019  15.6881950  )
        44           Ti1 tau(  44) = (   6.5485469   4.5424454  16.1156095  )
        45           O1  tau(  45) = (   3.2900926   2.9813045   4.7018136  )
        46           O1  tau(  46) = (   1.3039711   4.4726057   6.0039043  )
        47           O1  tau(  47) = (   5.2763189   4.4711207   6.0039473  )
        48           N1  tau(  48) = (   0.0016189   2.9795595  17.3279962  )
        49           C1  tau(  49) = (   0.1681806   3.0735589  18.7581663  )
        50           H1  tau(  50) = (   6.0068595   3.7517258  19.1994632  )
        51           H1  tau(  51) = (   0.0766375   2.0971904  19.2409400  )
        52           H1  tau(  52) = (   1.1565538   3.4901639  19.0026035  )
        53           N1  tau(  53) = (   4.7601180   1.8141088  21.6614004  )
        54           H1  tau(  54) = (   4.4666586   2.7830198  21.5980365  )
        55           H1  tau(  55) = (   4.1231612   1.2675871  21.0809158  )
        56           H1  tau(  56) = (   4.6015807   1.5257772  22.6208530  )

     number of k points=    10  Fermi-Dirac smearing, width (Ry)=  0.0073
                       cart. coord. in units 2pi/alat
        k(    1) = (   0.0000000   0.0000000   0.0000000), wk =   0.1250000
        k(    2) = (   0.0000000   0.0419351   0.0000000), wk =   0.2500000
        k(    3) = (   0.0000000  -0.0838702   0.0000000), wk =   0.1250000
        k(    4) = (   0.0379955   0.0000049   0.0000000), wk =   0.2500000
        k(    5) = (   0.0379955   0.0419400   0.0000000), wk =   0.2500000
        k(    6) = (   0.0379955  -0.0838652   0.0000000), wk =   0.2500000
        k(    7) = (   0.0379955  -0.0419301   0.0000000), wk =   0.2500000
        k(    8) = (  -0.0759910  -0.0000099   0.0000000), wk =   0.1250000
        k(    9) = (  -0.0759910   0.0419252   0.0000000), wk =   0.2500000
        k(   10) = (  -0.0759910  -0.0838800   0.0000000), wk =   0.1250000

     Dense  grid:   566857 G-vectors     FFT dimensions: (  72,  64, 270)

     Smooth grid:   143421 G-vectors     FFT dimensions: (  45,  40, 180)

     Estimated max dynamical RAM per process >     230.24 MB

     Estimated total dynamical RAM >       3.60 GB
     Cannot read rho : file not found

     Initial potential from superposition of free atoms

     starting charge  381.99914, renormalised to  398.00000

     negative rho (up, down):  9.478E-03 0.000E+00


     %%%%%%%%%%%%%%%%%%%%%%%%%%%%%%%%%%%%%%%%%%%%%%%%%%%%%%%%%%%%%%%%%%%%%%%%
     %                                                                      %
     % You are using vdW-DF, which was implemented by the Thonhauser group. %
     % Please cite the following two papers that made this development      %
     % possible and the two reviews that describe the various versions:     %
     %                                                                      %
     %   T. Thonhauser et al., PRL 115, 136402 (2015).                      %
     %   T. Thonhauser et al., PRB 76, 125112 (2007).                       %
     %   K. Berland et al., Rep. Prog. Phys. 78, 066501 (2015).             %
     %   D.C. Langreth et al., J. Phys.: Condens. Matter 21, 084203 (2009). %
     %                                                                      %
     %                                                                      %
     % If you are calculating the stress with vdW-DF, please also cite:     %
     %                                                                      %
     %   R. Sabatini et al., J. Phys.: Condens. Matter 24, 424209 (2012).   %
     %                                                                      %
     %%%%%%%%%%%%%%%%%%%%%%%%%%%%%%%%%%%%%%%%%%%%%%%%%%%%%%%%%%%%%%%%%%%%%%%%


 
     Adding external electric field

     Computed dipole along edir(3) : 
        Dipole              -11.3717 Ry au,        -28.9040 Debye
        Dipole field         -0.0215 Ry au, 
 
        Potential amp.        1.9893 Ry
        Total length         46.3494 bohr
 
     Starting wfcs are  302 atomic wfcs
  @ DRIVER MODE: Message from server: STATUS
  @ DRIVER MODE: Message from server: POSDATA
  @ DRIVER MODE: Reading and sharing cell 
  @ DRIVER MODE: Reading and sharing positions 
  @ DRIVER MODE: Received positions 

     total cpu time spent up to now is       11.7 secs

     Self-consistent Calculation

     iteration #  1     ecut=    29.40 Ry     beta= 0.05
     Davidson diagonalization with overlap
     c_bands:  1 eigenvalues not converged
     c_bands:  1 eigenvalues not converged
     c_bands:  2 eigenvalues not converged
     c_bands:  1 eigenvalues not converged
     c_bands:  1 eigenvalues not converged
     c_bands:  1 eigenvalues not converged
     c_bands:  1 eigenvalues not converged
     c_bands:  2 eigenvalues not converged
     c_bands:  2 eigenvalues not converged
     ethr =  1.00E-05,  avg # of iterations = 19.6

     negative rho (up, down):  8.257E-03 0.000E+00
 
     Adding external electric field

     Computed dipole along edir(3) : 
        Dipole               44.5735 Ry au,        113.2946 Debye
        Dipole field          0.0841 Ry au, 
 
        Potential amp.       -7.7975 Ry
        Total length         46.3494 bohr
 

     total cpu time spent up to now is       47.6 secs

     total energy              =   -2520.82233975 Ry
     estimated scf accuracy    <    4705.89978198 Ry

     iteration #  2     ecut=    29.40 Ry     beta= 0.05
     Davidson diagonalization with overlap
     ethr =  1.00E-02,  avg # of iterations = 22.0

     negative rho (up, down):  1.383E-03 0.000E+00
 
     Adding external electric field

     Computed dipole along edir(3) : 
        Dipole               -3.6425 Ry au,         -9.2584 Debye
        Dipole field         -0.0069 Ry au, 
 
        Potential amp.        0.6372 Ry
        Total length         46.3494 bohr
 

     total cpu time spent up to now is      107.8 secs

     total energy              =   -2440.86867626 Ry
     estimated scf accuracy    <   72130.77568738 Ry

     iteration #  3     ecut=    29.40 Ry     beta= 0.05
     Davidson diagonalization with overlap
     ethr =  1.00E-02,  avg # of iterations = 16.1

     negative rho (up, down):  1.455E-03 0.000E+00
 
     Adding external electric field

     Computed dipole along edir(3) : 
        Dipole               -5.2947 Ry au,        -13.4578 Debye
        Dipole field         -0.0100 Ry au, 
 
        Potential amp.        0.9262 Ry
        Total length         46.3494 bohr
 

     total cpu time spent up to now is      143.4 secs

     total energy              =   -2929.67384522 Ry
     estimated scf accuracy    <    4555.43499537 Ry

     iteration #  4     ecut=    29.40 Ry     beta= 0.05
     Davidson diagonalization with overlap
     c_bands:  1 eigenvalues not converged
     c_bands:  1 eigenvalues not converged
     ethr =  1.00E-02,  avg # of iterations = 13.8

     negative rho (up, down):  1.476E-03 0.000E+00
 
     Adding external electric field

     Computed dipole along edir(3) : 
        Dipole               -6.0389 Ry au,        -15.3494 Debye
        Dipole field         -0.0114 Ry au, 
 
        Potential amp.        1.0564 Ry
        Total length         46.3494 bohr
 

     total cpu time spent up to now is      158.2 secs

     total energy              =   -2934.17925428 Ry
     estimated scf accuracy    <    1425.50767511 Ry

     iteration #  5     ecut=    29.40 Ry     beta= 0.05
     Davidson diagonalization with overlap
     ethr =  1.00E-02,  avg # of iterations =  3.8

     negative rho (up, down):  1.496E-03 0.000E+00
 
     Adding external electric field

     Computed dipole along edir(3) : 
        Dipole               -6.6957 Ry au,        -17.0187 Debye
        Dipole field         -0.0126 Ry au, 
 
        Potential amp.        1.1713 Ry
        Total length         46.3494 bohr
 

     total cpu time spent up to now is      166.3 secs

     total energy              =   -2924.05517693 Ry
     estimated scf accuracy    <    1130.86975882 Ry

     iteration #  6     ecut=    29.40 Ry     beta= 0.05
     Davidson diagonalization with overlap
     ethr =  1.00E-02,  avg # of iterations = 11.1

     negative rho (up, down):  1.415E-03 0.000E+00
 
     Adding external electric field

     Computed dipole along edir(3) : 
        Dipole               -5.5874 Ry au,        -14.2018 Debye
        Dipole field         -0.0105 Ry au, 
 
        Potential amp.        0.9774 Ry
        Total length         46.3494 bohr
 

     total cpu time spent up to now is      181.7 secs

     total energy              =   -2946.70462830 Ry
     estimated scf accuracy    <      24.76281302 Ry

     iteration #  7     ecut=    29.40 Ry     beta= 0.05
     Davidson diagonalization with overlap
     ethr =  6.22E-03,  avg # of iterations =  1.5

     negative rho (up, down):  1.661E-03 0.000E+00
 
     Adding external electric field

     Computed dipole along edir(3) : 
        Dipole               -1.2176 Ry au,         -3.0948 Debye
        Dipole field         -0.0023 Ry au, 
 
        Potential amp.        0.2130 Ry
        Total length         46.3494 bohr
 

     total cpu time spent up to now is      189.1 secs

     total energy              =   -2944.53966614 Ry
     estimated scf accuracy    <      22.44370496 Ry

     iteration #  8     ecut=    29.40 Ry     beta= 0.05
     Davidson diagonalization with overlap
     c_bands:  1 eigenvalues not converged
     ethr =  5.64E-03,  avg # of iterations = 16.0

     negative rho (up, down):  1.595E-03 0.000E+00
 
     Adding external electric field

     Computed dipole along edir(3) : 
        Dipole               -2.1593 Ry au,         -5.4885 Debye
        Dipole field         -0.0041 Ry au, 
 
        Potential amp.        0.3777 Ry
        Total length         46.3494 bohr
 

     total cpu time spent up to now is      204.4 secs

     total energy              =   -2952.44645290 Ry
     estimated scf accuracy    <    1655.89914226 Ry

     iteration #  9     ecut=    29.40 Ry     beta= 0.05
     Davidson diagonalization with overlap
     ethr =  5.64E-03,  avg # of iterations =  1.1

     negative rho (up, down):  1.587E-03 0.000E+00
 
     Adding external electric field

     Computed dipole along edir(3) : 
        Dipole               -2.3216 Ry au,         -5.9009 Debye
        Dipole field         -0.0044 Ry au, 
 
        Potential amp.        0.4061 Ry
        Total length         46.3494 bohr
 

     total cpu time spent up to now is      211.5 secs

     total energy              =   -2952.51488802 Ry
     estimated scf accuracy    <    1175.23145651 Ry

     iteration # 10     ecut=    29.40 Ry     beta= 0.05
     Davidson diagonalization with overlap
     ethr =  5.64E-03,  avg # of iterations =  1.0

     negative rho (up, down):  1.671E-03 0.000E+00
 
     Adding external electric field

     Computed dipole along edir(3) : 
        Dipole               -1.2598 Ry au,         -3.2020 Debye
        Dipole field         -0.0024 Ry au, 
 
        Potential amp.        0.2204 Ry
        Total length         46.3494 bohr
 

     total cpu time spent up to now is      218.5 secs

     total energy              =   -2955.54842482 Ry
     estimated scf accuracy    <    1183.65643408 Ry

     iteration # 11     ecut=    29.40 Ry     beta= 0.05
     Davidson diagonalization with overlap
     ethr =  5.64E-03,  avg # of iterations =  3.0

     negative rho (up, down):  1.637E-03 0.000E+00
 
     Adding external electric field

     Computed dipole along edir(3) : 
        Dipole               -5.0932 Ry au,        -12.9456 Debye
        Dipole field         -0.0096 Ry au, 
 
        Potential amp.        0.8910 Ry
        Total length         46.3494 bohr
 

     total cpu time spent up to now is      226.3 secs

     total energy              =   -2902.98209764 Ry
     estimated scf accuracy    <    1659.59389853 Ry

     iteration # 12     ecut=    29.40 Ry     beta= 0.05
     Davidson diagonalization with overlap
     ethr =  5.64E-03,  avg # of iterations = 14.9

     negative rho (up, down):  1.275E-03 0.000E+00
 
     Adding external electric field

     Computed dipole along edir(3) : 
        Dipole               -1.7923 Ry au,         -4.5555 Debye
        Dipole field         -0.0034 Ry au, 
 
        Potential amp.        0.3135 Ry
        Total length         46.3494 bohr
 

     total cpu time spent up to now is      250.5 secs

     total energy              =   -2923.26610701 Ry
     estimated scf accuracy    <    1336.85440034 Ry

     iteration # 13     ecut=    29.40 Ry     beta= 0.05
     Davidson diagonalization with overlap
     ethr =  5.64E-03,  avg # of iterations = 14.6

     negative rho (up, down):  1.285E-03 0.000E+00
 
     Adding external electric field

     Computed dipole along edir(3) : 
        Dipole               -1.8423 Ry au,         -4.6827 Debye
        Dipole field         -0.0035 Ry au, 
 
        Potential amp.        0.3223 Ry
        Total length         46.3494 bohr
 

     total cpu time spent up to now is      265.4 secs

     total energy              =   -2942.95608180 Ry
     estimated scf accuracy    <      26.04889649 Ry

     iteration # 14     ecut=    29.40 Ry     beta= 0.05
     Davidson diagonalization with overlap
     ethr =  5.64E-03,  avg # of iterations =  1.5

     negative rho (up, down):  1.308E-03 0.000E+00
 
     Adding external electric field

     Computed dipole along edir(3) : 
        Dipole               -1.9380 Ry au,         -4.9260 Debye
        Dipole field         -0.0037 Ry au, 
 
        Potential amp.        0.3390 Ry
        Total length         46.3494 bohr
 

     total cpu time spent up to now is      283.0 secs

     total energy              =   -2942.81840299 Ry
     estimated scf accuracy    <      43.37303776 Ry

     iteration # 15     ecut=    29.40 Ry     beta= 0.05
     Davidson diagonalization with overlap
     ethr =  5.64E-03,  avg # of iterations =  1.0

     negative rho (up, down):  1.337E-03 0.000E+00
 
     Adding external electric field

     Computed dipole along edir(3) : 
        Dipole               -1.8918 Ry au,         -4.8085 Debye
        Dipole field         -0.0036 Ry au, 
 
        Potential amp.        0.3309 Ry
        Total length         46.3494 bohr
 

     total cpu time spent up to now is      290.0 secs

     total energy              =   -2943.05684298 Ry
     estimated scf accuracy    <       2.51302977 Ry

     iteration # 16     ecut=    29.40 Ry     beta= 0.05
     Davidson diagonalization with overlap
     ethr =  6.31E-04,  avg # of iterations = 14.0

     negative rho (up, down):  1.497E-03 0.000E+00
 
     Adding external electric field

     Computed dipole along edir(3) : 
        Dipole               -1.6365 Ry au,         -4.1595 Debye
        Dipole field         -0.0031 Ry au, 
 
        Potential amp.        0.2863 Ry
        Total length         46.3494 bohr
 

     total cpu time spent up to now is      301.9 secs

     total energy              =   -2942.87621427 Ry
     estimated scf accuracy    <       1.67524745 Ry

     iteration # 17     ecut=    29.40 Ry     beta= 0.05
     Davidson diagonalization with overlap
     ethr =  4.21E-04,  avg # of iterations = 11.5

     negative rho (up, down):  1.616E-03 0.000E+00
 
     Adding external electric field

     Computed dipole along edir(3) : 
        Dipole               -1.5910 Ry au,         -4.0438 Debye
        Dipole field         -0.0030 Ry au, 
 
        Potential amp.        0.2783 Ry
        Total length         46.3494 bohr
 

     total cpu time spent up to now is      316.0 secs

     total energy              =   -2943.22687654 Ry
     estimated scf accuracy    <       5.67738073 Ry

     iteration # 18     ecut=    29.40 Ry     beta= 0.05
     Davidson diagonalization with overlap
     ethr =  4.21E-04,  avg # of iterations =  3.5

     negative rho (up, down):  2.574E-03 0.000E+00
 
     Adding external electric field

     Computed dipole along edir(3) : 
        Dipole               -1.3444 Ry au,         -3.4172 Debye
        Dipole field         -0.0025 Ry au, 
 
        Potential amp.        0.2352 Ry
        Total length         46.3494 bohr
 

     total cpu time spent up to now is      323.9 secs

     total energy              =   -2942.80651266 Ry
     estimated scf accuracy    <       3.97045436 Ry

     iteration # 19     ecut=    29.40 Ry     beta= 0.05
     Davidson diagonalization with overlap
     ethr =  4.21E-04,  avg # of iterations =  3.7

     negative rho (up, down):  4.555E-03 0.000E+00
 
     Adding external electric field

     Computed dipole along edir(3) : 
        Dipole               -1.0119 Ry au,         -2.5720 Debye
        Dipole field         -0.0019 Ry au, 
 
        Potential amp.        0.1770 Ry
        Total length         46.3494 bohr
 

     total cpu time spent up to now is      332.5 secs

     total energy              =   -2942.91495336 Ry
     estimated scf accuracy    <       1.01559996 Ry

     iteration # 20     ecut=    29.40 Ry     beta= 0.05
     Davidson diagonalization with overlap
     c_bands:  1 eigenvalues not converged
     c_bands:  1 eigenvalues not converged
     c_bands:  2 eigenvalues not converged
     ethr =  2.55E-04,  avg # of iterations = 13.9

     negative rho (up, down):  4.303E-03 0.000E+00
 
     Adding external electric field

     Computed dipole along edir(3) : 
        Dipole               -1.0606 Ry au,         -2.6959 Debye
        Dipole field         -0.0020 Ry au, 
 
        Potential amp.        0.1855 Ry
        Total length         46.3494 bohr
 

     total cpu time spent up to now is      347.3 secs

     total energy              =   -2943.19657835 Ry
     estimated scf accuracy    <       1.85400453 Ry

     iteration # 21     ecut=    29.40 Ry     beta= 0.05
     Davidson diagonalization with overlap
     ethr =  2.55E-04,  avg # of iterations =  1.6

     negative rho (up, down):  3.684E-03 0.000E+00
 
     Adding external electric field

     Computed dipole along edir(3) : 
        Dipole               -1.2769 Ry au,         -3.2454 Debye
        Dipole field         -0.0024 Ry au, 
 
        Potential amp.        0.2234 Ry
        Total length         46.3494 bohr
 

     total cpu time spent up to now is      354.6 secs

     total energy              =   -2943.28638361 Ry
     estimated scf accuracy    <       1.71525243 Ry

     iteration # 22     ecut=    29.40 Ry     beta= 0.05
     Davidson diagonalization with overlap
     ethr =  2.55E-04,  avg # of iterations =  2.0

     negative rho (up, down):  3.439E-03 0.000E+00
 
     Adding external electric field

     Computed dipole along edir(3) : 
        Dipole               -1.1501 Ry au,         -2.9232 Debye
        Dipole field         -0.0022 Ry au, 
 
        Potential amp.        0.2012 Ry
        Total length         46.3494 bohr
 

     total cpu time spent up to now is      362.4 secs

     total energy              =   -2942.92389347 Ry
     estimated scf accuracy    <       2.04905478 Ry

     iteration # 23     ecut=    29.40 Ry     beta= 0.05
     Davidson diagonalization with overlap
     ethr =  2.55E-04,  avg # of iterations =  2.8

     negative rho (up, down):  5.789E-03 0.000E+00
 
     Adding external electric field

     Computed dipole along edir(3) : 
        Dipole               -0.2459 Ry au,         -0.6250 Debye
        Dipole field         -0.0005 Ry au, 
 
        Potential amp.        0.0430 Ry
        Total length         46.3494 bohr
 

     total cpu time spent up to now is      374.3 secs

     total energy              =   -2942.75347082 Ry
     estimated scf accuracy    <       1.11636612 Ry

     iteration # 24     ecut=    29.40 Ry     beta= 0.05
     Davidson diagonalization with overlap
     c_bands:  1 eigenvalues not converged
     ethr =  2.55E-04,  avg # of iterations = 16.2

     negative rho (up, down):  5.028E-03 0.000E+00
 
     Adding external electric field

     Computed dipole along edir(3) : 
        Dipole               -0.1853 Ry au,         -0.4709 Debye
        Dipole field         -0.0003 Ry au, 
 
        Potential amp.        0.0324 Ry
        Total length         46.3494 bohr
 

     total cpu time spent up to now is      398.1 secs

     total energy              =   -2944.01156112 Ry
     estimated scf accuracy    <     105.92216034 Ry

     iteration # 25     ecut=    29.40 Ry     beta= 0.05
     Davidson diagonalization with overlap
     ethr =  2.55E-04,  avg # of iterations =  6.4

     negative rho (up, down):  5.282E-03 0.000E+00
 
     Adding external electric field

     Computed dipole along edir(3) : 
        Dipole               -0.1714 Ry au,         -0.4356 Debye
        Dipole field         -0.0003 Ry au, 
 
        Potential amp.        0.0300 Ry
        Total length         46.3494 bohr
 

     total cpu time spent up to now is      407.2 secs

     total energy              =   -2944.29210019 Ry
     estimated scf accuracy    <     179.61487766 Ry

     iteration # 26     ecut=    29.40 Ry     beta= 0.05
     Davidson diagonalization with overlap
     ethr =  2.55E-04,  avg # of iterations =  1.2

     negative rho (up, down):  4.761E-03 0.000E+00
 
     Adding external electric field

     Computed dipole along edir(3) : 
        Dipole               -0.2625 Ry au,         -0.6672 Debye
        Dipole field         -0.0005 Ry au, 
 
        Potential amp.        0.0459 Ry
        Total length         46.3494 bohr
 

     total cpu time spent up to now is      414.4 secs

     total energy              =   -2943.98393184 Ry
     estimated scf accuracy    <     198.41228537 Ry

     iteration # 27     ecut=    29.40 Ry     beta= 0.05
     Davidson diagonalization with overlap
     ethr =  2.55E-04,  avg # of iterations =  1.7

     negative rho (up, down):  3.821E-03 0.000E+00
 
     Adding external electric field

     Computed dipole along edir(3) : 
        Dipole               -0.7443 Ry au,         -1.8918 Debye
        Dipole field         -0.0014 Ry au, 
 
        Potential amp.        0.1302 Ry
        Total length         46.3494 bohr
 

     total cpu time spent up to now is      421.7 secs

     total energy              =   -2942.58331915 Ry
     estimated scf accuracy    <     159.81679302 Ry

     iteration # 28     ecut=    29.40 Ry     beta= 0.05
     Davidson diagonalization with overlap
     ethr =  2.55E-04,  avg # of iterations =  5.8

     negative rho (up, down):  3.495E-03 0.000E+00
 
     Adding external electric field

     Computed dipole along edir(3) : 
        Dipole               -0.8970 Ry au,         -2.2800 Debye
        Dipole field         -0.0017 Ry au, 
 
        Potential amp.        0.1569 Ry
        Total length         46.3494 bohr
 

     total cpu time spent up to now is      430.6 secs

     total energy              =   -2942.76226401 Ry
     estimated scf accuracy    <      13.43623851 Ry

     iteration # 29     ecut=    29.40 Ry     beta= 0.05
     Davidson diagonalization with overlap
     ethr =  2.55E-04,  avg # of iterations =  5.4

     negative rho (up, down):  3.281E-03 0.000E+00
 
     Adding external electric field

     Computed dipole along edir(3) : 
        Dipole               -0.8850 Ry au,         -2.2493 Debye
        Dipole field         -0.0017 Ry au, 
 
        Potential amp.        0.1548 Ry
        Total length         46.3494 bohr
 

     total cpu time spent up to now is      439.7 secs

     total energy              =   -2942.82696547 Ry
     estimated scf accuracy    <       0.83913935 Ry

     iteration # 30     ecut=    29.40 Ry     beta= 0.05
     Davidson diagonalization with overlap
     ethr =  2.11E-04,  avg # of iterations =  6.0

     negative rho (up, down):  3.287E-03 0.000E+00
 
     Adding external electric field

     Computed dipole along edir(3) : 
        Dipole               -0.7071 Ry au,         -1.7973 Debye
        Dipole field         -0.0013 Ry au, 
 
        Potential amp.        0.1237 Ry
        Total length         46.3494 bohr
 

     total cpu time spent up to now is      449.2 secs

     total energy              =   -2942.89975873 Ry
     estimated scf accuracy    <       0.37223359 Ry

     iteration # 31     ecut=    29.40 Ry     beta= 0.05
     Davidson diagonalization with overlap
     c_bands:  1 eigenvalues not converged
     c_bands:  2 eigenvalues not converged
     c_bands:  1 eigenvalues not converged
     c_bands:  2 eigenvalues not converged
     ethr =  9.35E-05,  avg # of iterations = 10.9

     negative rho (up, down):  3.381E-03 0.000E+00
 
     Adding external electric field

     Computed dipole along edir(3) : 
        Dipole               -0.4948 Ry au,         -1.2576 Debye
        Dipole field         -0.0009 Ry au, 
 
        Potential amp.        0.0866 Ry
        Total length         46.3494 bohr
 

     total cpu time spent up to now is      460.4 secs

     total energy              =   -2942.90496895 Ry
     estimated scf accuracy    <       0.26984233 Ry

     iteration # 32     ecut=    29.40 Ry     beta= 0.05
     Davidson diagonalization with overlap
     c_bands:  2 eigenvalues not converged
     c_bands:  1 eigenvalues not converged
     ethr =  6.78E-05,  avg # of iterations = 10.0

     negative rho (up, down):  3.696E-03 0.000E+00
 
     Adding external electric field

     Computed dipole along edir(3) : 
        Dipole               -0.3411 Ry au,         -0.8670 Debye
        Dipole field         -0.0006 Ry au, 
 
        Potential amp.        0.0597 Ry
        Total length         46.3494 bohr
 

     total cpu time spent up to now is      470.2 secs

     total energy              =   -2942.90342835 Ry
     estimated scf accuracy    <       0.25729126 Ry

     iteration # 33     ecut=    29.40 Ry     beta= 0.05
     Davidson diagonalization with overlap
     c_bands:  1 eigenvalues not converged
     c_bands:  1 eigenvalues not converged
     ethr =  6.46E-05,  avg # of iterations = 11.9

     negative rho (up, down):  3.671E-03 0.000E+00
 
     Adding external electric field

     Computed dipole along edir(3) : 
        Dipole               -0.3446 Ry au,         -0.8758 Debye
        Dipole field         -0.0007 Ry au, 
 
        Potential amp.        0.0603 Ry
        Total length         46.3494 bohr
 

     total cpu time spent up to now is      481.1 secs

     total energy              =   -2942.93227191 Ry
     estimated scf accuracy    <       2.52524928 Ry

     iteration # 34     ecut=    29.40 Ry     beta= 0.05
     Davidson diagonalization with overlap
     ethr =  6.46E-05,  avg # of iterations =  1.0

     negative rho (up, down):  3.616E-03 0.000E+00
 
     Adding external electric field

     Computed dipole along edir(3) : 
        Dipole               -0.3237 Ry au,         -0.8228 Debye
        Dipole field         -0.0006 Ry au, 
 
        Potential amp.        0.0566 Ry
        Total length         46.3494 bohr
 

     total cpu time spent up to now is      489.2 secs

     total energy              =   -2942.91824373 Ry
     estimated scf accuracy    <       1.85105352 Ry

     iteration # 35     ecut=    29.40 Ry     beta= 0.05
     Davidson diagonalization with overlap
     ethr =  6.46E-05,  avg # of iterations =  1.0

     negative rho (up, down):  3.737E-03 0.000E+00
 
     Adding external electric field

     Computed dipole along edir(3) : 
        Dipole               -0.1388 Ry au,         -0.3528 Debye
        Dipole field         -0.0003 Ry au, 
 
        Potential amp.        0.0243 Ry
        Total length         46.3494 bohr
 

     total cpu time spent up to now is      496.3 secs

     total energy              =   -2942.90356462 Ry
     estimated scf accuracy    <       0.62214987 Ry

     iteration # 36     ecut=    29.40 Ry     beta= 0.05
     Davidson diagonalization with overlap
     ethr =  6.46E-05,  avg # of iterations =  2.5

     negative rho (up, down):  4.077E-03 0.000E+00
 
     Adding external electric field

     Computed dipole along edir(3) : 
        Dipole               -0.0415 Ry au,         -0.1056 Debye
        Dipole field         -0.0001 Ry au, 
 
        Potential amp.        0.0073 Ry
        Total length         46.3494 bohr
 

     total cpu time spent up to now is      504.2 secs

     total energy              =   -2942.91063840 Ry
     estimated scf accuracy    <       0.12779975 Ry

     iteration # 37     ecut=    29.40 Ry     beta= 0.05
     Davidson diagonalization with overlap
     ethr =  3.21E-05,  avg # of iterations =  3.7

     negative rho (up, down):  4.571E-03 0.000E+00
 
     Adding external electric field

     Computed dipole along edir(3) : 
        Dipole                0.0494 Ry au,          0.1256 Debye
        Dipole field          0.0001 Ry au, 
 
        Potential amp.       -0.0086 Ry
        Total length         46.3494 bohr
 

     total cpu time spent up to now is      512.5 secs

     total energy              =   -2942.91130749 Ry
     estimated scf accuracy    <       0.07044791 Ry

     iteration # 38     ecut=    29.40 Ry     beta= 0.05
     Davidson diagonalization with overlap
     c_bands:  1 eigenvalues not converged
     c_bands:  1 eigenvalues not converged
     c_bands:  1 eigenvalues not converged
     c_bands:  1 eigenvalues not converged
     c_bands:  1 eigenvalues not converged
     ethr =  1.77E-05,  avg # of iterations = 12.8

     negative rho (up, down):  4.441E-03 0.000E+00
 
     Adding external electric field

     Computed dipole along edir(3) : 
        Dipole                0.0485 Ry au,          0.1234 Debye
        Dipole field          0.0001 Ry au, 
 
        Potential amp.       -0.0085 Ry
        Total length         46.3494 bohr
 

     total cpu time spent up to now is      526.1 secs

     total energy              =   -2942.90803461 Ry
     estimated scf accuracy    <       0.05776722 Ry

     iteration # 39     ecut=    29.40 Ry     beta= 0.05
     Davidson diagonalization with overlap
     ethr =  1.45E-05,  avg # of iterations =  6.7

     negative rho (up, down):  6.274E-03 0.000E+00
 
     Adding external electric field

     Computed dipole along edir(3) : 
        Dipole                0.2167 Ry au,          0.5509 Debye
        Dipole field          0.0004 Ry au, 
 
        Potential amp.       -0.0379 Ry
        Total length         46.3494 bohr
 

     total cpu time spent up to now is      535.0 secs

     total energy              =   -2942.90265848 Ry
     estimated scf accuracy    <       0.03767053 Ry

     iteration # 40     ecut=    29.40 Ry     beta= 0.05
     Davidson diagonalization with overlap
     c_bands:  1 eigenvalues not converged
     c_bands:  2 eigenvalues not converged
     ethr =  9.46E-06,  avg # of iterations = 14.2

     negative rho (up, down):  6.891E-03 0.000E+00
 
     Adding external electric field

     Computed dipole along edir(3) : 
        Dipole                0.2769 Ry au,          0.7037 Debye
        Dipole field          0.0005 Ry au, 
 
        Potential amp.       -0.0484 Ry
        Total length         46.3494 bohr
 

     total cpu time spent up to now is      556.0 secs

     total energy              =   -2942.90606101 Ry
     estimated scf accuracy    <       0.01296912 Ry

     iteration # 41     ecut=    29.40 Ry     beta= 0.05
     Davidson diagonalization with overlap
     c_bands:  1 eigenvalues not converged
     ethr =  3.26E-06,  avg # of iterations = 14.4

     negative rho (up, down):  7.679E-03 0.000E+00
 
     Adding external electric field

     Computed dipole along edir(3) : 
        Dipole                0.3308 Ry au,          0.8408 Debye
        Dipole field          0.0006 Ry au, 
 
        Potential amp.       -0.0579 Ry
        Total length         46.3494 bohr
 

     total cpu time spent up to now is      567.7 secs

     total energy              =   -2942.90630516 Ry
     estimated scf accuracy    <       0.00665445 Ry

     iteration # 42     ecut=    29.40 Ry     beta= 0.05
     Davidson diagonalization with overlap
     c_bands:  1 eigenvalues not converged
     ethr =  1.67E-06,  avg # of iterations = 11.0

     negative rho (up, down):  8.504E-03 0.000E+00
 
     Adding external electric field

     Computed dipole along edir(3) : 
        Dipole                0.3678 Ry au,          0.9348 Debye
        Dipole field          0.0007 Ry au, 
 
        Potential amp.       -0.0643 Ry
        Total length         46.3494 bohr
 

     total cpu time spent up to now is      579.3 secs

     total energy              =   -2942.90607740 Ry
     estimated scf accuracy    <       0.00473000 Ry

     iteration # 43     ecut=    29.40 Ry     beta= 0.05
     Davidson diagonalization with overlap
     c_bands:  1 eigenvalues not converged
     c_bands:  1 eigenvalues not converged
     c_bands:  2 eigenvalues not converged
     c_bands:  1 eigenvalues not converged
     c_bands:  1 eigenvalues not converged
     ethr =  1.19E-06,  avg # of iterations = 16.3

     negative rho (up, down):  8.340E-03 0.000E+00
 
     Adding external electric field

     Computed dipole along edir(3) : 
        Dipole                0.3594 Ry au,          0.9135 Debye
        Dipole field          0.0007 Ry au, 
 
        Potential amp.       -0.0629 Ry
        Total length         46.3494 bohr
 

     total cpu time spent up to now is      595.6 secs

     total energy              =   -2942.90661217 Ry
     estimated scf accuracy    <       0.00813032 Ry

     iteration # 44     ecut=    29.40 Ry     beta= 0.05
     Davidson diagonalization with overlap
     c_bands:  1 eigenvalues not converged
     ethr =  1.19E-06,  avg # of iterations =  4.7

     negative rho (up, down):  8.333E-03 0.000E+00
 
     Adding external electric field

     Computed dipole along edir(3) : 
        Dipole                0.3539 Ry au,          0.8996 Debye
        Dipole field          0.0007 Ry au, 
 
        Potential amp.       -0.0619 Ry
        Total length         46.3494 bohr
 

     total cpu time spent up to now is      604.0 secs

     total energy              =   -2942.90532302 Ry
     estimated scf accuracy    <       0.00464313 Ry

     iteration # 45     ecut=    29.40 Ry     beta= 0.05
     Davidson diagonalization with overlap
     c_bands:  1 eigenvalues not converged
     c_bands:  1 eigenvalues not converged
     c_bands:  2 eigenvalues not converged
     ethr =  1.17E-06,  avg # of iterations = 15.6

     negative rho (up, down):  8.394E-03 0.000E+00
 
     Adding external electric field

     Computed dipole along edir(3) : 
        Dipole                0.3637 Ry au,          0.9243 Debye
        Dipole field          0.0007 Ry au, 
 
        Potential amp.       -0.0636 Ry
        Total length         46.3494 bohr
 

     total cpu time spent up to now is      619.3 secs

     total energy              =   -2942.90677285 Ry
     estimated scf accuracy    <       0.00707355 Ry

     iteration # 46     ecut=    29.40 Ry     beta= 0.05
     Davidson diagonalization with overlap
     ethr =  1.17E-06,  avg # of iterations =  1.9

     negative rho (up, down):  9.286E-03 0.000E+00
 
     Adding external electric field

     Computed dipole along edir(3) : 
        Dipole                0.4060 Ry au,          1.0319 Debye
        Dipole field          0.0008 Ry au, 
 
        Potential amp.       -0.0710 Ry
        Total length         46.3494 bohr
 

     total cpu time spent up to now is      629.8 secs

     total energy              =   -2942.90559847 Ry
     estimated scf accuracy    <       0.00533439 Ry

     iteration # 47     ecut=    29.40 Ry     beta= 0.05
     Davidson diagonalization with overlap
     ethr =  1.17E-06,  avg # of iterations = 11.5

     negative rho (up, down):  9.926E-03 0.000E+00
 
     Adding external electric field

     Computed dipole along edir(3) : 
        Dipole                0.4180 Ry au,          1.0625 Debye
        Dipole field          0.0008 Ry au, 
 
        Potential amp.       -0.0731 Ry
        Total length         46.3494 bohr
 

     total cpu time spent up to now is      642.8 secs

     total energy              =   -2942.90626934 Ry
     estimated scf accuracy    <       0.00144232 Ry

     iteration # 48     ecut=    29.40 Ry     beta= 0.05
     Davidson diagonalization with overlap
     ethr =  3.62E-07,  avg # of iterations =  5.8

     negative rho (up, down):  1.066E-02 0.000E+00
 
     Adding external electric field

     Computed dipole along edir(3) : 
        Dipole                0.4385 Ry au,          1.1146 Debye
        Dipole field          0.0008 Ry au, 
 
        Potential amp.       -0.0767 Ry
        Total length         46.3494 bohr
 

     total cpu time spent up to now is      652.5 secs

     total energy              =   -2942.90658082 Ry
     estimated scf accuracy    <       0.00094196 Ry

     iteration # 49     ecut=    29.40 Ry     beta= 0.05
     Davidson diagonalization with overlap
     ethr =  2.37E-07,  avg # of iterations =  2.4

     negative rho (up, down):  1.115E-02 0.000E+00
 
     Adding external electric field

     Computed dipole along edir(3) : 
        Dipole                0.4618 Ry au,          1.1737 Debye
        Dipole field          0.0009 Ry au, 
 
        Potential amp.       -0.0808 Ry
        Total length         46.3494 bohr
 

     total cpu time spent up to now is      660.4 secs

     total energy              =   -2942.90638964 Ry
     estimated scf accuracy    <       0.00081287 Ry

     iteration # 50     ecut=    29.40 Ry     beta= 0.05
     Davidson diagonalization with overlap
     ethr =  2.04E-07,  avg # of iterations =  6.0

     negative rho (up, down):  1.103E-02 0.000E+00
 
     Adding external electric field

     Computed dipole along edir(3) : 
        Dipole                0.4586 Ry au,          1.1656 Debye
        Dipole field          0.0009 Ry au, 
 
        Potential amp.       -0.0802 Ry
        Total length         46.3494 bohr
 

     total cpu time spent up to now is      670.2 secs

     total energy              =   -2942.90653633 Ry
     estimated scf accuracy    <       0.00022145 Ry

     iteration # 51     ecut=    29.40 Ry     beta= 0.05
     Davidson diagonalization with overlap
     ethr =  5.56E-08,  avg # of iterations =  5.6

     negative rho (up, down):  1.090E-02 0.000E+00
 
     Adding external electric field

     Computed dipole along edir(3) : 
        Dipole                0.4551 Ry au,          1.1569 Debye
        Dipole field          0.0009 Ry au, 
 
        Potential amp.       -0.0796 Ry
        Total length         46.3494 bohr
 

     total cpu time spent up to now is      681.0 secs

     total energy              =   -2942.90657409 Ry
     estimated scf accuracy    <       0.00005670 Ry

     iteration # 52     ecut=    29.40 Ry     beta= 0.05
     Davidson diagonalization with overlap
     ethr =  1.42E-08,  avg # of iterations =  5.8

     negative rho (up, down):  1.102E-02 0.000E+00
 
     Adding external electric field

     Computed dipole along edir(3) : 
        Dipole                0.4575 Ry au,          1.1628 Debye
        Dipole field          0.0009 Ry au, 
 
        Potential amp.       -0.0800 Ry
        Total length         46.3494 bohr
 

     total cpu time spent up to now is      691.9 secs

     total energy              =   -2942.90658410 Ry
     estimated scf accuracy    <       0.00010753 Ry

     iteration # 53     ecut=    29.40 Ry     beta= 0.05
     Davidson diagonalization with overlap
     ethr =  1.42E-08,  avg # of iterations =  5.7

     negative rho (up, down):  1.106E-02 0.000E+00
 
     Adding external electric field

     Computed dipole along edir(3) : 
        Dipole                0.4581 Ry au,          1.1644 Debye
        Dipole field          0.0009 Ry au, 
 
        Potential amp.       -0.0801 Ry
        Total length         46.3494 bohr
 

     total cpu time spent up to now is      701.3 secs

     total energy              =   -2942.90660121 Ry
     estimated scf accuracy    <       0.00003137 Ry

     iteration # 54     ecut=    29.40 Ry     beta= 0.05
     Davidson diagonalization with overlap
     ethr =  7.88E-09,  avg # of iterations =  6.0

     negative rho (up, down):  1.097E-02 0.000E+00
 
     Adding external electric field

     Computed dipole along edir(3) : 
        Dipole                0.4570 Ry au,          1.1615 Debye
        Dipole field          0.0009 Ry au, 
 
        Potential amp.       -0.0799 Ry
        Total length         46.3494 bohr
 

     total cpu time spent up to now is      717.2 secs

     total energy              =   -2942.90661571 Ry
     estimated scf accuracy    <       0.00003943 Ry

     iteration # 55     ecut=    29.40 Ry     beta= 0.05
     Davidson diagonalization with overlap
     ethr =  7.88E-09,  avg # of iterations =  5.0

     negative rho (up, down):  1.091E-02 0.000E+00
 
     Adding external electric field

     Computed dipole along edir(3) : 
        Dipole                0.4549 Ry au,          1.1562 Debye
        Dipole field          0.0009 Ry au, 
 
        Potential amp.       -0.0796 Ry
        Total length         46.3494 bohr
 

     total cpu time spent up to now is      725.8 secs

     total energy              =   -2942.90662348 Ry
     estimated scf accuracy    <       0.00001915 Ry

     iteration # 56     ecut=    29.40 Ry     beta= 0.05
     Davidson diagonalization with overlap
     ethr =  4.81E-09,  avg # of iterations =  6.0

     negative rho (up, down):  1.091E-02 0.000E+00
 
     Adding external electric field

     Computed dipole along edir(3) : 
        Dipole                0.4543 Ry au,          1.1547 Debye
        Dipole field          0.0009 Ry au, 
 
        Potential amp.       -0.0795 Ry
        Total length         46.3494 bohr
 

     total cpu time spent up to now is      737.7 secs

     total energy              =   -2942.90663449 Ry
     estimated scf accuracy    <       0.00002665 Ry

     iteration # 57     ecut=    29.40 Ry     beta= 0.05
     Davidson diagonalization with overlap
     ethr =  4.81E-09,  avg # of iterations =  5.6

     negative rho (up, down):  1.089E-02 0.000E+00
 
     Adding external electric field

     Computed dipole along edir(3) : 
        Dipole                0.4538 Ry au,          1.1534 Debye
        Dipole field          0.0009 Ry au, 
 
        Potential amp.       -0.0794 Ry
        Total length         46.3494 bohr
 

     total cpu time spent up to now is      747.1 secs

     total energy              =   -2942.90664619 Ry
     estimated scf accuracy    <       0.00000462 Ry

     iteration # 58     ecut=    29.40 Ry     beta= 0.05
     Davidson diagonalization with overlap
     ethr =  1.16E-09,  avg # of iterations =  7.3

     negative rho (up, down):  1.091E-02 0.000E+00
 
     Adding external electric field

     Computed dipole along edir(3) : 
        Dipole                0.4540 Ry au,          1.1538 Debye
        Dipole field          0.0009 Ry au, 
 
        Potential amp.       -0.0794 Ry
        Total length         46.3494 bohr
 

     total cpu time spent up to now is      767.1 secs

     total energy              =   -2942.90665469 Ry
     estimated scf accuracy    <       0.00000783 Ry

     iteration # 59     ecut=    29.40 Ry     beta= 0.05
     Davidson diagonalization with overlap
     ethr =  1.16E-09,  avg # of iterations =  5.0

     negative rho (up, down):  1.086E-02 0.000E+00
 
     Adding external electric field

     Computed dipole along edir(3) : 
        Dipole                0.4528 Ry au,          1.1510 Debye
        Dipole field          0.0009 Ry au, 
 
        Potential amp.       -0.0792 Ry
        Total length         46.3494 bohr
 

     total cpu time spent up to now is      781.1 secs

     total energy              =   -2942.90666155 Ry
     estimated scf accuracy    <       0.00000310 Ry

     iteration # 60     ecut=    29.40 Ry     beta= 0.05
     Davidson diagonalization with overlap
     ethr =  7.80E-10,  avg # of iterations =  7.3

     negative rho (up, down):  1.084E-02 0.000E+00
 
     Adding external electric field

     Computed dipole along edir(3) : 
        Dipole                0.4524 Ry au,          1.1499 Debye
        Dipole field          0.0009 Ry au, 
 
        Potential amp.       -0.0791 Ry
        Total length         46.3494 bohr
 

     total cpu time spent up to now is      793.6 secs

     total energy              =   -2942.90666880 Ry
     estimated scf accuracy    <       0.00000216 Ry

     iteration # 61     ecut=    29.40 Ry     beta= 0.05
     Davidson diagonalization with overlap
     ethr =  5.43E-10,  avg # of iterations =  5.5

     negative rho (up, down):  1.084E-02 0.000E+00
 
     Adding external electric field

     Computed dipole along edir(3) : 
        Dipole                0.4523 Ry au,          1.1497 Debye
        Dipole field          0.0009 Ry au, 
 
        Potential amp.       -0.0791 Ry
        Total length         46.3494 bohr
 

     total cpu time spent up to now is      803.3 secs

     total energy              =   -2942.90667500 Ry
     estimated scf accuracy    <       0.00000065 Ry

     iteration # 62     ecut=    29.40 Ry     beta= 0.05
     Davidson diagonalization with overlap
     ethr =  1.64E-10,  avg # of iterations =  5.4

     negative rho (up, down):  1.085E-02 0.000E+00
 
     Adding external electric field

     Computed dipole along edir(3) : 
        Dipole                0.4524 Ry au,          1.1500 Debye
        Dipole field          0.0009 Ry au, 
 
        Potential amp.       -0.0791 Ry
        Total length         46.3494 bohr
 

     total cpu time spent up to now is      813.5 secs

     total energy              =   -2942.90668045 Ry
     estimated scf accuracy    <       0.00000074 Ry

     iteration # 63     ecut=    29.40 Ry     beta= 0.05
     Davidson diagonalization with overlap
     ethr =  1.64E-10,  avg # of iterations =  2.6

     negative rho (up, down):  1.086E-02 0.000E+00
 
     Adding external electric field

     Computed dipole along edir(3) : 
        Dipole                0.4525 Ry au,          1.1502 Debye
        Dipole field          0.0009 Ry au, 
 
        Potential amp.       -0.0792 Ry
        Total length         46.3494 bohr
 

     total cpu time spent up to now is      821.4 secs

     total energy              =   -2942.90668536 Ry
     estimated scf accuracy    <       0.00000065 Ry

     iteration # 64     ecut=    29.40 Ry     beta= 0.05
     Davidson diagonalization with overlap
     ethr =  1.63E-10,  avg # of iterations =  3.4

     negative rho (up, down):  1.085E-02 0.000E+00
 
     Adding external electric field

     Computed dipole along edir(3) : 
        Dipole                0.4525 Ry au,          1.1502 Debye
        Dipole field          0.0009 Ry au, 
 
        Potential amp.       -0.0792 Ry
        Total length         46.3494 bohr
 

     total cpu time spent up to now is      830.2 secs

     total energy              =   -2942.90668980 Ry
     estimated scf accuracy    <       0.00000038 Ry

     iteration # 65     ecut=    29.40 Ry     beta= 0.05
     Davidson diagonalization with overlap
     ethr =  9.67E-11,  avg # of iterations =  6.2

     negative rho (up, down):  1.086E-02 0.000E+00
 
     Adding external electric field

     Computed dipole along edir(3) : 
        Dipole                0.4526 Ry au,          1.1504 Debye
        Dipole field          0.0009 Ry au, 
 
        Potential amp.       -0.0792 Ry
        Total length         46.3494 bohr
 

     total cpu time spent up to now is      842.3 secs

     total energy              =   -2942.90669382 Ry
     estimated scf accuracy    <       0.00000063 Ry

     iteration # 66     ecut=    29.40 Ry     beta= 0.05
     Davidson diagonalization with overlap
     ethr =  9.67E-11,  avg # of iterations =  1.2

     negative rho (up, down):  1.087E-02 0.000E+00
 
     Adding external electric field

     Computed dipole along edir(3) : 
        Dipole                0.4530 Ry au,          1.1513 Debye
        Dipole field          0.0009 Ry au, 
 
        Potential amp.       -0.0792 Ry
        Total length         46.3494 bohr
 

     total cpu time spent up to now is      850.1 secs

     total energy              =   -2942.90669728 Ry
     estimated scf accuracy    <       0.00000053 Ry

     iteration # 67     ecut=    29.40 Ry     beta= 0.05
     Davidson diagonalization with overlap
     ethr =  9.67E-11,  avg # of iterations =  8.0

     negative rho (up, down):  1.087E-02 0.000E+00
 
     Adding external electric field

     Computed dipole along edir(3) : 
        Dipole                0.4529 Ry au,          1.1513 Debye
        Dipole field          0.0009 Ry au, 
 
        Potential amp.       -0.0792 Ry
        Total length         46.3494 bohr
 

     total cpu time spent up to now is      871.4 secs

     total energy              =   -2942.90670061 Ry
     estimated scf accuracy    <       0.00000046 Ry

     iteration # 68     ecut=    29.40 Ry     beta= 0.05
     Davidson diagonalization with overlap
     ethr =  9.67E-11,  avg # of iterations =  5.0

     negative rho (up, down):  1.087E-02 0.000E+00
 
     Adding external electric field

     Computed dipole along edir(3) : 
        Dipole                0.4529 Ry au,          1.1512 Debye
        Dipole field          0.0009 Ry au, 
 
        Potential amp.       -0.0792 Ry
        Total length         46.3494 bohr
 

     total cpu time spent up to now is      880.2 secs

     total energy              =   -2942.90670351 Ry
     estimated scf accuracy    <       0.00000011 Ry

     iteration # 69     ecut=    29.40 Ry     beta= 0.05
     Davidson diagonalization with overlap
     ethr =  2.69E-11,  avg # of iterations =  5.8

     negative rho (up, down):  1.088E-02 0.000E+00
 
     Adding external electric field

     Computed dipole along edir(3) : 
        Dipole                0.4530 Ry au,          1.1515 Debye
        Dipole field          0.0009 Ry au, 
 
        Potential amp.       -0.0793 Ry
        Total length         46.3494 bohr
 

     total cpu time spent up to now is      892.5 secs

     total energy              =   -2942.90670616 Ry
     estimated scf accuracy    <       0.00000010 Ry

     iteration # 70     ecut=    29.40 Ry     beta= 0.05
     Davidson diagonalization with overlap
     ethr =  2.40E-11,  avg # of iterations =  5.0

     negative rho (up, down):  1.095E-02 0.000E+00
 
     Adding external electric field

     Computed dipole along edir(3) : 
        Dipole                0.4532 Ry au,          1.1519 Debye
        Dipole field          0.0009 Ry au, 
 
        Potential amp.       -0.0793 Ry
        Total length         46.3494 bohr
 

     total cpu time spent up to now is      901.5 secs

     End of self-consistent calculation

          k = 0.0000 0.0000 0.0000 ( 18029 PWs)   bands (ev):

   -56.6136 -56.5800 -55.7328 -55.7244 -55.6974 -55.6920 -55.5875 -55.5518
   -55.3705 -55.3352 -55.2784 -55.2721 -55.2445 -55.1701 -54.7332 -54.6200
   -33.0414 -32.8881 -32.8600 -32.7898 -32.6987 -32.6674 -32.2076 -32.1967
   -32.1305 -32.0193 -31.9743 -31.9461 -31.9322 -31.9073 -31.8747 -31.8722
   -31.8683 -31.8614 -31.8383 -31.8352 -31.8235 -31.7958 -31.7705 -31.7568
   -31.7437 -31.7237 -31.7155 -31.6922 -31.6707 -31.6169 -31.6020 -31.5927
   -31.5143 -31.5093 -31.4894 -31.4476 -31.4372 -31.4059 -31.3989 -31.3746
   -31.3533 -31.2950 -31.2347 -30.9742 -30.9616 -30.8795 -30.8399 -30.7489
   -16.7777 -16.3434 -16.1137 -15.9761 -15.9087 -15.8543 -15.8090 -15.6880
   -15.6151 -15.6086 -15.5681 -15.5378 -15.4673 -15.3264 -15.2282 -15.1749
   -15.1305 -15.0095 -14.9493 -14.9167 -14.9120 -14.8777 -14.8580 -14.6620
   -14.6376 -14.5350 -14.5252 -14.3995 -14.1771 -13.7768 -13.7008 -13.6668
   -12.7972  -7.4934  -4.3434  -3.8386  -3.7868  -3.7646  -3.6012  -3.5141
    -3.4067  -3.3937  -3.3128  -3.1944  -3.1485  -3.1007  -2.9849  -2.9848
    -2.8354  -2.7953  -2.7893  -2.7855  -2.7404  -2.6771  -2.6614  -2.6225
    -2.6170  -2.6076  -2.4570  -2.3569  -2.2896  -2.2681  -2.2578  -2.2219
    -2.1438  -2.1237  -2.1089  -2.1053  -2.0049  -1.8560  -1.8545  -1.8235
    -1.7800  -1.7783  -1.7404  -1.7257  -1.5903  -1.5165  -1.4137  -1.3963
    -1.3579  -1.2936  -1.2873  -1.1893  -1.1150  -1.0524  -1.0268  -0.9177
    -0.8753  -0.8528  -0.7631  -0.7011  -0.6614  -0.6439  -0.6270  -0.5233
    -0.5031  -0.4923  -0.4074  -0.3957  -0.3384  -0.2569  -0.2374  -0.2312
    -0.1430  -0.1378  -0.0457  -0.0038   0.0379   0.0830   0.1788   0.1971
     0.3000   0.3354   0.3569   0.4766   0.4896   0.5525   0.6198   0.6873
     0.7186   0.7432   0.7724   0.7942   0.8673   0.9823   0.9872   1.0889
     1.1283   1.2962   1.3351   1.3848   1.6229   1.6493   2.3198   2.6609
     2.8209   3.1194   3.3104   3.4214   3.6363   3.6515   3.6567   3.8342
     3.8802

          k = 0.0000 0.0419 0.0000 ( 17933 PWs)   bands (ev):

   -56.6086 -56.5848 -55.7277 -55.7195 -55.7025 -55.6966 -55.5824 -55.5568
   -55.3654 -55.3401 -55.2733 -55.2706 -55.2494 -55.1715 -54.7317 -54.6213
   -32.9880 -32.8838 -32.8638 -32.7765 -32.7233 -32.7120 -32.1546 -32.1439
   -32.0749 -32.0049 -31.9683 -31.9351 -31.9345 -31.9283 -31.8933 -31.8791
   -31.8736 -31.8723 -31.8675 -31.8559 -31.7926 -31.7912 -31.7833 -31.7732
   -31.7556 -31.7084 -31.7005 -31.6909 -31.6180 -31.6131 -31.5960 -31.5885
   -31.5229 -31.5098 -31.4959 -31.4772 -31.4454 -31.4180 -31.4120 -31.4004
   -31.3752 -31.3517 -31.1874 -30.9734 -30.9606 -30.9005 -30.8405 -30.7796
   -16.6564 -16.2211 -16.0297 -16.0102 -15.9164 -15.8331 -15.7921 -15.6279
   -15.6279 -15.5795 -15.5533 -15.4712 -15.4478 -15.3575 -15.2709 -15.2628
   -15.1748 -15.0114 -15.0041 -14.9813 -14.9512 -14.8551 -14.7975 -14.7114
   -14.6340 -14.5821 -14.5397 -14.4217 -14.2456 -13.7840 -13.7078 -13.7004
   -12.8062  -7.4889  -4.1616  -3.7936  -3.7648  -3.6604  -3.4390  -3.3619
    -3.3193  -3.2587  -3.1892  -3.1389  -3.1265  -3.1140  -2.9527  -2.8920
    -2.7964  -2.7905  -2.7767  -2.7598  -2.7540  -2.7177  -2.6517  -2.6231
    -2.6090  -2.5626  -2.5185  -2.4922  -2.4634  -2.4242  -2.3593  -2.3311
    -2.2671  -2.2428  -2.1762  -2.0505  -2.0415  -2.0291  -1.8460  -1.8204
    -1.8133  -1.7683  -1.7005  -1.6144  -1.4666  -1.4227  -1.4115  -1.3669
    -1.3636  -1.1917  -1.1754  -1.1463  -1.0693  -1.0424  -1.0314  -0.9606
    -0.8944  -0.8826  -0.8434  -0.7319  -0.6571  -0.5956  -0.5295  -0.4497
    -0.4430  -0.4010  -0.3847  -0.3213  -0.3099  -0.2695  -0.2567  -0.2464
    -0.1693  -0.1261  -0.0838  -0.0533  -0.0375   0.0867   0.1124   0.2093
     0.2341   0.2436   0.2942   0.3540   0.3734   0.3936   0.4141   0.4207
     0.5981   0.6256   0.7076   0.7981   0.9220   0.9751   1.0363   1.0592
     1.0830   1.2418   1.2472   1.3821   1.5034   1.6212   2.1926   2.9278
     2.9333   3.1279   3.4701   3.4982   3.5288   3.6103   3.6284   3.7781
     3.8219

          k = 0.0000-0.0839 0.0000 ( 17884 PWs)   bands (ev):

   -56.5968 -56.5965 -55.7174 -55.7131 -55.7081 -55.7076 -55.5723 -55.5668
   -55.3556 -55.3499 -55.2690 -55.2614 -55.2613 -55.1730 -54.7303 -54.6227
   -32.8739 -32.8736 -32.8571 -32.8569 -32.7443 -32.7441 -32.0271 -32.0240
   -32.0165 -32.0112 -31.9691 -31.9684 -31.9649 -31.9638 -31.9215 -31.9178
   -31.9059 -31.9007 -31.8683 -31.8669 -31.8242 -31.8197 -31.7740 -31.7687
   -31.7067 -31.6993 -31.6374 -31.6305 -31.6063 -31.6045 -31.6043 -31.5566
   -31.5548 -31.5233 -31.4878 -31.4870 -31.4869 -31.4478 -31.4478 -31.4427
   -31.4098 -31.3766 -31.1135 -30.9943 -30.9598 -30.9295 -30.8411 -30.8076
   -16.3553 -16.3545 -15.9439 -15.9397 -15.7894 -15.7888 -15.7722 -15.7722
   -15.6514 -15.6448 -15.4574 -15.4523 -15.3459 -15.3401 -15.2313 -15.2297
   -15.2229 -15.2197 -15.1443 -15.1301 -14.8348 -14.8301 -14.7196 -14.7173
   -14.6691 -14.6635 -14.4994 -14.4949 -14.3315 -13.7706 -13.7705 -13.7000
   -12.8150  -7.4843  -3.8008  -3.7646  -3.7074  -3.7073  -3.2451  -3.2359
    -3.2179  -3.2174  -3.1181  -3.1163  -3.0698  -3.0638  -2.8990  -2.8766
    -2.8050  -2.7773  -2.7674  -2.7521  -2.7476  -2.7236  -2.7194  -2.7061
    -2.6648  -2.6384  -2.5401  -2.5354  -2.4662  -2.4305  -2.3110  -2.2440
    -2.2311  -2.1779  -2.1409  -2.1308  -1.9398  -1.9211  -1.9127  -1.9065
    -1.8391  -1.8320  -1.8196  -1.7267  -1.7076  -1.5784  -1.5696  -1.3097
    -1.3028  -1.1270  -1.1122  -1.0944  -1.0540  -1.0204  -0.9796  -0.9075
    -0.8822  -0.7575  -0.7517  -0.7484  -0.7083  -0.6076  -0.5675  -0.5123
    -0.5085  -0.4284  -0.4172  -0.4032  -0.3771  -0.3072  -0.1894  -0.1784
    -0.1561  -0.1092  -0.0926   0.0108   0.0407   0.0554   0.0909   0.1260
     0.1527   0.1623   0.2204   0.2965   0.2984   0.3213   0.3683   0.3730
     0.3910   0.4835   0.5985   0.6867   0.9664   0.9946   1.1080   1.1084
     1.1292   1.2107   1.2205   1.2471   1.3796   1.6013   2.0614   3.1704
     3.1708   3.3062   3.3064   3.3672   3.3674   3.7344   3.7521   3.8600
     3.8727

          k = 0.0380 0.0000 0.0000 ( 17913 PWs)   bands (ev):

   -56.6135 -56.5799 -55.7320 -55.7250 -55.6973 -55.6920 -55.5874 -55.5517
   -55.3704 -55.3351 -55.2783 -55.2721 -55.2444 -55.1700 -54.7331 -54.6199
   -33.0420 -32.8879 -32.8598 -32.7877 -32.6984 -32.6671 -32.2116 -32.1971
   -32.1305 -31.9998 -31.9738 -31.9462 -31.9320 -31.9003 -31.8947 -31.8733
   -31.8681 -31.8613 -31.8360 -31.8359 -31.8250 -31.7895 -31.7863 -31.7675
   -31.7234 -31.7154 -31.7147 -31.6921 -31.6703 -31.6193 -31.5994 -31.5909
   -31.5209 -31.5093 -31.4892 -31.4474 -31.4369 -31.4058 -31.3993 -31.3744
   -31.3530 -31.2947 -31.2341 -30.9740 -30.9626 -30.8793 -30.8398 -30.7488
   -16.6739 -16.2668 -16.1337 -16.0796 -15.9583 -15.8054 -15.7127 -15.6922
   -15.6167 -15.6003 -15.5453 -15.5254 -15.4886 -15.4682 -15.1734 -15.1678
   -15.1297 -15.0558 -15.0493 -15.0280 -14.9478 -14.7529 -14.7479 -14.7439
   -14.6413 -14.5736 -14.5039 -14.3991 -14.1752 -13.7741 -13.7007 -13.6664
   -12.7957  -7.4917  -4.0596  -3.7868  -3.7646  -3.6773  -3.5446  -3.5126
    -3.4227  -3.3472  -3.1830  -3.1681  -3.1356  -3.1034  -2.9504  -2.9364
    -2.9162  -2.8199  -2.8138  -2.7662  -2.7505  -2.6908  -2.6482  -2.6241
    -2.5435  -2.4969  -2.4261  -2.3334  -2.2699  -2.2580  -2.2431  -2.2365
    -2.1309  -2.0938  -2.0402  -1.9192  -1.9035  -1.8717  -1.8109  -1.7825
    -1.7719  -1.7626  -1.6975  -1.6791  -1.6670  -1.5332  -1.4738  -1.4269
    -1.3688  -1.3113  -1.2658  -1.1819  -1.1097  -1.0903  -1.0467  -1.0115
    -0.9638  -0.9357  -0.9074  -0.8403  -0.7605  -0.6718  -0.6067  -0.5943
    -0.5463  -0.4963  -0.4369  -0.4051  -0.3967  -0.3574  -0.2976  -0.1437
    -0.1076  -0.0673  -0.0438  -0.0133   0.0233   0.1268   0.1762   0.1883
     0.1948   0.2157   0.2921   0.3924   0.4270   0.4601   0.5532   0.5944
     0.6441   0.7543   0.7585   0.7722   0.8569   0.8952   0.9294   0.9555
     1.0076   1.1922   1.2463   1.3749   1.4956   1.6562   2.1744   2.8046
     2.8377   3.1187   3.2796   3.3896   3.6404   3.6662   3.7313   3.7316
     3.9014

          k = 0.0380 0.0419 0.0000 ( 17878 PWs)   bands (ev):

   -56.6085 -56.5848 -55.7270 -55.7201 -55.7023 -55.6968 -55.5823 -55.5568
   -55.3653 -55.3401 -55.2733 -55.2706 -55.2493 -55.1715 -54.7317 -54.6212
   -32.9886 -32.8836 -32.8638 -32.7748 -32.7233 -32.7117 -32.1588 -32.1446
   -32.0750 -31.9878 -31.9678 -31.9351 -31.9345 -31.9164 -31.9022 -31.8854
   -31.8745 -31.8740 -31.8731 -31.8557 -31.7925 -31.7891 -31.7803 -31.7743
   -31.7686 -31.7083 -31.6910 -31.6850 -31.6177 -31.6151 -31.5951 -31.5863
   -31.5227 -31.5154 -31.4960 -31.4771 -31.4453 -31.4181 -31.4122 -31.4012
   -31.3751 -31.3516 -31.1870 -30.9734 -30.9615 -30.9003 -30.8408 -30.7795
   -16.5587 -16.1490 -16.1161 -16.0006 -15.8874 -15.8839 -15.7286 -15.7011
   -15.6279 -15.5165 -15.4915 -15.4717 -15.4478 -15.4465 -15.3277 -15.1727
   -15.1230 -15.0975 -15.0871 -15.0198 -14.8891 -14.8677 -14.8293 -14.7848
   -14.6235 -14.6070 -14.5161 -14.4221 -14.2442 -13.7820 -13.7081 -13.7003
   -12.8051  -7.4878  -3.8820  -3.7936  -3.7650  -3.5044  -3.3999  -3.3456
    -3.2727  -3.2448  -3.0479  -3.0385  -3.0070  -2.9715  -2.9348  -2.9186
    -2.8457  -2.8074  -2.7586  -2.7555  -2.6980  -2.6701  -2.6499  -2.6174
    -2.5840  -2.5586  -2.5087  -2.4898  -2.4326  -2.3473  -2.3160  -2.2731
    -2.1924  -2.1624  -2.1341  -2.0805  -2.0043  -1.9928  -1.8966  -1.8451
    -1.8179  -1.6909  -1.6434  -1.5607  -1.5240  -1.5047  -1.4565  -1.4159
    -1.3248  -1.2908  -1.2265  -1.1982  -1.1250  -1.0894  -1.0602  -1.0541
    -0.9212  -0.9033  -0.8214  -0.7855  -0.7692  -0.6914  -0.6615  -0.5763
    -0.5404  -0.5115  -0.4784  -0.4472  -0.4166  -0.3695  -0.3478  -0.3065
    -0.2195  -0.1566  -0.1417  -0.1055  -0.0504   0.0603   0.0777   0.1214
     0.1675   0.2149   0.2369   0.3104   0.3597   0.3777   0.4057   0.4435
     0.5672   0.6649   0.7238   0.8616   0.8840   0.9364   0.9859   1.0231
     1.1102   1.1660   1.2247   1.3740   1.4298   1.6406   2.1601   2.9204
     3.0791   3.1707   3.3273   3.5123   3.5957   3.6499   3.7324   3.7899
     3.9095

          k = 0.0380-0.0839 0.0000 ( 17916 PWs)   bands (ev):

   -56.5969 -56.5965 -55.7172 -55.7126 -55.7085 -55.7081 -55.5723 -55.5669
   -55.3556 -55.3499 -55.2691 -55.2614 -55.2613 -55.1730 -54.7303 -54.6227
   -32.8739 -32.8736 -32.8577 -32.8575 -32.7436 -32.7433 -32.0329 -32.0302
   -32.0190 -32.0131 -31.9649 -31.9638 -31.9494 -31.9489 -31.9216 -31.9179
   -31.9061 -31.9008 -31.8800 -31.8787 -31.8242 -31.8198 -31.7735 -31.7688
   -31.7068 -31.6995 -31.6380 -31.6312 -31.6051 -31.6050 -31.6025 -31.5556
   -31.5537 -31.5240 -31.4888 -31.4869 -31.4868 -31.4478 -31.4478 -31.4428
   -31.4128 -31.3766 -31.1135 -30.9942 -30.9605 -30.9294 -30.8417 -30.8076
   -16.2859 -16.2849 -15.9326 -15.9294 -15.8654 -15.8633 -15.7570 -15.7564
   -15.6243 -15.6181 -15.4385 -15.4324 -15.3326 -15.3274 -15.2264 -15.2175
   -15.1942 -15.1860 -15.1656 -15.1599 -14.9128 -14.9084 -14.8147 -14.8077
   -14.6390 -14.6325 -14.4923 -14.4863 -14.3292 -13.7704 -13.7704 -13.7000
   -12.8144  -7.4839  -3.8009  -3.7649  -3.4962  -3.4949  -3.1429  -3.1403
    -3.1283  -3.1274  -3.0818  -3.0781  -2.9940  -2.9857  -2.7946  -2.7901
    -2.7629  -2.7329  -2.7256  -2.6866  -2.6821  -2.6666  -2.6618  -2.6550
    -2.6011  -2.5555  -2.5014  -2.4421  -2.4052  -2.3992  -2.2805  -2.1903
    -2.1885  -2.1479  -2.1304  -2.0929  -2.0591  -2.0516  -1.9415  -1.9362
    -1.8732  -1.8430  -1.8210  -1.6783  -1.6669  -1.5837  -1.5739  -1.3868
    -1.3827  -1.3287  -1.3193  -1.1803  -1.1517  -1.1176  -1.0921  -1.0003
    -0.9893  -0.8934  -0.8859  -0.8106  -0.7959  -0.6916  -0.6729  -0.6266
    -0.6215  -0.6002  -0.5447  -0.4812  -0.4097  -0.3483  -0.2683  -0.2281
    -0.2105  -0.1660  -0.1445  -0.1195  -0.1001  -0.0384  -0.0244   0.0173
     0.0466   0.1038   0.1556   0.2230   0.2334   0.3744   0.4685   0.4731
     0.5033   0.6496   0.7385   0.7957   0.9719   0.9951   1.1166   1.1177
     1.1519   1.1722   1.2117   1.2231   1.3747   1.6253   2.1308   3.1741
     3.1755   3.3368   3.3386   3.5359   3.5366   3.7059   3.7214   3.8583
     3.8691

          k = 0.0380-0.0419 0.0000 ( 17876 PWs)   bands (ev):

   -56.6085 -56.5848 -55.7270 -55.7201 -55.7023 -55.6968 -55.5823 -55.5568
   -55.3653 -55.3401 -55.2733 -55.2705 -55.2493 -55.1715 -54.7317 -54.6212
   -32.9886 -32.8836 -32.8638 -32.7748 -32.7233 -32.7117 -32.1588 -32.1446
   -32.0750 -31.9878 -31.9678 -31.9351 -31.9346 -31.9164 -31.9021 -31.8854
   -31.8746 -31.8742 -31.8728 -31.8557 -31.7926 -31.7891 -31.7802 -31.7743
   -31.7688 -31.7083 -31.6910 -31.6850 -31.6177 -31.6151 -31.5951 -31.5863
   -31.5227 -31.5153 -31.4960 -31.4771 -31.4453 -31.4181 -31.4121 -31.4013
   -31.3751 -31.3516 -31.1870 -30.9733 -30.9615 -30.9005 -30.8408 -30.7795
   -16.5585 -16.1489 -16.1169 -16.0005 -15.8869 -15.8839 -15.7283 -15.7013
   -15.6280 -15.5164 -15.4914 -15.4719 -15.4483 -15.4462 -15.3278 -15.1726
   -15.1227 -15.0978 -15.0873 -15.0200 -14.8886 -14.8676 -14.8290 -14.7851
   -14.6234 -14.6071 -14.5161 -14.4222 -14.2442 -13.7820 -13.7081 -13.7003
   -12.8051  -7.4878  -3.8814  -3.7936  -3.7649  -3.5034  -3.4018  -3.3465
    -3.2710  -3.2449  -3.0472  -3.0377  -3.0065  -2.9698  -2.9348  -2.9173
    -2.8459  -2.8230  -2.7563  -2.7506  -2.6980  -2.6714  -2.6502  -2.6167
    -2.5815  -2.5575  -2.5051  -2.4866  -2.4386  -2.3490  -2.3154  -2.2717
    -2.1913  -2.1656  -2.1321  -2.0844  -2.0013  -1.9937  -1.8906  -1.8477
    -1.8163  -1.6867  -1.6477  -1.5620  -1.5237  -1.5067  -1.4546  -1.4188
    -1.3196  -1.2867  -1.2254  -1.1978  -1.1264  -1.0892  -1.0641  -1.0552
    -0.9207  -0.9040  -0.8254  -0.7840  -0.7619  -0.7043  -0.6634  -0.5838
    -0.5349  -0.5025  -0.4972  -0.4569  -0.4089  -0.3682  -0.3553  -0.3058
    -0.2281  -0.1584  -0.1256  -0.0986  -0.0248   0.0297   0.0684   0.1401
     0.1666   0.2350   0.2398   0.2994   0.3581   0.3774   0.4009   0.4575
     0.5720   0.6610   0.7161   0.8527   0.8885   0.9383   0.9865   1.0220
     1.1107   1.1657   1.2252   1.3750   1.4277   1.6411   2.1596   2.9210
     3.0794   3.1707   3.3262   3.5121   3.5967   3.6494   3.7281   3.7895
     3.9053

          k =-0.0760-0.0000 0.0000 ( 17886 PWs)   bands (ev):

   -56.6134 -56.5799 -55.7311 -55.7258 -55.6973 -55.6920 -55.5873 -55.5517
   -55.3703 -55.3351 -55.2782 -55.2720 -55.2443 -55.1700 -54.7331 -54.6198
   -33.0427 -32.8878 -32.8597 -32.7857 -32.6987 -32.6671 -32.2155 -32.1975
   -32.1306 -31.9737 -31.9647 -31.9464 -31.9319 -31.9303 -31.8924 -31.8762
   -31.8681 -31.8613 -31.8368 -31.8324 -31.8283 -31.8013 -31.7803 -31.7678
   -31.7234 -31.7154 -31.7005 -31.6921 -31.6700 -31.6217 -31.5968 -31.5898
   -31.5281 -31.5099 -31.4891 -31.4472 -31.4369 -31.4057 -31.4001 -31.3743
   -31.3531 -31.2948 -31.2336 -30.9739 -30.9639 -30.8793 -30.8400 -30.7488
   -16.5112 -16.2233 -16.2168 -16.0544 -16.0320 -15.8018 -15.7650 -15.6185
   -15.6145 -15.5601 -15.5535 -15.5024 -15.4824 -15.4692 -15.2449 -15.1777
   -15.1715 -15.1102 -15.0831 -15.0599 -14.9659 -14.8388 -14.6959 -14.6659
   -14.6511 -14.5854 -14.4967 -14.3990 -14.1738 -13.7715 -13.7006 -13.6661
   -12.7942  -7.4901  -3.7869  -3.7648  -3.6719  -3.6684  -3.6402  -3.5269
    -3.2735  -3.2567  -3.2224  -3.1048  -3.0824  -2.9527  -2.8914  -2.8764
    -2.8250  -2.8177  -2.7795  -2.7105  -2.7094  -2.6765  -2.5779  -2.5121
    -2.4679  -2.4171  -2.3923  -2.3362  -2.3308  -2.3015  -2.2520  -2.1832
    -2.1561  -2.0507  -2.0428  -1.9996  -1.9230  -1.9012  -1.8893  -1.7722
    -1.7276  -1.7159  -1.6690  -1.6355  -1.6014  -1.5533  -1.4816  -1.4574
    -1.4264  -1.3793  -1.3038  -1.2674  -1.2420  -1.2101  -1.0998  -1.0072
    -0.9882  -0.8989  -0.8530  -0.8271  -0.7992  -0.7798  -0.6913  -0.6898
    -0.6663  -0.5461  -0.5341  -0.4767  -0.4373  -0.3621  -0.3210  -0.2995
    -0.2500  -0.1186  -0.0370  -0.0105   0.0363   0.0651   0.1381   0.1959
     0.2145   0.2445   0.3405   0.3926   0.4370   0.4829   0.5198   0.5384
     0.6053   0.6274   0.6936   0.7719   0.8337   0.8555   0.9110   0.9528
     1.0525   1.0612   1.1810   1.2849   1.3652   1.6571   2.0469   2.7949
     2.9315   3.0232   3.1178   3.4769   3.4984   3.6779   3.7920   3.8213
     3.8477

          k =-0.0760 0.0419 0.0000 ( 17914 PWs)   bands (ev):

   -56.6085 -56.5848 -55.7263 -55.7209 -55.7021 -55.6970 -55.5823 -55.5568
   -55.3653 -55.3401 -55.2733 -55.2706 -55.2494 -55.1715 -54.7317 -54.6212
   -32.9894 -32.8837 -32.8639 -32.7734 -32.7236 -32.7117 -32.1631 -32.1454
   -32.0752 -31.9683 -31.9532 -31.9364 -31.9351 -31.9342 -31.8961 -31.8891
   -31.8821 -31.8789 -31.8736 -31.8557 -31.7929 -31.7880 -31.7815 -31.7751
   -31.7733 -31.7084 -31.6910 -31.6736 -31.6176 -31.6172 -31.5944 -31.5844
   -31.5227 -31.5214 -31.4963 -31.4771 -31.4453 -31.4181 -31.4127 -31.4020
   -31.3751 -31.3516 -31.1867 -30.9734 -30.9626 -30.9005 -30.8413 -30.7796
   -16.3978 -16.1720 -16.1386 -15.9792 -15.9703 -15.8771 -15.7180 -15.6765
   -15.6264 -15.5134 -15.4709 -15.4681 -15.4492 -15.3842 -15.3383 -15.2278
   -15.1450 -15.1256 -15.0576 -15.0455 -14.9994 -14.8864 -14.8422 -14.8092
   -14.6219 -14.5975 -14.5061 -14.4228 -14.2434 -13.7802 -13.7084 -13.7003
   -12.8041  -7.4868  -3.7937  -3.7652  -3.4760  -3.4620  -3.3911  -3.3653
    -3.1461  -3.1359  -3.0412  -3.0154  -2.9649  -2.9426  -2.8413  -2.7750
    -2.7630  -2.7519  -2.6930  -2.6737  -2.6594  -2.6411  -2.6220  -2.5745
    -2.5676  -2.5292  -2.4949  -2.4555  -2.3772  -2.2648  -2.2573  -2.1984
    -2.1888  -2.1382  -2.0990  -2.0382  -2.0002  -1.9796  -1.9211  -1.8127
    -1.7545  -1.7479  -1.6408  -1.6110  -1.6051  -1.5878  -1.5004  -1.4278
    -1.3765  -1.3327  -1.2941  -1.2523  -1.2110  -1.1924  -1.1388  -1.0905
    -1.0279  -0.9724  -0.9353  -0.8960  -0.8385  -0.7908  -0.7678  -0.6992
    -0.6624  -0.5813  -0.5583  -0.5152  -0.4718  -0.4556  -0.4407  -0.3954
    -0.3307  -0.2976  -0.2018  -0.1953  -0.1652  -0.0646  -0.0100   0.0539
     0.1759   0.1890   0.2889   0.3048   0.3504   0.3802   0.5145   0.5712
     0.6601   0.7036   0.7975   0.8290   0.8616   0.9240   1.0325   1.0349
     1.0966   1.1015   1.2118   1.3079   1.3678   1.6588   2.1382   2.9325
     3.1055   3.1192   3.2180   3.6187   3.6659   3.6746   3.7201   3.8339
     3.9255

          k =-0.0760-0.0839 0.0000 ( 17948 PWs)   bands (ev):

   -56.5969 -56.5965 -55.7168 -55.7116 -55.7093 -55.7086 -55.5723 -55.5669
   -55.3556 -55.3500 -55.2691 -55.2614 -55.2613 -55.1731 -54.7303 -54.6227
   -32.8739 -32.8737 -32.8583 -32.8581 -32.7428 -32.7425 -32.0372 -32.0346
   -32.0210 -32.0150 -31.9650 -31.9638 -31.9217 -31.9201 -31.9188 -31.9179
   -31.9067 -31.9041 -31.9027 -31.9004 -31.8244 -31.8199 -31.7736 -31.7682
   -31.7070 -31.6997 -31.6387 -31.6319 -31.6058 -31.6056 -31.5986 -31.5546
   -31.5526 -31.5248 -31.4898 -31.4870 -31.4868 -31.4479 -31.4478 -31.4428
   -31.4159 -31.3767 -31.1135 -30.9942 -30.9613 -30.9295 -30.8424 -30.8076
   -16.1260 -16.1239 -16.0918 -16.0915 -15.8217 -15.8180 -15.7740 -15.7722
   -15.5995 -15.5936 -15.3869 -15.3767 -15.3709 -15.3668 -15.2426 -15.2338
   -15.1704 -15.1596 -15.0704 -15.0670 -15.0040 -14.9979 -14.9599 -14.9402
   -14.6237 -14.6161 -14.4885 -14.4798 -14.3271 -13.7702 -13.7702 -13.7000
   -12.8137  -7.4835  -3.8011  -3.7651  -3.2255  -3.2250  -3.1595  -3.1582
    -3.0373  -3.0326  -2.9559  -2.9554  -2.8562  -2.8519  -2.7561  -2.7124
    -2.7102  -2.7075  -2.6946  -2.6519  -2.5565  -2.5562  -2.5414  -2.5263
    -2.4707  -2.4686  -2.4542  -2.3817  -2.3682  -2.3323  -2.2930  -2.1864
    -2.1728  -2.1563  -2.1304  -2.0703  -2.0557  -2.0444  -1.9968  -1.9724
    -1.8945  -1.8279  -1.7867  -1.6669  -1.6633  -1.6535  -1.6414  -1.4863
    -1.4505  -1.4192  -1.4095  -1.4035  -1.3591  -1.2611  -1.2531  -1.1186
    -1.1160  -1.0463  -0.9644  -0.9412  -0.9191  -0.7848  -0.7444  -0.7036
    -0.6985  -0.6736  -0.6478  -0.6283  -0.6007  -0.4491  -0.4298  -0.3956
    -0.3648  -0.3567  -0.3154  -0.2472  -0.1674  -0.0866  -0.0854  -0.0190
     0.0331   0.0950   0.1829   0.1954   0.1994   0.4822   0.5624   0.6496
     0.7287   0.7925   0.8583   0.8830   0.9435   0.9825   1.1226   1.1255
     1.1442   1.1447   1.2046   1.2129   1.3675   1.6454   2.2064   3.2341
     3.2344   3.3014   3.3019   3.6256   3.6311   3.7401   3.7491   3.8591
     3.8645

     the Fermi energy is     2.4990 ev

!    total energy              =   -2942.90673023 Ry
     estimated scf accuracy    <       0.00000004 Ry
     smearing contrib. (-TS)   =      -0.00477780 Ry
     internal energy E=F+TS    =   -2942.90195243 Ry

     The total energy is F=E-TS. E is the sum of the following terms:
     one-electron contribution =  -23225.44879757 Ry
     hartree contribution      =   11703.01040152 Ry
     xc contribution           =    -487.46379187 Ry
     ewald contribution        =    9066.99984791 Ry
     electric field correction =       0.00038758 Ry

     convergence has been achieved in  70 iterations

     Forces acting on atoms (cartesian axes, Ry/au):

     atom    1 type  1   force =     0.00000587   -0.00043977    0.12432322
     atom    2 type  1   force =    -0.00005767   -0.00054985   -0.16064141
     atom    3 type  2   force =     0.00016405   -0.00030104   -0.06835247
     atom    4 type  2   force =    -0.00005281   -0.00038791    0.02752761
     atom    5 type  2   force =    -0.01677841    0.00112689   -0.00832591
     atom    6 type  2   force =     0.01782723    0.00162716   -0.01021927
     atom    7 type  1   force =     0.00039700   -0.00407877    0.02180932
     atom    8 type  1   force =     0.00019941   -0.00219496    0.11167457
     atom    9 type  2   force =     0.00010379    0.00018704   -0.00030653
     atom   10 type  2   force =    -0.00319902    0.00010779   -0.07306635
     atom   11 type  2   force =    -0.00034551    0.00033235   -0.00007039
     atom   12 type  2   force =     0.00015273    0.00045293   -0.00002715
     atom   13 type  1   force =     0.00013780   -0.00024658   -0.00002554
     atom   14 type  1   force =    -0.00016015    0.00003862   -0.00032471
     atom   15 type  2   force =    -0.00004783   -0.00024633    0.00019235
     atom   16 type  2   force =     0.00032791    0.00076764    0.00000779
     atom   17 type  2   force =     0.00019859    0.00030860   -0.00028070
     atom   18 type  2   force =    -0.00020556    0.00021008    0.00012068
     atom   19 type  1   force =     0.00050019   -0.00009360   -0.00020486
     atom   20 type  1   force =     0.00026023   -0.00036808   -0.00048889
     atom   21 type  2   force =     0.00010245    0.00008081    0.09967411
     atom   22 type  2   force =     0.00007645    0.00095335    0.00047122
     atom   23 type  2   force =    -0.07916254    0.00008651   -0.03244630
     atom   24 type  2   force =     0.07906622    0.00051189   -0.03243889
     atom   25 type  1   force =     0.00002433   -0.00041133    0.12383852
     atom   26 type  1   force =    -0.00003825   -0.00042206   -0.16076244
     atom   27 type  2   force =     0.00028694   -0.00046823   -0.06734188
     atom   28 type  2   force =    -0.00005627   -0.00020354    0.02726303
     atom   29 type  2   force =    -0.01730917    0.00074001   -0.00825326
     atom   30 type  2   force =     0.01827448    0.00113769   -0.01009067
     atom   31 type  1   force =     0.00033769   -0.00099993    0.02127432
     atom   32 type  1   force =     0.00021514   -0.00027575    0.11223108
     atom   33 type  2   force =     0.00012080    0.00051106   -0.00007397
     atom   34 type  2   force =    -0.00294647   -0.00065579   -0.07292121
     atom   35 type  2   force =    -0.00024932    0.00027259   -0.00009470
     atom   36 type  2   force =     0.00011024    0.00013701   -0.00003016
     atom   37 type  1   force =     0.00014042   -0.00015183    0.00023256
     atom   38 type  1   force =     0.00006999    0.00005272    0.00030614
     atom   39 type  2   force =     0.00021131    0.00037192   -0.00014666
     atom   40 type  2   force =     0.00009957    0.00034505    0.00014833
     atom   41 type  2   force =    -0.00015565    0.00033379    0.00017291
     atom   42 type  2   force =    -0.00003357    0.00060136   -0.00000988
     atom   43 type  1   force =     0.00059610    0.00052855    0.00048497
     atom   44 type  1   force =     0.00014651    0.00031835   -0.00040615
     atom   45 type  2   force =     0.00010503    0.00005044    0.09969626
     atom   46 type  2   force =    -0.07917138    0.00012791   -0.03244827
     atom   47 type  2   force =     0.07906980    0.00055969   -0.03243421
     atom   48 type  3   force =     0.00042526    0.00030446   -0.00024516
     atom   49 type  4   force =     0.00073587   -0.00037163    0.00177024
     atom   50 type  5   force =     0.00055104   -0.00036532   -0.00036776
     atom   51 type  5   force =    -0.00022110    0.00035068   -0.00011316
     atom   52 type  5   force =    -0.00071696   -0.00060091    0.00023822
     atom   53 type  3   force =    -0.00319824   -0.00595205   -0.00336833
     atom   54 type  5   force =    -0.00115899    0.00004261   -0.00182175
     atom   55 type  5   force =     0.00513997    0.00659711    0.00458773
     atom   56 type  5   force =    -0.00091553   -0.00038942    0.00010384

     Total force =     0.425108     Total SCF correction =     0.000495
  @ DRIVER MODE: Message from server: STATUS
  @ DRIVER MODE: Message from server: GETFORCE
  @ DRIVER MODE: Returning v,forces,stress,ensemble 

     Writing output data file ./calc.save/
  @ DRIVER MODE: Message from server: EXIT
  @ DRIVE MODE: Exiting  
 
     init_run     :      9.87s CPU     10.01s WALL (       1 calls)
     electrons    :    870.02s CPU    889.83s WALL (       1 calls)
     forces       :      5.38s CPU      5.44s WALL (       1 calls)

     Called by init_run:
     wfcinit      :      3.39s CPU      3.44s WALL (       1 calls)
     potinit      :      4.54s CPU      4.58s WALL (       1 calls)
     hinit0       :      1.13s CPU      1.14s WALL (       1 calls)

     Called by electrons:
     c_bands      :    739.65s CPU    753.48s WALL (      70 calls)
     sum_band     :     94.37s CPU     96.91s WALL (      70 calls)
     v_of_rho     :     26.40s CPU     26.97s WALL (      71 calls)
     newd         :     10.56s CPU     12.87s WALL (      71 calls)
     mix_rho      :      2.59s CPU      3.03s WALL (      70 calls)
     vdW_kernel   :      3.76s CPU      3.77s WALL (       1 calls)

     Called by c_bands:
     init_us_2    :      5.02s CPU      5.04s WALL (    1420 calls)
     cegterg      :    726.64s CPU    740.15s WALL (     710 calls)

     Called by *egterg:
     cdiaghg      :    139.50s CPU    142.16s WALL (    5794 calls)
     h_psi        :    370.01s CPU    379.23s WALL (    5804 calls)
     s_psi        :     42.24s CPU     42.38s WALL (    5804 calls)
     g_psi        :      1.10s CPU      1.11s WALL (    5084 calls)

     Called by h_psi:
     h_psi:calbec :     45.24s CPU     45.45s WALL (    5804 calls)
     vloc_psi     :    280.36s CPU    289.22s WALL (    5804 calls)
     add_vuspsi   :     42.91s CPU     43.07s WALL (    5804 calls)

     General routines
     calbec       :     64.70s CPU     64.97s WALL (    6544 calls)
     fft          :     14.55s CPU     14.66s WALL (    4473 calls)
     ffts         :      0.16s CPU      0.18s WALL (     141 calls)
     fftw         :    327.32s CPU    337.04s WALL (  971386 calls)
     interpolate  :      0.32s CPU      0.34s WALL (      71 calls)
     davcio       :      0.00s CPU      0.14s WALL (      10 calls)
 
     Parallel routines
 
     PWSCF        :  14m47.34s CPU  15m 7.61s WALL

 
   This run was terminated on:   0:53:41   3Aug2021            

=------------------------------------------------------------------------------=
   JOB DONE.
=------------------------------------------------------------------------------=
