
     Program PWSCF v.6.7GPU starts on 15Jul2021 at 16:30:49 

     This program is part of the open-source Quantum ESPRESSO suite
     for quantum simulation of materials; please cite
         "P. Giannozzi et al., J. Phys.:Condens. Matter 21 395502 (2009);
         "P. Giannozzi et al., J. Phys.:Condens. Matter 29 465901 (2017);
         "P. Giannozzi et al., J. Chem. Phys. 152 154105 (2020);
          URL http://www.quantum-espresso.org", 
     in publications or presentations arising from this work. More details at
     http://www.quantum-espresso.org/quote

     Parallel version (MPI), running on    16 processors

     MPI processes distributed on     1 nodes
     R & G space division:  proc/nbgrp/npool/nimage =      16
     Reading input from /storage/home/hcoda1/3/ntian30/research/carbon/15Jul_vib/reference/H2/out_0006/pw.inp
Warning: card &CELL ignored
Warning: card   CELL_DYNAMICS='IPI', ignored
Warning: card / ignored

     Current dimensions of program PWSCF are:
     Max number of different atomic species (ntypx) = 10
     Max number of k-points (npk) =  40000
     Max angular momentum in pseudopotentials (lmaxx) =  3
     Presently no symmetry can be used with electric field

     Message from routine cell_base_init:
     DEPRECATED: use true lattice parameter, not A to a.u. conversion factor

     **************************************************************************
     Initializing libbeef V0.1.2 with the BEEF-vdW functional.
     Citation: Wellendorff et al., PRB 85, 235149 (2012).
     **************************************************************************


     IMPORTANT: XC functional enforced from input :
     Exchange-correlation= BEEF-VDW
                           (   1   4  43  14   2   0   0)
     Any further DFT definition will be discarded
     Please, verify this is what you really want


     Subspace diagonalization in iterative solution of the eigenvalue problem:
     one sub-group per band group will be used
     scalapack distributed-memory algorithm (size of sub-group:  4*  4 procs)

  @ DRIVER MODE: Connecting to 
 qe_1139763_2351654.sched-torque.pace.gatech.edu24xdruxm_scratch
  using UNIX socket
  @ DRIVER MODE: Message from server: STATUS
  @ DRIVER MODE: Message from server: INIT
  @ DRIVER MODE: Receiving replica           0          -1
  @ DRIVER MODE: Receiving encoded integer          25
  @ DRIVER MODE:  SCF:  T  FORCE:  T  STRESS:  F  VC:  F  ENSEMBLE:  F
  @ DRIVER MODE:  SCF:  T  FORCE:  T  STRESS:  F  VC:  F  ENSEMBLE:  F
 
     Parallelization info
     --------------------
     sticks:   dense  smooth     PW     G-vecs:    dense   smooth      PW
     Min         521     208     56                37235     9422    1332
     Max         522     209     57                37240     9425    1338
     Sum        8349    3341    901               595807   150791   21351
 
     Using Slab Decomposition
 


     bravais-lattice index     =            0
     lattice parameter (alat)  =       1.8897  a.u.
     unit-cell volume          =    6997.0666 (a.u.)^3
     number of atoms/cell      =            2
     number of atomic types    =            1
     number of electrons       =         2.00
     number of Kohn-Sham states=           11
     kinetic-energy cutoff     =      29.3995  Ry
     charge density cutoff     =     293.9946  Ry
     scf convergence threshold =      7.3E-08
     mixing beta               =       0.0500
     number of iterations used =            8  plain     mixing
     Exchange-correlation= BEEF-VDW
                           (   1   4  43  14   2   0   0)

     celldm(1)=   1.889726  celldm(2)=   0.000000  celldm(3)=   0.000000
     celldm(4)=   0.000000  celldm(5)=   0.000000  celldm(6)=   0.000000

     crystal axes: (cart. coord. in units of alat)
               a(1) = (  10.000000   0.000000   0.000000 )  
               a(2) = (   0.000000  10.000000   0.000000 )  
               a(3) = (   0.000000   0.000000  10.368583 )  

     reciprocal axes: (cart. coord. in units 2 pi/alat)
               b(1) = (  0.100000  0.000000  0.000000 )  
               b(2) = (  0.000000  0.100000  0.000000 )  
               b(3) = (  0.000000  0.000000  0.096445 )  


     PseudoPot. # 1 for H  read from file:
     /storage/coda1/p-amedford6/0/shared/rich_project_chbe-medford/medford-share/data/pseudos_module/espresso/nninc/pbe/van/H.UPF
     MD5 check sum: b5ee9d7bfd3a09ee7748110bda690ff7
     Pseudo is Ultrasoft, Zval =  1.0
     Generated by new atomic code, or converted to UPF format
     Using radial grid of  615 points,  1 beta functions with: 
                l(1) =   0
     Q(r) pseudized with  8 coefficients,  rinner =    0.800

     atomic species   valence    mass     pseudopotential
        H1             1.00     1.00800     H ( 1.00)

     Starting magnetic structure 
     atomic species   magnetization
        H1           0.000

     No symmetry found



   Cartesian axes

     site n.     atom                  positions (alat units)
         1           H1  tau(   1) = (   5.0000000   5.0000000   5.5628745  )
         2           H1  tau(   2) = (   5.0000000   5.0000000   4.8157085  )

     number of k points=    10  Fermi-Dirac smearing, width (Ry)=  0.0073
                       cart. coord. in units 2pi/alat
        k(    1) = (   0.0000000   0.0000000   0.0000000), wk =   0.0625000
        k(    2) = (   0.0000000   0.0250000   0.0000000), wk =   0.1250000
        k(    3) = (   0.0000000  -0.0500000   0.0000000), wk =   0.0625000
        k(    4) = (   0.0250000   0.0000000   0.0000000), wk =   0.1250000
        k(    5) = (   0.0250000   0.0250000   0.0000000), wk =   0.1250000
        k(    6) = (   0.0250000  -0.0500000   0.0000000), wk =   0.1250000
        k(    7) = (   0.0250000  -0.0250000   0.0000000), wk =   0.1250000
        k(    8) = (  -0.0500000   0.0000000   0.0000000), wk =   0.0625000
        k(    9) = (  -0.0500000   0.0250000   0.0000000), wk =   0.1250000
        k(   10) = (  -0.0500000  -0.0500000   0.0000000), wk =   0.0625000

     Dense  grid:   595807 G-vectors     FFT dimensions: ( 108, 108, 108)

     Smooth grid:   150791 G-vectors     FFT dimensions: (  72,  72,  72)

     Estimated max dynamical RAM per process >      44.67 MB

     Estimated total dynamical RAM >     714.69 MB
     Generating pointlists ...
     new r_m :   0.3082 (alat units)  0.5824 (a.u.) for type    1
     Cannot read rho : file not found

     Initial potential from superposition of free atoms

     starting charge    1.99998, renormalised to    2.00000

     negative rho (up, down):  2.207E-04 2.207E-04


     %%%%%%%%%%%%%%%%%%%%%%%%%%%%%%%%%%%%%%%%%%%%%%%%%%%%%%%%%%%%%%%%%%%%%%%%
     %                                                                      %
     % You are using vdW-DF, which was implemented by the Thonhauser group. %
     % Please cite the following two papers that made this development      %
     % possible and the two reviews that describe the various versions:     %
     %                                                                      %
     %   T. Thonhauser et al., PRL 115, 136402 (2015).                      %
     %   T. Thonhauser et al., PRB 76, 125112 (2007).                       %
     %   K. Berland et al., Rep. Prog. Phys. 78, 066501 (2015).             %
     %   D.C. Langreth et al., J. Phys.: Condens. Matter 21, 084203 (2009). %
     %                                                                      %
     %                                                                      %
     % If you are calculating the stress with vdW-DF, please also cite:     %
     %                                                                      %
     %   R. Sabatini et al., J. Phys.: Condens. Matter 24, 424209 (2012).   %
     %                                                                      %
     %%%%%%%%%%%%%%%%%%%%%%%%%%%%%%%%%%%%%%%%%%%%%%%%%%%%%%%%%%%%%%%%%%%%%%%%


 
     Adding external electric field

     Computed dipole along edir(3) : 
        Dipole               -0.0000 Ry au,         -0.0000 Debye
        Dipole field         -0.0000 Ry au, 
 
        Potential amp.        0.0000 Ry
        Total length         19.1039 bohr
 
 
     Adding external electric field

     Computed dipole along edir(3) : 
        Dipole               -0.0000 Ry au,         -0.0000 Debye
        Dipole field         -0.0000 Ry au, 
 
        Potential amp.        0.0000 Ry
        Total length         19.1039 bohr
 
     Starting wfcs are    2 atomic +    9 random wfcs
  @ DRIVER MODE: Message from server: STATUS
  @ DRIVER MODE: Message from server: POSDATA
  @ DRIVER MODE: Reading and sharing cell 
  @ DRIVER MODE: Reading and sharing positions 
  @ DRIVER MODE: Received positions 

     total cpu time spent up to now is        4.1 secs

     Self-consistent Calculation

     iteration #  1     ecut=    29.40 Ry     beta= 0.05
     Davidson diagonalization with overlap
     c_bands:  1 eigenvalues not converged
     c_bands:  1 eigenvalues not converged
     c_bands:  1 eigenvalues not converged
     c_bands:  1 eigenvalues not converged
     c_bands:  1 eigenvalues not converged
     c_bands:  5 eigenvalues not converged
     c_bands:  1 eigenvalues not converged
     ethr =  1.00E-05,  avg # of iterations = 37.3

     negative rho (up, down):  2.082E-04 2.082E-04
 
     Adding external electric field

     Computed dipole along edir(3) : 
        Dipole               -0.0000 Ry au,         -0.0000 Debye
        Dipole field         -0.0000 Ry au, 
 
        Potential amp.        0.0000 Ry
        Total length         19.1039 bohr
 
 
     Adding external electric field

     Computed dipole along edir(3) : 
        Dipole               -0.0000 Ry au,         -0.0000 Debye
        Dipole field         -0.0000 Ry au, 
 
        Potential amp.        0.0000 Ry
        Total length         19.1039 bohr
 

     total cpu time spent up to now is       10.9 secs

     total energy              =      -2.47081669 Ry
     estimated scf accuracy    <       0.12902013 Ry

     total magnetization       =     0.00 Bohr mag/cell
     absolute magnetization    =     0.00 Bohr mag/cell

     iteration #  2     ecut=    29.40 Ry     beta= 0.05
     Davidson diagonalization with overlap
     ethr =  6.45E-03,  avg # of iterations =  1.0

     negative rho (up, down):  8.973E-04 8.973E-04
 
     Adding external electric field

     Computed dipole along edir(3) : 
        Dipole               -0.0000 Ry au,         -0.0000 Debye
        Dipole field         -0.0000 Ry au, 
 
        Potential amp.        0.0000 Ry
        Total length         19.1039 bohr
 
 
     Adding external electric field

     Computed dipole along edir(3) : 
        Dipole               -0.0000 Ry au,         -0.0000 Debye
        Dipole field         -0.0000 Ry au, 
 
        Potential amp.        0.0000 Ry
        Total length         19.1039 bohr
 

     total cpu time spent up to now is       14.0 secs

     total energy              =      -2.40487498 Ry
     estimated scf accuracy    <       0.11376522 Ry

     total magnetization       =    -0.00 Bohr mag/cell
     absolute magnetization    =     0.00 Bohr mag/cell

     iteration #  3     ecut=    29.40 Ry     beta= 0.05
     Davidson diagonalization with overlap
     ethr =  5.69E-03,  avg # of iterations =  1.0

     negative rho (up, down):  8.105E-04 8.105E-04
 
     Adding external electric field

     Computed dipole along edir(3) : 
        Dipole               -0.0000 Ry au,         -0.0000 Debye
        Dipole field         -0.0000 Ry au, 
 
        Potential amp.        0.0000 Ry
        Total length         19.1039 bohr
 
 
     Adding external electric field

     Computed dipole along edir(3) : 
        Dipole               -0.0000 Ry au,         -0.0000 Debye
        Dipole field         -0.0000 Ry au, 
 
        Potential amp.        0.0000 Ry
        Total length         19.1039 bohr
 

     total cpu time spent up to now is       15.0 secs

     total energy              =      -2.41925646 Ry
     estimated scf accuracy    <       0.00081680 Ry

     total magnetization       =    -0.00 Bohr mag/cell
     absolute magnetization    =     0.00 Bohr mag/cell

     iteration #  4     ecut=    29.40 Ry     beta= 0.05
     Davidson diagonalization with overlap
     ethr =  4.08E-05,  avg # of iterations =  4.7

     negative rho (up, down):  7.709E-04 7.710E-04
 
     Adding external electric field

     Computed dipole along edir(3) : 
        Dipole               -0.0000 Ry au,         -0.0000 Debye
        Dipole field         -0.0000 Ry au, 
 
        Potential amp.        0.0000 Ry
        Total length         19.1039 bohr
 
 
     Adding external electric field

     Computed dipole along edir(3) : 
        Dipole               -0.0000 Ry au,         -0.0000 Debye
        Dipole field         -0.0000 Ry au, 
 
        Potential amp.        0.0000 Ry
        Total length         19.1039 bohr
 

     total cpu time spent up to now is       16.4 secs

     total energy              =      -2.41906401 Ry
     estimated scf accuracy    <       0.00040762 Ry

     total magnetization       =     0.00 Bohr mag/cell
     absolute magnetization    =     0.00 Bohr mag/cell

     iteration #  5     ecut=    29.40 Ry     beta= 0.05
     Davidson diagonalization with overlap
     ethr =  2.04E-05,  avg # of iterations =  1.8

     negative rho (up, down):  1.003E-03 1.003E-03
 
     Adding external electric field

     Computed dipole along edir(3) : 
        Dipole                0.0000 Ry au,          0.0000 Debye
        Dipole field          0.0000 Ry au, 
 
        Potential amp.       -0.0000 Ry
        Total length         19.1039 bohr
 
 
     Adding external electric field

     Computed dipole along edir(3) : 
        Dipole                0.0000 Ry au,          0.0000 Debye
        Dipole field          0.0000 Ry au, 
 
        Potential amp.       -0.0000 Ry
        Total length         19.1039 bohr
 

     total cpu time spent up to now is       17.4 secs

     total energy              =      -2.41909979 Ry
     estimated scf accuracy    <       0.00004918 Ry

     total magnetization       =     0.00 Bohr mag/cell
     absolute magnetization    =     0.00 Bohr mag/cell

     iteration #  6     ecut=    29.40 Ry     beta= 0.05
     Davidson diagonalization with overlap
     ethr =  2.46E-06,  avg # of iterations =  7.7

     negative rho (up, down):  9.669E-04 9.672E-04
 
     Adding external electric field

     Computed dipole along edir(3) : 
        Dipole                0.0000 Ry au,          0.0000 Debye
        Dipole field          0.0000 Ry au, 
 
        Potential amp.       -0.0000 Ry
        Total length         19.1039 bohr
 
 
     Adding external electric field

     Computed dipole along edir(3) : 
        Dipole                0.0000 Ry au,          0.0000 Debye
        Dipole field          0.0000 Ry au, 
 
        Potential amp.       -0.0000 Ry
        Total length         19.1039 bohr
 

     total cpu time spent up to now is       19.0 secs

     total energy              =      -2.41909720 Ry
     estimated scf accuracy    <       0.00000521 Ry

     total magnetization       =    -0.00 Bohr mag/cell
     absolute magnetization    =     0.00 Bohr mag/cell

     iteration #  7     ecut=    29.40 Ry     beta= 0.05
     Davidson diagonalization with overlap
     ethr =  2.61E-07,  avg # of iterations =  2.0

     negative rho (up, down):  9.084E-04 9.085E-04
 
     Adding external electric field

     Computed dipole along edir(3) : 
        Dipole                0.0000 Ry au,          0.0000 Debye
        Dipole field          0.0000 Ry au, 
 
        Potential amp.       -0.0000 Ry
        Total length         19.1039 bohr
 
 
     Adding external electric field

     Computed dipole along edir(3) : 
        Dipole                0.0000 Ry au,          0.0000 Debye
        Dipole field          0.0000 Ry au, 
 
        Potential amp.       -0.0000 Ry
        Total length         19.1039 bohr
 

     total cpu time spent up to now is       20.1 secs

     total energy              =      -2.41909713 Ry
     estimated scf accuracy    <       0.00000361 Ry

     total magnetization       =     0.00 Bohr mag/cell
     absolute magnetization    =     0.00 Bohr mag/cell

     iteration #  8     ecut=    29.40 Ry     beta= 0.05
     Davidson diagonalization with overlap
     ethr =  1.81E-07,  avg # of iterations =  1.0

     negative rho (up, down):  8.476E-04 8.477E-04
 
     Adding external electric field

     Computed dipole along edir(3) : 
        Dipole               -0.0000 Ry au,         -0.0000 Debye
        Dipole field         -0.0000 Ry au, 
 
        Potential amp.        0.0000 Ry
        Total length         19.1039 bohr
 
 
     Adding external electric field

     Computed dipole along edir(3) : 
        Dipole               -0.0000 Ry au,         -0.0000 Debye
        Dipole field         -0.0000 Ry au, 
 
        Potential amp.        0.0000 Ry
        Total length         19.1039 bohr
 

     total cpu time spent up to now is       21.1 secs

     total energy              =      -2.41909606 Ry
     estimated scf accuracy    <       0.00000050 Ry

     total magnetization       =    -0.00 Bohr mag/cell
     absolute magnetization    =     0.00 Bohr mag/cell

     iteration #  9     ecut=    29.40 Ry     beta= 0.05
     Davidson diagonalization with overlap
     ethr =  2.51E-08,  avg # of iterations =  1.0

     negative rho (up, down):  7.950E-04 7.950E-04
 
     Adding external electric field

     Computed dipole along edir(3) : 
        Dipole               -0.0000 Ry au,         -0.0000 Debye
        Dipole field         -0.0000 Ry au, 
 
        Potential amp.        0.0000 Ry
        Total length         19.1039 bohr
 
 
     Adding external electric field

     Computed dipole along edir(3) : 
        Dipole               -0.0000 Ry au,         -0.0000 Debye
        Dipole field         -0.0000 Ry au, 
 
        Potential amp.        0.0000 Ry
        Total length         19.1039 bohr
 

     total cpu time spent up to now is       22.1 secs

     total energy              =      -2.41909567 Ry
     estimated scf accuracy    <       0.00000012 Ry

     total magnetization       =    -0.00 Bohr mag/cell
     absolute magnetization    =     0.00 Bohr mag/cell

     iteration # 10     ecut=    29.40 Ry     beta= 0.05
     Davidson diagonalization with overlap
     ethr =  5.87E-09,  avg # of iterations =  2.0

     negative rho (up, down):  7.488E-04 7.488E-04
 
     Adding external electric field

     Computed dipole along edir(3) : 
        Dipole               -0.0000 Ry au,         -0.0000 Debye
        Dipole field         -0.0000 Ry au, 
 
        Potential amp.        0.0000 Ry
        Total length         19.1039 bohr
 
 
     Adding external electric field

     Computed dipole along edir(3) : 
        Dipole               -0.0000 Ry au,         -0.0000 Debye
        Dipole field         -0.0000 Ry au, 
 
        Potential amp.        0.0000 Ry
        Total length         19.1039 bohr
 

     total cpu time spent up to now is       23.2 secs

     total energy              =      -2.41909503 Ry
     estimated scf accuracy    <       0.00000012 Ry

     total magnetization       =    -0.00 Bohr mag/cell
     absolute magnetization    =     0.00 Bohr mag/cell

     iteration # 11     ecut=    29.40 Ry     beta= 0.05
     Davidson diagonalization with overlap
     ethr =  5.85E-09,  avg # of iterations =  1.0

     negative rho (up, down):  6.045E-05 6.045E-05
 
     Adding external electric field

     Computed dipole along edir(3) : 
        Dipole               -0.0000 Ry au,         -0.0000 Debye
        Dipole field         -0.0000 Ry au, 
 
        Potential amp.        0.0000 Ry
        Total length         19.1039 bohr
 
 
     Adding external electric field

     Computed dipole along edir(3) : 
        Dipole               -0.0000 Ry au,         -0.0000 Debye
        Dipole field         -0.0000 Ry au, 
 
        Potential amp.        0.0000 Ry
        Total length         19.1039 bohr
 
 
     Magnetic moment per site  (integrated on atomic sphere of radius R)
     atom   1 (R=0.308)  charge=  0.2177  magn= -0.0000
     atom   2 (R=0.308)  charge=  0.2162  magn=  0.0000

     total cpu time spent up to now is       24.1 secs

     End of self-consistent calculation

 ------ SPIN UP ------------


          k = 0.0000 0.0000 0.0000 ( 18885 PWs)   bands (ev):

   -10.7065  -0.4862  -0.0106   0.6277   0.6277   0.9430   1.0155   1.0678
     1.4696   1.8731   1.8731

          k = 0.0000 0.0250 0.0000 ( 18845 PWs)   bands (ev):

   -10.7064  -0.4028   0.0079   0.2450   0.6810   0.9922   1.1112   1.3673
     1.4116   1.6576   1.8467

          k = 0.0000-0.0500 0.0000 ( 18836 PWs)   bands (ev):

   -10.7063  -0.1697  -0.1392   0.0276   0.7515   1.0544   1.2950   1.3406
     1.3838   1.4493   1.4523

          k = 0.0250 0.0000 0.0000 ( 18845 PWs)   bands (ev):

   -10.7064  -0.4028   0.0079   0.2450   0.6810   0.9922   1.1112   1.3673
     1.4116   1.6576   1.8467

          k = 0.0250 0.0250 0.0000 ( 18821 PWs)   bands (ev):

   -10.7063  -0.3202   0.0243   0.2850   0.3584   0.9368   1.1663   1.4358
     1.4569   1.6062   1.8476

          k = 0.0250-0.0500 0.0000 ( 18814 PWs)   bands (ev):

   -10.7063  -0.0951  -0.0541   0.0417   0.4691   0.7105   1.2871   1.3499
     1.4330   1.6297   1.7964

          k = 0.0250-0.0250 0.0000 ( 18821 PWs)   bands (ev):

   -10.7063  -0.3202   0.0243   0.2850   0.3584   0.9368   1.1663   1.4358
     1.4569   1.6062   1.8476

          k =-0.0500 0.0000 0.0000 ( 18836 PWs)   bands (ev):

   -10.7063  -0.1697  -0.1392   0.0276   0.7515   1.0544   1.2950   1.3406
     1.3838   1.4493   1.4523

          k =-0.0500 0.0250 0.0000 ( 18814 PWs)   bands (ev):

   -10.7063  -0.0951  -0.0541   0.0417   0.4691   0.7105   1.2871   1.3499
     1.4330   1.6297   1.7964

          k =-0.0500-0.0500 0.0000 ( 18784 PWs)   bands (ev):

   -10.7062   0.0567   0.1161   0.1161   0.1342   0.3723   1.4071   1.4071
     1.6610   1.6622   1.6623

 ------ SPIN DOWN ----------


          k = 0.0000 0.0000 0.0000 ( 18885 PWs)   bands (ev):

   -10.7065  -0.4862  -0.0106   0.6277   0.6277   0.9430   1.0155   1.0678
     1.4696   1.8731   1.8731

          k = 0.0000 0.0250 0.0000 ( 18845 PWs)   bands (ev):

   -10.7064  -0.4028   0.0079   0.2450   0.6810   0.9922   1.1112   1.3673
     1.4116   1.6576   1.8466

          k = 0.0000-0.0500 0.0000 ( 18836 PWs)   bands (ev):

   -10.7063  -0.1697  -0.1392   0.0276   0.7515   1.0544   1.2950   1.3406
     1.3838   1.4493   1.4523

          k = 0.0250 0.0000 0.0000 ( 18845 PWs)   bands (ev):

   -10.7064  -0.4028   0.0079   0.2450   0.6810   0.9922   1.1112   1.3673
     1.4116   1.6576   1.8465

          k = 0.0250 0.0250 0.0000 ( 18821 PWs)   bands (ev):

   -10.7063  -0.3202   0.0243   0.2850   0.3584   0.9368   1.1663   1.4358
     1.4569   1.6063   1.8477

          k = 0.0250-0.0500 0.0000 ( 18814 PWs)   bands (ev):

   -10.7063  -0.0951  -0.0541   0.0418   0.4691   0.7105   1.2871   1.3499
     1.4330   1.6297   1.7964

          k = 0.0250-0.0250 0.0000 ( 18821 PWs)   bands (ev):

   -10.7063  -0.3202   0.0243   0.2850   0.3584   0.9368   1.1663   1.4358
     1.4569   1.6063   1.8481

          k =-0.0500 0.0000 0.0000 ( 18836 PWs)   bands (ev):

   -10.7063  -0.1697  -0.1392   0.0276   0.7514   1.0544   1.2950   1.3406
     1.3838   1.4493   1.4523

          k =-0.0500 0.0250 0.0000 ( 18814 PWs)   bands (ev):

   -10.7063  -0.0951  -0.0541   0.0418   0.4691   0.7105   1.2871   1.3499
     1.4330   1.6297   1.7964

          k =-0.0500-0.0500 0.0000 ( 18784 PWs)   bands (ev):

   -10.7062   0.0567   0.1161   0.1161   0.1342   0.3723   1.4071   1.4071
     1.6610   1.6622   1.6622

     the Fermi energy is    -4.4167 ev

!    total energy              =      -2.41910196 Ry
     estimated scf accuracy    <       0.00000002 Ry
     smearing contrib. (-TS)   =       0.00000000 Ry
     internal energy E=F+TS    =      -2.41910196 Ry

     The total energy is F=E-TS. E is the sum of the following terms:
     one-electron contribution =      -3.81782067 Ry
     hartree contribution      =       2.05400592 Ry
     xc contribution           =      -1.47974512 Ry
     ewald contribution        =       0.82445791 Ry
     electric field correction =       0.00000000 Ry

     total magnetization       =     0.00 Bohr mag/cell
     absolute magnetization    =     0.00 Bohr mag/cell

     convergence has been achieved in  11 iterations

     Forces acting on atoms (cartesian axes, Ry/au):

     atom    1 type  1   force =    -0.00000001   -0.00000001   -0.01383448
     atom    2 type  1   force =     0.00000001    0.00000001    0.01383448

     Total force =     0.019565     Total SCF correction =     0.000033
  @ DRIVER MODE: Message from server: STATUS
  @ DRIVER MODE: Message from server: GETFORCE
  @ DRIVER MODE: Returning v,forces,stress,ensemble 

     Writing output data file ./calc.save/
  @ DRIVER MODE: Message from server: EXIT
  @ DRIVE MODE: Exiting  
 
     init_run     :      3.97s CPU      4.04s WALL (       1 calls)
     electrons    :     19.47s CPU     20.02s WALL (       1 calls)
     forces       :      0.05s CPU      0.05s WALL (       1 calls)

     Called by init_run:
     wfcinit      :      0.19s CPU      0.19s WALL (       1 calls)
     potinit      :      3.59s CPU      3.65s WALL (       1 calls)
     hinit0       :      0.03s CPU      0.04s WALL (       1 calls)

     Called by electrons:
     c_bands      :     12.98s CPU     13.18s WALL (      11 calls)
     sum_band     :      0.99s CPU      1.01s WALL (      11 calls)
     v_of_rho     :      8.52s CPU      8.86s WALL (      12 calls)
     newd         :      0.10s CPU      0.10s WALL (      12 calls)
     mix_rho      :      0.23s CPU      0.24s WALL (      11 calls)
     vdW_kernel   :      3.06s CPU      3.07s WALL (       1 calls)

     Called by c_bands:
     init_us_2    :      0.02s CPU      0.02s WALL (     480 calls)
     cegterg      :     12.90s CPU     13.06s WALL (     240 calls)

     Called by *egterg:
     cdiaghg      :      2.28s CPU      2.31s WALL (    1429 calls)
     h_psi        :      8.50s CPU      8.62s WALL (    1469 calls)
     s_psi        :      0.02s CPU      0.02s WALL (    1469 calls)
     g_psi        :      0.04s CPU      0.04s WALL (    1209 calls)

     Called by h_psi:
     h_psi:calbec :      0.11s CPU      0.11s WALL (    1469 calls)
     vloc_psi     :      8.33s CPU      8.44s WALL (    1469 calls)
     add_vuspsi   :      0.03s CPU      0.04s WALL (    1469 calls)

     General routines
     calbec       :      0.12s CPU      0.12s WALL (    1769 calls)
     fft          :      3.30s CPU      3.34s WALL (    1065 calls)
     ffts         :      0.03s CPU      0.03s WALL (      46 calls)
     fftw         :      8.65s CPU      8.77s WALL (   26064 calls)
     interpolate  :      0.09s CPU      0.09s WALL (      24 calls)
     davcio       :      0.00s CPU      0.01s WALL (      20 calls)
 
     Parallel routines
 
     PWSCF        :     23.66s CPU     24.34s WALL

 
   This run was terminated on:  16:31:14  15Jul2021            

=------------------------------------------------------------------------------=
   JOB DONE.
=------------------------------------------------------------------------------=
