
     Program PWSCF v.6.7GPU starts on 18Oct2021 at 11:27:11 

     This program is part of the open-source Quantum ESPRESSO suite
     for quantum simulation of materials; please cite
         "P. Giannozzi et al., J. Phys.:Condens. Matter 21 395502 (2009);
         "P. Giannozzi et al., J. Phys.:Condens. Matter 29 465901 (2017);
         "P. Giannozzi et al., J. Chem. Phys. 152 154105 (2020);
          URL http://www.quantum-espresso.org", 
     in publications or presentations arising from this work. More details at
     http://www.quantum-espresso.org/quote

     Parallel version (MPI), running on     8 processors

     MPI processes distributed on     1 nodes
     R & G space division:  proc/nbgrp/npool/nimage =       8
     Reading input from /storage/home/hcoda1/3/ntian30/research/carbon/CxH_vib/Thiel_calc/ads_slab/NH3NH3_perslab/out_0000/pw.inp
Warning: card &CELL ignored
Warning: card   CELL_DYNAMICS='IPI', ignored
Warning: card / ignored

     Current dimensions of program PWSCF are:
     Max number of different atomic species (ntypx) = 10
     Max number of k-points (npk) =  40000
     Max angular momentum in pseudopotentials (lmaxx) =  3
     Presently no symmetry can be used with electric field

     Message from routine cell_base_init:
     DEPRECATED: use true lattice parameter, not A to a.u. conversion factor

     **************************************************************************
     Initializing libbeef V0.1.2 with the BEEF-vdW functional.
     Citation: Wellendorff et al., PRB 85, 235149 (2012).
     **************************************************************************


     IMPORTANT: XC functional enforced from input :
     Exchange-correlation= BEEF-VDW
                           (   1   4  43  14   2   0   0)
     Any further DFT definition will be discarded
     Please, verify this is what you really want


     Subspace diagonalization in iterative solution of the eigenvalue problem:
     one sub-group per band group will be used
     scalapack distributed-memory algorithm (size of sub-group:  2*  2 procs)

  @ DRIVER MODE: Connecting to 
 qe_1139763_3255140.sched-torque.pace.gatech.eduoeiotfyy_scratch
  using UNIX socket
  @ DRIVER MODE: Message from server: STATUS
  @ DRIVER MODE: Message from server: INIT
  @ DRIVER MODE: Receiving replica           0          -1
  @ DRIVER MODE: Receiving encoded integer          25
  @ DRIVER MODE:  SCF:  T  FORCE:  T  STRESS:  F  VC:  F  ENSEMBLE:  F
  @ DRIVER MODE:  SCF:  T  FORCE:  T  STRESS:  F  VC:  F  ENSEMBLE:  F
 
     Parallelization info
     --------------------
     sticks:   dense  smooth     PW     G-vecs:    dense   smooth      PW
     Min         614     246     69               106272    26887    3981
     Max         615     248     70               106275    26893    3990
     Sum        4915    1977    553               850181   215109   31863
 
     Using Slab Decomposition
 


     bravais-lattice index     =            0
     lattice parameter (alat)  =       1.8897  a.u.
     unit-cell volume          =    9988.4706 (a.u.)^3
     number of atoms/cell      =           61
     number of atomic types    =            4
     number of electrons       =       442.00
     number of Kohn-Sham states=          231
     kinetic-energy cutoff     =      29.3995  Ry
     charge density cutoff     =     293.9946  Ry
     scf convergence threshold =      7.3E-08
     mixing beta               =       0.0500
     number of iterations used =            8  plain     mixing
     Exchange-correlation= BEEF-VDW
                           (   1   4  43  14   2   0   0)

     celldm(1)=   1.889726  celldm(2)=   0.000000  celldm(3)=   0.000000
     celldm(4)=   0.000000  celldm(5)=   0.000000  celldm(6)=   0.000000

     crystal axes: (cart. coord. in units of alat)
               a(1) = (   6.579727   0.000000   0.000000 )  
               a(2) = (  -0.001163   8.942395   0.000000 )  
               a(3) = (   0.000000   0.000000  25.155947 )  

     reciprocal axes: (cart. coord. in units 2 pi/alat)
               b(1) = (  0.151982  0.000020  0.000000 )  
               b(2) = (  0.000000  0.111827  0.000000 )  
               b(3) = (  0.000000  0.000000  0.039752 )  


     PseudoPot. # 1 for O  read from file:
     /storage/coda1/p-amedford6/0/shared/rich_project_chbe-medford/medford-share/data/pseudos_module/espresso/nninc/pbe/van/O.UPF
     MD5 check sum: 78c19812648e8988a0fe644b0f25305e
     Pseudo is Ultrasoft, Zval =  6.0
     Generated by new atomic code, or converted to UPF format
     Using radial grid of  737 points,  4 beta functions with: 
                l(1) =   0
                l(2) =   0
                l(3) =   1
                l(4) =   1
     Q(r) pseudized with  8 coefficients,  rinner =    0.800   0.800   0.800


     PseudoPot. # 2 for Ti read from file:
     /storage/coda1/p-amedford6/0/shared/rich_project_chbe-medford/medford-share/data/pseudos_module/espresso/nninc/pbe/van/Ti.UPF
     MD5 check sum: 8e4df49b7f0d34bbd5052bf3f5ea0213
     Pseudo is Ultrasoft, Zval = 12.0
     Generated by new atomic code, or converted to UPF format
     Using radial grid of  851 points,  6 beta functions with: 
                l(1) =   0
                l(2) =   0
                l(3) =   1
                l(4) =   1
                l(5) =   2
                l(6) =   2
     Q(r) pseudized with  8 coefficients,  rinner =    1.000   1.000   1.000
                                                       1.000   1.000

     PseudoPot. # 3 for N  read from file:
     /storage/coda1/p-amedford6/0/shared/rich_project_chbe-medford/medford-share/data/pseudos_module/espresso/nninc/pbe/van/N.UPF
     MD5 check sum: 90d10febe142ad51ac9d5be1deb811c4
     Pseudo is Ultrasoft, Zval =  5.0
     Generated by new atomic code, or converted to UPF format
     Using radial grid of  729 points,  4 beta functions with: 
                l(1) =   0
                l(2) =   0
                l(3) =   1
                l(4) =   1
     Q(r) pseudized with  8 coefficients,  rinner =    0.800   0.800   0.800


     PseudoPot. # 4 for H  read from file:
     /storage/coda1/p-amedford6/0/shared/rich_project_chbe-medford/medford-share/data/pseudos_module/espresso/nninc/pbe/van/H.UPF
     MD5 check sum: b5ee9d7bfd3a09ee7748110bda690ff7
     Pseudo is Ultrasoft, Zval =  1.0
     Generated by new atomic code, or converted to UPF format
     Using radial grid of  615 points,  1 beta functions with: 
                l(1) =   0
     Q(r) pseudized with  8 coefficients,  rinner =    0.800

     atomic species   valence    mass     pseudopotential
        O1             6.00    15.99900     O ( 1.00)
        Ti1           12.00    47.86700     Ti( 1.00)
        N1             5.00    14.00700     N ( 1.00)
        H1             1.00     1.00800     H ( 1.00)

     No symmetry found



   Cartesian axes

     site n.     atom                  positions (alat units)
         1           O1  tau(   1) = (   0.0007354   0.0005023  10.5931620  )
         2           O1  tau(   2) = (   3.2905679   0.0262843  13.8966672  )
         3           O1  tau(   3) = (   0.0007290   0.0579300  17.2579193  )
         4           O1  tau(   4) = (   0.0006271   0.0005054   7.9858123  )
         5           O1  tau(   5) = (   3.2893100   8.9214726  11.1892856  )
         6           O1  tau(   6) = (   0.0005199   0.0455907  14.6396817  )
         7           O1  tau(   7) = (   1.9868534   1.4903216   9.2879459  )
         8           O1  tau(   8) = (   5.2380180   1.6024468  12.5713634  )
         9           O1  tau(   9) = (   2.0277759   1.4975965  16.1012153  )
        10           Ti1 tau(  10) = (   0.0007404   1.4906270   9.2895810  )
        11           Ti1 tau(  11) = (   3.2903786   1.3551844  12.4711573  )
        12           Ti1 tau(  12) = (   0.0003174   1.4440192  15.7330511  )
        13           O1  tau(  13) = (   4.5942328   1.4918067   9.2879030  )
        14           O1  tau(  14) = (   1.3426987   1.6023923  12.5713351  )
        15           O1  tau(  15) = (   4.5529958   1.4977110  16.1013444  )
        16           Ti1 tau(  16) = (   3.2902859   2.9801868   9.2893338  )
        17           Ti1 tau(  17) = (   0.0005333   2.8255407  12.4640987  )
        18           Ti1 tau(  18) = (   3.2895849   3.0341113  15.6952405  )
        19           O1  tau(  19) = (   0.0003479   2.9813005  10.5931620  )
        20           O1  tau(  20) = (   3.2900438   2.9627632  13.8881152  )
        21           O1  tau(  21) = (   0.0002396   2.9813036   7.9858123  )
        22           O1  tau(  22) = (   3.2902621   2.9759438  11.1922459  )
        23           O1  tau(  23) = (   0.0002943   2.9805036  14.7119039  )
        24           O1  tau(  24) = (   1.9864658   4.4711199   9.2879459  )
        25           O1  tau(  25) = (   5.2407125   4.5787950  12.5855407  )
        26           O1  tau(  26) = (   1.9842138   4.3634165  16.0604883  )
        27           Ti1 tau(  27) = (   0.0003529   4.4714252   9.2895810  )
        28           Ti1 tau(  28) = (   3.2904166   4.3402611  12.5252975  )
        29           Ti1 tau(  29) = (  -0.0003584   4.7219071  15.7914592  )
        30           O1  tau(  30) = (   4.5938453   4.4726049   9.2879030  )
        31           O1  tau(  31) = (   1.3394863   4.5787101  12.5854501  )
        32           O1  tau(  32) = (   4.5953883   4.3633133  16.0606172  )
        33           Ti1 tau(  33) = (   3.2898983   5.9609850   9.2893338  )
        34           Ti1 tau(  34) = (   0.0004309   5.8055675  12.4642027  )
        35           Ti1 tau(  35) = (   3.2895961   6.0676247  15.8182862  )
        36           O1  tau(  36) = (  -0.0000397   5.9620987  10.5931620  )
        37           O1  tau(  37) = (   3.2897974   5.9491097  13.9522666  )
        38           O1  tau(  38) = (  -0.0001005   5.9419674  17.2168411  )
        39           O1  tau(  39) = (  -0.0001480   5.9621018   7.9858123  )
        40           O1  tau(  40) = (   3.2898294   5.9516608  11.2068290  )
        41           O1  tau(  41) = (  -0.0002620   6.0093330  14.6024556  )
        42           O1  tau(  42) = (   1.9860782   7.4519181   9.2879459  )
        43           O1  tau(  43) = (   5.2335766   7.5615516  12.5803788  )
        44           O1  tau(  44) = (   2.0229086   7.4656171  16.0362607  )
        45           Ti1 tau(  45) = (  -0.0000347   7.4522234   9.2895810  )
        46           Ti1 tau(  46) = (   3.2895523   7.2794780  12.5477951  )
        47           Ti1 tau(  47) = (  -0.0001499   7.5569733  16.2601047  )
        48           O1  tau(  48) = (   4.5934577   7.4534031   9.2879030  )
        49           O1  tau(  49) = (   1.3453152   7.5613653  12.5804751  )
        50           O1  tau(  50) = (   4.5562564   7.4656138  16.0364310  )
        51           Ti1 tau(  51) = (   3.2895107   8.9417832   9.2893338  )
        52           Ti1 tau(  52) = (  -0.0004710   8.7769229  12.4586551  )
        53           Ti1 tau(  53) = (   3.2909234   0.0582169  15.6986445  )
        54           N1  tau(  54) = (   3.2892347   5.9685454  18.1810142  )
        55           H1  tau(  55) = (   3.2893406   5.0219839  18.5418895  )
        56           H1  tau(  56) = (   2.4590131   6.4368771  18.5304692  )
        57           H1  tau(  57) = (   4.1190552   6.4372901  18.5310312  )
        58           N1  tau(  58) = (  -0.0003436   2.9015831  17.9177722  )
        59           H1  tau(  59) = (   6.5794260   1.9611702  18.3102355  )
        60           H1  tau(  60) = (   5.7593157   3.3919262  18.2600543  )
        61           H1  tau(  61) = (   0.8192290   3.3923488  18.2608005  )

     number of k points=    10  Fermi-Dirac smearing, width (Ry)=  0.0073
                       cart. coord. in units 2pi/alat
        k(    1) = (   0.0000000   0.0000000   0.0000000), wk =   0.1250000
        k(    2) = (   0.0000000   0.0279567   0.0000000), wk =   0.2500000
        k(    3) = (   0.0000000  -0.0559134   0.0000000), wk =   0.1250000
        k(    4) = (   0.0379955   0.0000049   0.0000000), wk =   0.2500000
        k(    5) = (   0.0379955   0.0279617   0.0000000), wk =   0.2500000
        k(    6) = (   0.0379955  -0.0559085   0.0000000), wk =   0.2500000
        k(    7) = (   0.0379955  -0.0279518   0.0000000), wk =   0.2500000
        k(    8) = (  -0.0759910  -0.0000099   0.0000000), wk =   0.1250000
        k(    9) = (  -0.0759910   0.0279468   0.0000000), wk =   0.2500000
        k(   10) = (  -0.0759910  -0.0559233   0.0000000), wk =   0.1250000

     Dense  grid:   850181 G-vectors     FFT dimensions: (  72,  96, 270)

     Smooth grid:   215109 G-vectors     FFT dimensions: (  45,  60, 180)

     Estimated max dynamical RAM per process >     706.97 MB

     Estimated total dynamical RAM >       5.52 GB

     Initial potential from superposition of free atoms

     starting charge  423.99908, renormalised to  442.00000

     negative rho (up, down):  3.646E-02 0.000E+00


     %%%%%%%%%%%%%%%%%%%%%%%%%%%%%%%%%%%%%%%%%%%%%%%%%%%%%%%%%%%%%%%%%%%%%%%%
     %                                                                      %
     % You are using vdW-DF, which was implemented by the Thonhauser group. %
     % Please cite the following two papers that made this development      %
     % possible and the two reviews that describe the various versions:     %
     %                                                                      %
     %   T. Thonhauser et al., PRL 115, 136402 (2015).                      %
     %   T. Thonhauser et al., PRB 76, 125112 (2007).                       %
     %   K. Berland et al., Rep. Prog. Phys. 78, 066501 (2015).             %
     %   D.C. Langreth et al., J. Phys.: Condens. Matter 21, 084203 (2009). %
     %                                                                      %
     %                                                                      %
     % If you are calculating the stress with vdW-DF, please also cite:     %
     %                                                                      %
     %   R. Sabatini et al., J. Phys.: Condens. Matter 24, 424209 (2012).   %
     %                                                                      %
     %%%%%%%%%%%%%%%%%%%%%%%%%%%%%%%%%%%%%%%%%%%%%%%%%%%%%%%%%%%%%%%%%%%%%%%%


 
     Adding external electric field

     Computed dipole along edir(3) : 
        Dipole               -6.4271 Ry au,        -16.3360 Debye
        Dipole field         -0.0081 Ry au, 
 
        Potential amp.        0.7495 Ry
        Total length         46.3494 bohr
 
     Starting wfcs are  334 atomic wfcs
  @ DRIVER MODE: Message from server: STATUS
  @ DRIVER MODE: Message from server: POSDATA
  @ DRIVER MODE: Reading and sharing cell 
  @ DRIVER MODE: Reading and sharing positions 
  @ DRIVER MODE: Received positions 

     total cpu time spent up to now is       18.7 secs

     Self-consistent Calculation

     iteration #  1     ecut=    29.40 Ry     beta= 0.05
     Davidson diagonalization with overlap
     ethr =  1.00E-02,  avg # of iterations =  2.2

     negative rho (up, down):  3.612E-02 0.000E+00
 
     Adding external electric field

     Computed dipole along edir(3) : 
        Dipole                7.0264 Ry au,         17.8592 Debye
        Dipole field          0.0088 Ry au, 
 
        Potential amp.       -0.8194 Ry
        Total length         46.3494 bohr
 

     total cpu time spent up to now is       41.8 secs

     total energy              =   -3273.11097738 Ry
     estimated scf accuracy    <     288.08155973 Ry

     iteration #  2     ecut=    29.40 Ry     beta= 0.05
     Davidson diagonalization with overlap
     c_bands:  1 eigenvalues not converged
     ethr =  1.00E-02,  avg # of iterations = 16.5

     negative rho (up, down):  3.475E-02 0.000E+00
 
     Adding external electric field

     Computed dipole along edir(3) : 
        Dipole               -2.1119 Ry au,         -5.3680 Debye
        Dipole field         -0.0027 Ry au, 
 
        Potential amp.        0.2463 Ry
        Total length         46.3494 bohr
 

     total cpu time spent up to now is       89.9 secs

     total energy              =   -3266.17904595 Ry
     estimated scf accuracy    <    1618.86291443 Ry

     iteration #  3     ecut=    29.40 Ry     beta= 0.05
     Davidson diagonalization with overlap
     ethr =  1.00E-02,  avg # of iterations = 12.6

     negative rho (up, down):  3.438E-02 0.000E+00
 
     Adding external electric field

     Computed dipole along edir(3) : 
        Dipole               -1.9916 Ry au,         -5.0622 Debye
        Dipole field         -0.0025 Ry au, 
 
        Potential amp.        0.2323 Ry
        Total length         46.3494 bohr
 

     total cpu time spent up to now is      124.8 secs

     total energy              =   -3297.53402934 Ry
     estimated scf accuracy    <      11.89311280 Ry

     iteration #  4     ecut=    29.40 Ry     beta= 0.05
     Davidson diagonalization with overlap
     ethr =  2.69E-03,  avg # of iterations =  2.8

     negative rho (up, down):  3.514E-02 0.000E+00
 
     Adding external electric field

     Computed dipole along edir(3) : 
        Dipole               -0.7866 Ry au,         -1.9993 Debye
        Dipole field         -0.0010 Ry au, 
 
        Potential amp.        0.0917 Ry
        Total length         46.3494 bohr
 

     total cpu time spent up to now is      147.6 secs

     total energy              =   -3293.92619951 Ry
     estimated scf accuracy    <      10.44918869 Ry

     iteration #  5     ecut=    29.40 Ry     beta= 0.05
     Davidson diagonalization with overlap
     c_bands:  1 eigenvalues not converged
     ethr =  2.36E-03,  avg # of iterations = 13.7

     negative rho (up, down):  3.466E-02 0.000E+00
 
     Adding external electric field

     Computed dipole along edir(3) : 
        Dipole               -0.5752 Ry au,         -1.4620 Debye
        Dipole field         -0.0007 Ry au, 
 
        Potential amp.        0.0671 Ry
        Total length         46.3494 bohr
 

     total cpu time spent up to now is      184.0 secs

     total energy              =   -3295.67005000 Ry
     estimated scf accuracy    <       3.72545931 Ry

     iteration #  6     ecut=    29.40 Ry     beta= 0.05
     Davidson diagonalization with overlap
     ethr =  8.43E-04,  avg # of iterations =  3.6

     negative rho (up, down):  3.408E-02 0.000E+00
 
     Adding external electric field

     Computed dipole along edir(3) : 
        Dipole               -0.1640 Ry au,         -0.4168 Debye
        Dipole field         -0.0002 Ry au, 
 
        Potential amp.        0.0191 Ry
        Total length         46.3494 bohr
 

     total cpu time spent up to now is      207.6 secs

     total energy              =   -3295.70144397 Ry
     estimated scf accuracy    <       2.89214681 Ry

     iteration #  7     ecut=    29.40 Ry     beta= 0.05
     Davidson diagonalization with overlap
     ethr =  6.54E-04,  avg # of iterations = 10.8

     negative rho (up, down):  3.444E-02 0.000E+00
 
     Adding external electric field

     Computed dipole along edir(3) : 
        Dipole                0.3689 Ry au,          0.9377 Debye
        Dipole field          0.0005 Ry au, 
 
        Potential amp.       -0.0430 Ry
        Total length         46.3494 bohr
 

     total cpu time spent up to now is      234.5 secs

     total energy              =   -3295.65743500 Ry
     estimated scf accuracy    <       1.20735297 Ry

     iteration #  8     ecut=    29.40 Ry     beta= 0.05
     Davidson diagonalization with overlap
     c_bands:  1 eigenvalues not converged
     ethr =  2.73E-04,  avg # of iterations = 11.4

     negative rho (up, down):  3.460E-02 0.000E+00
 
     Adding external electric field

     Computed dipole along edir(3) : 
        Dipole                0.5282 Ry au,          1.3427 Debye
        Dipole field          0.0007 Ry au, 
 
        Potential amp.       -0.0616 Ry
        Total length         46.3494 bohr
 

     total cpu time spent up to now is      272.2 secs

     total energy              =   -3296.12369344 Ry
     estimated scf accuracy    <       1.32462430 Ry

     iteration #  9     ecut=    29.40 Ry     beta= 0.05
     Davidson diagonalization with overlap
     c_bands:  1 eigenvalues not converged
     c_bands:  1 eigenvalues not converged
     ethr =  2.73E-04,  avg # of iterations = 13.3

     negative rho (up, down):  3.480E-02 0.000E+00
 
     Adding external electric field

     Computed dipole along edir(3) : 
        Dipole                0.9040 Ry au,          2.2976 Debye
        Dipole field          0.0011 Ry au, 
 
        Potential amp.       -0.1054 Ry
        Total length         46.3494 bohr
 

     total cpu time spent up to now is      300.9 secs

     total energy              =   -3295.84717192 Ry
     estimated scf accuracy    <       3.23201585 Ry

     iteration # 10     ecut=    29.40 Ry     beta= 0.05
     Davidson diagonalization with overlap
     ethr =  2.73E-04,  avg # of iterations =  5.0

     negative rho (up, down):  3.607E-02 0.000E+00
 
     Adding external electric field

     Computed dipole along edir(3) : 
        Dipole                2.0054 Ry au,          5.0971 Debye
        Dipole field          0.0025 Ry au, 
 
        Potential amp.       -0.2339 Ry
        Total length         46.3494 bohr
 

     total cpu time spent up to now is      325.2 secs

     total energy              =   -3295.65350970 Ry
     estimated scf accuracy    <       1.99834257 Ry

     iteration # 11     ecut=    29.40 Ry     beta= 0.05
     Davidson diagonalization with overlap
     c_bands:  3 eigenvalues not converged
     c_bands:  2 eigenvalues not converged
     ethr =  2.73E-04,  avg # of iterations = 13.8

     negative rho (up, down):  3.508E-02 0.000E+00
 
     Adding external electric field

     Computed dipole along edir(3) : 
        Dipole                1.7503 Ry au,          4.4488 Debye
        Dipole field          0.0022 Ry au, 
 
        Potential amp.       -0.2041 Ry
        Total length         46.3494 bohr
 

     total cpu time spent up to now is      365.7 secs

     total energy              =   -3296.06857209 Ry
     estimated scf accuracy    <       1.54620648 Ry

     iteration # 12     ecut=    29.40 Ry     beta= 0.05
     Davidson diagonalization with overlap
     ethr =  2.73E-04,  avg # of iterations =  4.4

     negative rho (up, down):  3.473E-02 0.000E+00
 
     Adding external electric field

     Computed dipole along edir(3) : 
        Dipole                1.7131 Ry au,          4.3544 Debye
        Dipole field          0.0022 Ry au, 
 
        Potential amp.       -0.1998 Ry
        Total length         46.3494 bohr
 

     total cpu time spent up to now is      388.3 secs

     total energy              =   -3296.01925269 Ry
     estimated scf accuracy    <       1.26225128 Ry

     iteration # 13     ecut=    29.40 Ry     beta= 0.05
     Davidson diagonalization with overlap
     ethr =  2.73E-04,  avg # of iterations =  1.0

     negative rho (up, down):  3.441E-02 0.000E+00
 
     Adding external electric field

     Computed dipole along edir(3) : 
        Dipole                1.7513 Ry au,          4.4514 Debye
        Dipole field          0.0022 Ry au, 
 
        Potential amp.       -0.2042 Ry
        Total length         46.3494 bohr
 

     total cpu time spent up to now is      408.9 secs

     total energy              =   -3295.99896984 Ry
     estimated scf accuracy    <       1.07095667 Ry

     iteration # 14     ecut=    29.40 Ry     beta= 0.05
     Davidson diagonalization with overlap
     ethr =  2.42E-04,  avg # of iterations =  2.1

     negative rho (up, down):  3.482E-02 0.000E+00
 
     Adding external electric field

     Computed dipole along edir(3) : 
        Dipole                1.9042 Ry au,          4.8400 Debye
        Dipole field          0.0024 Ry au, 
 
        Potential amp.       -0.2221 Ry
        Total length         46.3494 bohr
 

     total cpu time spent up to now is      430.0 secs

     total energy              =   -3295.95815136 Ry
     estimated scf accuracy    <       1.00388377 Ry

     iteration # 15     ecut=    29.40 Ry     beta= 0.05
     Davidson diagonalization with overlap
     ethr =  2.27E-04,  avg # of iterations =  1.2

     negative rho (up, down):  3.568E-02 0.000E+00
 
     Adding external electric field

     Computed dipole along edir(3) : 
        Dipole                1.5753 Ry au,          4.0039 Debye
        Dipole field          0.0020 Ry au, 
 
        Potential amp.       -0.1837 Ry
        Total length         46.3494 bohr
 

     total cpu time spent up to now is      450.7 secs

     total energy              =   -3295.68788331 Ry
     estimated scf accuracy    <       0.77984476 Ry

     iteration # 16     ecut=    29.40 Ry     beta= 0.05
     Davidson diagonalization with overlap
     ethr =  1.76E-04,  avg # of iterations =  9.6

     negative rho (up, down):  3.531E-02 0.000E+00
 
     Adding external electric field

     Computed dipole along edir(3) : 
        Dipole                1.5528 Ry au,          3.9468 Debye
        Dipole field          0.0020 Ry au, 
 
        Potential amp.       -0.1811 Ry
        Total length         46.3494 bohr
 

     total cpu time spent up to now is      490.4 secs

     total energy              =   -3296.04113593 Ry
     estimated scf accuracy    <       0.83167209 Ry

     iteration # 17     ecut=    29.40 Ry     beta= 0.05
     Davidson diagonalization with overlap
     ethr =  1.76E-04,  avg # of iterations =  2.3

     negative rho (up, down):  3.518E-02 0.000E+00
 
     Adding external electric field

     Computed dipole along edir(3) : 
        Dipole                1.8061 Ry au,          4.5905 Debye
        Dipole field          0.0023 Ry au, 
 
        Potential amp.       -0.2106 Ry
        Total length         46.3494 bohr
 

     total cpu time spent up to now is      512.0 secs

     total energy              =   -3295.91255012 Ry
     estimated scf accuracy    <       0.86259976 Ry

     iteration # 18     ecut=    29.40 Ry     beta= 0.05
     Davidson diagonalization with overlap
     ethr =  1.76E-04,  avg # of iterations =  1.3

     negative rho (up, down):  3.499E-02 0.000E+00
 
     Adding external electric field

     Computed dipole along edir(3) : 
        Dipole                2.1189 Ry au,          5.3858 Debye
        Dipole field          0.0027 Ry au, 
 
        Potential amp.       -0.2471 Ry
        Total length         46.3494 bohr
 

     total cpu time spent up to now is      532.9 secs

     total energy              =   -3295.77605626 Ry
     estimated scf accuracy    <       0.44891837 Ry

     iteration # 19     ecut=    29.40 Ry     beta= 0.05
     Davidson diagonalization with overlap
     c_bands:  1 eigenvalues not converged
     c_bands:  3 eigenvalues not converged
     ethr =  1.02E-04,  avg # of iterations = 12.5

     negative rho (up, down):  3.453E-02 0.000E+00
 
     Adding external electric field

     Computed dipole along edir(3) : 
        Dipole                1.6980 Ry au,          4.3158 Debye
        Dipole field          0.0021 Ry au, 
 
        Potential amp.       -0.1980 Ry
        Total length         46.3494 bohr
 

     total cpu time spent up to now is      571.9 secs

     total energy              =   -3295.87261216 Ry
     estimated scf accuracy    <       0.47813327 Ry

     iteration # 20     ecut=    29.40 Ry     beta= 0.05
     Davidson diagonalization with overlap
     ethr =  1.02E-04,  avg # of iterations =  3.8

     negative rho (up, down):  3.480E-02 0.000E+00
 
     Adding external electric field

     Computed dipole along edir(3) : 
        Dipole                2.0664 Ry au,          5.2522 Debye
        Dipole field          0.0026 Ry au, 
 
        Potential amp.       -0.2410 Ry
        Total length         46.3494 bohr
 

     total cpu time spent up to now is      595.4 secs

     total energy              =   -3295.89736786 Ry
     estimated scf accuracy    <       0.16887464 Ry

     iteration # 21     ecut=    29.40 Ry     beta= 0.05
     Davidson diagonalization with overlap
     c_bands:  1 eigenvalues not converged
     c_bands:  1 eigenvalues not converged
     c_bands:  2 eigenvalues not converged
     c_bands:  2 eigenvalues not converged
     c_bands:  4 eigenvalues not converged
     c_bands:  2 eigenvalues not converged
     ethr =  3.82E-05,  avg # of iterations = 16.2

     negative rho (up, down):  3.487E-02 0.000E+00
 
     Adding external electric field

     Computed dipole along edir(3) : 
        Dipole                1.9286 Ry au,          4.9019 Debye
        Dipole field          0.0024 Ry au, 
 
        Potential amp.       -0.2249 Ry
        Total length         46.3494 bohr
 

     total cpu time spent up to now is      627.3 secs

     total energy              =   -3295.90260547 Ry
     estimated scf accuracy    <       0.27350761 Ry

     iteration # 22     ecut=    29.40 Ry     beta= 0.05
     Davidson diagonalization with overlap
     ethr =  3.82E-05,  avg # of iterations =  9.2

     negative rho (up, down):  3.466E-02 0.000E+00
 
     Adding external electric field

     Computed dipole along edir(3) : 
        Dipole                1.8503 Ry au,          4.7029 Debye
        Dipole field          0.0023 Ry au, 
 
        Potential amp.       -0.2158 Ry
        Total length         46.3494 bohr
 

     total cpu time spent up to now is      653.8 secs

     total energy              =   -3295.91475721 Ry
     estimated scf accuracy    <       0.06486601 Ry

     iteration # 23     ecut=    29.40 Ry     beta= 0.05
     Davidson diagonalization with overlap
     c_bands:  2 eigenvalues not converged
     c_bands:  1 eigenvalues not converged
     ethr =  1.47E-05,  avg # of iterations = 14.8

     negative rho (up, down):  3.464E-02 0.000E+00
 
     Adding external electric field

     Computed dipole along edir(3) : 
        Dipole                1.8455 Ry au,          4.6908 Debye
        Dipole field          0.0023 Ry au, 
 
        Potential amp.       -0.2152 Ry
        Total length         46.3494 bohr
 

     total cpu time spent up to now is      690.9 secs

     total energy              =   -3295.92506698 Ry
     estimated scf accuracy    <       0.09678078 Ry

     iteration # 24     ecut=    29.40 Ry     beta= 0.05
     Davidson diagonalization with overlap
     ethr =  1.47E-05,  avg # of iterations =  5.1

     negative rho (up, down):  3.455E-02 0.000E+00
 
     Adding external electric field

     Computed dipole along edir(3) : 
        Dipole                1.8447 Ry au,          4.6887 Debye
        Dipole field          0.0023 Ry au, 
 
        Potential amp.       -0.2151 Ry
        Total length         46.3494 bohr
 

     total cpu time spent up to now is      714.5 secs

     total energy              =   -3295.92606289 Ry
     estimated scf accuracy    <       0.11418250 Ry

     iteration # 25     ecut=    29.40 Ry     beta= 0.05
     Davidson diagonalization with overlap
     ethr =  1.47E-05,  avg # of iterations =  1.1

     negative rho (up, down):  3.466E-02 0.000E+00
 
     Adding external electric field

     Computed dipole along edir(3) : 
        Dipole                1.7951 Ry au,          4.5627 Debye
        Dipole field          0.0023 Ry au, 
 
        Potential amp.       -0.2093 Ry
        Total length         46.3494 bohr
 

     total cpu time spent up to now is      735.1 secs

     total energy              =   -3295.90157764 Ry
     estimated scf accuracy    <       0.11348296 Ry

     iteration # 26     ecut=    29.40 Ry     beta= 0.05
     Davidson diagonalization with overlap
     ethr =  1.47E-05,  avg # of iterations =  6.0

     negative rho (up, down):  3.509E-02 0.000E+00
 
     Adding external electric field

     Computed dipole along edir(3) : 
        Dipole                1.8645 Ry au,          4.7391 Debye
        Dipole field          0.0023 Ry au, 
 
        Potential amp.       -0.2174 Ry
        Total length         46.3494 bohr
 

     total cpu time spent up to now is      760.8 secs

     total energy              =   -3295.90641382 Ry
     estimated scf accuracy    <       0.03394332 Ry

     iteration # 27     ecut=    29.40 Ry     beta= 0.05
     Davidson diagonalization with overlap
     ethr =  7.68E-06,  avg # of iterations = 10.0

     negative rho (up, down):  3.510E-02 0.000E+00
 
     Adding external electric field

     Computed dipole along edir(3) : 
        Dipole                1.8990 Ry au,          4.8267 Debye
        Dipole field          0.0024 Ry au, 
 
        Potential amp.       -0.2215 Ry
        Total length         46.3494 bohr
 

     total cpu time spent up to now is      792.9 secs

     total energy              =   -3295.91136908 Ry
     estimated scf accuracy    <       0.01599041 Ry

     iteration # 28     ecut=    29.40 Ry     beta= 0.05
     Davidson diagonalization with overlap
     ethr =  3.62E-06,  avg # of iterations =  3.9

     negative rho (up, down):  3.501E-02 0.000E+00
 
     Adding external electric field

     Computed dipole along edir(3) : 
        Dipole                1.9267 Ry au,          4.8973 Debye
        Dipole field          0.0024 Ry au, 
 
        Potential amp.       -0.2247 Ry
        Total length         46.3494 bohr
 

     total cpu time spent up to now is      816.2 secs

     total energy              =   -3295.91081569 Ry
     estimated scf accuracy    <       0.01312209 Ry

     iteration # 29     ecut=    29.40 Ry     beta= 0.05
     Davidson diagonalization with overlap
     ethr =  2.97E-06,  avg # of iterations =  9.6

     negative rho (up, down):  3.483E-02 0.000E+00
 
     Adding external electric field

     Computed dipole along edir(3) : 
        Dipole                1.9059 Ry au,          4.8442 Debye
        Dipole field          0.0024 Ry au, 
 
        Potential amp.       -0.2223 Ry
        Total length         46.3494 bohr
 

     total cpu time spent up to now is      843.8 secs

     total energy              =   -3295.91113044 Ry
     estimated scf accuracy    <       0.00383648 Ry

     iteration # 30     ecut=    29.40 Ry     beta= 0.05
     Davidson diagonalization with overlap
     ethr =  8.68E-07,  avg # of iterations = 10.9

     negative rho (up, down):  3.476E-02 0.000E+00
 
     Adding external electric field

     Computed dipole along edir(3) : 
        Dipole                1.8704 Ry au,          4.7541 Debye
        Dipole field          0.0024 Ry au, 
 
        Potential amp.       -0.2181 Ry
        Total length         46.3494 bohr
 

     total cpu time spent up to now is      878.4 secs

     total energy              =   -3295.91174174 Ry
     estimated scf accuracy    <       0.00265754 Ry

     iteration # 31     ecut=    29.40 Ry     beta= 0.05
     Davidson diagonalization with overlap
     ethr =  6.01E-07,  avg # of iterations =  9.5

     negative rho (up, down):  3.475E-02 0.000E+00
 
     Adding external electric field

     Computed dipole along edir(3) : 
        Dipole                1.8720 Ry au,          4.7583 Debye
        Dipole field          0.0024 Ry au, 
 
        Potential amp.       -0.2183 Ry
        Total length         46.3494 bohr
 

     total cpu time spent up to now is      911.9 secs

     total energy              =   -3295.91109642 Ry
     estimated scf accuracy    <       0.00486583 Ry

     iteration # 32     ecut=    29.40 Ry     beta= 0.05
     Davidson diagonalization with overlap
     ethr =  6.01E-07,  avg # of iterations =  7.3

     negative rho (up, down):  3.480E-02 0.000E+00
 
     Adding external electric field

     Computed dipole along edir(3) : 
        Dipole                1.8701 Ry au,          4.7534 Debye
        Dipole field          0.0024 Ry au, 
 
        Potential amp.       -0.2181 Ry
        Total length         46.3494 bohr
 

     total cpu time spent up to now is      945.1 secs

     total energy              =   -3295.91206347 Ry
     estimated scf accuracy    <       0.00083479 Ry

     iteration # 33     ecut=    29.40 Ry     beta= 0.05
     Davidson diagonalization with overlap
     ethr =  1.89E-07,  avg # of iterations =  8.0

     negative rho (up, down):  3.484E-02 0.000E+00
 
     Adding external electric field

     Computed dipole along edir(3) : 
        Dipole                1.8709 Ry au,          4.7552 Debye
        Dipole field          0.0024 Ry au, 
 
        Potential amp.       -0.2182 Ry
        Total length         46.3494 bohr
 

     total cpu time spent up to now is      975.0 secs

     total energy              =   -3295.91196096 Ry
     estimated scf accuracy    <       0.00132502 Ry

     iteration # 34     ecut=    29.40 Ry     beta= 0.05
     Davidson diagonalization with overlap
     ethr =  1.89E-07,  avg # of iterations =  8.7

     negative rho (up, down):  3.482E-02 0.000E+00
 
     Adding external electric field

     Computed dipole along edir(3) : 
        Dipole                1.8699 Ry au,          4.7528 Debye
        Dipole field          0.0024 Ry au, 
 
        Potential amp.       -0.2181 Ry
        Total length         46.3494 bohr
 

     total cpu time spent up to now is     1010.6 secs

     total energy              =   -3295.91229724 Ry
     estimated scf accuracy    <       0.00052971 Ry

     iteration # 35     ecut=    29.40 Ry     beta= 0.05
     Davidson diagonalization with overlap
     ethr =  1.20E-07,  avg # of iterations =  2.3

     negative rho (up, down):  3.481E-02 0.000E+00
 
     Adding external electric field

     Computed dipole along edir(3) : 
        Dipole                1.8669 Ry au,          4.7451 Debye
        Dipole field          0.0023 Ry au, 
 
        Potential amp.       -0.2177 Ry
        Total length         46.3494 bohr
 

     total cpu time spent up to now is     1032.6 secs

     total energy              =   -3295.91228767 Ry
     estimated scf accuracy    <       0.00028850 Ry

     iteration # 36     ecut=    29.40 Ry     beta= 0.05
     Davidson diagonalization with overlap
     ethr =  6.53E-08,  avg # of iterations = 10.8

     negative rho (up, down):  3.475E-02 0.000E+00
 
     Adding external electric field

     Computed dipole along edir(3) : 
        Dipole                1.8649 Ry au,          4.7400 Debye
        Dipole field          0.0023 Ry au, 
 
        Potential amp.       -0.2175 Ry
        Total length         46.3494 bohr
 

     total cpu time spent up to now is     1078.0 secs

     total energy              =   -3295.91238109 Ry
     estimated scf accuracy    <       0.00124960 Ry

     iteration # 37     ecut=    29.40 Ry     beta= 0.05
     Davidson diagonalization with overlap
     ethr =  6.53E-08,  avg # of iterations =  5.3

     negative rho (up, down):  3.471E-02 0.000E+00
 
     Adding external electric field

     Computed dipole along edir(3) : 
        Dipole                1.8632 Ry au,          4.7359 Debye
        Dipole field          0.0023 Ry au, 
 
        Potential amp.       -0.2173 Ry
        Total length         46.3494 bohr
 

     total cpu time spent up to now is     1105.1 secs

     total energy              =   -3295.91246003 Ry
     estimated scf accuracy    <       0.00031879 Ry

     iteration # 38     ecut=    29.40 Ry     beta= 0.05
     Davidson diagonalization with overlap
     ethr =  6.53E-08,  avg # of iterations =  1.3

     negative rho (up, down):  3.468E-02 0.000E+00
 
     Adding external electric field

     Computed dipole along edir(3) : 
        Dipole                1.8637 Ry au,          4.7370 Debye
        Dipole field          0.0023 Ry au, 
 
        Potential amp.       -0.2173 Ry
        Total length         46.3494 bohr
 

     total cpu time spent up to now is     1126.0 secs

     total energy              =   -3295.91251919 Ry
     estimated scf accuracy    <       0.00023882 Ry

     iteration # 39     ecut=    29.40 Ry     beta= 0.05
     Davidson diagonalization with overlap
     ethr =  5.40E-08,  avg # of iterations =  1.9

     negative rho (up, down):  3.467E-02 0.000E+00
 
     Adding external electric field

     Computed dipole along edir(3) : 
        Dipole                1.8657 Ry au,          4.7422 Debye
        Dipole field          0.0023 Ry au, 
 
        Potential amp.       -0.2176 Ry
        Total length         46.3494 bohr
 

     total cpu time spent up to now is     1148.1 secs

     total energy              =   -3295.91255427 Ry
     estimated scf accuracy    <       0.00024521 Ry

     iteration # 40     ecut=    29.40 Ry     beta= 0.05
     Davidson diagonalization with overlap
     ethr =  5.40E-08,  avg # of iterations =  1.6

     negative rho (up, down):  3.467E-02 0.000E+00
 
     Adding external electric field

     Computed dipole along edir(3) : 
        Dipole                1.8700 Ry au,          4.7530 Debye
        Dipole field          0.0024 Ry au, 
 
        Potential amp.       -0.2181 Ry
        Total length         46.3494 bohr
 

     total cpu time spent up to now is     1169.5 secs

     total energy              =   -3295.91255999 Ry
     estimated scf accuracy    <       0.00018600 Ry

     iteration # 41     ecut=    29.40 Ry     beta= 0.05
     Davidson diagonalization with overlap
     ethr =  4.21E-08,  avg # of iterations =  6.8

     negative rho (up, down):  3.464E-02 0.000E+00
 
     Adding external electric field

     Computed dipole along edir(3) : 
        Dipole                1.8702 Ry au,          4.7536 Debye
        Dipole field          0.0024 Ry au, 
 
        Potential amp.       -0.2181 Ry
        Total length         46.3494 bohr
 

     total cpu time spent up to now is     1199.2 secs

     total energy              =   -3295.91261649 Ry
     estimated scf accuracy    <       0.00003944 Ry

     iteration # 42     ecut=    29.40 Ry     beta= 0.05
     Davidson diagonalization with overlap
     ethr =  8.92E-09,  avg # of iterations =  8.3

     negative rho (up, down):  3.463E-02 0.000E+00
 
     Adding external electric field

     Computed dipole along edir(3) : 
        Dipole                1.8712 Ry au,          4.7562 Debye
        Dipole field          0.0024 Ry au, 
 
        Potential amp.       -0.2182 Ry
        Total length         46.3494 bohr
 

     total cpu time spent up to now is     1226.6 secs

     total energy              =   -3295.91265247 Ry
     estimated scf accuracy    <       0.00003977 Ry

     iteration # 43     ecut=    29.40 Ry     beta= 0.05
     Davidson diagonalization with overlap
     ethr =  8.92E-09,  avg # of iterations =  6.2

     negative rho (up, down):  3.460E-02 0.000E+00
 
     Adding external electric field

     Computed dipole along edir(3) : 
        Dipole                1.8720 Ry au,          4.7582 Debye
        Dipole field          0.0024 Ry au, 
 
        Potential amp.       -0.2183 Ry
        Total length         46.3494 bohr
 

     total cpu time spent up to now is     1260.5 secs

     total energy              =   -3295.91268008 Ry
     estimated scf accuracy    <       0.00011791 Ry

     iteration # 44     ecut=    29.40 Ry     beta= 0.05
     Davidson diagonalization with overlap
     ethr =  8.92E-09,  avg # of iterations =  1.9

     negative rho (up, down):  3.459E-02 0.000E+00
 
     Adding external electric field

     Computed dipole along edir(3) : 
        Dipole                1.8710 Ry au,          4.7556 Debye
        Dipole field          0.0024 Ry au, 
 
        Potential amp.       -0.2182 Ry
        Total length         46.3494 bohr
 

     total cpu time spent up to now is     1282.1 secs

     total energy              =   -3295.91270238 Ry
     estimated scf accuracy    <       0.00012816 Ry

     iteration # 45     ecut=    29.40 Ry     beta= 0.05
     Davidson diagonalization with overlap
     ethr =  8.92E-09,  avg # of iterations =  2.0

     negative rho (up, down):  3.459E-02 0.000E+00
 
     Adding external electric field

     Computed dipole along edir(3) : 
        Dipole                1.8675 Ry au,          4.7467 Debye
        Dipole field          0.0023 Ry au, 
 
        Potential amp.       -0.2178 Ry
        Total length         46.3494 bohr
 

     total cpu time spent up to now is     1304.3 secs

     total energy              =   -3295.91270377 Ry
     estimated scf accuracy    <       0.00012975 Ry

     iteration # 46     ecut=    29.40 Ry     beta= 0.05
     Davidson diagonalization with overlap
     ethr =  8.92E-09,  avg # of iterations =  7.7

     negative rho (up, down):  3.458E-02 0.000E+00
 
     Adding external electric field

     Computed dipole along edir(3) : 
        Dipole                1.8707 Ry au,          4.7550 Debye
        Dipole field          0.0024 Ry au, 
 
        Potential amp.       -0.2182 Ry
        Total length         46.3494 bohr
 

     total cpu time spent up to now is     1334.8 secs

     total energy              =   -3295.91270457 Ry
     estimated scf accuracy    <       0.00010115 Ry

     iteration # 47     ecut=    29.40 Ry     beta= 0.05
     Davidson diagonalization with overlap
     ethr =  8.92E-09,  avg # of iterations =  8.2

     negative rho (up, down):  3.458E-02 0.000E+00
 
     Adding external electric field

     Computed dipole along edir(3) : 
        Dipole                1.8692 Ry au,          4.7509 Debye
        Dipole field          0.0024 Ry au, 
 
        Potential amp.       -0.2180 Ry
        Total length         46.3494 bohr
 

     total cpu time spent up to now is     1369.1 secs

     total energy              =   -3295.91273341 Ry
     estimated scf accuracy    <       0.00001466 Ry

     iteration # 48     ecut=    29.40 Ry     beta= 0.05
     Davidson diagonalization with overlap
     ethr =  3.32E-09,  avg # of iterations =  7.2

     negative rho (up, down):  3.458E-02 0.000E+00
 
     Adding external electric field

     Computed dipole along edir(3) : 
        Dipole                1.8684 Ry au,          4.7490 Debye
        Dipole field          0.0024 Ry au, 
 
        Potential amp.       -0.2179 Ry
        Total length         46.3494 bohr
 

     total cpu time spent up to now is     1400.1 secs

     total energy              =   -3295.91274919 Ry
     estimated scf accuracy    <       0.00000684 Ry

     iteration # 49     ecut=    29.40 Ry     beta= 0.05
     Davidson diagonalization with overlap
     ethr =  1.55E-09,  avg # of iterations =  6.5

     negative rho (up, down):  3.458E-02 0.000E+00
 
     Adding external electric field

     Computed dipole along edir(3) : 
        Dipole                1.8695 Ry au,          4.7519 Debye
        Dipole field          0.0024 Ry au, 
 
        Potential amp.       -0.2180 Ry
        Total length         46.3494 bohr
 

     total cpu time spent up to now is     1425.3 secs

     total energy              =   -3295.91276210 Ry
     estimated scf accuracy    <       0.00000424 Ry

     iteration # 50     ecut=    29.40 Ry     beta= 0.05
     Davidson diagonalization with overlap
     ethr =  9.60E-10,  avg # of iterations =  8.0

     negative rho (up, down):  3.458E-02 0.000E+00
 
     Adding external electric field

     Computed dipole along edir(3) : 
        Dipole                1.8693 Ry au,          4.7512 Debye
        Dipole field          0.0024 Ry au, 
 
        Potential amp.       -0.2180 Ry
        Total length         46.3494 bohr
 

     total cpu time spent up to now is     1468.2 secs

     total energy              =   -3295.91277358 Ry
     estimated scf accuracy    <       0.00001612 Ry

     iteration # 51     ecut=    29.40 Ry     beta= 0.05
     Davidson diagonalization with overlap
     ethr =  9.60E-10,  avg # of iterations =  4.6

     negative rho (up, down):  3.458E-02 0.000E+00
 
     Adding external electric field

     Computed dipole along edir(3) : 
        Dipole                1.8692 Ry au,          4.7509 Debye
        Dipole field          0.0024 Ry au, 
 
        Potential amp.       -0.2180 Ry
        Total length         46.3494 bohr
 

     total cpu time spent up to now is     1496.0 secs

     total energy              =   -3295.91278348 Ry
     estimated scf accuracy    <       0.00000529 Ry

     iteration # 52     ecut=    29.40 Ry     beta= 0.05
     Davidson diagonalization with overlap
     ethr =  9.60E-10,  avg # of iterations =  3.2

     negative rho (up, down):  3.458E-02 0.000E+00
 
     Adding external electric field

     Computed dipole along edir(3) : 
        Dipole                1.8690 Ry au,          4.7505 Debye
        Dipole field          0.0024 Ry au, 
 
        Potential amp.       -0.2180 Ry
        Total length         46.3494 bohr
 

     total cpu time spent up to now is     1520.0 secs

     total energy              =   -3295.91279228 Ry
     estimated scf accuracy    <       0.00000286 Ry

     iteration # 53     ecut=    29.40 Ry     beta= 0.05
     Davidson diagonalization with overlap
     ethr =  6.47E-10,  avg # of iterations =  7.1

     negative rho (up, down):  3.458E-02 0.000E+00
 
     Adding external electric field

     Computed dipole along edir(3) : 
        Dipole                1.8693 Ry au,          4.7513 Debye
        Dipole field          0.0024 Ry au, 
 
        Potential amp.       -0.2180 Ry
        Total length         46.3494 bohr
 

     total cpu time spent up to now is     1554.8 secs

     total energy              =   -3295.91280076 Ry
     estimated scf accuracy    <       0.00000137 Ry

     iteration # 54     ecut=    29.40 Ry     beta= 0.05
     Davidson diagonalization with overlap
     ethr =  3.10E-10,  avg # of iterations =  5.8

     negative rho (up, down):  3.458E-02 0.000E+00
 
     Adding external electric field

     Computed dipole along edir(3) : 
        Dipole                1.8692 Ry au,          4.7510 Debye
        Dipole field          0.0024 Ry au, 
 
        Potential amp.       -0.2180 Ry
        Total length         46.3494 bohr
 

     total cpu time spent up to now is     1583.7 secs

     total energy              =   -3295.91280814 Ry
     estimated scf accuracy    <       0.00000037 Ry

     iteration # 55     ecut=    29.40 Ry     beta= 0.05
     Davidson diagonalization with overlap
     ethr =  8.46E-11,  avg # of iterations = 11.2

     negative rho (up, down):  3.458E-02 0.000E+00
 
     Adding external electric field

     Computed dipole along edir(3) : 
        Dipole                1.8687 Ry au,          4.7498 Debye
        Dipole field          0.0024 Ry au, 
 
        Potential amp.       -0.2179 Ry
        Total length         46.3494 bohr
 

     total cpu time spent up to now is     1620.6 secs

     total energy              =   -3295.91281462 Ry
     estimated scf accuracy    <       0.00000060 Ry

     iteration # 56     ecut=    29.40 Ry     beta= 0.05
     Davidson diagonalization with overlap
     ethr =  8.46E-11,  avg # of iterations =  6.6

     negative rho (up, down):  3.458E-02 0.000E+00
 
     Adding external electric field

     Computed dipole along edir(3) : 
        Dipole                1.8684 Ry au,          4.7491 Debye
        Dipole field          0.0024 Ry au, 
 
        Potential amp.       -0.2179 Ry
        Total length         46.3494 bohr
 

     total cpu time spent up to now is     1646.8 secs

     total energy              =   -3295.91282052 Ry
     estimated scf accuracy    <       0.00000023 Ry

     iteration # 57     ecut=    29.40 Ry     beta= 0.05
     Davidson diagonalization with overlap
     ethr =  5.27E-11,  avg # of iterations =  8.8

     negative rho (up, down):  3.458E-02 0.000E+00
 
     Adding external electric field

     Computed dipole along edir(3) : 
        Dipole                1.8687 Ry au,          4.7497 Debye
        Dipole field          0.0024 Ry au, 
 
        Potential amp.       -0.2179 Ry
        Total length         46.3494 bohr
 

     total cpu time spent up to now is     1683.7 secs

     total energy              =   -3295.91282580 Ry
     estimated scf accuracy    <       0.00000032 Ry

     iteration # 58     ecut=    29.40 Ry     beta= 0.05
     Davidson diagonalization with overlap
     ethr =  5.27E-11,  avg # of iterations =  6.2

     negative rho (up, down):  3.458E-02 0.000E+00
 
     Adding external electric field

     Computed dipole along edir(3) : 
        Dipole                1.8687 Ry au,          4.7497 Debye
        Dipole field          0.0024 Ry au, 
 
        Potential amp.       -0.2179 Ry
        Total length         46.3494 bohr
 

     total cpu time spent up to now is     1718.1 secs

     total energy              =   -3295.91283067 Ry
     estimated scf accuracy    <       0.00000016 Ry

     iteration # 59     ecut=    29.40 Ry     beta= 0.05
     Davidson diagonalization with overlap
     ethr =  3.59E-11,  avg # of iterations =  7.9

     negative rho (up, down):  3.459E-02 0.000E+00
 
     Adding external electric field

     Computed dipole along edir(3) : 
        Dipole                1.8684 Ry au,          4.7491 Debye
        Dipole field          0.0024 Ry au, 
 
        Potential amp.       -0.2179 Ry
        Total length         46.3494 bohr
 

     total cpu time spent up to now is     1743.8 secs

     total energy              =   -3295.91283499 Ry
     estimated scf accuracy    <       0.00000010 Ry

     iteration # 60     ecut=    29.40 Ry     beta= 0.05
     Davidson diagonalization with overlap
     ethr =  2.17E-11,  avg # of iterations =  6.7

     negative rho (up, down):  3.459E-02 0.000E+00
 
     Adding external electric field

     Computed dipole along edir(3) : 
        Dipole                1.8685 Ry au,          4.7493 Debye
        Dipole field          0.0024 Ry au, 
 
        Potential amp.       -0.2179 Ry
        Total length         46.3494 bohr
 

     total cpu time spent up to now is     1786.1 secs

     total energy              =   -3295.91283892 Ry
     estimated scf accuracy    <       0.00000025 Ry

     iteration # 61     ecut=    29.40 Ry     beta= 0.05
     Davidson diagonalization with overlap
     ethr =  2.17E-11,  avg # of iterations =  2.0

     negative rho (up, down):  3.459E-02 0.000E+00
 
     Adding external electric field

     Computed dipole along edir(3) : 
        Dipole                1.8686 Ry au,          4.7494 Debye
        Dipole field          0.0024 Ry au, 
 
        Potential amp.       -0.2179 Ry
        Total length         46.3494 bohr
 

     total cpu time spent up to now is     1808.5 secs

     total energy              =   -3295.91284242 Ry
     estimated scf accuracy    <       0.00000014 Ry

     iteration # 62     ecut=    29.40 Ry     beta= 0.05
     Davidson diagonalization with overlap
     ethr =  2.17E-11,  avg # of iterations =  8.0

     negative rho (up, down):  3.470E-02 0.000E+00
 
     Adding external electric field

     Computed dipole along edir(3) : 
        Dipole                1.8689 Ry au,          4.7502 Debye
        Dipole field          0.0024 Ry au, 
 
        Potential amp.       -0.2180 Ry
        Total length         46.3494 bohr
 

     total cpu time spent up to now is     1845.8 secs

     End of self-consistent calculation

          k = 0.0000 0.0000 0.0000 ( 26871 PWs)   bands (ev):

   -57.5940 -57.5538 -57.5302 -57.5243 -57.4941 -57.3947 -57.3871 -57.3664
   -57.3517 -57.3267 -57.3004 -57.2813 -57.2179 -57.1584 -57.0614 -56.5658
   -56.5407 -56.5397 -33.9749 -33.9353 -33.9309 -33.9048 -33.8867 -33.8681
   -33.8660 -33.8565 -33.8299 -33.8195 -33.8087 -33.7936 -33.7770 -33.7591
   -33.7489 -33.7352 -33.7209 -33.6881 -33.6803 -33.6770 -33.6672 -33.6523
   -33.6471 -33.6444 -33.6383 -33.6070 -33.5883 -33.5849 -33.5748 -33.5606
   -33.5575 -33.5517 -33.5377 -33.5362 -33.5329 -33.5189 -33.5146 -33.5010
   -33.4991 -33.4706 -33.4119 -33.3664 -33.3382 -33.3325 -33.2388 -32.8812
   -32.8788 -32.8773 -32.8645 -32.8635 -32.7916 -32.7276 -32.7266 -32.5915
   -18.3896 -18.0515 -17.8388 -17.7846 -17.7616 -17.6886 -17.6390 -17.6219
   -17.5544 -17.4897 -17.3654 -17.3272 -17.3219 -17.3086 -17.2988 -17.2368
   -17.2230 -17.2057 -17.2034 -17.1865 -17.1823 -17.1391 -17.0663 -17.0572
   -17.0163 -17.0022 -16.9815 -16.9789 -16.9310 -16.8784 -16.8684 -16.6743
   -16.6352 -16.4817 -15.0327 -14.9755 -14.9732  -7.7453  -7.7259  -7.5145
    -7.4512  -5.7134  -5.5309  -5.4658  -5.3714  -4.9991  -4.9415  -4.9271
    -4.9011  -4.8593  -4.8182  -4.8031  -4.7782  -4.7771  -4.7334  -4.6898
    -4.6644  -4.6449  -4.5452  -4.5082  -4.4700  -4.4398  -4.4335  -4.3821
    -4.3664  -4.3266  -4.3263  -4.2779  -4.2375  -4.2268  -4.2060  -4.1387
    -4.1200  -4.0161  -3.9279  -3.8702  -3.8631  -3.8223  -3.8091  -3.7633
    -3.7406  -3.7030  -3.6813  -3.6350  -3.6109  -3.5428  -3.4908  -3.3903
    -3.2944  -3.2677  -3.2413  -3.2192  -3.1743  -3.1213  -3.0016  -2.9611
    -2.9289  -2.9070  -2.8175  -2.8161  -2.7268  -2.7106  -2.6962  -2.6522
    -2.6008  -2.5863  -2.5523  -2.4356  -2.4148  -2.3222  -2.3129  -2.3110
    -2.2815  -2.2198  -2.2082  -2.1842  -2.1623  -2.1348  -2.1205  -2.0816
    -2.0784  -1.9796  -1.9582  -1.9019  -1.8792  -1.8791  -1.7805  -1.7631
    -1.7376  -1.7251  -1.6574  -1.5736  -1.4635  -1.4127  -1.3873  -1.3843
    -1.2852  -1.2568  -1.2138  -1.1334  -0.7976  -0.6008  -0.3137  -0.2695
    -0.2691  -0.0067  -0.0050   0.1236   1.4463   1.6615   1.6829   1.8749
     1.8972   1.9411   2.0276   2.0355   2.0975   2.1972   2.2135

          k = 0.0000 0.0280 0.0000 ( 26907 PWs)   bands (ev):

   -57.5939 -57.5516 -57.5362 -57.5206 -57.4942 -57.3937 -57.3871 -57.3690
   -57.3502 -57.3256 -57.3026 -57.2802 -57.2178 -57.1586 -57.0614 -56.5635
   -56.5487 -56.5341 -34.0001 -33.9958 -33.9099 -33.8895 -33.8786 -33.8742
   -33.8558 -33.8485 -33.8326 -33.8217 -33.8187 -33.7881 -33.7692 -33.7300
   -33.7146 -33.7053 -33.7002 -33.6946 -33.6896 -33.6845 -33.6736 -33.6700
   -33.6587 -33.6324 -33.6187 -33.6081 -33.6003 -33.5871 -33.5735 -33.5671
   -33.5609 -33.5546 -33.5452 -33.5347 -33.5334 -33.5284 -33.5201 -33.5149
   -33.4994 -33.4507 -33.4120 -33.3662 -33.3385 -33.3330 -33.2537 -32.9461
   -32.8795 -32.8696 -32.8603 -32.7858 -32.7844 -32.7486 -32.7115 -32.6174
   -18.3357 -18.0195 -17.9534 -17.7938 -17.7309 -17.7040 -17.6734 -17.5616
   -17.5272 -17.4896 -17.4479 -17.3533 -17.3358 -17.3306 -17.3035 -17.2655
   -17.2357 -17.2055 -17.1679 -17.1422 -17.1191 -17.0968 -17.0550 -17.0508
   -17.0464 -17.0197 -17.0057 -16.9461 -16.8906 -16.8817 -16.8783 -16.7016
   -16.6797 -16.4398 -15.0346 -15.0142 -14.9314  -7.7453  -7.7260  -7.5185
    -7.4511  -5.6389  -5.4668  -5.3859  -5.3029  -5.1696  -5.1126  -4.9304
    -4.9007  -4.8899  -4.8475  -4.8472  -4.8318  -4.7961  -4.7374  -4.7268
    -4.7130  -4.6063  -4.5330  -4.5259  -4.4831  -4.4827  -4.4368  -4.3897
    -4.3747  -4.3174  -4.2922  -4.2618  -4.2401  -4.1943  -4.1722  -4.1403
    -4.0969  -3.9983  -3.9778  -3.9630  -3.9432  -3.9356  -3.8674  -3.8083
    -3.7161  -3.6829  -3.5841  -3.5220  -3.4726  -3.4385  -3.3753  -3.3522
    -3.2972  -3.2755  -3.2400  -3.1427  -3.0764  -3.0595  -3.0287  -2.9612
    -2.9080  -2.8623  -2.8570  -2.7376  -2.7137  -2.6883  -2.6551  -2.6179
    -2.6175  -2.5708  -2.5014  -2.4975  -2.4530  -2.3950  -2.3746  -2.3166
    -2.2784  -2.2239  -2.2116  -2.1935  -2.1513  -2.1062  -2.0879  -2.0412
    -1.9904  -1.9862  -1.9120  -1.8992  -1.8742  -1.8531  -1.8067  -1.7982
    -1.7937  -1.7681  -1.7424  -1.6543  -1.5608  -1.5110  -1.3809  -1.3702
    -1.2559  -1.2091  -1.1423  -1.1191  -0.8548  -0.7438  -0.4201  -0.2901
    -0.1839  -0.0426   0.0533   0.0773   1.5273   1.6786   1.7396   1.7922
     1.8956   1.9489   2.0189   2.0692   2.0768   2.1531   2.1601

          k = 0.0000-0.0559 0.0000 ( 26942 PWs)   bands (ev):

   -57.5939 -57.5476 -57.5423 -57.5185 -57.4944 -57.3926 -57.3871 -57.3714
   -57.3490 -57.3245 -57.3048 -57.2792 -57.2177 -57.1588 -57.0613 -56.5578
   -56.5567 -56.5318 -34.0245 -34.0116 -33.9178 -33.8927 -33.8783 -33.8765
   -33.8705 -33.8551 -33.8259 -33.8180 -33.7779 -33.7430 -33.7377 -33.7335
   -33.7214 -33.7207 -33.7092 -33.6996 -33.6950 -33.6919 -33.6539 -33.6404
   -33.6287 -33.6260 -33.6151 -33.6068 -33.5996 -33.5993 -33.5860 -33.5747
   -33.5719 -33.5704 -33.5600 -33.5576 -33.5334 -33.5278 -33.5233 -33.5154
   -33.4996 -33.4250 -33.4121 -33.3661 -33.3388 -33.3344 -33.2720 -32.9706
   -32.8759 -32.8748 -32.8588 -32.7708 -32.7698 -32.7058 -32.6892 -32.6878
   -18.2041 -18.1641 -17.9290 -17.8013 -17.7342 -17.6731 -17.6511 -17.6134
   -17.5667 -17.5309 -17.4097 -17.3770 -17.3525 -17.3436 -17.2976 -17.2841
   -17.2151 -17.1902 -17.1347 -17.1061 -17.0853 -17.0825 -17.0769 -17.0685
   -17.0578 -17.0206 -16.9803 -16.9609 -16.9064 -16.8976 -16.7776 -16.7750
   -16.7085 -16.4106 -15.0343 -15.0318 -14.9127  -7.7452  -7.7262  -7.5224
    -7.4511  -5.4508  -5.4273  -5.3600  -5.2102  -5.1644  -5.1644  -5.1213
    -5.0954  -5.0863  -4.9020  -4.8717  -4.7778  -4.7165  -4.6840  -4.6608
    -4.6384  -4.5907  -4.5894  -4.5592  -4.5454  -4.5445  -4.5116  -4.4418
    -4.4293  -4.3593  -4.3440  -4.2340  -4.2223  -4.2155  -4.1275  -4.0893
    -4.0514  -4.0344  -4.0285  -3.9375  -3.9201  -3.8838  -3.8483  -3.7665
    -3.6770  -3.6126  -3.5808  -3.4809  -3.4793  -3.4747  -3.4292  -3.3491
    -3.3115  -3.2720  -3.1878  -3.1231  -3.0316  -2.9836  -2.9608  -2.9535
    -2.8063  -2.7557  -2.7218  -2.7165  -2.6953  -2.6684  -2.6183  -2.5735
    -2.5672  -2.5421  -2.4764  -2.4407  -2.4201  -2.4192  -2.4043  -2.3423
    -2.3422  -2.2956  -2.2844  -2.2364  -2.1830  -2.1214  -2.0951  -2.0516
    -2.0337  -2.0240  -1.9517  -1.9414  -1.9002  -1.8717  -1.8650  -1.8300
    -1.7968  -1.6569  -1.6537  -1.6317  -1.6124  -1.5799  -1.4996  -1.2968
    -1.2853  -1.0919  -1.0882  -1.0165  -0.9945  -0.9798  -0.5158  -0.2163
    -0.2018  -0.0073  -0.0045   0.0771   1.6401   1.6830   1.7112   1.7639
     1.9644   1.9654   2.0279   2.0559   2.0629   2.0887   2.2109

          k = 0.0380 0.0000 0.0000 ( 26897 PWs)   bands (ev):

   -57.5940 -57.5537 -57.5303 -57.5243 -57.4941 -57.3946 -57.3871 -57.3663
   -57.3517 -57.3267 -57.3005 -57.2814 -57.2179 -57.1584 -57.0615 -56.5657
   -56.5408 -56.5398 -33.9764 -33.9365 -33.9321 -33.9048 -33.8865 -33.8682
   -33.8663 -33.8567 -33.8316 -33.8167 -33.8092 -33.8019 -33.7846 -33.7617
   -33.7501 -33.7197 -33.7130 -33.6894 -33.6730 -33.6636 -33.6520 -33.6508
   -33.6464 -33.6441 -33.6395 -33.6068 -33.5956 -33.5853 -33.5835 -33.5613
   -33.5597 -33.5571 -33.5437 -33.5375 -33.5326 -33.5164 -33.5145 -33.5021
   -33.4993 -33.4705 -33.4153 -33.3689 -33.3387 -33.3324 -33.2389 -32.8845
   -32.8789 -32.8774 -32.8642 -32.8632 -32.7914 -32.7278 -32.7267 -32.5913
   -18.3158 -17.9662 -17.7948 -17.7690 -17.7460 -17.6794 -17.6289 -17.6128
   -17.5542 -17.4969 -17.4259 -17.3611 -17.3387 -17.3150 -17.3097 -17.2767
   -17.2695 -17.2467 -17.2094 -17.1825 -17.1701 -17.1682 -17.0728 -17.0567
   -17.0366 -17.0148 -16.9523 -16.9315 -16.9243 -16.9145 -16.8429 -16.7552
   -16.6358 -16.4813 -15.0293 -14.9760 -14.9737  -7.7492  -7.7178  -7.5154
    -7.4519  -5.6147  -5.3097  -5.2683  -5.1916  -5.0143  -5.0033  -4.9188
    -4.8899  -4.8716  -4.8484  -4.7973  -4.7312  -4.7013  -4.6700  -4.6534
    -4.6058  -4.5687  -4.5161  -4.5050  -4.4969  -4.4481  -4.4224  -4.3915
    -4.3651  -4.3119  -4.3038  -4.2194  -4.2114  -4.1581  -4.1385  -4.1209
    -4.0624  -3.9972  -3.9653  -3.9007  -3.8984  -3.8559  -3.8480  -3.8288
    -3.8012  -3.7454  -3.6943  -3.6487  -3.6220  -3.4925  -3.4021  -3.3550
    -3.3455  -3.2959  -3.2283  -3.2077  -3.1636  -3.1117  -3.0921  -3.0121
    -2.9517  -2.9107  -2.8704  -2.8557  -2.7687  -2.7078  -2.6680  -2.6223
    -2.6065  -2.5766  -2.5436  -2.5152  -2.4912  -2.4482  -2.4409  -2.4098
    -2.3681  -2.3390  -2.3005  -2.2278  -2.1989  -2.1534  -2.1168  -2.1083
    -2.0443  -2.0171  -1.9941  -1.9518  -1.9268  -1.8005  -1.7728  -1.7364
    -1.6782  -1.6655  -1.6541  -1.5926  -1.4771  -1.4348  -1.4299  -1.4097
    -1.3224  -1.2897  -1.2098  -1.2034  -0.9414  -0.5934  -0.3433  -0.2580
    -0.2578  -0.0552  -0.0532   0.0332   1.4495   1.7206   1.7753   1.8219
     1.8325   1.8727   1.9168   1.9260   1.9986   2.0732   2.1015

          k = 0.0380 0.0280 0.0000 ( 26880 PWs)   bands (ev):

   -57.5939 -57.5516 -57.5362 -57.5205 -57.4942 -57.3936 -57.3871 -57.3689
   -57.3501 -57.3257 -57.3026 -57.2802 -57.2178 -57.1586 -57.0614 -56.5635
   -56.5487 -56.5340 -34.0009 -33.9971 -33.9100 -33.8895 -33.8786 -33.8743
   -33.8559 -33.8547 -33.8334 -33.8221 -33.8161 -33.7892 -33.7697 -33.7194
   -33.7136 -33.7081 -33.7067 -33.6900 -33.6848 -33.6727 -33.6701 -33.6623
   -33.6460 -33.6321 -33.6186 -33.6089 -33.6007 -33.5940 -33.5829 -33.5682
   -33.5657 -33.5603 -33.5423 -33.5389 -33.5334 -33.5285 -33.5205 -33.5149
   -33.4993 -33.4505 -33.4150 -33.3689 -33.3387 -33.3329 -33.2537 -32.9456
   -32.8827 -32.8705 -32.8587 -32.7859 -32.7843 -32.7486 -32.7114 -32.6175
   -18.2654 -17.9512 -17.9006 -17.7528 -17.7096 -17.6863 -17.6457 -17.5558
   -17.5321 -17.5162 -17.4500 -17.4172 -17.3672 -17.3410 -17.3188 -17.3036
   -17.2469 -17.2390 -17.1981 -17.1722 -17.1485 -17.1274 -17.0858 -17.0497
   -17.0302 -17.0211 -16.9845 -16.9368 -16.9176 -16.8509 -16.8359 -16.7802
   -16.6766 -16.4394 -15.0317 -15.0140 -14.9314  -7.7495  -7.7179  -7.5192
    -7.4514  -5.5445  -5.2486  -5.2072  -5.1348  -5.1171  -5.1109  -5.0736
    -4.9185  -4.8501  -4.8300  -4.7948  -4.7797  -4.7231  -4.7029  -4.6387
    -4.6246  -4.6103  -4.5663  -4.5272  -4.5016  -4.4432  -4.4245  -4.3831
    -4.3440  -4.3319  -4.3074  -4.2611  -4.2071  -4.1824  -4.1601  -4.1014
    -4.0408  -4.0021  -3.9639  -3.9488  -3.9134  -3.8949  -3.8510  -3.8008
    -3.7267  -3.6411  -3.6095  -3.5475  -3.4776  -3.4273  -3.3708  -3.3382
    -3.3112  -3.2643  -3.2358  -3.1748  -3.1526  -3.1233  -3.0541  -3.0019
    -2.9498  -2.9265  -2.8782  -2.8407  -2.7949  -2.7562  -2.6941  -2.6465
    -2.6154  -2.5626  -2.5391  -2.5072  -2.4602  -2.4325  -2.3977  -2.3792
    -2.3459  -2.3117  -2.2604  -2.2441  -2.2161  -2.1436  -2.1255  -2.0942
    -2.0882  -2.0324  -1.9969  -1.9448  -1.9164  -1.8993  -1.8509  -1.8033
    -1.7393  -1.6767  -1.6267  -1.6156  -1.5486  -1.5059  -1.4538  -1.3832
    -1.3176  -1.2808  -1.1635  -1.0602  -0.9694  -0.7561  -0.4104  -0.2922
    -0.1708  -0.0471  -0.0423   0.0269   1.5247   1.7013   1.7465   1.8205
     1.8634   1.8736   1.9347   1.9681   2.0099   2.0381   2.1056

          k = 0.0380-0.0559 0.0000 ( 26850 PWs)   bands (ev):

   -57.5938 -57.5476 -57.5422 -57.5184 -57.4943 -57.3924 -57.3870 -57.3713
   -57.3489 -57.3245 -57.3048 -57.2791 -57.2177 -57.1587 -57.0613 -56.5577
   -56.5567 -56.5317 -34.0254 -34.0129 -33.9178 -33.8926 -33.8785 -33.8766
   -33.8764 -33.8551 -33.8261 -33.8154 -33.7779 -33.7434 -33.7380 -33.7344
   -33.7228 -33.7075 -33.6995 -33.6948 -33.6927 -33.6870 -33.6446 -33.6409
   -33.6284 -33.6258 -33.6134 -33.6071 -33.6024 -33.5993 -33.5857 -33.5822
   -33.5767 -33.5705 -33.5655 -33.5600 -33.5362 -33.5276 -33.5232 -33.5154
   -33.4995 -33.4250 -33.4148 -33.3688 -33.3386 -33.3343 -33.2719 -32.9701
   -32.8780 -32.8770 -32.8568 -32.7708 -32.7698 -32.7056 -32.6891 -32.6877
   -18.1478 -18.1001 -17.8593 -17.7341 -17.7261 -17.6505 -17.6109 -17.5796
   -17.5739 -17.5206 -17.4879 -17.4251 -17.3770 -17.3678 -17.3184 -17.3081
   -17.2590 -17.2458 -17.1716 -17.1448 -17.1181 -17.0930 -17.0887 -17.0781
   -17.0462 -17.0290 -16.9950 -16.9365 -16.8643 -16.8440 -16.8411 -16.7973
   -16.7032 -16.4096 -15.0327 -15.0302 -14.9124  -7.7497  -7.7180  -7.5230
    -7.4510  -5.3794  -5.3301  -5.2165  -5.1805  -5.1314  -5.0681  -5.0379
    -4.9237  -4.8987  -4.8963  -4.8609  -4.8207  -4.7247  -4.6927  -4.6739
    -4.6416  -4.6254  -4.5668  -4.5627  -4.5245  -4.5005  -4.4771  -4.4631
    -4.3705  -4.3226  -4.3004  -4.2419  -4.2331  -4.1623  -4.1173  -4.0807
    -4.0622  -3.9962  -3.9806  -3.9564  -3.8842  -3.8707  -3.7990  -3.7285
    -3.6327  -3.5951  -3.5561  -3.4806  -3.4633  -3.4508  -3.3583  -3.2925
    -3.2636  -3.2342  -3.1728  -3.1303  -3.1174  -3.0810  -3.0269  -2.9975
    -2.9839  -2.9582  -2.8902  -2.8212  -2.7828  -2.7342  -2.7280  -2.6185
    -2.5719  -2.5508  -2.5191  -2.5040  -2.4833  -2.4437  -2.4288  -2.3961
    -2.3225  -2.2820  -2.2263  -2.2190  -2.2095  -2.2030  -2.1509  -2.1321
    -2.0915  -2.0508  -2.0248  -1.9996  -1.9707  -1.9450  -1.8456  -1.8256
    -1.7648  -1.6882  -1.6381  -1.6301  -1.5846  -1.5539  -1.5319  -1.3485
    -1.2799  -1.1400  -1.1237  -1.0271  -1.0128  -0.9418  -0.5036  -0.2068
    -0.1929  -0.0356  -0.0105  -0.0086   1.6546   1.6661   1.7103   1.8092
     1.8652   1.8806   1.8932   1.9592   1.9909   2.1091   2.1272

          k = 0.0380-0.0280 0.0000 ( 26873 PWs)   bands (ev):

   -57.5939 -57.5516 -57.5362 -57.5205 -57.4942 -57.3936 -57.3871 -57.3689
   -57.3501 -57.3257 -57.3026 -57.2802 -57.2178 -57.1586 -57.0614 -56.5635
   -56.5487 -56.5340 -34.0009 -33.9971 -33.9100 -33.8895 -33.8785 -33.8743
   -33.8559 -33.8547 -33.8333 -33.8221 -33.8161 -33.7892 -33.7697 -33.7194
   -33.7136 -33.7081 -33.7067 -33.6899 -33.6848 -33.6727 -33.6701 -33.6623
   -33.6460 -33.6321 -33.6186 -33.6089 -33.6007 -33.5940 -33.5829 -33.5682
   -33.5657 -33.5603 -33.5423 -33.5389 -33.5334 -33.5285 -33.5205 -33.5149
   -33.4993 -33.4505 -33.4150 -33.3689 -33.3387 -33.3329 -33.2537 -32.9456
   -32.8827 -32.8705 -32.8587 -32.7858 -32.7843 -32.7486 -32.7114 -32.6175
   -18.2655 -17.9511 -17.9006 -17.7528 -17.7095 -17.6863 -17.6456 -17.5558
   -17.5322 -17.5162 -17.4499 -17.4172 -17.3672 -17.3411 -17.3189 -17.3038
   -17.2469 -17.2387 -17.1983 -17.1722 -17.1485 -17.1274 -17.0858 -17.0497
   -17.0303 -17.0212 -16.9844 -16.9365 -16.9173 -16.8509 -16.8362 -16.7804
   -16.6766 -16.4394 -15.0317 -15.0140 -14.9314  -7.7495  -7.7179  -7.5192
    -7.4514  -5.5445  -5.2487  -5.2073  -5.1349  -5.1169  -5.1105  -5.0735
    -4.9186  -4.8502  -4.8300  -4.7948  -4.7797  -4.7230  -4.7029  -4.6388
    -4.6251  -4.6103  -4.5669  -4.5272  -4.5015  -4.4432  -4.4246  -4.3829
    -4.3440  -4.3320  -4.3075  -4.2611  -4.2072  -4.1824  -4.1602  -4.1012
    -4.0406  -4.0021  -3.9637  -3.9489  -3.9132  -3.8948  -3.8509  -3.8007
    -3.7266  -3.6412  -3.6096  -3.5473  -3.4776  -3.4275  -3.3705  -3.3381
    -3.3107  -3.2640  -3.2353  -3.1749  -3.1526  -3.1233  -3.0542  -3.0020
    -2.9499  -2.9265  -2.8784  -2.8408  -2.7950  -2.7562  -2.6943  -2.6467
    -2.6153  -2.5627  -2.5391  -2.5071  -2.4606  -2.4328  -2.3977  -2.3792
    -2.3460  -2.3117  -2.2600  -2.2436  -2.2162  -2.1437  -2.1251  -2.0938
    -2.0880  -2.0323  -1.9968  -1.9454  -1.9163  -1.8995  -1.8512  -1.8034
    -1.7392  -1.6765  -1.6268  -1.6154  -1.5487  -1.5062  -1.4539  -1.3832
    -1.3176  -1.2807  -1.1638  -1.0601  -0.9691  -0.7561  -0.4104  -0.2922
    -0.1708  -0.0477  -0.0422   0.0273   1.5247   1.7012   1.7466   1.8208
     1.8632   1.8737   1.9347   1.9683   2.0100   2.0383   2.1053

          k =-0.0760-0.0000 0.0000 ( 26902 PWs)   bands (ev):

   -57.5940 -57.5536 -57.5303 -57.5243 -57.4941 -57.3945 -57.3871 -57.3663
   -57.3517 -57.3267 -57.3005 -57.2814 -57.2179 -57.1584 -57.0615 -56.5657
   -56.5408 -56.5398 -33.9777 -33.9374 -33.9330 -33.9049 -33.8864 -33.8684
   -33.8665 -33.8567 -33.8330 -33.8140 -33.8095 -33.8090 -33.7913 -33.7631
   -33.7509 -33.7157 -33.6905 -33.6810 -33.6690 -33.6518 -33.6467 -33.6455
   -33.6440 -33.6408 -33.6325 -33.6292 -33.6066 -33.5852 -33.5796 -33.5711
   -33.5604 -33.5569 -33.5525 -33.5373 -33.5324 -33.5150 -33.5131 -33.5042
   -33.4993 -33.4704 -33.4192 -33.3709 -33.3392 -33.3324 -33.2390 -32.8879
   -32.8787 -32.8772 -32.8639 -32.8629 -32.7914 -32.7278 -32.7268 -32.5913
   -18.2200 -17.8377 -17.8350 -17.7644 -17.7026 -17.6235 -17.6073 -17.5837
   -17.5563 -17.5370 -17.4832 -17.3603 -17.3537 -17.3461 -17.3245 -17.3203
   -17.2755 -17.2744 -17.2469 -17.2174 -17.1895 -17.1803 -17.1675 -17.0333
   -17.0185 -16.9946 -16.9682 -16.9282 -16.8969 -16.8932 -16.8355 -16.8275
   -16.6370 -16.4811 -15.0262 -14.9764 -14.9741  -7.7533  -7.7095  -7.5159
    -7.4529  -5.5635  -5.0111  -4.9878  -4.9730  -4.9568  -4.9355  -4.9317
    -4.8655  -4.8581  -4.8175  -4.8082  -4.7227  -4.7011  -4.6457  -4.5804
    -4.5803  -4.5651  -4.5546  -4.5197  -4.4767  -4.4655  -4.4619  -4.4254
    -4.3101  -4.3094  -4.3058  -4.3005  -4.2198  -4.1809  -4.1672  -4.0717
    -4.0312  -3.9749  -3.9439  -3.9281  -3.8842  -3.8376  -3.8048  -3.7881
    -3.7268  -3.7150  -3.6158  -3.5949  -3.5373  -3.5340  -3.4450  -3.3836
    -3.3384  -3.2658  -3.2371  -3.2133  -3.1550  -3.1502  -3.1437  -3.1138
    -3.0228  -2.9947  -2.9311  -2.8911  -2.8477  -2.8314  -2.7418  -2.7155
    -2.7121  -2.6404  -2.5827  -2.5804  -2.5533  -2.4989  -2.4953  -2.4643
    -2.3665  -2.3264  -2.3147  -2.3055  -2.2951  -2.2520  -2.2436  -2.1583
    -2.0805  -1.9767  -1.9294  -1.9279  -1.8408  -1.8022  -1.7672  -1.7341
    -1.7193  -1.6587  -1.6229  -1.5416  -1.5186  -1.4601  -1.4552  -1.3773
    -1.3570  -1.2665  -1.1807  -1.1765  -1.1702  -0.5886  -0.3657  -0.2418
    -0.2408  -0.1027  -0.0989  -0.0292   1.4484   1.6293   1.7667   1.7704
     1.7820   1.8220   1.8899   1.8932   2.0125   2.0252   2.0369

          k =-0.0760 0.0279 0.0000 ( 26908 PWs)   bands (ev):

   -57.5939 -57.5516 -57.5362 -57.5205 -57.4942 -57.3936 -57.3871 -57.3688
   -57.3501 -57.3258 -57.3027 -57.2802 -57.2178 -57.1586 -57.0614 -56.5635
   -56.5488 -56.5340 -34.0020 -33.9985 -33.9101 -33.8895 -33.8785 -33.8744
   -33.8610 -33.8559 -33.8341 -33.8226 -33.8136 -33.7904 -33.7703 -33.7246
   -33.7101 -33.7085 -33.6916 -33.6822 -33.6789 -33.6714 -33.6702 -33.6427
   -33.6324 -33.6301 -33.6248 -33.6182 -33.6096 -33.6007 -33.5838 -33.5791
   -33.5665 -33.5604 -33.5449 -33.5387 -33.5340 -33.5289 -33.5210 -33.5149
   -33.4993 -33.4505 -33.4188 -33.3714 -33.3390 -33.3329 -33.2538 -32.9454
   -32.8858 -32.8715 -32.8576 -32.7858 -32.7843 -32.7486 -32.7115 -32.6175
   -18.1753 -17.8841 -17.7974 -17.7907 -17.7009 -17.6243 -17.5814 -17.5763
   -17.5368 -17.5276 -17.4904 -17.4525 -17.3573 -17.3357 -17.3164 -17.3072
   -17.2969 -17.2926 -17.2568 -17.2088 -17.1813 -17.1782 -17.1391 -17.0656
   -17.0237 -16.9877 -16.9806 -16.9644 -16.9280 -16.8505 -16.8380 -16.7593
   -16.6750 -16.4392 -15.0291 -15.0138 -14.9315  -7.7539  -7.7097  -7.5195
    -7.4520  -5.4944  -5.2038  -5.1125  -5.0780  -4.9483  -4.9248  -4.9040
    -4.8372  -4.7959  -4.7587  -4.7507  -4.7295  -4.7127  -4.7002  -4.6729
    -4.6656  -4.5731  -4.5590  -4.4622  -4.4613  -4.4459  -4.4325  -4.3772
    -4.3409  -4.3117  -4.2802  -4.2156  -4.1685  -4.1675  -4.0947  -4.0754
    -4.0647  -4.0533  -4.0117  -3.9450  -3.8989  -3.8808  -3.7657  -3.7431
    -3.7354  -3.6458  -3.6409  -3.5966  -3.4801  -3.4685  -3.3995  -3.3090
    -3.2566  -3.2361  -3.2053  -3.1901  -3.1888  -3.1596  -3.0676  -3.0093
    -2.9865  -2.9577  -2.9356  -2.9310  -2.8676  -2.8637  -2.7638  -2.7631
    -2.6652  -2.6352  -2.5767  -2.5556  -2.5251  -2.5104  -2.4659  -2.4572
    -2.4299  -2.4266  -2.3542  -2.3292  -2.3032  -2.2765  -2.2029  -2.1596
    -2.1198  -2.0853  -2.0255  -1.9839  -1.9221  -1.8177  -1.7917  -1.7548
    -1.6565  -1.6238  -1.6056  -1.5595  -1.5472  -1.5151  -1.4174  -1.3358
    -1.3092  -1.2759  -1.2421  -1.1526  -0.9892  -0.7751  -0.3963  -0.2938
    -0.1554  -0.1430  -0.0507  -0.0065   1.5209   1.6414   1.6811   1.7689
     1.7933   1.8588   1.8667   1.9054   1.9491   1.9908   2.0661

          k =-0.0760-0.0559 0.0000 ( 26868 PWs)   bands (ev):

   -57.5938 -57.5476 -57.5422 -57.5184 -57.4943 -57.3924 -57.3870 -57.3712
   -57.3488 -57.3246 -57.3048 -57.2791 -57.2177 -57.1587 -57.0613 -56.5577
   -56.5567 -56.5317 -34.0263 -34.0143 -33.9179 -33.8926 -33.8828 -33.8780
   -33.8765 -33.8549 -33.8263 -33.8131 -33.7781 -33.7438 -33.7385 -33.7354
   -33.7241 -33.6965 -33.6930 -33.6882 -33.6828 -33.6798 -33.6422 -33.6362
   -33.6333 -33.6262 -33.6077 -33.6075 -33.6050 -33.6028 -33.5989 -33.5863
   -33.5788 -33.5709 -33.5694 -33.5602 -33.5395 -33.5275 -33.5231 -33.5154
   -33.4994 -33.4249 -33.4183 -33.3718 -33.3388 -33.3342 -33.2718 -32.9697
   -32.8803 -32.8792 -32.8554 -32.7708 -32.7697 -32.7055 -32.6891 -32.6878
   -18.0795 -18.0161 -17.7603 -17.7059 -17.6895 -17.6534 -17.6384 -17.5612
   -17.5411 -17.5257 -17.5044 -17.4404 -17.3860 -17.3371 -17.3351 -17.3284
   -17.2583 -17.2531 -17.2457 -17.2411 -17.1950 -17.1807 -17.1583 -17.1146
   -17.0370 -16.9674 -16.9544 -16.9477 -16.9087 -16.8938 -16.8427 -16.7081
   -16.6998 -16.4089 -15.0312 -15.0287 -14.9121  -7.7546  -7.7099  -7.5233
    -7.4511  -5.3362  -5.3061  -5.2765  -5.2121  -5.0213  -4.8615  -4.8308
    -4.8243  -4.7866  -4.7372  -4.7100  -4.7033  -4.6944  -4.6771  -4.6623
    -4.6141  -4.6101  -4.5845  -4.5117  -4.4706  -4.4659  -4.4470  -4.4329
    -4.4269  -4.3587  -4.2841  -4.2169  -4.1708  -4.1561  -4.1397  -4.0919
    -4.0553  -4.0255  -3.9825  -3.9721  -3.9037  -3.7950  -3.7120  -3.6721
    -3.6716  -3.6310  -3.5820  -3.5810  -3.4799  -3.4182  -3.3431  -3.2115
    -3.2055  -3.1928  -3.1681  -3.1540  -3.1147  -3.1043  -3.0799  -3.0287
    -3.0187  -2.9971  -2.9364  -2.8702  -2.7848  -2.7569  -2.7234  -2.7174
    -2.6923  -2.6816  -2.6539  -2.6509  -2.6169  -2.6080  -2.5540  -2.5268
    -2.4756  -2.4483  -2.4047  -2.3193  -2.3034  -2.2812  -2.1898  -2.1272
    -2.1103  -2.1054  -2.0763  -2.0290  -1.9322  -1.8383  -1.8026  -1.7583
    -1.6465  -1.6460  -1.6424  -1.6265  -1.5529  -1.5384  -1.3348  -1.3227
    -1.2634  -1.1881  -1.1485  -1.1127  -1.1103  -0.8930  -0.4825  -0.1990
    -0.1859  -0.1623  -0.0096  -0.0046   1.5925   1.6744   1.7092   1.7588
     1.7946   1.7978   1.8039   1.8675   1.9313   1.9411   2.1815

     the Fermi energy is     1.5305 ev

!    total energy              =   -3295.91287497 Ry
     estimated scf accuracy    <       0.00000004 Ry
     smearing contrib. (-TS)   =      -0.03397141 Ry
     internal energy E=F+TS    =   -3295.87890356 Ry

     The total energy is F=E-TS. E is the sum of the following terms:
     one-electron contribution =  -34427.48250931 Ry
     hartree contribution      =   17282.25479080 Ry
     xc contribution           =    -543.75717853 Ry
     ewald contribution        =   14393.10159939 Ry
     electric field correction =       0.00439408 Ry

     convergence has been achieved in  62 iterations

     Forces acting on atoms (cartesian axes, Ry/au):

     atom    1 type  1   force =     0.00001618    0.00450523    0.05617173
     atom    2 type  1   force =    -0.00000009   -0.00095084   -0.00072031
     atom    3 type  1   force =    -0.00000905    0.00150091   -0.00019440
     atom    4 type  1   force =     0.00005831    0.00031109    0.10696784
     atom    5 type  1   force =     0.00000220    0.00080580    0.00981289
     atom    6 type  1   force =     0.00000554   -0.00264791    0.00105730
     atom    7 type  1   force =     0.06729126   -0.00022622   -0.02911180
     atom    8 type  1   force =     0.00475457   -0.02827643    0.00257859
     atom    9 type  1   force =     0.00734064   -0.00158967   -0.00302189
     atom   10 type  2   force =    -0.00005136   -0.00148466   -0.18424197
     atom   11 type  2   force =     0.00003784    0.02164966   -0.00780007
     atom   12 type  2   force =     0.00003085   -0.00242554    0.01227391
     atom   13 type  1   force =    -0.06739362   -0.00068773   -0.02907636
     atom   14 type  1   force =    -0.00478049   -0.02827753    0.00257868
     atom   15 type  1   force =    -0.00736259   -0.00158836   -0.00303717
     atom   16 type  2   force =     0.00009579    0.00012847    0.06631223
     atom   17 type  2   force =    -0.00001264    0.03587453    0.00370232
     atom   18 type  2   force =     0.00002256   -0.01055006   -0.00435219
     atom   19 type  1   force =     0.00001953    0.00444064    0.05989539
     atom   20 type  1   force =    -0.00000229    0.00082964   -0.00594707
     atom   21 type  1   force =     0.00005868    0.00019102    0.10720492
     atom   22 type  1   force =    -0.00000106   -0.00066389    0.00885427
     atom   23 type  1   force =    -0.00000622    0.00498200    0.00313883
     atom   24 type  1   force =     0.06804737    0.00051215   -0.02901228
     atom   25 type  1   force =     0.00342060   -0.02997133    0.00209204
     atom   26 type  1   force =     0.01011950    0.02030042    0.00205348
     atom   27 type  2   force =    -0.00005865    0.00003106   -0.18366148
     atom   28 type  2   force =     0.00003371    0.02158174   -0.00596273
     atom   29 type  2   force =     0.00001060   -0.02176165   -0.00593793
     atom   30 type  1   force =    -0.06814627    0.00006472   -0.02898034
     atom   31 type  1   force =    -0.00345274   -0.02995801    0.00209985
     atom   32 type  1   force =    -0.01014643    0.02030598    0.00205058
     atom   33 type  2   force =     0.00010238   -0.00026169    0.06933452
     atom   34 type  2   force =    -0.00001524    0.03686977    0.00369661
     atom   35 type  2   force =     0.00000325   -0.02930130    0.01039380
     atom   36 type  1   force =     0.00002577    0.00482018    0.05629792
     atom   37 type  1   force =    -0.00001029    0.00205124   -0.00518075
     atom   38 type  1   force =    -0.00000437    0.00424399   -0.00007864
     atom   39 type  1   force =     0.00005629    0.00002530    0.10680083
     atom   40 type  1   force =    -0.00000500   -0.00061101    0.00812317
     atom   41 type  1   force =     0.00000240    0.00071111    0.00248558
     atom   42 type  1   force =     0.06806750   -0.00121800   -0.02960894
     atom   43 type  1   force =     0.00353127   -0.02804785    0.00206035
     atom   44 type  1   force =     0.01053844    0.01132751    0.00282475
     atom   45 type  2   force =    -0.00005950   -0.00196904   -0.18353517
     atom   46 type  2   force =     0.00003462    0.01959432   -0.00655848
     atom   47 type  2   force =    -0.00000962   -0.01031068   -0.01268657
     atom   48 type  1   force =    -0.06816209   -0.00165754   -0.02957205
     atom   49 type  1   force =    -0.00354617   -0.02804940    0.00205808
     atom   50 type  1   force =    -0.01055863    0.01133084    0.00281304
     atom   51 type  2   force =     0.00009771   -0.00307946    0.06759962
     atom   52 type  2   force =    -0.00002071    0.03495273    0.00625978
     atom   53 type  2   force =     0.00000141    0.00511779    0.00130281
     atom   54 type  3   force =     0.00007801    0.00064574   -0.00247076
     atom   55 type  4   force =    -0.00000678   -0.00142475   -0.00039451
     atom   56 type  4   force =    -0.00129289    0.00056686    0.00022245
     atom   57 type  4   force =     0.00119430    0.00052663    0.00018567
     atom   58 type  3   force =     0.00010954   -0.00182269    0.00124981
     atom   59 type  4   force =    -0.00000387   -0.00007054    0.00016487
     atom   60 type  4   force =     0.00070980   -0.00093482   -0.00077647
     atom   61 type  4   force =    -0.00079970   -0.00098046   -0.00079817

     Total force =     0.454789     Total SCF correction =     0.000353
  @ DRIVER MODE: Message from server: STATUS
  @ DRIVER MODE: Message from server: GETFORCE
  @ DRIVER MODE: Returning v,forces,stress,ensemble 

     Writing output data file ./calc.save/
  @ DRIVER MODE: Message from server: EXIT
  @ DRIVE MODE: Exiting  
 
     init_run     :     18.10s CPU     18.49s WALL (       1 calls)
     electrons    :   1789.66s CPU   1827.14s WALL (       1 calls)
     forces       :      4.40s CPU      4.61s WALL (       1 calls)

     Called by init_run:
     wfcinit      :      9.75s CPU      9.93s WALL (       1 calls)
     potinit      :      7.31s CPU      7.40s WALL (       1 calls)
     hinit0       :      0.42s CPU      0.44s WALL (       1 calls)

     Called by electrons:
     c_bands      :   1495.68s CPU   1515.32s WALL (      62 calls)
     sum_band     :    205.88s CPU    214.08s WALL (      62 calls)
     v_of_rho     :     67.16s CPU     69.82s WALL (      63 calls)
     newd         :     24.53s CPU     30.97s WALL (      63 calls)
     mix_rho      :      2.57s CPU      2.89s WALL (      62 calls)
     vdW_kernel   :      5.84s CPU      5.85s WALL (       1 calls)

     Called by c_bands:
     init_us_2    :      9.86s CPU      9.97s WALL (    1260 calls)
     cegterg      :   1463.21s CPU   1482.08s WALL (     620 calls)

     Called by *egterg:
     cdiaghg      :    172.96s CPU    174.22s WALL (    4903 calls)
     h_psi        :    852.33s CPU    863.53s WALL (    4913 calls)
     s_psi        :    109.42s CPU    109.72s WALL (    4913 calls)
     g_psi        :      2.84s CPU      2.86s WALL (    4283 calls)

     Called by h_psi:
     h_psi:calbec :    103.12s CPU    104.14s WALL (    4913 calls)
     vloc_psi     :    635.80s CPU    641.17s WALL (    4913 calls)
     add_vuspsi   :    109.51s CPU    111.24s WALL (    4913 calls)

     General routines
     calbec       :    140.38s CPU    141.49s WALL (    5573 calls)
     fft          :     37.63s CPU     37.81s WALL (    3969 calls)
     ffts         :      0.22s CPU      0.22s WALL (     125 calls)
     fftw         :    709.71s CPU    715.55s WALL (  888484 calls)
     interpolate  :      0.72s CPU      0.73s WALL (      63 calls)
     davcio       :      0.00s CPU      0.42s WALL (      10 calls)
 
     Parallel routines
 
     PWSCF        :  30m12.38s CPU  30m51.37s WALL

 
   This run was terminated on:  11:58: 3  18Oct2021            

=------------------------------------------------------------------------------=
   JOB DONE.
=------------------------------------------------------------------------------=
