
     Program PWSCF v.6.7GPU starts on 23Sep2021 at 12:56:36 

     This program is part of the open-source Quantum ESPRESSO suite
     for quantum simulation of materials; please cite
         "P. Giannozzi et al., J. Phys.:Condens. Matter 21 395502 (2009);
         "P. Giannozzi et al., J. Phys.:Condens. Matter 29 465901 (2017);
         "P. Giannozzi et al., J. Chem. Phys. 152 154105 (2020);
          URL http://www.quantum-espresso.org", 
     in publications or presentations arising from this work. More details at
     http://www.quantum-espresso.org/quote

     Parallel version (MPI), running on     8 processors

     MPI processes distributed on     1 nodes
     R & G space division:  proc/nbgrp/npool/nimage =       8
     Reading input from /storage/home/hcoda1/3/ntian30/research/carbon/CxH_vib/H2O_calc/ads_slab/CH3NHHO_a/out_0006/pw.inp
Warning: card &CELL ignored
Warning: card   CELL_DYNAMICS='IPI', ignored
Warning: card / ignored

     Current dimensions of program PWSCF are:
     Max number of different atomic species (ntypx) = 10
     Max number of k-points (npk) =  40000
     Max angular momentum in pseudopotentials (lmaxx) =  3
     Presently no symmetry can be used with electric field

     Message from routine cell_base_init:
     DEPRECATED: use true lattice parameter, not A to a.u. conversion factor

     **************************************************************************
     Initializing libbeef V0.1.2 with the BEEF-vdW functional.
     Citation: Wellendorff et al., PRB 85, 235149 (2012).
     **************************************************************************


     IMPORTANT: XC functional enforced from input :
     Exchange-correlation= BEEF-VDW
                           (   1   4  43  14   2   0   0)
     Any further DFT definition will be discarded
     Please, verify this is what you really want


     Subspace diagonalization in iterative solution of the eigenvalue problem:
     one sub-group per band group will be used
     scalapack distributed-memory algorithm (size of sub-group:  2*  2 procs)

  @ DRIVER MODE: Connecting to 
 qe_1139763_2947309.sched-torque.pace.gatech.edu5mlwpgfy_scratch
  using UNIX socket
  @ DRIVER MODE: Message from server: STATUS
  @ DRIVER MODE: Message from server: INIT
  @ DRIVER MODE: Receiving replica           0          -1
  @ DRIVER MODE: Receiving encoded integer          25
  @ DRIVER MODE:  SCF:  T  FORCE:  T  STRESS:  F  VC:  F  ENSEMBLE:  F
  @ DRIVER MODE:  SCF:  T  FORCE:  T  STRESS:  F  VC:  F  ENSEMBLE:  F
 
     Parallelization info
     --------------------
     sticks:   dense  smooth     PW     G-vecs:    dense   smooth      PW
     Min         409     164     47                70857    17926    2743
     Max         411     165     48                70858    17931    2751
     Sum        3275    1317    379               566857   143421   21985
 
     Using Slab Decomposition
 


     bravais-lattice index     =            0
     lattice parameter (alat)  =       1.8897  a.u.
     unit-cell volume          =    6658.9804 (a.u.)^3
     number of atoms/cell      =           55
     number of atomic types    =            5
     number of electrons       =       398.00
     number of Kohn-Sham states=          209
     kinetic-energy cutoff     =      29.3995  Ry
     charge density cutoff     =     293.9946  Ry
     scf convergence threshold =      7.3E-08
     mixing beta               =       0.0500
     number of iterations used =            8  plain     mixing
     Exchange-correlation= BEEF-VDW
                           (   1   4  43  14   2   0   0)

     celldm(1)=   1.889726  celldm(2)=   0.000000  celldm(3)=   0.000000
     celldm(4)=   0.000000  celldm(5)=   0.000000  celldm(6)=   0.000000

     crystal axes: (cart. coord. in units of alat)
               a(1) = (   6.579727   0.000000   0.000000 )  
               a(2) = (  -0.000775   5.961596   0.000000 )  
               a(3) = (   0.000000   0.000000  25.155947 )  

     reciprocal axes: (cart. coord. in units 2 pi/alat)
               b(1) = (  0.151982  0.000020  0.000000 )  
               b(2) = (  0.000000  0.167740  0.000000 )  
               b(3) = (  0.000000  0.000000  0.039752 )  


     PseudoPot. # 1 for Ti read from file:
     /storage/coda1/p-amedford6/0/shared/rich_project_chbe-medford/medford-share/data/pseudos_module/espresso/nninc/pbe/van/Ti.UPF
     MD5 check sum: 8e4df49b7f0d34bbd5052bf3f5ea0213
     Pseudo is Ultrasoft, Zval = 12.0
     Generated by new atomic code, or converted to UPF format
     Using radial grid of  851 points,  6 beta functions with: 
                l(1) =   0
                l(2) =   0
                l(3) =   1
                l(4) =   1
                l(5) =   2
                l(6) =   2
     Q(r) pseudized with  8 coefficients,  rinner =    1.000   1.000   1.000
                                                       1.000   1.000

     PseudoPot. # 2 for O  read from file:
     /storage/coda1/p-amedford6/0/shared/rich_project_chbe-medford/medford-share/data/pseudos_module/espresso/nninc/pbe/van/O.UPF
     MD5 check sum: 78c19812648e8988a0fe644b0f25305e
     Pseudo is Ultrasoft, Zval =  6.0
     Generated by new atomic code, or converted to UPF format
     Using radial grid of  737 points,  4 beta functions with: 
                l(1) =   0
                l(2) =   0
                l(3) =   1
                l(4) =   1
     Q(r) pseudized with  8 coefficients,  rinner =    0.800   0.800   0.800


     PseudoPot. # 3 for H  read from file:
     /storage/coda1/p-amedford6/0/shared/rich_project_chbe-medford/medford-share/data/pseudos_module/espresso/nninc/pbe/van/H.UPF
     MD5 check sum: b5ee9d7bfd3a09ee7748110bda690ff7
     Pseudo is Ultrasoft, Zval =  1.0
     Generated by new atomic code, or converted to UPF format
     Using radial grid of  615 points,  1 beta functions with: 
                l(1) =   0
     Q(r) pseudized with  8 coefficients,  rinner =    0.800

     PseudoPot. # 4 for N  read from file:
     /storage/coda1/p-amedford6/0/shared/rich_project_chbe-medford/medford-share/data/pseudos_module/espresso/nninc/pbe/van/N.UPF
     MD5 check sum: 90d10febe142ad51ac9d5be1deb811c4
     Pseudo is Ultrasoft, Zval =  5.0
     Generated by new atomic code, or converted to UPF format
     Using radial grid of  729 points,  4 beta functions with: 
                l(1) =   0
                l(2) =   0
                l(3) =   1
                l(4) =   1
     Q(r) pseudized with  8 coefficients,  rinner =    0.800   0.800   0.800


     PseudoPot. # 5 for C  read from file:
     /storage/coda1/p-amedford6/0/shared/rich_project_chbe-medford/medford-share/data/pseudos_module/espresso/nninc/pbe/van/C.UPF
     MD5 check sum: 1a69bf6b8db32088f5b2163dbdb77a27
     Pseudo is Ultrasoft, Zval =  4.0
     Generated by new atomic code, or converted to UPF format
     Using radial grid of  721 points,  4 beta functions with: 
                l(1) =   0
                l(2) =   0
                l(3) =   1
                l(4) =   1
     Q(r) pseudized with  8 coefficients,  rinner =    0.800   0.800   0.800


     atomic species   valence    mass     pseudopotential
        Ti1           12.00    47.86700     Ti( 1.00)
        O1             6.00    15.99900     O ( 1.00)
        H1             1.00     1.00800     H ( 1.00)
        N1             5.00    14.00700     N ( 1.00)
        C1             4.00    12.01100     C ( 1.00)

     No symmetry found



   Cartesian axes

     site n.     atom                  positions (alat units)
         1           Ti1 tau(   1) = (   0.0004258   2.9801865   6.0000000  )
         2           Ti1 tau(   2) = (   3.2906075   1.4906267   6.0002472  )
         3           O1  tau(   3) = (   0.0006271   0.0005054   7.9858123  )
         4           O1  tau(   4) = (   3.2906025   0.0005020   7.3038282  )
         5           O1  tau(   5) = (   4.5942328   1.4918067   9.2879030  )
         6           O1  tau(   6) = (   1.9868534   1.4903216   9.2879459  )
         7           Ti1 tau(   7) = (   3.2907910   2.8959150   9.1758416  )
         8           Ti1 tau(   8) = (   0.0015273   1.4827037   9.2680791  )
         9           O1  tau(   9) = (   3.2831040   5.9360571  11.2641146  )
        10           O1  tau(  10) = (   0.0116148   5.9584955  10.6183126  )
        11           O1  tau(  11) = (   1.2851963   1.4867209  12.6255510  )
        12           O1  tau(  12) = (   5.2924406   1.4772461  12.6192171  )
        13           Ti1 tau(  13) = (   0.0036382   2.8404764  12.7021481  )
        14           Ti1 tau(  14) = (   3.2814461   1.2926050  12.6442039  )
        15           O1  tau(  15) = (   6.5789252   5.9354829  14.6389027  )
        16           O1  tau(  16) = (   3.2852549   0.0163589  13.8648689  )
        17           O1  tau(  17) = (   4.5445832   1.5164849  16.0197972  )
        18           O1  tau(  18) = (   2.0258823   1.4930055  16.0750729  )
        19           Ti1 tau(  19) = (   3.3156224   2.9699746  15.6194889  )
        20           Ti1 tau(  20) = (   0.0515760   1.3234122  16.0730098  )
        21           O1  tau(  21) = (   3.2904802   0.0005063   4.7018136  )
        22           O1  tau(  22) = (   6.5454194   5.9222349  17.1870725  )
        23           O1  tau(  23) = (   1.3043587   1.4918075   6.0039043  )
        24           O1  tau(  24) = (   5.2767064   1.4903225   6.0039473  )
        25           Ti1 tau(  25) = (   0.0000382   5.9609847   6.0000000  )
        26           Ti1 tau(  26) = (   3.2902200   4.4714249   6.0002472  )
        27           O1  tau(  27) = (   0.0002396   2.9813036   7.9858123  )
        28           O1  tau(  28) = (   3.2902150   2.9813002   7.3038282  )
        29           O1  tau(  29) = (   4.5938453   4.4726049   9.2879030  )
        30           O1  tau(  30) = (   1.9864658   4.4711199   9.2879459  )
        31           Ti1 tau(  31) = (   3.2891106   5.8743827   9.1763621  )
        32           Ti1 tau(  32) = (   0.0006254   4.4649316   9.2693709  )
        33           O1  tau(  33) = (   3.2861177   3.0127509  11.2320142  )
        34           O1  tau(  34) = (   0.0092240   2.9805883  10.6323155  )
        35           O1  tau(  35) = (   1.2872320   4.4646868  12.6147789  )
        36           O1  tau(  36) = (   5.2799320   4.4658550  12.6114028  )
        37           Ti1 tau(  37) = (   6.5510365   5.8261734  12.6423015  )
        38           Ti1 tau(  38) = (   3.2652589   4.3917841  12.4002916  )
        39           O1  tau(  39) = (   0.0003569   2.9920414  14.6539809  )
        40           O1  tau(  40) = (   3.2835110   2.9651371  13.8409569  )
        41           O1  tau(  41) = (   4.5245492   4.4030193  16.0142317  )
        42           O1  tau(  42) = (   2.0132503   4.4096711  16.0494848  )
        43           Ti1 tau(  43) = (   3.3389516   5.9588577  16.2858146  )
        44           Ti1 tau(  44) = (   0.0865397   4.4271626  15.8895714  )
        45           O1  tau(  45) = (   3.2900926   2.9813045   4.7018136  )
        46           O1  tau(  46) = (   1.3039711   4.4726057   6.0039043  )
        47           O1  tau(  47) = (   5.2763189   4.4711207   6.0039473  )
        48           H1  tau(  48) = (   5.5649379   3.0085428  17.7854687  )
        49           N1  tau(  49) = (   6.5266086   2.9804045  17.4451690  )
        50           C1  tau(  50) = (   0.8252436   3.0135910  18.6253707  )
        51           H1  tau(  51) = (   0.7415300   3.9712607  19.1474969  )
        52           H1  tau(  52) = (   0.5789590   2.2014881  19.3161603  )
        53           H1  tau(  53) = (   1.8636945   2.8847911  18.3311598  )
        54           O1  tau(  54) = (   3.4430348   5.9447220  18.1074838  )
        55           H1  tau(  55) = (   4.3135669   5.8364121  18.5244127  )

     number of k points=    10  Fermi-Dirac smearing, width (Ry)=  0.0073
                       cart. coord. in units 2pi/alat
        k(    1) = (   0.0000000   0.0000000   0.0000000), wk =   0.1250000
        k(    2) = (   0.0000000   0.0419351   0.0000000), wk =   0.2500000
        k(    3) = (   0.0000000  -0.0838702   0.0000000), wk =   0.1250000
        k(    4) = (   0.0379955   0.0000049   0.0000000), wk =   0.2500000
        k(    5) = (   0.0379955   0.0419400   0.0000000), wk =   0.2500000
        k(    6) = (   0.0379955  -0.0838652   0.0000000), wk =   0.2500000
        k(    7) = (   0.0379955  -0.0419301   0.0000000), wk =   0.2500000
        k(    8) = (  -0.0759910  -0.0000099   0.0000000), wk =   0.1250000
        k(    9) = (  -0.0759910   0.0419252   0.0000000), wk =   0.2500000
        k(   10) = (  -0.0759910  -0.0838800   0.0000000), wk =   0.1250000

     Dense  grid:   566857 G-vectors     FFT dimensions: (  72,  64, 270)

     Smooth grid:   143421 G-vectors     FFT dimensions: (  45,  40, 180)

     Estimated max dynamical RAM per process >     456.64 MB

     Estimated total dynamical RAM >       3.57 GB
     Cannot read rho : file not found

     Initial potential from superposition of free atoms

     starting charge  381.99915, renormalised to  398.00000

     negative rho (up, down):  1.687E-02 0.000E+00


     %%%%%%%%%%%%%%%%%%%%%%%%%%%%%%%%%%%%%%%%%%%%%%%%%%%%%%%%%%%%%%%%%%%%%%%%
     %                                                                      %
     % You are using vdW-DF, which was implemented by the Thonhauser group. %
     % Please cite the following two papers that made this development      %
     % possible and the two reviews that describe the various versions:     %
     %                                                                      %
     %   T. Thonhauser et al., PRL 115, 136402 (2015).                      %
     %   T. Thonhauser et al., PRB 76, 125112 (2007).                       %
     %   K. Berland et al., Rep. Prog. Phys. 78, 066501 (2015).             %
     %   D.C. Langreth et al., J. Phys.: Condens. Matter 21, 084203 (2009). %
     %                                                                      %
     %                                                                      %
     % If you are calculating the stress with vdW-DF, please also cite:     %
     %                                                                      %
     %   R. Sabatini et al., J. Phys.: Condens. Matter 24, 424209 (2012).   %
     %                                                                      %
     %%%%%%%%%%%%%%%%%%%%%%%%%%%%%%%%%%%%%%%%%%%%%%%%%%%%%%%%%%%%%%%%%%%%%%%%


 
     Adding external electric field

     Computed dipole along edir(3) : 
        Dipole               -8.7637 Ry au,        -22.2752 Debye
        Dipole field         -0.0165 Ry au, 
 
        Potential amp.        1.5331 Ry
        Total length         46.3494 bohr
 
     Starting wfcs are  301 atomic wfcs
  @ DRIVER MODE: Message from server: STATUS
  @ DRIVER MODE: Message from server: POSDATA
  @ DRIVER MODE: Reading and sharing cell 
  @ DRIVER MODE: Reading and sharing positions 
  @ DRIVER MODE: Received positions 

     total cpu time spent up to now is       14.3 secs

     Self-consistent Calculation

     iteration #  1     ecut=    29.40 Ry     beta= 0.05
     Davidson diagonalization with overlap
     c_bands:  2 eigenvalues not converged
     c_bands:  1 eigenvalues not converged
     c_bands:  1 eigenvalues not converged
     c_bands:  2 eigenvalues not converged
     ethr =  1.00E-05,  avg # of iterations = 18.0

     negative rho (up, down):  1.297E-02 0.000E+00
 
     Adding external electric field

     Computed dipole along edir(3) : 
        Dipole               42.3497 Ry au,        107.6421 Debye
        Dipole field          0.0799 Ry au, 
 
        Potential amp.       -7.4084 Ry
        Total length         46.3494 bohr
 

     total cpu time spent up to now is       62.6 secs

     total energy              =   -2565.26723665 Ry
     estimated scf accuracy    <    4294.48758248 Ry

     iteration #  2     ecut=    29.40 Ry     beta= 0.05
     Davidson diagonalization with overlap
     ethr =  1.00E-02,  avg # of iterations = 23.3

     negative rho (up, down):  3.579E-03 0.000E+00
 
     Adding external electric field

     Computed dipole along edir(3) : 
        Dipole               -1.7610 Ry au,         -4.4760 Debye
        Dipole field         -0.0033 Ry au, 
 
        Potential amp.        0.3081 Ry
        Total length         46.3494 bohr
 

     total cpu time spent up to now is      147.7 secs

     total energy              =   -2485.10228825 Ry
     estimated scf accuracy    <   66043.79248770 Ry

     iteration #  3     ecut=    29.40 Ry     beta= 0.05
     Davidson diagonalization with overlap
     ethr =  1.00E-02,  avg # of iterations = 14.3

     negative rho (up, down):  3.661E-03 0.000E+00
 
     Adding external electric field

     Computed dipole along edir(3) : 
        Dipole               -4.1331 Ry au,        -10.5053 Debye
        Dipole field         -0.0078 Ry au, 
 
        Potential amp.        0.7230 Ry
        Total length         46.3494 bohr
 

     total cpu time spent up to now is      203.1 secs

     total energy              =   -2934.60726887 Ry
     estimated scf accuracy    <    4277.77435499 Ry

     iteration #  4     ecut=    29.40 Ry     beta= 0.05
     Davidson diagonalization with overlap
     c_bands:  1 eigenvalues not converged
     ethr =  1.00E-02,  avg # of iterations = 13.5

     negative rho (up, down):  3.719E-03 0.000E+00
 
     Adding external electric field

     Computed dipole along edir(3) : 
        Dipole               -5.5137 Ry au,        -14.0145 Debye
        Dipole field         -0.0104 Ry au, 
 
        Potential amp.        0.9645 Ry
        Total length         46.3494 bohr
 

     total cpu time spent up to now is      226.6 secs

     total energy              =   -2940.72914464 Ry
     estimated scf accuracy    <    1359.88980082 Ry

     iteration #  5     ecut=    29.40 Ry     beta= 0.05
     Davidson diagonalization with overlap
     ethr =  1.00E-02,  avg # of iterations =  7.7

     negative rho (up, down):  3.751E-03 0.000E+00
 
     Adding external electric field

     Computed dipole along edir(3) : 
        Dipole               -6.3577 Ry au,        -16.1597 Debye
        Dipole field         -0.0120 Ry au, 
 
        Potential amp.        1.1122 Ry
        Total length         46.3494 bohr
 

     total cpu time spent up to now is      242.7 secs

     total energy              =   -2943.27641068 Ry
     estimated scf accuracy    <     458.35547585 Ry

     iteration #  6     ecut=    29.40 Ry     beta= 0.05
     Davidson diagonalization with overlap
     ethr =  1.00E-02,  avg # of iterations =  9.1

     negative rho (up, down):  3.728E-03 0.000E+00
 
     Adding external electric field

     Computed dipole along edir(3) : 
        Dipole               -5.4196 Ry au,        -13.7752 Debye
        Dipole field         -0.0102 Ry au, 
 
        Potential amp.        0.9481 Ry
        Total length         46.3494 bohr
 

     total cpu time spent up to now is      262.9 secs

     total energy              =   -2956.63482983 Ry
     estimated scf accuracy    <      16.44418361 Ry

     iteration #  7     ecut=    29.40 Ry     beta= 0.05
     Davidson diagonalization with overlap
     ethr =  4.13E-03,  avg # of iterations =  3.1

     negative rho (up, down):  3.755E-03 0.000E+00
 
     Adding external electric field

     Computed dipole along edir(3) : 
        Dipole               -4.0768 Ry au,        -10.3621 Debye
        Dipole field         -0.0077 Ry au, 
 
        Potential amp.        0.7132 Ry
        Total length         46.3494 bohr
 

     total cpu time spent up to now is      276.8 secs

     total energy              =   -2956.66018336 Ry
     estimated scf accuracy    <      14.04318280 Ry

     iteration #  8     ecut=    29.40 Ry     beta= 0.05
     Davidson diagonalization with overlap
     ethr =  3.53E-03,  avg # of iterations =  3.0

     negative rho (up, down):  4.041E-03 0.000E+00
 
     Adding external electric field

     Computed dipole along edir(3) : 
        Dipole                2.3440 Ry au,          5.9577 Debye
        Dipole field          0.0044 Ry au, 
 
        Potential amp.       -0.4100 Ry
        Total length         46.3494 bohr
 

     total cpu time spent up to now is      290.3 secs

     total energy              =   -2956.04068118 Ry
     estimated scf accuracy    <      12.25816349 Ry

     iteration #  9     ecut=    29.40 Ry     beta= 0.05
     Davidson diagonalization with overlap
     ethr =  3.08E-03,  avg # of iterations = 13.7

     negative rho (up, down):  4.134E-03 0.000E+00
 
     Adding external electric field

     Computed dipole along edir(3) : 
        Dipole                2.7725 Ry au,          7.0469 Debye
        Dipole field          0.0052 Ry au, 
 
        Potential amp.       -0.4850 Ry
        Total length         46.3494 bohr
 

     total cpu time spent up to now is      316.8 secs

     total energy              =   -3002.99027818 Ry
     estimated scf accuracy    <    2863.55073901 Ry

     iteration # 10     ecut=    29.40 Ry     beta= 0.05
     Davidson diagonalization with overlap
     ethr =  3.08E-03,  avg # of iterations =  1.2

     negative rho (up, down):  4.755E-03 0.000E+00
 
     Adding external electric field

     Computed dipole along edir(3) : 
        Dipole                7.7342 Ry au,         19.6583 Debye
        Dipole field          0.0146 Ry au, 
 
        Potential amp.       -1.3530 Ry
        Total length         46.3494 bohr
 

     total cpu time spent up to now is      329.2 secs

     total energy              =   -3053.26741247 Ry
     estimated scf accuracy    <    2996.16663586 Ry

     iteration # 11     ecut=    29.40 Ry     beta= 0.05
     Davidson diagonalization with overlap
     ethr =  3.08E-03,  avg # of iterations = 14.6

     negative rho (up, down):  4.488E-03 0.000E+00
 
     Adding external electric field

     Computed dipole along edir(3) : 
        Dipole                3.6519 Ry au,          9.2823 Debye
        Dipole field          0.0069 Ry au, 
 
        Potential amp.       -0.6389 Ry
        Total length         46.3494 bohr
 

     total cpu time spent up to now is      351.5 secs

     total energy              =   -2994.39533574 Ry
     estimated scf accuracy    <    4582.80520273 Ry

     iteration # 12     ecut=    29.40 Ry     beta= 0.05
     Davidson diagonalization with overlap
     ethr =  3.08E-03,  avg # of iterations = 13.0

     negative rho (up, down):  4.753E-03 0.000E+00
 
     Adding external electric field

     Computed dipole along edir(3) : 
        Dipole                2.1458 Ry au,          5.4541 Debye
        Dipole field          0.0040 Ry au, 
 
        Potential amp.       -0.3754 Ry
        Total length         46.3494 bohr
 

     total cpu time spent up to now is      374.2 secs

     total energy              =   -2974.52242883 Ry
     estimated scf accuracy    <    2499.54191917 Ry

     iteration # 13     ecut=    29.40 Ry     beta= 0.05
     Davidson diagonalization with overlap
     ethr =  3.08E-03,  avg # of iterations =  8.9

     negative rho (up, down):  4.932E-03 0.000E+00
 
     Adding external electric field

     Computed dipole along edir(3) : 
        Dipole                3.2362 Ry au,          8.2255 Debye
        Dipole field          0.0061 Ry au, 
 
        Potential amp.       -0.5661 Ry
        Total length         46.3494 bohr
 

     total cpu time spent up to now is      390.7 secs

     total energy              =   -2988.00010565 Ry
     estimated scf accuracy    <    2072.39545959 Ry

     iteration # 14     ecut=    29.40 Ry     beta= 0.05
     Davidson diagonalization with overlap
     ethr =  3.08E-03,  avg # of iterations =  1.3

     negative rho (up, down):  5.019E-03 0.000E+00
 
     Adding external electric field

     Computed dipole along edir(3) : 
        Dipole                4.7664 Ry au,         12.1149 Debye
        Dipole field          0.0090 Ry au, 
 
        Potential amp.       -0.8338 Ry
        Total length         46.3494 bohr
 

     total cpu time spent up to now is      403.3 secs

     total energy              =   -3005.69479906 Ry
     estimated scf accuracy    <    2233.39717399 Ry

     iteration # 15     ecut=    29.40 Ry     beta= 0.05
     Davidson diagonalization with overlap
     ethr =  3.08E-03,  avg # of iterations =  8.0

     negative rho (up, down):  5.169E-03 0.000E+00
 
     Adding external electric field

     Computed dipole along edir(3) : 
        Dipole                3.8085 Ry au,          9.6803 Debye
        Dipole field          0.0072 Ry au, 
 
        Potential amp.       -0.6662 Ry
        Total length         46.3494 bohr
 

     total cpu time spent up to now is      418.7 secs

     total energy              =   -2991.15626639 Ry
     estimated scf accuracy    <    2254.47761952 Ry

     iteration # 16     ecut=    29.40 Ry     beta= 0.05
     Davidson diagonalization with overlap
     ethr =  3.08E-03,  avg # of iterations =  4.8

     negative rho (up, down):  4.852E-03 0.000E+00
 
     Adding external electric field

     Computed dipole along edir(3) : 
        Dipole               -0.4619 Ry au,         -1.1739 Debye
        Dipole field         -0.0009 Ry au, 
 
        Potential amp.        0.0808 Ry
        Total length         46.3494 bohr
 

     total cpu time spent up to now is      433.1 secs

     total energy              =   -2953.19958531 Ry
     estimated scf accuracy    <    1987.43824985 Ry

     iteration # 17     ecut=    29.40 Ry     beta= 0.05
     Davidson diagonalization with overlap
     c_bands:  3 eigenvalues not converged
     c_bands:  2 eigenvalues not converged
     c_bands:  2 eigenvalues not converged
     ethr =  3.08E-03,  avg # of iterations = 18.6

     negative rho (up, down):  5.044E-03 0.000E+00
 
     Adding external electric field

     Computed dipole along edir(3) : 
        Dipole               -7.0153 Ry au,        -17.8312 Debye
        Dipole field         -0.0132 Ry au, 
 
        Potential amp.        1.2272 Ry
        Total length         46.3494 bohr
 

     total cpu time spent up to now is      460.1 secs

     total energy              =   -2926.22853938 Ry
     estimated scf accuracy    <     523.68111235 Ry

     iteration # 18     ecut=    29.40 Ry     beta= 0.05
     Davidson diagonalization with overlap
     c_bands:  1 eigenvalues not converged
     c_bands:  1 eigenvalues not converged
     ethr =  3.08E-03,  avg # of iterations = 16.4

     negative rho (up, down):  4.842E-04 0.000E+00
 
     Adding external electric field

     Computed dipole along edir(3) : 
        Dipole               -4.8813 Ry au,        -12.4069 Debye
        Dipole field         -0.0092 Ry au, 
 
        Potential amp.        0.8539 Ry
        Total length         46.3494 bohr
 

     total cpu time spent up to now is      504.0 secs

     total energy              =   -2956.19504868 Ry
     estimated scf accuracy    <    1983.57644669 Ry

     iteration # 19     ecut=    29.40 Ry     beta= 0.05
     Davidson diagonalization with overlap
     ethr =  3.08E-03,  avg # of iterations = 10.0

     negative rho (up, down):  1.484E-03 0.000E+00
 
     Adding external electric field

     Computed dipole along edir(3) : 
        Dipole               -4.6805 Ry au,        -11.8967 Debye
        Dipole field         -0.0088 Ry au, 
 
        Potential amp.        0.8188 Ry
        Total length         46.3494 bohr
 

     total cpu time spent up to now is      524.6 secs

     total energy              =   -2956.58750340 Ry
     estimated scf accuracy    <     825.71357063 Ry

     iteration # 20     ecut=    29.40 Ry     beta= 0.05
     Davidson diagonalization with overlap
     ethr =  3.08E-03,  avg # of iterations =  4.7

     negative rho (up, down):  3.750E-02 0.000E+00
 
     Adding external electric field

     Computed dipole along edir(3) : 
        Dipole               -4.5895 Ry au,        -11.6653 Debye
        Dipole field         -0.0087 Ry au, 
 
        Potential amp.        0.8029 Ry
        Total length         46.3494 bohr
 

     total cpu time spent up to now is      538.5 secs

     total energy              =   -2952.15071804 Ry
     estimated scf accuracy    <     472.51798865 Ry

     iteration # 21     ecut=    29.40 Ry     beta= 0.05
     Davidson diagonalization with overlap
     ethr =  3.08E-03,  avg # of iterations = 11.6

     negative rho (up, down):  6.202E-02 0.000E+00
 
     Adding external electric field

     Computed dipole along edir(3) : 
        Dipole               -4.0732 Ry au,        -10.3532 Debye
        Dipole field         -0.0077 Ry au, 
 
        Potential amp.        0.7126 Ry
        Total length         46.3494 bohr
 

     total cpu time spent up to now is      557.0 secs

     total energy              =   -2952.64720168 Ry
     estimated scf accuracy    <      92.73697397 Ry

     iteration # 22     ecut=    29.40 Ry     beta= 0.05
     Davidson diagonalization with overlap
     ethr =  3.08E-03,  avg # of iterations =  7.3

     negative rho (up, down):  4.354E-02 0.000E+00
 
     Adding external electric field

     Computed dipole along edir(3) : 
        Dipole               -3.3813 Ry au,         -8.5943 Debye
        Dipole field         -0.0064 Ry au, 
 
        Potential amp.        0.5915 Ry
        Total length         46.3494 bohr
 

     total cpu time spent up to now is      572.6 secs

     total energy              =   -2953.69198147 Ry
     estimated scf accuracy    <      12.71388621 Ry

     iteration # 23     ecut=    29.40 Ry     beta= 0.05
     Davidson diagonalization with overlap
     ethr =  3.08E-03,  avg # of iterations =  2.9

     negative rho (up, down):  2.257E-02 0.000E+00
 
     Adding external electric field

     Computed dipole along edir(3) : 
        Dipole               -2.2190 Ry au,         -5.6400 Debye
        Dipole field         -0.0042 Ry au, 
 
        Potential amp.        0.3882 Ry
        Total length         46.3494 bohr
 

     total cpu time spent up to now is      585.8 secs

     total energy              =   -2953.24270766 Ry
     estimated scf accuracy    <       9.21967666 Ry

     iteration # 24     ecut=    29.40 Ry     beta= 0.05
     Davidson diagonalization with overlap
     ethr =  2.32E-03,  avg # of iterations = 11.4

     negative rho (up, down):  8.594E-03 0.000E+00
 
     Adding external electric field

     Computed dipole along edir(3) : 
        Dipole               -1.5908 Ry au,         -4.0434 Debye
        Dipole field         -0.0030 Ry au, 
 
        Potential amp.        0.2783 Ry
        Total length         46.3494 bohr
 

     total cpu time spent up to now is      602.6 secs

     total energy              =   -2954.04731139 Ry
     estimated scf accuracy    <       1.24640816 Ry

     iteration # 25     ecut=    29.40 Ry     beta= 0.05
     Davidson diagonalization with overlap
     c_bands:  5 eigenvalues not converged
     c_bands:  1 eigenvalues not converged
     c_bands:  2 eigenvalues not converged
     c_bands:  2 eigenvalues not converged
     c_bands:  1 eigenvalues not converged
     c_bands:  1 eigenvalues not converged
     c_bands:  2 eigenvalues not converged
     ethr =  3.13E-04,  avg # of iterations = 19.1

     negative rho (up, down):  5.295E-03 0.000E+00
 
     Adding external electric field

     Computed dipole along edir(3) : 
        Dipole               -1.4724 Ry au,         -3.7425 Debye
        Dipole field         -0.0028 Ry au, 
 
        Potential amp.        0.2576 Ry
        Total length         46.3494 bohr
 

     total cpu time spent up to now is      624.7 secs

     total energy              =   -2954.07383243 Ry
     estimated scf accuracy    <       1.04357165 Ry

     iteration # 26     ecut=    29.40 Ry     beta= 0.05
     Davidson diagonalization with overlap
     ethr =  2.62E-04,  avg # of iterations =  2.0

     negative rho (up, down):  1.094E-03 0.000E+00
 
     Adding external electric field

     Computed dipole along edir(3) : 
        Dipole               -0.4272 Ry au,         -1.0858 Debye
        Dipole field         -0.0008 Ry au, 
 
        Potential amp.        0.0747 Ry
        Total length         46.3494 bohr
 

     total cpu time spent up to now is      638.0 secs

     total energy              =   -2953.90608613 Ry
     estimated scf accuracy    <       0.70838351 Ry

     iteration # 27     ecut=    29.40 Ry     beta= 0.05
     Davidson diagonalization with overlap
     c_bands:  2 eigenvalues not converged
     c_bands:  1 eigenvalues not converged
     c_bands:  1 eigenvalues not converged
     ethr =  1.78E-04,  avg # of iterations = 15.3

     negative rho (up, down):  1.087E-03 0.000E+00
 
     Adding external electric field

     Computed dipole along edir(3) : 
        Dipole               -0.6437 Ry au,         -1.6362 Debye
        Dipole field         -0.0012 Ry au, 
 
        Potential amp.        0.1126 Ry
        Total length         46.3494 bohr
 

     total cpu time spent up to now is      662.5 secs

     total energy              =   -2954.08061057 Ry
     estimated scf accuracy    <       0.46344925 Ry

     iteration # 28     ecut=    29.40 Ry     beta= 0.05
     Davidson diagonalization with overlap
     ethr =  1.16E-04,  avg # of iterations =  3.6

     negative rho (up, down):  1.246E-03 0.000E+00
 
     Adding external electric field

     Computed dipole along edir(3) : 
        Dipole                0.0564 Ry au,          0.1433 Debye
        Dipole field          0.0001 Ry au, 
 
        Potential amp.       -0.0099 Ry
        Total length         46.3494 bohr
 

     total cpu time spent up to now is      676.0 secs

     total energy              =   -2954.07032726 Ry
     estimated scf accuracy    <       0.59191915 Ry

     iteration # 29     ecut=    29.40 Ry     beta= 0.05
     Davidson diagonalization with overlap
     ethr =  1.16E-04,  avg # of iterations =  2.4

     negative rho (up, down):  2.610E-03 0.000E+00
 
     Adding external electric field

     Computed dipole along edir(3) : 
        Dipole                0.1893 Ry au,          0.4813 Debye
        Dipole field          0.0004 Ry au, 
 
        Potential amp.       -0.0331 Ry
        Total length         46.3494 bohr
 

     total cpu time spent up to now is      689.6 secs

     total energy              =   -2953.98881553 Ry
     estimated scf accuracy    <       0.91934383 Ry

     iteration # 30     ecut=    29.40 Ry     beta= 0.05
     Davidson diagonalization with overlap
     ethr =  1.16E-04,  avg # of iterations =  6.0

     negative rho (up, down):  2.482E-03 0.000E+00
 
     Adding external electric field

     Computed dipole along edir(3) : 
        Dipole               -0.0866 Ry au,         -0.2202 Debye
        Dipole field         -0.0002 Ry au, 
 
        Potential amp.        0.0152 Ry
        Total length         46.3494 bohr
 

     total cpu time spent up to now is      705.0 secs

     total energy              =   -2954.02685186 Ry
     estimated scf accuracy    <       0.35604594 Ry

     iteration # 31     ecut=    29.40 Ry     beta= 0.05
     Davidson diagonalization with overlap
     ethr =  8.95E-05,  avg # of iterations =  2.0

     negative rho (up, down):  3.217E-03 0.000E+00
 
     Adding external electric field

     Computed dipole along edir(3) : 
        Dipole               -0.1895 Ry au,         -0.4816 Debye
        Dipole field         -0.0004 Ry au, 
 
        Potential amp.        0.0331 Ry
        Total length         46.3494 bohr
 

     total cpu time spent up to now is      718.2 secs

     total energy              =   -2954.00540564 Ry
     estimated scf accuracy    <       0.27513464 Ry

     iteration # 32     ecut=    29.40 Ry     beta= 0.05
     Davidson diagonalization with overlap
     c_bands:  1 eigenvalues not converged
     ethr =  6.91E-05,  avg # of iterations =  6.1

     negative rho (up, down):  1.135E-02 0.000E+00
 
     Adding external electric field

     Computed dipole along edir(3) : 
        Dipole               -0.1515 Ry au,         -0.3850 Debye
        Dipole field         -0.0003 Ry au, 
 
        Potential amp.        0.0265 Ry
        Total length         46.3494 bohr
 

     total cpu time spent up to now is      732.9 secs

     total energy              =   -2953.98617840 Ry
     estimated scf accuracy    <       0.16389248 Ry

     iteration # 33     ecut=    29.40 Ry     beta= 0.05
     Davidson diagonalization with overlap
     c_bands:  2 eigenvalues not converged
     c_bands:  1 eigenvalues not converged
     c_bands:  2 eigenvalues not converged
     c_bands:  1 eigenvalues not converged
     ethr =  4.12E-05,  avg # of iterations = 14.9

     negative rho (up, down):  9.574E-03 0.000E+00
 
     Adding external electric field

     Computed dipole along edir(3) : 
        Dipole               -0.1296 Ry au,         -0.3295 Debye
        Dipole field         -0.0002 Ry au, 
 
        Potential amp.        0.0227 Ry
        Total length         46.3494 bohr
 

     total cpu time spent up to now is      757.1 secs

     total energy              =   -2954.00485467 Ry
     estimated scf accuracy    <       0.11636998 Ry

     iteration # 34     ecut=    29.40 Ry     beta= 0.05
     Davidson diagonalization with overlap
     c_bands:  1 eigenvalues not converged
     c_bands:  2 eigenvalues not converged
     c_bands:  1 eigenvalues not converged
     c_bands:  1 eigenvalues not converged
     ethr =  2.92E-05,  avg # of iterations = 15.8

     negative rho (up, down):  8.404E-03 0.000E+00
 
     Adding external electric field

     Computed dipole along edir(3) : 
        Dipole               -0.0394 Ry au,         -0.1002 Debye
        Dipole field         -0.0001 Ry au, 
 
        Potential amp.        0.0069 Ry
        Total length         46.3494 bohr
 

     total cpu time spent up to now is      778.3 secs

     total energy              =   -2954.01545547 Ry
     estimated scf accuracy    <       0.27729386 Ry

     iteration # 35     ecut=    29.40 Ry     beta= 0.05
     Davidson diagonalization with overlap
     ethr =  2.92E-05,  avg # of iterations =  1.3

     negative rho (up, down):  6.032E-03 0.000E+00
 
     Adding external electric field

     Computed dipole along edir(3) : 
        Dipole                0.1821 Ry au,          0.4628 Debye
        Dipole field          0.0003 Ry au, 
 
        Potential amp.       -0.0319 Ry
        Total length         46.3494 bohr
 

     total cpu time spent up to now is      790.8 secs

     total energy              =   -2954.00172474 Ry
     estimated scf accuracy    <       0.14200320 Ry

     iteration # 36     ecut=    29.40 Ry     beta= 0.05
     Davidson diagonalization with overlap
     ethr =  2.92E-05,  avg # of iterations =  9.9

     negative rho (up, down):  5.101E-03 0.000E+00
 
     Adding external electric field

     Computed dipole along edir(3) : 
        Dipole                0.1934 Ry au,          0.4917 Debye
        Dipole field          0.0004 Ry au, 
 
        Potential amp.       -0.0338 Ry
        Total length         46.3494 bohr
 

     total cpu time spent up to now is      807.2 secs

     total energy              =   -2954.00835041 Ry
     estimated scf accuracy    <       0.04332116 Ry

     iteration # 37     ecut=    29.40 Ry     beta= 0.05
     Davidson diagonalization with overlap
     ethr =  1.09E-05,  avg # of iterations =  3.9

     negative rho (up, down):  7.957E-03 0.000E+00
 
     Adding external electric field

     Computed dipole along edir(3) : 
        Dipole                0.1835 Ry au,          0.4663 Debye
        Dipole field          0.0003 Ry au, 
 
        Potential amp.       -0.0321 Ry
        Total length         46.3494 bohr
 

     total cpu time spent up to now is      821.1 secs

     total energy              =   -2954.00825769 Ry
     estimated scf accuracy    <       0.03181467 Ry

     iteration # 38     ecut=    29.40 Ry     beta= 0.05
     Davidson diagonalization with overlap
     ethr =  7.99E-06,  avg # of iterations =  7.3

     negative rho (up, down):  1.187E-02 0.000E+00
 
     Adding external electric field

     Computed dipole along edir(3) : 
        Dipole                0.1305 Ry au,          0.3317 Debye
        Dipole field          0.0002 Ry au, 
 
        Potential amp.       -0.0228 Ry
        Total length         46.3494 bohr
 

     total cpu time spent up to now is      836.9 secs

     total energy              =   -2954.01169722 Ry
     estimated scf accuracy    <       0.01715006 Ry

     iteration # 39     ecut=    29.40 Ry     beta= 0.05
     Davidson diagonalization with overlap
     c_bands:  1 eigenvalues not converged
     c_bands:  1 eigenvalues not converged
     ethr =  4.31E-06,  avg # of iterations = 10.5

     negative rho (up, down):  1.119E-02 0.000E+00
 
     Adding external electric field

     Computed dipole along edir(3) : 
        Dipole                0.2188 Ry au,          0.5561 Debye
        Dipole field          0.0004 Ry au, 
 
        Potential amp.       -0.0383 Ry
        Total length         46.3494 bohr
 

     total cpu time spent up to now is      855.4 secs

     total energy              =   -2954.00986563 Ry
     estimated scf accuracy    <       0.02203756 Ry

     iteration # 40     ecut=    29.40 Ry     beta= 0.05
     Davidson diagonalization with overlap
     c_bands:  1 eigenvalues not converged
     c_bands:  1 eigenvalues not converged
     ethr =  4.31E-06,  avg # of iterations = 11.2

     negative rho (up, down):  1.200E-02 0.000E+00
 
     Adding external electric field

     Computed dipole along edir(3) : 
        Dipole                0.2403 Ry au,          0.6108 Debye
        Dipole field          0.0005 Ry au, 
 
        Potential amp.       -0.0420 Ry
        Total length         46.3494 bohr
 

     total cpu time spent up to now is      872.1 secs

     total energy              =   -2954.01147092 Ry
     estimated scf accuracy    <       0.00442818 Ry

     iteration # 41     ecut=    29.40 Ry     beta= 0.05
     Davidson diagonalization with overlap
     c_bands:  1 eigenvalues not converged
     ethr =  1.11E-06,  avg # of iterations = 11.3

     negative rho (up, down):  1.244E-02 0.000E+00
 
     Adding external electric field

     Computed dipole along edir(3) : 
        Dipole                0.2793 Ry au,          0.7098 Debye
        Dipole field          0.0005 Ry au, 
 
        Potential amp.       -0.0489 Ry
        Total length         46.3494 bohr
 

     total cpu time spent up to now is      889.7 secs

     total energy              =   -2954.01174579 Ry
     estimated scf accuracy    <       0.00266619 Ry

     iteration # 42     ecut=    29.40 Ry     beta= 0.05
     Davidson diagonalization with overlap
     c_bands:  1 eigenvalues not converged
     ethr =  6.70E-07,  avg # of iterations =  8.5

     negative rho (up, down):  1.336E-02 0.000E+00
 
     Adding external electric field

     Computed dipole along edir(3) : 
        Dipole                0.2557 Ry au,          0.6498 Debye
        Dipole field          0.0005 Ry au, 
 
        Potential amp.       -0.0447 Ry
        Total length         46.3494 bohr
 

     total cpu time spent up to now is      909.1 secs

     total energy              =   -2954.01213872 Ry
     estimated scf accuracy    <       0.00208216 Ry

     iteration # 43     ecut=    29.40 Ry     beta= 0.05
     Davidson diagonalization with overlap
     ethr =  5.23E-07,  avg # of iterations =  2.9

     negative rho (up, down):  1.561E-02 0.000E+00
 
     Adding external electric field

     Computed dipole along edir(3) : 
        Dipole                0.1884 Ry au,          0.4788 Debye
        Dipole field          0.0004 Ry au, 
 
        Potential amp.       -0.0330 Ry
        Total length         46.3494 bohr
 

     total cpu time spent up to now is      922.2 secs

     total energy              =   -2954.01197017 Ry
     estimated scf accuracy    <       0.00157380 Ry

     iteration # 44     ecut=    29.40 Ry     beta= 0.05
     Davidson diagonalization with overlap
     c_bands:  1 eigenvalues not converged
     ethr =  3.95E-07,  avg # of iterations =  7.6

     negative rho (up, down):  1.575E-02 0.000E+00
 
     Adding external electric field

     Computed dipole along edir(3) : 
        Dipole                0.2432 Ry au,          0.6181 Debye
        Dipole field          0.0005 Ry au, 
 
        Potential amp.       -0.0425 Ry
        Total length         46.3494 bohr
 

     total cpu time spent up to now is      944.6 secs

     total energy              =   -2954.01184470 Ry
     estimated scf accuracy    <       0.00295981 Ry

     iteration # 45     ecut=    29.40 Ry     beta= 0.05
     Davidson diagonalization with overlap
     ethr =  3.95E-07,  avg # of iterations =  6.6

     negative rho (up, down):  1.586E-02 0.000E+00
 
     Adding external electric field

     Computed dipole along edir(3) : 
        Dipole                0.2357 Ry au,          0.5990 Debye
        Dipole field          0.0004 Ry au, 
 
        Potential amp.       -0.0412 Ry
        Total length         46.3494 bohr
 

     total cpu time spent up to now is      966.6 secs

     total energy              =   -2954.01247964 Ry
     estimated scf accuracy    <       0.00064194 Ry

     iteration # 46     ecut=    29.40 Ry     beta= 0.05
     Davidson diagonalization with overlap
     ethr =  1.61E-07,  avg # of iterations =  1.4

     negative rho (up, down):  1.593E-02 0.000E+00
 
     Adding external electric field

     Computed dipole along edir(3) : 
        Dipole                0.2044 Ry au,          0.5196 Debye
        Dipole field          0.0004 Ry au, 
 
        Potential amp.       -0.0358 Ry
        Total length         46.3494 bohr
 

     total cpu time spent up to now is      979.3 secs

     total energy              =   -2954.01235608 Ry
     estimated scf accuracy    <       0.00044976 Ry

     iteration # 47     ecut=    29.40 Ry     beta= 0.05
     Davidson diagonalization with overlap
     ethr =  1.13E-07,  avg # of iterations =  6.5

     negative rho (up, down):  1.627E-02 0.000E+00
 
     Adding external electric field

     Computed dipole along edir(3) : 
        Dipole                0.2262 Ry au,          0.5750 Debye
        Dipole field          0.0004 Ry au, 
 
        Potential amp.       -0.0396 Ry
        Total length         46.3494 bohr
 

     total cpu time spent up to now is     1002.8 secs

     total energy              =   -2954.01229629 Ry
     estimated scf accuracy    <       0.00127908 Ry

     iteration # 48     ecut=    29.40 Ry     beta= 0.05
     Davidson diagonalization with overlap
     ethr =  1.13E-07,  avg # of iterations =  7.6

     negative rho (up, down):  1.617E-02 0.000E+00
 
     Adding external electric field

     Computed dipole along edir(3) : 
        Dipole                0.2165 Ry au,          0.5503 Debye
        Dipole field          0.0004 Ry au, 
 
        Potential amp.       -0.0379 Ry
        Total length         46.3494 bohr
 

     total cpu time spent up to now is     1025.9 secs

     total energy              =   -2954.01258116 Ry
     estimated scf accuracy    <       0.00030313 Ry

     iteration # 49     ecut=    29.40 Ry     beta= 0.05
     Davidson diagonalization with overlap
     ethr =  7.62E-08,  avg # of iterations =  1.0

     negative rho (up, down):  1.640E-02 0.000E+00
 
     Adding external electric field

     Computed dipole along edir(3) : 
        Dipole                0.1925 Ry au,          0.4892 Debye
        Dipole field          0.0004 Ry au, 
 
        Potential amp.       -0.0337 Ry
        Total length         46.3494 bohr
 

     total cpu time spent up to now is     1038.1 secs

     total energy              =   -2954.01253013 Ry
     estimated scf accuracy    <       0.00019219 Ry

     iteration # 50     ecut=    29.40 Ry     beta= 0.05
     Davidson diagonalization with overlap
     ethr =  4.83E-08,  avg # of iterations =  6.7

     negative rho (up, down):  1.659E-02 0.000E+00
 
     Adding external electric field

     Computed dipole along edir(3) : 
        Dipole                0.2113 Ry au,          0.5370 Debye
        Dipole field          0.0004 Ry au, 
 
        Potential amp.       -0.0370 Ry
        Total length         46.3494 bohr
 

     total cpu time spent up to now is     1063.0 secs

     total energy              =   -2954.01256776 Ry
     estimated scf accuracy    <       0.00055616 Ry

     iteration # 51     ecut=    29.40 Ry     beta= 0.05
     Davidson diagonalization with overlap
     ethr =  4.83E-08,  avg # of iterations =  6.6

     negative rho (up, down):  1.671E-02 0.000E+00
 
     Adding external electric field

     Computed dipole along edir(3) : 
        Dipole                0.2170 Ry au,          0.5515 Debye
        Dipole field          0.0004 Ry au, 
 
        Potential amp.       -0.0380 Ry
        Total length         46.3494 bohr
 

     total cpu time spent up to now is     1083.7 secs

     total energy              =   -2954.01266753 Ry
     estimated scf accuracy    <       0.00003838 Ry

     iteration # 52     ecut=    29.40 Ry     beta= 0.05
     Davidson diagonalization with overlap
     ethr =  9.64E-09,  avg # of iterations =  5.3

     negative rho (up, down):  1.720E-02 0.000E+00
 
     Adding external electric field

     Computed dipole along edir(3) : 
        Dipole                0.2167 Ry au,          0.5509 Debye
        Dipole field          0.0004 Ry au, 
 
        Potential amp.       -0.0379 Ry
        Total length         46.3494 bohr
 

     total cpu time spent up to now is     1103.5 secs

     total energy              =   -2954.01269294 Ry
     estimated scf accuracy    <       0.00005312 Ry

     iteration # 53     ecut=    29.40 Ry     beta= 0.05
     Davidson diagonalization with overlap
     ethr =  9.64E-09,  avg # of iterations =  2.5

     negative rho (up, down):  1.730E-02 0.000E+00
 
     Adding external electric field

     Computed dipole along edir(3) : 
        Dipole                0.2157 Ry au,          0.5483 Debye
        Dipole field          0.0004 Ry au, 
 
        Potential amp.       -0.0377 Ry
        Total length         46.3494 bohr
 

     total cpu time spent up to now is     1118.6 secs

     total energy              =   -2954.01271302 Ry
     estimated scf accuracy    <       0.00001532 Ry

     iteration # 54     ecut=    29.40 Ry     beta= 0.05
     Davidson diagonalization with overlap
     ethr =  3.85E-09,  avg # of iterations =  5.0

     negative rho (up, down):  1.725E-02 0.000E+00
 
     Adding external electric field

     Computed dipole along edir(3) : 
        Dipole                0.2174 Ry au,          0.5526 Debye
        Dipole field          0.0004 Ry au, 
 
        Potential amp.       -0.0380 Ry
        Total length         46.3494 bohr
 

     total cpu time spent up to now is     1139.6 secs

     total energy              =   -2954.01273462 Ry
     estimated scf accuracy    <       0.00001156 Ry

     iteration # 55     ecut=    29.40 Ry     beta= 0.05
     Davidson diagonalization with overlap
     ethr =  2.90E-09,  avg # of iterations =  1.2

     negative rho (up, down):  1.733E-02 0.000E+00
 
     Adding external electric field

     Computed dipole along edir(3) : 
        Dipole                0.2171 Ry au,          0.5518 Debye
        Dipole field          0.0004 Ry au, 
 
        Potential amp.       -0.0380 Ry
        Total length         46.3494 bohr
 

     total cpu time spent up to now is     1152.1 secs

     total energy              =   -2954.01275103 Ry
     estimated scf accuracy    <       0.00000559 Ry

     iteration # 56     ecut=    29.40 Ry     beta= 0.05
     Davidson diagonalization with overlap
     ethr =  1.40E-09,  avg # of iterations =  5.0

     negative rho (up, down):  1.729E-02 0.000E+00
 
     Adding external electric field

     Computed dipole along edir(3) : 
        Dipole                0.2178 Ry au,          0.5537 Debye
        Dipole field          0.0004 Ry au, 
 
        Potential amp.       -0.0381 Ry
        Total length         46.3494 bohr
 

     total cpu time spent up to now is     1168.6 secs

     total energy              =   -2954.01276422 Ry
     estimated scf accuracy    <       0.00000403 Ry

     iteration # 57     ecut=    29.40 Ry     beta= 0.05
     Davidson diagonalization with overlap
     ethr =  1.01E-09,  avg # of iterations =  5.0

     negative rho (up, down):  1.730E-02 0.000E+00
 
     Adding external electric field

     Computed dipole along edir(3) : 
        Dipole                0.2178 Ry au,          0.5536 Debye
        Dipole field          0.0004 Ry au, 
 
        Potential amp.       -0.0381 Ry
        Total length         46.3494 bohr
 

     total cpu time spent up to now is     1186.1 secs

     total energy              =   -2954.01277762 Ry
     estimated scf accuracy    <       0.00000062 Ry

     iteration # 58     ecut=    29.40 Ry     beta= 0.05
     Davidson diagonalization with overlap
     ethr =  1.57E-10,  avg # of iterations =  2.9

     negative rho (up, down):  1.730E-02 0.000E+00
 
     Adding external electric field

     Computed dipole along edir(3) : 
        Dipole                0.2174 Ry au,          0.5525 Debye
        Dipole field          0.0004 Ry au, 
 
        Potential amp.       -0.0380 Ry
        Total length         46.3494 bohr
 

     total cpu time spent up to now is     1201.0 secs

     total energy              =   -2954.01278897 Ry
     estimated scf accuracy    <       0.00000047 Ry

     iteration # 59     ecut=    29.40 Ry     beta= 0.05
     Davidson diagonalization with overlap
     ethr =  1.18E-10,  avg # of iterations =  5.7

     negative rho (up, down):  1.730E-02 0.000E+00
 
     Adding external electric field

     Computed dipole along edir(3) : 
        Dipole                0.2174 Ry au,          0.5526 Debye
        Dipole field          0.0004 Ry au, 
 
        Potential amp.       -0.0380 Ry
        Total length         46.3494 bohr
 

     total cpu time spent up to now is     1221.9 secs

     total energy              =   -2954.01279922 Ry
     estimated scf accuracy    <       0.00000106 Ry

     iteration # 60     ecut=    29.40 Ry     beta= 0.05
     Davidson diagonalization with overlap
     ethr =  1.18E-10,  avg # of iterations =  5.0

     negative rho (up, down):  1.728E-02 0.000E+00
 
     Adding external electric field

     Computed dipole along edir(3) : 
        Dipole                0.2174 Ry au,          0.5526 Debye
        Dipole field          0.0004 Ry au, 
 
        Potential amp.       -0.0380 Ry
        Total length         46.3494 bohr
 

     total cpu time spent up to now is     1237.7 secs

     total energy              =   -2954.01280837 Ry
     estimated scf accuracy    <       0.00000048 Ry

     iteration # 61     ecut=    29.40 Ry     beta= 0.05
     Davidson diagonalization with overlap
     ethr =  1.18E-10,  avg # of iterations =  3.4

     negative rho (up, down):  1.726E-02 0.000E+00
 
     Adding external electric field

     Computed dipole along edir(3) : 
        Dipole                0.2171 Ry au,          0.5519 Debye
        Dipole field          0.0004 Ry au, 
 
        Potential amp.       -0.0380 Ry
        Total length         46.3494 bohr
 

     total cpu time spent up to now is     1252.0 secs

     total energy              =   -2954.01281672 Ry
     estimated scf accuracy    <       0.00000020 Ry

     iteration # 62     ecut=    29.40 Ry     beta= 0.05
     Davidson diagonalization with overlap
     ethr =  5.15E-11,  avg # of iterations =  5.3

     negative rho (up, down):  1.727E-02 0.000E+00
 
     Adding external electric field

     Computed dipole along edir(3) : 
        Dipole                0.2170 Ry au,          0.5515 Debye
        Dipole field          0.0004 Ry au, 
 
        Potential amp.       -0.0380 Ry
        Total length         46.3494 bohr
 

     total cpu time spent up to now is     1272.1 secs

     total energy              =   -2954.01282418 Ry
     estimated scf accuracy    <       0.00000014 Ry

     iteration # 63     ecut=    29.40 Ry     beta= 0.05
     Davidson diagonalization with overlap
     ethr =  3.39E-11,  avg # of iterations =  3.5

     negative rho (up, down):  1.727E-02 0.000E+00
 
     Adding external electric field

     Computed dipole along edir(3) : 
        Dipole                0.2169 Ry au,          0.5513 Debye
        Dipole field          0.0004 Ry au, 
 
        Potential amp.       -0.0379 Ry
        Total length         46.3494 bohr
 

     total cpu time spent up to now is     1287.2 secs

     total energy              =   -2954.01283096 Ry
     estimated scf accuracy    <       0.00000007 Ry

     iteration # 64     ecut=    29.40 Ry     beta= 0.05
     Davidson diagonalization with overlap
     ethr =  1.88E-11,  avg # of iterations =  5.0

     negative rho (up, down):  1.727E-02 0.000E+00
 
     Adding external electric field

     Computed dipole along edir(3) : 
        Dipole                0.2169 Ry au,          0.5514 Debye
        Dipole field          0.0004 Ry au, 
 
        Potential amp.       -0.0380 Ry
        Total length         46.3494 bohr
 

     total cpu time spent up to now is     1307.9 secs

     total energy              =   -2954.01283705 Ry
     estimated scf accuracy    <       0.00000020 Ry

     iteration # 65     ecut=    29.40 Ry     beta= 0.05
     Davidson diagonalization with overlap
     ethr =  1.88E-11,  avg # of iterations =  3.8

     negative rho (up, down):  1.726E-02 0.000E+00
 
     Adding external electric field

     Computed dipole along edir(3) : 
        Dipole                0.2170 Ry au,          0.5517 Debye
        Dipole field          0.0004 Ry au, 
 
        Potential amp.       -0.0380 Ry
        Total length         46.3494 bohr
 

     total cpu time spent up to now is     1323.5 secs

     total energy              =   -2954.01284253 Ry
     estimated scf accuracy    <       0.00000009 Ry

     iteration # 66     ecut=    29.40 Ry     beta= 0.05
     Davidson diagonalization with overlap
     ethr =  1.88E-11,  avg # of iterations =  5.0

     negative rho (up, down):  1.726E-02 0.000E+00
 
     Adding external electric field

     Computed dipole along edir(3) : 
        Dipole                0.2170 Ry au,          0.5516 Debye
        Dipole field          0.0004 Ry au, 
 
        Potential amp.       -0.0380 Ry
        Total length         46.3494 bohr
 

     total cpu time spent up to now is     1345.0 secs

     total energy              =   -2954.01284749 Ry
     estimated scf accuracy    <       0.00000007 Ry

     iteration # 67     ecut=    29.40 Ry     beta= 0.05
     Davidson diagonalization with overlap
     ethr =  1.87E-11,  avg # of iterations =  1.0

     negative rho (up, down):  1.730E-02 0.000E+00
 
     Adding external electric field

     Computed dipole along edir(3) : 
        Dipole                0.2166 Ry au,          0.5505 Debye
        Dipole field          0.0004 Ry au, 
 
        Potential amp.       -0.0379 Ry
        Total length         46.3494 bohr
 

     total cpu time spent up to now is     1357.3 secs

     End of self-consistent calculation

          k = 0.0000 0.0000 0.0000 ( 18029 PWs)   bands (ev):

   -56.9284 -56.8949 -56.0277 -55.9928 -55.7925 -55.7245 -55.6372 -55.4801
   -55.4462 -55.4071 -55.3940 -55.3290 -55.3232 -55.2787 -55.1321 -55.0560
   -33.3476 -33.2003 -33.1722 -33.1070 -33.0167 -32.9746 -32.5105 -32.2682
   -32.2484 -32.2224 -32.1701 -32.1651 -32.1395 -32.0282 -32.0083 -31.9612
   -31.9440 -31.9291 -31.9121 -31.8897 -31.8881 -31.8659 -31.8592 -31.8278
   -31.8273 -31.8028 -31.7580 -31.7182 -31.6844 -31.6771 -31.6178 -31.6077
   -31.6039 -31.5875 -31.5757 -31.5469 -31.5265 -31.5209 -31.5072 -31.5006
   -31.4923 -31.4419 -31.3978 -31.3744 -31.3358 -31.3112 -31.3051 -31.2386
   -17.0348 -16.4894 -16.4454 -16.2463 -16.1436 -16.1238 -16.0864 -16.0370
   -15.8374 -15.7872 -15.7498 -15.6839 -15.5866 -15.4301 -15.3332 -15.1602
   -15.1104 -15.0791 -15.0614 -15.0553 -15.0488 -15.0360 -14.9818 -14.9256
   -14.8854 -14.8024 -14.7472 -14.6375 -14.4113 -14.3819 -13.9773 -13.8703
   -13.8042  -8.4752  -4.6085  -4.1054  -3.9682  -3.9364  -3.7791  -3.6259
    -3.5011  -3.4482  -3.4220  -3.3141  -3.2973  -3.2876  -3.1981  -3.0689
    -2.9984  -2.9870  -2.9185  -2.9022  -2.8729  -2.8577  -2.6956  -2.6634
    -2.5692  -2.5168  -2.4954  -2.4145  -2.4052  -2.3454  -2.2954  -2.2840
    -2.2610  -2.2024  -2.1986  -2.1272  -2.0987  -2.0238  -1.9988  -1.9680
    -1.9443  -1.8731  -1.7972  -1.7630  -1.6081  -1.5713  -1.5389  -1.5036
    -1.4868  -1.4063  -1.3360  -1.2538  -1.2194  -1.1523  -1.1039  -1.0641
    -1.0513  -0.9362  -0.9115  -0.8538  -0.7901  -0.7738  -0.7669  -0.7213
    -0.6072  -0.5308  -0.5196  -0.4982  -0.4343  -0.4143  -0.3767  -0.3528
    -0.2770  -0.2597  -0.1512  -0.0787  -0.0469  -0.0219   0.0787   0.1580
     0.1794   0.2216   0.2634   0.3071   0.3357   0.3798   0.4478   0.4954
     0.5187   0.5416   0.5700   0.6660   0.7171   0.7538   0.8097   0.8253
     0.8899   0.9605   0.9877   1.0765   1.1208   1.4865   1.6385   2.3648
     2.5354   2.8115   2.9847   3.3005   3.3505   3.3664   3.3680   3.6542
     3.7730

          k = 0.0000 0.0419 0.0000 ( 17933 PWs)   bands (ev):

   -56.9235 -56.8997 -56.0230 -55.9974 -55.7902 -55.7266 -55.6368 -55.4751
   -55.4511 -55.4051 -55.3943 -55.3308 -55.3225 -55.2780 -55.1328 -55.0565
   -33.2943 -33.1961 -33.1760 -33.0938 -33.0304 -33.0299 -32.4582 -32.2368
   -32.2154 -32.2143 -32.1992 -32.1770 -32.1718 -32.0250 -32.0019 -31.9571
   -31.9448 -31.9362 -31.9189 -31.9057 -31.8644 -31.8350 -31.8235 -31.8112
   -31.8062 -31.8008 -31.7397 -31.6805 -31.6727 -31.6650 -31.6267 -31.6158
   -31.6156 -31.6046 -31.5738 -31.5645 -31.5583 -31.5487 -31.5259 -31.5199
   -31.5028 -31.4388 -31.4280 -31.3925 -31.3350 -31.3327 -31.3109 -31.2547
   -16.9143 -16.4407 -16.3833 -16.2945 -16.1865 -16.0653 -16.0623 -15.9352
   -15.8973 -15.7206 -15.7052 -15.6675 -15.5315 -15.4453 -15.3752 -15.2280
   -15.1546 -15.1301 -15.1096 -15.0620 -15.0256 -14.9908 -14.9810 -14.9207
   -14.8705 -14.8113 -14.7945 -14.6967 -14.4793 -14.4471 -13.9860 -13.9122
   -13.8156  -8.4746  -4.4265  -4.0917  -3.9550  -3.7785  -3.6384  -3.5797
    -3.4007  -3.3608  -3.3468  -3.3452  -3.2957  -3.1875  -3.1384  -3.0136
    -2.9854  -2.9352  -2.8970  -2.8563  -2.8451  -2.8231  -2.8018  -2.6901
    -2.6236  -2.6123  -2.5855  -2.5024  -2.4755  -2.4475  -2.3901  -2.3472
    -2.3138  -2.2764  -2.1726  -2.1347  -2.0800  -2.0112  -1.9952  -1.9453
    -1.8486  -1.7877  -1.7771  -1.7045  -1.6171  -1.5801  -1.5430  -1.4607
    -1.4195  -1.3496  -1.2997  -1.2575  -1.2046  -1.1507  -1.1258  -1.0499
    -1.0124  -0.9753  -0.8576  -0.8395  -0.7668  -0.7146  -0.6395  -0.6166
    -0.5632  -0.5453  -0.5193  -0.4759  -0.4362  -0.4272  -0.3831  -0.3329
    -0.3173  -0.2995  -0.2543  -0.1795  -0.1041  -0.0735  -0.0325   0.0452
     0.1015   0.1282   0.1958   0.2272   0.2374   0.2587   0.3371   0.3683
     0.3936   0.4714   0.5116   0.5657   0.6048   0.7364   0.8076   0.8192
     0.8551   0.8929   0.9476   1.0276   1.0362   1.3938   1.5687   2.6330
     2.6390   2.8264   3.1743   3.2008   3.2348   3.3165   3.5162   3.6727
     3.7683

          k = 0.0000-0.0839 0.0000 ( 17884 PWs)   bands (ev):

   -56.9123 -56.9109 -56.0149 -56.0054 -55.7879 -55.7289 -55.6364 -55.4636
   -55.4625 -55.4030 -55.3946 -55.3328 -55.3217 -55.2774 -55.1335 -55.0571
   -33.1867 -33.1853 -33.1644 -33.1630 -33.0623 -33.0613 -32.3340 -32.3259
   -32.2099 -32.1995 -32.1980 -32.1918 -32.1077 -32.0563 -32.0213 -31.9936
   -31.9550 -31.9453 -31.9105 -31.8739 -31.8667 -31.8151 -31.8142 -31.7725
   -31.7297 -31.6998 -31.6837 -31.6820 -31.6727 -31.6681 -31.6482 -31.6448
   -31.6439 -31.6329 -31.6227 -31.5974 -31.5828 -31.5705 -31.5262 -31.5231
   -31.5003 -31.4851 -31.4376 -31.3992 -31.3752 -31.3343 -31.3107 -31.2661
   -16.6161 -16.6143 -16.4355 -16.1727 -16.1638 -16.0420 -16.0420 -15.8915
   -15.8630 -15.7503 -15.6213 -15.5791 -15.5332 -15.4307 -15.3970 -15.3037
   -15.2536 -15.2306 -15.2167 -15.0367 -14.9882 -14.9230 -14.9118 -14.8988
   -14.8442 -14.8353 -14.8143 -14.7815 -14.5853 -14.5361 -13.9752 -13.9746
   -13.8265  -8.4741  -4.0779  -3.9719  -3.9717  -3.9615  -3.4640  -3.4614
    -3.4170  -3.4050  -3.3393  -3.3043  -3.0928  -3.0754  -3.0028  -2.9870
    -2.9486  -2.9272  -2.9067  -2.8864  -2.8493  -2.8314  -2.7996  -2.6889
    -2.6292  -2.6114  -2.6022  -2.5816  -2.5018  -2.4439  -2.3841  -2.3600
    -2.3025  -2.2301  -2.2128  -2.1968  -2.1533  -2.1073  -2.0698  -2.0519
    -1.8663  -1.7392  -1.6736  -1.6451  -1.6160  -1.5275  -1.4672  -1.4008
    -1.3266  -1.2530  -1.1912  -1.1768  -1.1664  -1.1421  -1.1152  -1.0542
    -1.0058  -0.9921  -0.9428  -0.9260  -0.8165  -0.7692  -0.7604  -0.6984
    -0.6865  -0.6268  -0.6098  -0.5660  -0.4852  -0.4069  -0.3960  -0.3206
    -0.3061  -0.2696  -0.2293  -0.1655  -0.1419  -0.0523  -0.0151   0.0087
     0.0334   0.0619   0.1065   0.1286   0.1524   0.1760   0.2115   0.2712
     0.3110   0.3637   0.4184   0.5119   0.5367   0.6176   0.7515   0.8332
     0.9244   0.9348   0.9660   0.9893   1.0837   1.2091   1.5350   2.8887
     2.8902   3.0097   3.0105   3.0739   3.0747   3.4407   3.4414   3.6858
     3.7486

          k = 0.0380 0.0000 0.0000 ( 17913 PWs)   bands (ev):

   -56.9283 -56.8948 -56.0276 -55.9927 -55.7924 -55.7244 -55.6371 -55.4800
   -55.4461 -55.4069 -55.3939 -55.3288 -55.3232 -55.2786 -55.1320 -55.0559
   -33.3482 -33.2001 -33.1721 -33.1051 -33.0164 -32.9744 -32.5106 -32.2800
   -32.2482 -32.2110 -32.1652 -32.1565 -32.1392 -32.0280 -32.0193 -31.9610
   -31.9457 -31.9295 -31.9103 -31.8906 -31.8894 -31.8650 -31.8589 -31.8295
   -31.8280 -31.8010 -31.7583 -31.7186 -31.6842 -31.6661 -31.6112 -31.6072
   -31.6038 -31.5876 -31.5757 -31.5452 -31.5312 -31.5214 -31.5130 -31.5001
   -31.4920 -31.4418 -31.3977 -31.3743 -31.3378 -31.3116 -31.3050 -31.2384
   -16.9331 -16.4426 -16.4181 -16.4035 -16.1992 -16.0842 -16.0082 -15.9612
   -15.9132 -15.7047 -15.7006 -15.6699 -15.6124 -15.5947 -15.2227 -15.1974
   -15.1899 -15.1859 -15.1489 -15.1018 -15.0641 -14.9860 -14.9294 -14.9181
   -14.8163 -14.7737 -14.7462 -14.6947 -14.4069 -14.3808 -13.9748 -13.8700
   -13.7991  -8.4782  -4.3243  -4.0951  -3.9914  -3.8539  -3.7663  -3.6170
    -3.5862  -3.4001  -3.3037  -3.2784  -3.1822  -3.1701  -3.1138  -3.0615
    -3.0305  -2.9230  -2.9015  -2.8666  -2.8416  -2.8194  -2.8085  -2.6963
    -2.6449  -2.5997  -2.4364  -2.4078  -2.3385  -2.2920  -2.2662  -2.1962
    -2.1702  -2.1549  -2.1371  -2.1287  -2.0930  -2.0013  -1.9607  -1.9398
    -1.9094  -1.8147  -1.7830  -1.7480  -1.7233  -1.6571  -1.5707  -1.4749
    -1.4531  -1.3431  -1.3209  -1.2378  -1.2018  -1.1763  -1.1555  -1.0786
    -1.0393  -0.9879  -0.9514  -0.9147  -0.8740  -0.8653  -0.8440  -0.7820
    -0.7417  -0.6448  -0.6079  -0.5678  -0.4866  -0.4327  -0.3754  -0.3006
    -0.2747  -0.2074  -0.1742  -0.1115  -0.0374   0.0103   0.0636   0.1102
     0.1454   0.1732   0.1946   0.2394   0.2519   0.3160   0.3521   0.3968
     0.4480   0.5004   0.5531   0.6492   0.7072   0.7325   0.7415   0.7887
     0.8406   0.8544   0.8950   0.9769   1.0291   1.3674   1.6495   2.5094
     2.5316   2.8106   3.0121   3.0607   3.3652   3.4496   3.5279   3.5555
     3.8393

          k = 0.0380 0.0419 0.0000 ( 17878 PWs)   bands (ev):

   -56.9234 -56.8997 -56.0229 -55.9974 -55.7902 -55.7266 -55.6367 -55.4750
   -55.4511 -55.4050 -55.3942 -55.3307 -55.3225 -55.2780 -55.1327 -55.0565
   -33.2949 -33.1959 -33.1761 -33.0922 -33.0304 -33.0296 -32.4583 -32.2366
   -32.2346 -32.2056 -32.1989 -32.1720 -32.1552 -32.0249 -32.0113 -31.9570
   -31.9437 -31.9385 -31.9198 -31.9049 -31.8637 -31.8376 -31.8253 -31.8110
   -31.8052 -31.8010 -31.7403 -31.6809 -31.6726 -31.6550 -31.6281 -31.6157
   -31.6087 -31.6040 -31.5739 -31.5641 -31.5565 -31.5486 -31.5306 -31.5200
   -31.5085 -31.4388 -31.4277 -31.3924 -31.3374 -31.3325 -31.3118 -31.2546
   -16.8183 -16.4375 -16.3834 -16.3277 -16.1568 -16.1416 -16.0010 -15.9642
   -15.8605 -15.7173 -15.6592 -15.5962 -15.5635 -15.5374 -15.2913 -15.2375
   -15.2186 -15.1811 -15.1499 -15.0938 -15.0746 -15.0004 -14.9639 -14.9077
   -14.8581 -14.8088 -14.7856 -14.7401 -14.4728 -14.4484 -13.9841 -13.9124
   -13.8120  -8.4776  -4.1465  -4.0876  -3.9775  -3.7041  -3.5974  -3.4947
    -3.4662  -3.3036  -3.2581  -3.2279  -3.1262  -3.0815  -3.0438  -3.0313
    -2.9705  -2.9379  -2.8700  -2.8414  -2.8078  -2.7779  -2.7454  -2.6874
    -2.6363  -2.6034  -2.5398  -2.5013  -2.4494  -2.3983  -2.3666  -2.3264
    -2.2621  -2.2236  -2.1699  -2.1334  -2.0733  -2.0041  -1.9893  -1.9303
    -1.8210  -1.7792  -1.7667  -1.7155  -1.6515  -1.6056  -1.5640  -1.5195
    -1.4523  -1.4042  -1.3745  -1.3382  -1.2612  -1.1918  -1.1151  -1.0598
    -1.0266  -0.9809  -0.9571  -0.8719  -0.8385  -0.7947  -0.7829  -0.7273
    -0.6754  -0.6563  -0.6308  -0.5800  -0.5389  -0.5021  -0.4448  -0.4035
    -0.3576  -0.3171  -0.2895  -0.2224  -0.1392  -0.1031  -0.0616  -0.0089
     0.0791   0.1290   0.1575   0.1846   0.2104   0.2256   0.2869   0.3285
     0.3855   0.4218   0.5258   0.5837   0.6766   0.7468   0.7896   0.8137
     0.8417   0.8723   0.9534   0.9580   1.0088   1.3076   1.5849   2.6255
     2.7731   2.8748   3.0581   3.2053   3.3061   3.3531   3.5801   3.6916
     3.8009

          k = 0.0380-0.0839 0.0000 ( 17916 PWs)   bands (ev):

   -56.9123 -56.9109 -56.0149 -56.0054 -55.7879 -55.7289 -55.6364 -55.4637
   -55.4625 -55.4030 -55.3946 -55.3327 -55.3218 -55.2774 -55.1335 -55.0571
   -33.1867 -33.1853 -33.1649 -33.1636 -33.0617 -33.0606 -32.3343 -32.3261
   -32.2099 -32.1996 -32.1983 -32.1933 -32.0997 -32.0518 -32.0213 -31.9996
   -31.9550 -31.9504 -31.9097 -31.8753 -31.8660 -31.8157 -31.8148 -31.7726
   -31.7323 -31.7012 -31.6837 -31.6820 -31.6754 -31.6716 -31.6449 -31.6439
   -31.6383 -31.6335 -31.6151 -31.5975 -31.5778 -31.5693 -31.5301 -31.5237
   -31.5077 -31.4838 -31.4376 -31.3992 -31.3749 -31.3373 -31.3119 -31.2661
   -16.5472 -16.5453 -16.4339 -16.1971 -16.1934 -16.0907 -16.0858 -15.8638
   -15.8345 -15.7198 -15.5951 -15.5569 -15.4783 -15.3793 -15.3539 -15.3305
   -15.3112 -15.2789 -15.2121 -15.0514 -15.0217 -15.0133 -14.9577 -14.9277
   -14.8838 -14.8382 -14.8009 -14.7743 -14.5718 -14.5372 -13.9750 -13.9744
   -13.8237  -8.4771  -4.0744  -3.9763  -3.7610  -3.7596  -3.4196  -3.4085
    -3.3642  -3.3597  -3.1625  -3.1140  -3.0558  -3.0488  -2.9556  -2.9248
    -2.9049  -2.8555  -2.8428  -2.8275  -2.7699  -2.7347  -2.6925  -2.6883
    -2.6118  -2.5885  -2.5070  -2.4678  -2.4350  -2.4124  -2.4026  -2.3587
    -2.3370  -2.2790  -2.2345  -2.1858  -2.1376  -2.0788  -2.0359  -1.9815
    -1.8974  -1.7752  -1.7359  -1.7028  -1.6805  -1.5781  -1.4708  -1.4446
    -1.4173  -1.3911  -1.3879  -1.3386  -1.3019  -1.2661  -1.2364  -1.2018
    -1.1749  -1.1219  -1.0406  -0.9591  -0.8900  -0.8504  -0.8104  -0.7852
    -0.7664  -0.7109  -0.6564  -0.5784  -0.5446  -0.5074  -0.4675  -0.3534
    -0.3395  -0.3148  -0.2855  -0.2496  -0.2210  -0.1928  -0.1634  -0.0809
    -0.0364   0.0182   0.1007   0.1325   0.1606   0.2367   0.2756   0.3169
     0.3475   0.3870   0.5303   0.5687   0.6878   0.6967   0.7807   0.7912
     0.9225   0.9278   0.9586   0.9719   1.0878   1.1439   1.5653   2.8964
     2.8988   3.0443   3.0463   3.2407   3.2416   3.4125   3.4142   3.7254
     3.7545

          k = 0.0380-0.0419 0.0000 ( 17876 PWs)   bands (ev):

   -56.9234 -56.8997 -56.0229 -55.9974 -55.7902 -55.7266 -55.6367 -55.4750
   -55.4511 -55.4050 -55.3942 -55.3307 -55.3225 -55.2780 -55.1327 -55.0565
   -33.2949 -33.1959 -33.1761 -33.0922 -33.0304 -33.0296 -32.4583 -32.2366
   -32.2346 -32.2056 -32.1989 -32.1720 -32.1552 -32.0249 -32.0113 -31.9570
   -31.9438 -31.9383 -31.9196 -31.9051 -31.8637 -31.8375 -31.8253 -31.8110
   -31.8052 -31.8010 -31.7403 -31.6810 -31.6726 -31.6553 -31.6253 -31.6157
   -31.6113 -31.6044 -31.5739 -31.5633 -31.5571 -31.5486 -31.5300 -31.5202
   -31.5083 -31.4388 -31.4277 -31.3924 -31.3375 -31.3326 -31.3117 -31.2546
   -16.8181 -16.4375 -16.3842 -16.3275 -16.1563 -16.1417 -16.0006 -15.9642
   -15.8600 -15.7174 -15.6591 -15.5945 -15.5641 -15.5400 -15.2895 -15.2378
   -15.2216 -15.1896 -15.1347 -15.1003 -15.0790 -14.9953 -14.9608 -14.9077
   -14.8594 -14.8046 -14.7883 -14.7421 -14.4725 -14.4493 -13.9841 -13.9124
   -13.8115  -8.4776  -4.1459  -4.0793  -3.9891  -3.7041  -3.5984  -3.4948
    -3.4656  -3.3037  -3.2583  -3.2279  -3.1259  -3.0698  -3.0444  -3.0257
    -2.9741  -2.9380  -2.8751  -2.8417  -2.8054  -2.7877  -2.7398  -2.6827
    -2.6397  -2.6089  -2.5376  -2.5084  -2.4687  -2.4084  -2.3559  -2.3312
    -2.2598  -2.2254  -2.1701  -2.1310  -2.0690  -2.0017  -1.9740  -1.9440
    -1.8167  -1.7775  -1.7687  -1.7211  -1.6508  -1.5960  -1.5672  -1.4853
    -1.4402  -1.4086  -1.3793  -1.3339  -1.2667  -1.1896  -1.1297  -1.0570
    -1.0164  -0.9949  -0.9551  -0.8604  -0.8348  -0.7942  -0.7773  -0.7256
    -0.6913  -0.6530  -0.6055  -0.5734  -0.5327  -0.5085  -0.4576  -0.4076
    -0.3548  -0.3088  -0.2832  -0.2395  -0.1500  -0.1172  -0.0717  -0.0001
     0.0669   0.1050   0.1630   0.1867   0.1952   0.2303   0.2673   0.3416
     0.3872   0.4298   0.5273   0.5797   0.6873   0.7494   0.7862   0.8180
     0.8501   0.8743   0.9531   0.9572   1.0084   1.3098   1.5878   2.6258
     2.7734   2.8748   3.0572   3.2052   3.3069   3.3527   3.5794   3.6906
     3.8014

          k =-0.0760-0.0000 0.0000 ( 17886 PWs)   bands (ev):

   -56.9283 -56.8948 -56.0275 -55.9927 -55.7924 -55.7244 -55.6371 -55.4800
   -55.4461 -55.4068 -55.3939 -55.3287 -55.3233 -55.2786 -55.1320 -55.0559
   -33.3488 -33.2000 -33.1720 -33.1033 -33.0167 -32.9743 -32.5107 -32.2897
   -32.2481 -32.1980 -32.1650 -32.1461 -32.1391 -32.0322 -32.0278 -31.9609
   -31.9476 -31.9303 -31.9086 -31.8930 -31.8894 -31.8641 -31.8587 -31.8317
   -31.8283 -31.8000 -31.7587 -31.7190 -31.6842 -31.6539 -31.6075 -31.6037
   -31.6032 -31.5879 -31.5757 -31.5436 -31.5374 -31.5249 -31.5181 -31.4998
   -31.4921 -31.4418 -31.3977 -31.3743 -31.3399 -31.3124 -31.3050 -31.2384
   -16.7825 -16.4864 -16.4377 -16.3442 -16.3307 -16.0820 -16.0335 -15.8737
   -15.8454 -15.6865 -15.6780 -15.6756 -15.6456 -15.5492 -15.3412 -15.2837
   -15.2615 -15.2594 -15.1118 -15.0731 -15.0695 -15.0236 -14.9319 -14.8795
   -14.8182 -14.7770 -14.7478 -14.6626 -14.4038 -14.3807 -13.9724 -13.8697
   -13.7945  -8.4812  -4.0800  -4.0243  -3.9319  -3.9274  -3.8440  -3.5357
    -3.4356  -3.4146  -3.2996  -3.2282  -3.1434  -3.0250  -3.0079  -2.9896
    -2.9515  -2.9073  -2.8616  -2.8208  -2.7884  -2.7193  -2.6621  -2.6446
    -2.6114  -2.5578  -2.5473  -2.5294  -2.4189  -2.2675  -2.2574  -2.1884
    -2.1719  -2.1280  -2.1148  -2.0904  -1.9992  -1.9867  -1.9500  -1.9332
    -1.9114  -1.8869  -1.8448  -1.8188  -1.7639  -1.5877  -1.5258  -1.4973
    -1.4736  -1.4305  -1.3298  -1.2736  -1.2556  -1.2111  -1.1183  -1.0768
    -1.0608  -1.0310  -0.9667  -0.9607  -0.9475  -0.8852  -0.8483  -0.8447
    -0.7851  -0.7359  -0.7009  -0.6626  -0.6403  -0.4847  -0.4194  -0.3450
    -0.2752  -0.2542  -0.1948  -0.1202  -0.1056  -0.0641   0.0004   0.0364
     0.1192   0.1892   0.2029   0.2613   0.3004   0.3340   0.3407   0.3804
     0.4489   0.4824   0.5452   0.5700   0.5961   0.6891   0.7021   0.7470
     0.7673   0.8004   0.8651   0.9587   1.0749   1.1161   1.6591   2.4868
     2.6172   2.7586   2.8098   3.1510   3.3323   3.3770   3.5527   3.7225
     3.7698

          k =-0.0760 0.0419 0.0000 ( 17914 PWs)   bands (ev):

   -56.9234 -56.8997 -56.0229 -55.9974 -55.7902 -55.7266 -55.6367 -55.4750
   -55.4511 -55.4050 -55.3942 -55.3306 -55.3226 -55.2780 -55.1328 -55.0565
   -33.2956 -33.1959 -33.1761 -33.0910 -33.0306 -33.0296 -32.4586 -32.2470
   -32.2365 -32.1993 -32.1958 -32.1721 -32.1408 -32.0249 -32.0218 -31.9570
   -31.9428 -31.9411 -31.9209 -31.9044 -31.8631 -31.8402 -31.8273 -31.8108
   -31.8046 -31.8013 -31.7410 -31.6815 -31.6726 -31.6442 -31.6274 -31.6157
   -31.6055 -31.6017 -31.5739 -31.5662 -31.5537 -31.5486 -31.5357 -31.5210
   -31.5143 -31.4388 -31.4276 -31.3924 -31.3401 -31.3325 -31.3128 -31.2547
   -16.6687 -16.4398 -16.4348 -16.3166 -16.2522 -16.1480 -15.9758 -15.9483
   -15.7818 -15.7106 -15.6296 -15.5947 -15.5855 -15.4575 -15.3608 -15.2805
   -15.2473 -15.2314 -15.1749 -15.1156 -15.1099 -15.0061 -14.9572 -14.9405
   -14.8709 -14.7953 -14.7750 -14.7400 -14.4641 -14.4549 -13.9824 -13.9127
   -13.8082  -8.4807  -4.0734  -4.0069  -3.7247  -3.7015  -3.6196  -3.4168
    -3.3762  -3.3588  -3.1920  -3.1681  -3.0774  -3.0563  -2.9458  -2.9219
    -2.8778  -2.8484  -2.8136  -2.7497  -2.7396  -2.6826  -2.6656  -2.6309
    -2.5770  -2.5307  -2.4957  -2.4796  -2.4583  -2.4359  -2.3333  -2.2930
    -2.2435  -2.1940  -2.1750  -2.1224  -2.0940  -2.0593  -1.9606  -1.9281
    -1.8633  -1.8417  -1.8201  -1.8106  -1.7503  -1.6283  -1.5643  -1.5151
    -1.4181  -1.3999  -1.3721  -1.3402  -1.2953  -1.2367  -1.2148  -1.1731
    -1.1339  -1.0777  -1.0448  -0.9856  -0.9635  -0.9260  -0.8726  -0.7779
    -0.7451  -0.7139  -0.6670  -0.6517  -0.6207  -0.6023  -0.5795  -0.5217
    -0.4767  -0.4258  -0.3727  -0.2692  -0.2207  -0.1126  -0.1002  -0.0259
     0.0276   0.0988   0.1474   0.2081   0.2476   0.2571   0.2951   0.3603
     0.4125   0.4441   0.4871   0.6329   0.6903   0.7145   0.8091   0.8215
     0.8776   0.8882   0.9435   0.9694   1.0582   1.1131   1.6032   2.6411
     2.8103   2.8469   2.9202   3.3028   3.3924   3.4206   3.4762   3.7671
     3.8051

          k =-0.0760-0.0839 0.0000 ( 17948 PWs)   bands (ev):

   -56.9123 -56.9109 -56.0149 -56.0054 -55.7879 -55.7290 -55.6364 -55.4637
   -55.4626 -55.4030 -55.3946 -55.3327 -55.3220 -55.2775 -55.1335 -55.0571
   -33.1867 -33.1854 -33.1655 -33.1642 -33.0610 -33.0599 -32.3346 -32.3264
   -32.2099 -32.2002 -32.1993 -32.1934 -32.0914 -32.0457 -32.0214 -32.0071
   -31.9560 -31.9551 -31.9088 -31.8767 -31.8653 -31.8163 -31.8154 -31.7727
   -31.7348 -31.7021 -31.6837 -31.6821 -31.6779 -31.6745 -31.6449 -31.6439
   -31.6340 -31.6293 -31.6075 -31.5974 -31.5745 -31.5657 -31.5349 -31.5244
   -31.5154 -31.4831 -31.4375 -31.3993 -31.3746 -31.3402 -31.3131 -31.2661
   -16.4322 -16.3956 -16.3935 -16.3464 -16.3447 -16.0900 -16.0854 -15.8396
   -15.8076 -15.6863 -15.5334 -15.5041 -15.4667 -15.4171 -15.3712 -15.3007
   -15.2825 -15.2414 -15.2079 -15.1523 -15.1267 -15.0491 -15.0150 -14.9560
   -14.9201 -14.8312 -14.7845 -14.7780 -14.5582 -14.5414 -13.9749 -13.9743
   -13.8210  -8.4802  -4.0715  -3.9883  -3.4685  -3.4634  -3.4426  -3.4333
    -3.2188  -3.2132  -3.0455  -3.0025  -2.9833  -2.9417  -2.9259  -2.8395
    -2.8198  -2.7865  -2.7496  -2.7445  -2.7355  -2.7180  -2.6708  -2.6622
    -2.6219  -2.4849  -2.4705  -2.4508  -2.3919  -2.3282  -2.2975  -2.2457
    -2.2184  -2.2047  -2.1781  -2.1700  -2.1651  -2.1356  -2.1079  -1.9516
    -1.9060  -1.8079  -1.7758  -1.7508  -1.7294  -1.6748  -1.6715  -1.6415
    -1.6185  -1.5867  -1.5261  -1.4928  -1.4512  -1.3264  -1.3051  -1.2659
    -1.2481  -1.1894  -1.0925  -1.0035  -0.9905  -0.9473  -0.9282  -0.8822
    -0.8679  -0.8390  -0.7599  -0.7025  -0.5953  -0.5650  -0.5529  -0.5305
    -0.5003  -0.4580  -0.4106  -0.3421  -0.3266  -0.2076  -0.1391  -0.0947
    -0.0273   0.0392   0.0781   0.1167   0.1715   0.2669   0.2867   0.3607
     0.3751   0.4951   0.6041   0.6221   0.7750   0.8072   0.8760   0.9167
     0.9215   0.9319   0.9496   0.9608   1.0136   1.0897   1.5877   2.9563
     2.9593   3.0165   3.0224   3.3322   3.3332   3.4431   3.4449   3.7603
     3.7701

     the Fermi energy is     2.0654 ev

!    total energy              =   -2954.01289320 Ry
     estimated scf accuracy    <       0.00000005 Ry
     smearing contrib. (-TS)   =      -0.00173869 Ry
     internal energy E=F+TS    =   -2954.01115451 Ry

     The total energy is F=E-TS. E is the sum of the following terms:
     one-electron contribution =  -24213.49187841 Ry
     hartree contribution      =   12196.84164584 Ry
     xc contribution           =    -488.74665284 Ry
     ewald contribution        =    9551.38564239 Ry
     electric field correction =       0.00008851 Ry

     convergence has been achieved in  67 iterations

     Forces acting on atoms (cartesian axes, Ry/au):

     atom    1 type  1   force =     0.00017645   -0.00052748    0.12568844
     atom    2 type  1   force =     0.00000921    0.00026257   -0.15441714
     atom    3 type  2   force =     0.00002242   -0.00022307   -0.06670247
     atom    4 type  2   force =    -0.00002033    0.00008442    0.01672719
     atom    5 type  2   force =    -0.00392111   -0.00229012   -0.01290868
     atom    6 type  2   force =     0.00531682   -0.00149384   -0.01431738
     atom    7 type  1   force =    -0.00049073   -0.00698485    0.05720871
     atom    8 type  1   force =     0.00071795    0.00723174    0.09826459
     atom    9 type  2   force =     0.00002833    0.00008885   -0.00007781
     atom   10 type  2   force =    -0.00290216    0.00059351   -0.06191313
     atom   11 type  2   force =    -0.00002928   -0.00005748   -0.00001372
     atom   12 type  2   force =    -0.00005853    0.00016060    0.00015674
     atom   13 type  1   force =     0.00010341    0.00015700   -0.00011947
     atom   14 type  1   force =     0.00001607   -0.00006162    0.00011444
     atom   15 type  2   force =    -0.00002858    0.00002219    0.00005596
     atom   16 type  2   force =     0.00004844    0.00015328   -0.00018453
     atom   17 type  2   force =    -0.00004750    0.00002706    0.00014745
     atom   18 type  2   force =    -0.00010802    0.00030037   -0.00002258
     atom   19 type  1   force =     0.00006037    0.00001394    0.00019054
     atom   20 type  1   force =     0.00001269    0.00013690    0.00019935
     atom   21 type  2   force =     0.00006964    0.00021556    0.09784283
     atom   22 type  2   force =     0.00039047    0.00001501    0.00004444
     atom   23 type  2   force =    -0.08273605    0.00009238   -0.03302863
     atom   24 type  2   force =     0.08269558    0.00050819   -0.03307726
     atom   25 type  1   force =     0.00010235   -0.00059919    0.12553106
     atom   26 type  1   force =     0.00000274   -0.00169807   -0.15482583
     atom   27 type  2   force =     0.00008851   -0.00076944   -0.06514005
     atom   28 type  2   force =     0.00004912    0.00188327    0.01157764
     atom   29 type  2   force =    -0.00252124    0.00468180   -0.01585164
     atom   30 type  2   force =     0.00369099    0.00501970   -0.01728100
     atom   31 type  1   force =    -0.00029354    0.00180529    0.04009036
     atom   32 type  1   force =     0.00091094   -0.01042198    0.09793316
     atom   33 type  2   force =    -0.00004465   -0.00001392    0.00012461
     atom   34 type  2   force =    -0.00230077    0.00077725   -0.07401097
     atom   35 type  2   force =     0.00010107    0.00003094    0.00002187
     atom   36 type  2   force =    -0.00008407   -0.00007563   -0.00003224
     atom   37 type  1   force =     0.00035178    0.00005618    0.00006210
     atom   38 type  1   force =     0.00011952   -0.00007470   -0.00028641
     atom   39 type  2   force =     0.00020082   -0.00010278   -0.00000603
     atom   40 type  2   force =     0.00001288    0.00003751   -0.00017281
     atom   41 type  2   force =    -0.00006294    0.00024921    0.00005668
     atom   42 type  2   force =    -0.00010263    0.00000486    0.00012507
     atom   43 type  1   force =     0.00031102   -0.00018309   -0.00014111
     atom   44 type  1   force =     0.00005731    0.00016815    0.00022831
     atom   45 type  2   force =     0.00004358    0.00004721    0.09762464
     atom   46 type  2   force =    -0.08279802    0.00004818   -0.03304681
     atom   47 type  2   force =     0.08272529    0.00048160   -0.03306472
     atom   48 type  3   force =     0.00391539   -0.00013154   -0.00342745
     atom   49 type  4   force =    -0.00501892    0.00034124    0.00340513
     atom   50 type  5   force =     0.00115088   -0.00068638    0.00011275
     atom   51 type  3   force =    -0.00010586    0.00010068    0.00019726
     atom   52 type  3   force =    -0.00018212    0.00049176    0.00001322
     atom   53 type  3   force =     0.00036153    0.00029954    0.00026871
     atom   54 type  2   force =     0.00036907   -0.00062478    0.00096398
     atom   55 type  3   force =    -0.00037555    0.00043206   -0.00090737

     Total force =     0.417277     Total SCF correction =     0.000773
  @ DRIVER MODE: Message from server: STATUS
  @ DRIVER MODE: Message from server: GETFORCE
  @ DRIVER MODE: Returning v,forces,stress,ensemble 

     Writing output data file ./calc.save/
  @ DRIVER MODE: Message from server: EXIT
  @ DRIVE MODE: Exiting  
 
     init_run     :     13.31s CPU     13.65s WALL (       1 calls)
     electrons    :   1315.28s CPU   1343.01s WALL (       1 calls)
     forces       :      2.73s CPU      2.87s WALL (       1 calls)

     Called by init_run:
     wfcinit      :      5.76s CPU      5.90s WALL (       1 calls)
     potinit      :      6.79s CPU      6.88s WALL (       1 calls)
     hinit0       :      0.36s CPU      0.37s WALL (       1 calls)

     Called by electrons:
     c_bands      :   1121.95s CPU   1136.48s WALL (      67 calls)
     sum_band     :    131.87s CPU    138.14s WALL (      67 calls)
     v_of_rho     :     47.05s CPU     48.82s WALL (      68 calls)
     newd         :     18.71s CPU     23.92s WALL (      68 calls)
     mix_rho      :      1.69s CPU      1.72s WALL (      67 calls)
     vdW_kernel   :      5.84s CPU      5.87s WALL (       1 calls)

     Called by c_bands:
     init_us_2    :      6.52s CPU      6.55s WALL (    1360 calls)
     cegterg      :   1100.75s CPU   1114.92s WALL (     680 calls)

     Called by *egterg:
     cdiaghg      :    157.48s CPU    158.09s WALL (    5710 calls)
     h_psi        :    616.91s CPU    625.97s WALL (    5720 calls)
     s_psi        :     75.59s CPU     75.82s WALL (    5720 calls)
     g_psi        :      2.30s CPU      2.31s WALL (    5030 calls)

     Called by h_psi:
     h_psi:calbec :     72.33s CPU     73.45s WALL (    5720 calls)
     vloc_psi     :    466.05s CPU    470.06s WALL (    5720 calls)
     add_vuspsi   :     75.70s CPU     77.48s WALL (    5720 calls)

     General routines
     calbec       :     95.37s CPU     96.56s WALL (    6430 calls)
     fft          :     23.87s CPU     23.98s WALL (    4284 calls)
     ffts         :      0.16s CPU      0.16s WALL (     135 calls)
     fftw         :    515.58s CPU    519.94s WALL (  975450 calls)
     interpolate  :      0.47s CPU      0.47s WALL (      68 calls)
     davcio       :      0.00s CPU      0.27s WALL (      10 calls)
 
     Parallel routines
 
     PWSCF        :  22m11.57s CPU  22m40.66s WALL

 
   This run was terminated on:  13:19:16  23Sep2021            

=------------------------------------------------------------------------------=
   JOB DONE.
=------------------------------------------------------------------------------=
