
     Program PWSCF v.6.7GPU starts on 25Aug2021 at 12:27:53 

     This program is part of the open-source Quantum ESPRESSO suite
     for quantum simulation of materials; please cite
         "P. Giannozzi et al., J. Phys.:Condens. Matter 21 395502 (2009);
         "P. Giannozzi et al., J. Phys.:Condens. Matter 29 465901 (2017);
         "P. Giannozzi et al., J. Chem. Phys. 152 154105 (2020);
          URL http://www.quantum-espresso.org", 
     in publications or presentations arising from this work. More details at
     http://www.quantum-espresso.org/quote

     Parallel version (MPI), running on     6 processors

     MPI processes distributed on     1 nodes
     R & G space division:  proc/nbgrp/npool/nimage =       6
     Reading input from /storage/home/hcoda1/3/ntian30/research/carbon/CH3_vib_end_on/ads_slab/CH3N2H2_f/out_0038/pw.inp
Warning: card &CELL ignored
Warning: card   CELL_DYNAMICS='IPI', ignored
Warning: card / ignored

     Current dimensions of program PWSCF are:
     Max number of different atomic species (ntypx) = 10
     Max number of k-points (npk) =  40000
     Max angular momentum in pseudopotentials (lmaxx) =  3
     Presently no symmetry can be used with electric field

     Message from routine cell_base_init:
     DEPRECATED: use true lattice parameter, not A to a.u. conversion factor

     **************************************************************************
     Initializing libbeef V0.1.2 with the BEEF-vdW functional.
     Citation: Wellendorff et al., PRB 85, 235149 (2012).
     **************************************************************************


     IMPORTANT: XC functional enforced from input :
     Exchange-correlation= BEEF-VDW
                           (   1   4  43  14   2   0   0)
     Any further DFT definition will be discarded
     Please, verify this is what you really want


     Subspace diagonalization in iterative solution of the eigenvalue problem:
     one sub-group per band group will be used
     scalapack distributed-memory algorithm (size of sub-group:  2*  2 procs)

  @ DRIVER MODE: Connecting to 
 qe_1139763_2643870.sched-torque.pace.gatech.edugahtaimp_scratch
  using UNIX socket
  @ DRIVER MODE: Message from server: STATUS
  @ DRIVER MODE: Message from server: INIT
  @ DRIVER MODE: Receiving replica           0          -1
  @ DRIVER MODE: Receiving encoded integer          25
  @ DRIVER MODE:  SCF:  T  FORCE:  T  STRESS:  F  VC:  F  ENSEMBLE:  F
  @ DRIVER MODE:  SCF:  T  FORCE:  T  STRESS:  F  VC:  F  ENSEMBLE:  F
 
     Parallelization info
     --------------------
     sticks:   dense  smooth     PW     G-vecs:    dense   smooth      PW
     Min         545     219     63                94473    23902    3663
     Max         546     222     64                94484    23905    3665
     Sum        3275    1317    379               566857   143421   21985
 
     Using Slab Decomposition
 


     bravais-lattice index     =            0
     lattice parameter (alat)  =       1.8897  a.u.
     unit-cell volume          =    6658.9804 (a.u.)^3
     number of atoms/cell      =           55
     number of atomic types    =            5
     number of electrons       =       397.00
     number of Kohn-Sham states=          208
     kinetic-energy cutoff     =      29.3995  Ry
     charge density cutoff     =     293.9946  Ry
     scf convergence threshold =      7.3E-08
     mixing beta               =       0.0500
     number of iterations used =            8  plain     mixing
     Exchange-correlation= BEEF-VDW
                           (   1   4  43  14   2   0   0)

     celldm(1)=   1.889726  celldm(2)=   0.000000  celldm(3)=   0.000000
     celldm(4)=   0.000000  celldm(5)=   0.000000  celldm(6)=   0.000000

     crystal axes: (cart. coord. in units of alat)
               a(1) = (   6.579727   0.000000   0.000000 )  
               a(2) = (  -0.000775   5.961596   0.000000 )  
               a(3) = (   0.000000   0.000000  25.155947 )  

     reciprocal axes: (cart. coord. in units 2 pi/alat)
               b(1) = (  0.151982  0.000020  0.000000 )  
               b(2) = (  0.000000  0.167740  0.000000 )  
               b(3) = (  0.000000  0.000000  0.039752 )  


     PseudoPot. # 1 for Ti read from file:
     /storage/coda1/p-amedford6/0/shared/rich_project_chbe-medford/medford-share/data/pseudos_module/espresso/nninc/pbe/van/Ti.UPF
     MD5 check sum: 8e4df49b7f0d34bbd5052bf3f5ea0213
     Pseudo is Ultrasoft, Zval = 12.0
     Generated by new atomic code, or converted to UPF format
     Using radial grid of  851 points,  6 beta functions with: 
                l(1) =   0
                l(2) =   0
                l(3) =   1
                l(4) =   1
                l(5) =   2
                l(6) =   2
     Q(r) pseudized with  8 coefficients,  rinner =    1.000   1.000   1.000
                                                       1.000   1.000

     PseudoPot. # 2 for O  read from file:
     /storage/coda1/p-amedford6/0/shared/rich_project_chbe-medford/medford-share/data/pseudos_module/espresso/nninc/pbe/van/O.UPF
     MD5 check sum: 78c19812648e8988a0fe644b0f25305e
     Pseudo is Ultrasoft, Zval =  6.0
     Generated by new atomic code, or converted to UPF format
     Using radial grid of  737 points,  4 beta functions with: 
                l(1) =   0
                l(2) =   0
                l(3) =   1
                l(4) =   1
     Q(r) pseudized with  8 coefficients,  rinner =    0.800   0.800   0.800


     PseudoPot. # 3 for N  read from file:
     /storage/coda1/p-amedford6/0/shared/rich_project_chbe-medford/medford-share/data/pseudos_module/espresso/nninc/pbe/van/N.UPF
     MD5 check sum: 90d10febe142ad51ac9d5be1deb811c4
     Pseudo is Ultrasoft, Zval =  5.0
     Generated by new atomic code, or converted to UPF format
     Using radial grid of  729 points,  4 beta functions with: 
                l(1) =   0
                l(2) =   0
                l(3) =   1
                l(4) =   1
     Q(r) pseudized with  8 coefficients,  rinner =    0.800   0.800   0.800


     PseudoPot. # 4 for C  read from file:
     /storage/coda1/p-amedford6/0/shared/rich_project_chbe-medford/medford-share/data/pseudos_module/espresso/nninc/pbe/van/C.UPF
     MD5 check sum: 1a69bf6b8db32088f5b2163dbdb77a27
     Pseudo is Ultrasoft, Zval =  4.0
     Generated by new atomic code, or converted to UPF format
     Using radial grid of  721 points,  4 beta functions with: 
                l(1) =   0
                l(2) =   0
                l(3) =   1
                l(4) =   1
     Q(r) pseudized with  8 coefficients,  rinner =    0.800   0.800   0.800


     PseudoPot. # 5 for H  read from file:
     /storage/coda1/p-amedford6/0/shared/rich_project_chbe-medford/medford-share/data/pseudos_module/espresso/nninc/pbe/van/H.UPF
     MD5 check sum: b5ee9d7bfd3a09ee7748110bda690ff7
     Pseudo is Ultrasoft, Zval =  1.0
     Generated by new atomic code, or converted to UPF format
     Using radial grid of  615 points,  1 beta functions with: 
                l(1) =   0
     Q(r) pseudized with  8 coefficients,  rinner =    0.800

     atomic species   valence    mass     pseudopotential
        Ti1           12.00    47.86700     Ti( 1.00)
        O1             6.00    15.99900     O ( 1.00)
        N1             5.00    14.00700     N ( 1.00)
        C1             4.00    12.01100     C ( 1.00)
        H1             1.00     1.00800     H ( 1.00)

     No symmetry found



   Cartesian axes

     site n.     atom                  positions (alat units)
         1           Ti1 tau(   1) = (   0.0004258   2.9801865   6.0000000  )
         2           Ti1 tau(   2) = (   3.2906075   1.4906267   6.0002472  )
         3           O1  tau(   3) = (   0.0006271   0.0005054   7.9858123  )
         4           O1  tau(   4) = (   3.2906025   0.0005020   7.3038282  )
         5           O1  tau(   5) = (   4.5942328   1.4918067   9.2879030  )
         6           O1  tau(   6) = (   1.9868534   1.4903216   9.2879459  )
         7           Ti1 tau(   7) = (   3.2907910   2.8959150   9.1758416  )
         8           Ti1 tau(   8) = (   0.0015273   1.4827037   9.2680791  )
         9           O1  tau(   9) = (   3.2830128   5.9597860  11.3344455  )
        10           O1  tau(  10) = (   0.0116148   5.9584955  10.6183126  )
        11           O1  tau(  11) = (   1.2885291   1.4855062  12.6376555  )
        12           O1  tau(  12) = (   5.2724004   1.4911608  12.5936499  )
        13           Ti1 tau(  13) = (   0.0410009   3.0319447  12.6084003  )
        14           Ti1 tau(  14) = (   3.3739341   1.4916561  12.4823474  )
        15           O1  tau(  15) = (   6.4862162   0.0153916  14.6455093  )
        16           O1  tau(  16) = (   3.3439542   5.9611638  13.9051029  )
        17           O1  tau(  17) = (   4.4933269   1.5483200  16.1231154  )
        18           O1  tau(  18) = (   1.9964937   1.4536654  15.9127221  )
        19           Ti1 tau(  19) = (   3.1412959   3.0017366  15.7441667  )
        20           Ti1 tau(  20) = (   6.4823597   1.5369342  15.8006069  )
        21           O1  tau(  21) = (   3.2904802   0.0005063   4.7018136  )
        22           O1  tau(  22) = (   6.5709111   0.0522475  17.2082838  )
        23           O1  tau(  23) = (   1.3043587   1.4918075   6.0039043  )
        24           O1  tau(  24) = (   5.2767064   1.4903225   6.0039473  )
        25           Ti1 tau(  25) = (   0.0000382   5.9609847   6.0000000  )
        26           Ti1 tau(  26) = (   3.2902200   4.4714249   6.0002472  )
        27           O1  tau(  27) = (   0.0002396   2.9813036   7.9858123  )
        28           O1  tau(  28) = (   3.2902150   2.9813002   7.3038282  )
        29           O1  tau(  29) = (   4.5938453   4.4726049   9.2879030  )
        30           O1  tau(  30) = (   1.9864658   4.4711199   9.2879459  )
        31           Ti1 tau(  31) = (   3.2891106   5.8743827   9.1763621  )
        32           Ti1 tau(  32) = (   0.0006254   4.4649316   9.2693709  )
        33           O1  tau(  33) = (   3.2833609   2.9822938  11.3349093  )
        34           O1  tau(  34) = (   0.0092240   2.9805883  10.6323155  )
        35           O1  tau(  35) = (   1.2838611   4.4860338  12.6468719  )
        36           O1  tau(  36) = (   5.2760156   4.4607002  12.6015494  )
        37           Ti1 tau(  37) = (   0.0673138   0.0440259  12.5461749  )
        38           Ti1 tau(  38) = (   3.3712377   4.4654930  12.4933830  )
        39           O1  tau(  39) = (   6.5217465   2.9589972  14.6412948  )
        40           O1  tau(  40) = (   3.2809526   2.9956502  13.9333893  )
        41           O1  tau(  41) = (   4.4911989   4.4583117  16.1637052  )
        42           O1  tau(  42) = (   1.9937212   4.5427850  15.9740970  )
        43           Ti1 tau(  43) = (   3.2955853   0.0167752  15.6963065  )
        44           Ti1 tau(  44) = (   6.5082246   4.6715011  16.1069148  )
        45           O1  tau(  45) = (   3.2900926   2.9813045   4.7018136  )
        46           O1  tau(  46) = (   1.3039711   4.4726057   6.0039043  )
        47           O1  tau(  47) = (   5.2763189   4.4711207   6.0039473  )
        48           N1  tau(  48) = (   1.3945086   2.8365607  18.1849301  )
        49           N1  tau(  49) = (   0.1777896   2.9650562  17.4211889  )
        50           C1  tau(  50) = (   1.4118813   3.7128676  19.3556819  )
        51           H1  tau(  51) = (   0.5171711   3.5996102  19.9880000  )
        52           H1  tau(  52) = (   2.2935099   3.4681107  19.9517681  )
        53           H1  tau(  53) = (   1.4703795   4.7520035  19.0319817  )
        54           H1  tau(  54) = (   1.4679882   1.8621926  18.4823179  )
        55           H1  tau(  55) = (   5.9558665   2.8747675  18.0551794  )

     number of k points=    10  Fermi-Dirac smearing, width (Ry)=  0.0073
                       cart. coord. in units 2pi/alat
        k(    1) = (   0.0000000   0.0000000   0.0000000), wk =   0.1250000
        k(    2) = (   0.0000000   0.0419351   0.0000000), wk =   0.2500000
        k(    3) = (   0.0000000  -0.0838702   0.0000000), wk =   0.1250000
        k(    4) = (   0.0379955   0.0000049   0.0000000), wk =   0.2500000
        k(    5) = (   0.0379955   0.0419400   0.0000000), wk =   0.2500000
        k(    6) = (   0.0379955  -0.0838652   0.0000000), wk =   0.2500000
        k(    7) = (   0.0379955  -0.0419301   0.0000000), wk =   0.2500000
        k(    8) = (  -0.0759910  -0.0000099   0.0000000), wk =   0.1250000
        k(    9) = (  -0.0759910   0.0419252   0.0000000), wk =   0.2500000
        k(   10) = (  -0.0759910  -0.0838800   0.0000000), wk =   0.1250000

     Dense  grid:   566857 G-vectors     FFT dimensions: (  72,  64, 270)

     Smooth grid:   143421 G-vectors     FFT dimensions: (  45,  40, 180)

     Estimated max dynamical RAM per process >     601.58 MB

     Estimated total dynamical RAM >       3.52 GB
     Cannot read rho : file not found

     Initial potential from superposition of free atoms

     starting charge  380.99914, renormalised to  397.00000

     negative rho (up, down):  1.540E-02 0.000E+00


     %%%%%%%%%%%%%%%%%%%%%%%%%%%%%%%%%%%%%%%%%%%%%%%%%%%%%%%%%%%%%%%%%%%%%%%%
     %                                                                      %
     % You are using vdW-DF, which was implemented by the Thonhauser group. %
     % Please cite the following two papers that made this development      %
     % possible and the two reviews that describe the various versions:     %
     %                                                                      %
     %   T. Thonhauser et al., PRL 115, 136402 (2015).                      %
     %   T. Thonhauser et al., PRB 76, 125112 (2007).                       %
     %   K. Berland et al., Rep. Prog. Phys. 78, 066501 (2015).             %
     %   D.C. Langreth et al., J. Phys.: Condens. Matter 21, 084203 (2009). %
     %                                                                      %
     %                                                                      %
     % If you are calculating the stress with vdW-DF, please also cite:     %
     %                                                                      %
     %   R. Sabatini et al., J. Phys.: Condens. Matter 24, 424209 (2012).   %
     %                                                                      %
     %%%%%%%%%%%%%%%%%%%%%%%%%%%%%%%%%%%%%%%%%%%%%%%%%%%%%%%%%%%%%%%%%%%%%%%%


 
     Adding external electric field

     Computed dipole along edir(3) : 
        Dipole               -9.6180 Ry au,        -24.4465 Debye
        Dipole field         -0.0182 Ry au, 
 
        Potential amp.        1.6825 Ry
        Total length         46.3494 bohr
 
     Starting wfcs are  301 atomic wfcs
  @ DRIVER MODE: Message from server: STATUS
  @ DRIVER MODE: Message from server: POSDATA
  @ DRIVER MODE: Reading and sharing cell 
  @ DRIVER MODE: Reading and sharing positions 
  @ DRIVER MODE: Received positions 

     total cpu time spent up to now is       20.5 secs

     Self-consistent Calculation

     iteration #  1     ecut=    29.40 Ry     beta= 0.05
     Davidson diagonalization with overlap
     c_bands:  1 eigenvalues not converged
     c_bands:  1 eigenvalues not converged
     c_bands:  1 eigenvalues not converged
     c_bands:  1 eigenvalues not converged
     c_bands:  1 eigenvalues not converged
     c_bands:  1 eigenvalues not converged
     c_bands:  2 eigenvalues not converged
     ethr =  1.00E-05,  avg # of iterations = 18.8

     negative rho (up, down):  1.192E-02 0.000E+00
 
     Adding external electric field

     Computed dipole along edir(3) : 
        Dipole               43.0225 Ry au,        109.3522 Debye
        Dipole field          0.0812 Ry au, 
 
        Potential amp.       -7.5261 Ry
        Total length         46.3494 bohr
 

     total cpu time spent up to now is       87.0 secs

     total energy              =   -2533.49530432 Ry
     estimated scf accuracy    <    4540.23238872 Ry

     iteration #  2     ecut=    29.40 Ry     beta= 0.05
     Davidson diagonalization with overlap
     ethr =  1.00E-02,  avg # of iterations = 24.9

     negative rho (up, down):  3.079E-03 0.000E+00
 
     Adding external electric field

     Computed dipole along edir(3) : 
        Dipole               -2.4270 Ry au,         -6.1689 Debye
        Dipole field         -0.0046 Ry au, 
 
        Potential amp.        0.4246 Ry
        Total length         46.3494 bohr
 

     total cpu time spent up to now is      210.7 secs

     total energy              =   -2464.45585728 Ry
     estimated scf accuracy    <   66357.20583447 Ry

     iteration #  3     ecut=    29.40 Ry     beta= 0.05
     Davidson diagonalization with overlap
     ethr =  1.00E-02,  avg # of iterations = 14.8

     negative rho (up, down):  3.149E-03 0.000E+00
 
     Adding external electric field

     Computed dipole along edir(3) : 
        Dipole               -4.5377 Ry au,        -11.5336 Debye
        Dipole field         -0.0086 Ry au, 
 
        Potential amp.        0.7938 Ry
        Total length         46.3494 bohr
 

     total cpu time spent up to now is      289.7 secs

     total energy              =   -2924.58285377 Ry
     estimated scf accuracy    <    4286.76995296 Ry

     iteration #  4     ecut=    29.40 Ry     beta= 0.05
     Davidson diagonalization with overlap
     c_bands:  2 eigenvalues not converged
     ethr =  1.00E-02,  avg # of iterations = 13.8

     negative rho (up, down):  3.201E-03 0.000E+00
 
     Adding external electric field

     Computed dipole along edir(3) : 
        Dipole               -6.0820 Ry au,        -15.4590 Debye
        Dipole field         -0.0115 Ry au, 
 
        Potential amp.        1.0640 Ry
        Total length         46.3494 bohr
 

     total cpu time spent up to now is      322.0 secs

     total energy              =   -2928.66247528 Ry
     estimated scf accuracy    <    1447.53519695 Ry

     iteration #  5     ecut=    29.40 Ry     beta= 0.05
     Davidson diagonalization with overlap
     c_bands:  5 eigenvalues not converged
     ethr =  1.00E-02,  avg # of iterations = 15.3

     negative rho (up, down):  3.211E-03 0.000E+00
 
     Adding external electric field

     Computed dipole along edir(3) : 
        Dipole               -5.5660 Ry au,        -14.1474 Debye
        Dipole field         -0.0105 Ry au, 
 
        Potential amp.        0.9737 Ry
        Total length         46.3494 bohr
 

     total cpu time spent up to now is      352.7 secs

     total energy              =   -2944.05450159 Ry
     estimated scf accuracy    <      36.28039365 Ry

     iteration #  6     ecut=    29.40 Ry     beta= 0.05
     Davidson diagonalization with overlap
     ethr =  9.14E-03,  avg # of iterations =  1.7

     negative rho (up, down):  3.254E-03 0.000E+00
 
     Adding external electric field

     Computed dipole along edir(3) : 
        Dipole               -4.8245 Ry au,        -12.2626 Debye
        Dipole field         -0.0091 Ry au, 
 
        Potential amp.        0.8440 Ry
        Total length         46.3494 bohr
 

     total cpu time spent up to now is      370.4 secs

     total energy              =   -2943.62728598 Ry
     estimated scf accuracy    <      28.57309806 Ry

     iteration #  7     ecut=    29.40 Ry     beta= 0.05
     Davidson diagonalization with overlap
     ethr =  7.20E-03,  avg # of iterations =  1.0

     negative rho (up, down):  3.722E-03 0.000E+00
 
     Adding external electric field

     Computed dipole along edir(3) : 
        Dipole               -1.3864 Ry au,         -3.5240 Debye
        Dipole field         -0.0026 Ry au, 
 
        Potential amp.        0.2425 Ry
        Total length         46.3494 bohr
 

     total cpu time spent up to now is      387.5 secs

     total energy              =   -2941.28021774 Ry
     estimated scf accuracy    <      26.68990893 Ry

     iteration #  8     ecut=    29.40 Ry     beta= 0.05
     Davidson diagonalization with overlap
     ethr =  6.72E-03,  avg # of iterations =  7.9

     negative rho (up, down):  3.794E-03 0.000E+00
 
     Adding external electric field

     Computed dipole along edir(3) : 
        Dipole               -1.1484 Ry au,         -2.9189 Debye
        Dipole field         -0.0022 Ry au, 
 
        Potential amp.        0.2009 Ry
        Total length         46.3494 bohr
 

     total cpu time spent up to now is      409.0 secs

     total energy              =   -2947.51401864 Ry
     estimated scf accuracy    <     693.45803578 Ry

     iteration #  9     ecut=    29.40 Ry     beta= 0.05
     Davidson diagonalization with overlap
     ethr =  6.72E-03,  avg # of iterations =  1.3

     negative rho (up, down):  3.878E-03 0.000E+00
 
     Adding external electric field

     Computed dipole along edir(3) : 
        Dipole               -1.0859 Ry au,         -2.7601 Debye
        Dipole field         -0.0020 Ry au, 
 
        Potential amp.        0.1900 Ry
        Total length         46.3494 bohr
 

     total cpu time spent up to now is      426.7 secs

     total energy              =   -2947.38759796 Ry
     estimated scf accuracy    <     709.80760149 Ry

     iteration # 10     ecut=    29.40 Ry     beta= 0.05
     Davidson diagonalization with overlap
     ethr =  6.72E-03,  avg # of iterations =  1.0

     negative rho (up, down):  4.026E-03 0.000E+00
 
     Adding external electric field

     Computed dipole along edir(3) : 
        Dipole               -2.2670 Ry au,         -5.7622 Debye
        Dipole field         -0.0043 Ry au, 
 
        Potential amp.        0.3966 Ry
        Total length         46.3494 bohr
 

     total cpu time spent up to now is      443.9 secs

     total energy              =   -2939.95405216 Ry
     estimated scf accuracy    <     702.82911733 Ry

     iteration # 11     ecut=    29.40 Ry     beta= 0.05
     Davidson diagonalization with overlap
     ethr =  6.72E-03,  avg # of iterations =  1.4

     negative rho (up, down):  3.998E-03 0.000E+00
 
     Adding external electric field

     Computed dipole along edir(3) : 
        Dipole               -2.5820 Ry au,         -6.5627 Debye
        Dipole field         -0.0049 Ry au, 
 
        Potential amp.        0.4517 Ry
        Total length         46.3494 bohr
 

     total cpu time spent up to now is      461.6 secs

     total energy              =   -2940.87023206 Ry
     estimated scf accuracy    <     122.54984281 Ry

     iteration # 12     ecut=    29.40 Ry     beta= 0.05
     Davidson diagonalization with overlap
     ethr =  6.72E-03,  avg # of iterations =  1.3

     negative rho (up, down):  4.079E-03 0.000E+00
 
     Adding external electric field

     Computed dipole along edir(3) : 
        Dipole               -2.2902 Ry au,         -5.8210 Debye
        Dipole field         -0.0043 Ry au, 
 
        Potential amp.        0.4006 Ry
        Total length         46.3494 bohr
 

     total cpu time spent up to now is      479.2 secs

     total energy              =   -2941.08849244 Ry
     estimated scf accuracy    <      47.05977921 Ry

     iteration # 13     ecut=    29.40 Ry     beta= 0.05
     Davidson diagonalization with overlap
     ethr =  6.72E-03,  avg # of iterations =  1.4

     negative rho (up, down):  4.202E-03 0.000E+00
 
     Adding external electric field

     Computed dipole along edir(3) : 
        Dipole               -0.9201 Ry au,         -2.3386 Debye
        Dipole field         -0.0017 Ry au, 
 
        Potential amp.        0.1610 Ry
        Total length         46.3494 bohr
 

     total cpu time spent up to now is      496.8 secs

     total energy              =   -2941.57780051 Ry
     estimated scf accuracy    <      38.01725354 Ry

     iteration # 14     ecut=    29.40 Ry     beta= 0.05
     Davidson diagonalization with overlap
     ethr =  6.72E-03,  avg # of iterations =  1.1

     negative rho (up, down):  4.141E-03 0.000E+00
 
     Adding external electric field

     Computed dipole along edir(3) : 
        Dipole               -1.4252 Ry au,         -3.6226 Debye
        Dipole field         -0.0027 Ry au, 
 
        Potential amp.        0.2493 Ry
        Total length         46.3494 bohr
 

     total cpu time spent up to now is      514.3 secs

     total energy              =   -2941.05185379 Ry
     estimated scf accuracy    <      63.17909280 Ry

     iteration # 15     ecut=    29.40 Ry     beta= 0.05
     Davidson diagonalization with overlap
     ethr =  6.72E-03,  avg # of iterations =  1.4

     negative rho (up, down):  4.214E-03 0.000E+00
 
     Adding external electric field

     Computed dipole along edir(3) : 
        Dipole               -1.6626 Ry au,         -4.2260 Debye
        Dipole field         -0.0031 Ry au, 
 
        Potential amp.        0.2909 Ry
        Total length         46.3494 bohr
 

     total cpu time spent up to now is      531.7 secs

     total energy              =   -2940.60327749 Ry
     estimated scf accuracy    <      32.22149746 Ry

     iteration # 16     ecut=    29.40 Ry     beta= 0.05
     Davidson diagonalization with overlap
     ethr =  6.72E-03,  avg # of iterations =  1.5

     negative rho (up, down):  4.459E-03 0.000E+00
 
     Adding external electric field

     Computed dipole along edir(3) : 
        Dipole               -1.8787 Ry au,         -4.7753 Debye
        Dipole field         -0.0035 Ry au, 
 
        Potential amp.        0.3287 Ry
        Total length         46.3494 bohr
 

     total cpu time spent up to now is      549.3 secs

     total energy              =   -2940.12810893 Ry
     estimated scf accuracy    <      22.19996556 Ry

     iteration # 17     ecut=    29.40 Ry     beta= 0.05
     Davidson diagonalization with overlap
     ethr =  5.59E-03,  avg # of iterations =  1.7

     negative rho (up, down):  4.779E-03 0.000E+00
 
     Adding external electric field

     Computed dipole along edir(3) : 
        Dipole               -1.9351 Ry au,         -4.9186 Debye
        Dipole field         -0.0037 Ry au, 
 
        Potential amp.        0.3385 Ry
        Total length         46.3494 bohr
 

     total cpu time spent up to now is      566.9 secs

     total energy              =   -2940.14718097 Ry
     estimated scf accuracy    <      12.15415991 Ry

     iteration # 18     ecut=    29.40 Ry     beta= 0.05
     Davidson diagonalization with overlap
     c_bands:  3 eigenvalues not converged
     ethr =  3.06E-03,  avg # of iterations =  8.7

     negative rho (up, down):  4.778E-03 0.000E+00
 
     Adding external electric field

     Computed dipole along edir(3) : 
        Dipole               -1.9332 Ry au,         -4.9138 Debye
        Dipole field         -0.0036 Ry au, 
 
        Potential amp.        0.3382 Ry
        Total length         46.3494 bohr
 

     total cpu time spent up to now is      591.4 secs

     total energy              =   -2942.01193779 Ry
     estimated scf accuracy    <       6.68363935 Ry

     iteration # 19     ecut=    29.40 Ry     beta= 0.05
     Davidson diagonalization with overlap
     ethr =  1.68E-03,  avg # of iterations =  2.3

     negative rho (up, down):  4.959E-03 0.000E+00
 
     Adding external electric field

     Computed dipole along edir(3) : 
        Dipole               -1.9319 Ry au,         -4.9103 Debye
        Dipole field         -0.0036 Ry au, 
 
        Potential amp.        0.3379 Ry
        Total length         46.3494 bohr
 

     total cpu time spent up to now is      609.6 secs

     total energy              =   -2942.14783457 Ry
     estimated scf accuracy    <       7.86217848 Ry

     iteration # 20     ecut=    29.40 Ry     beta= 0.05
     Davidson diagonalization with overlap
     c_bands:  1 eigenvalues not converged
     ethr =  1.68E-03,  avg # of iterations =  3.5

     negative rho (up, down):  5.067E-03 0.000E+00
 
     Adding external electric field

     Computed dipole along edir(3) : 
        Dipole               -2.1891 Ry au,         -5.5641 Debye
        Dipole field         -0.0041 Ry au, 
 
        Potential amp.        0.3829 Ry
        Total length         46.3494 bohr
 

     total cpu time spent up to now is      628.6 secs

     total energy              =   -2942.74693034 Ry
     estimated scf accuracy    <      28.51354449 Ry

     iteration # 21     ecut=    29.40 Ry     beta= 0.05
     Davidson diagonalization with overlap
     c_bands:  2 eigenvalues not converged
     c_bands:  4 eigenvalues not converged
     ethr =  1.68E-03,  avg # of iterations = 11.7

     negative rho (up, down):  5.481E-03 0.000E+00
 
     Adding external electric field

     Computed dipole along edir(3) : 
        Dipole               -1.9468 Ry au,         -4.9482 Debye
        Dipole field         -0.0037 Ry au, 
 
        Potential amp.        0.3406 Ry
        Total length         46.3494 bohr
 

     total cpu time spent up to now is      654.6 secs

     total energy              =   -2942.98248866 Ry
     estimated scf accuracy    <     128.77905784 Ry

     iteration # 22     ecut=    29.40 Ry     beta= 0.05
     Davidson diagonalization with overlap
     ethr =  1.68E-03,  avg # of iterations =  4.4

     negative rho (up, down):  5.552E-03 0.000E+00
 
     Adding external electric field

     Computed dipole along edir(3) : 
        Dipole               -1.8156 Ry au,         -4.6147 Debye
        Dipole field         -0.0034 Ry au, 
 
        Potential amp.        0.3176 Ry
        Total length         46.3494 bohr
 

     total cpu time spent up to now is      674.1 secs

     total energy              =   -2942.64016974 Ry
     estimated scf accuracy    <     205.48713159 Ry

     iteration # 23     ecut=    29.40 Ry     beta= 0.05
     Davidson diagonalization with overlap
     ethr =  1.68E-03,  avg # of iterations =  2.0

     negative rho (up, down):  5.597E-03 0.000E+00
 
     Adding external electric field

     Computed dipole along edir(3) : 
        Dipole               -1.7568 Ry au,         -4.4654 Debye
        Dipole field         -0.0033 Ry au, 
 
        Potential amp.        0.3073 Ry
        Total length         46.3494 bohr
 

     total cpu time spent up to now is      692.0 secs

     total energy              =   -2941.69155503 Ry
     estimated scf accuracy    <     122.28501887 Ry

     iteration # 24     ecut=    29.40 Ry     beta= 0.05
     Davidson diagonalization with overlap
     ethr =  1.68E-03,  avg # of iterations =  2.4

     negative rho (up, down):  5.626E-03 0.000E+00
 
     Adding external electric field

     Computed dipole along edir(3) : 
        Dipole               -1.4712 Ry au,         -3.7395 Debye
        Dipole field         -0.0028 Ry au, 
 
        Potential amp.        0.2574 Ry
        Total length         46.3494 bohr
 

     total cpu time spent up to now is      709.7 secs

     total energy              =   -2941.81015338 Ry
     estimated scf accuracy    <       6.51402692 Ry

     iteration # 25     ecut=    29.40 Ry     beta= 0.05
     Davidson diagonalization with overlap
     ethr =  1.64E-03,  avg # of iterations =  2.0

     negative rho (up, down):  5.337E-03 0.000E+00
 
     Adding external electric field

     Computed dipole along edir(3) : 
        Dipole               -1.3083 Ry au,         -3.3254 Debye
        Dipole field         -0.0025 Ry au, 
 
        Potential amp.        0.2289 Ry
        Total length         46.3494 bohr
 

     total cpu time spent up to now is      727.6 secs

     total energy              =   -2941.80658069 Ry
     estimated scf accuracy    <       2.31219237 Ry

     iteration # 26     ecut=    29.40 Ry     beta= 0.05
     Davidson diagonalization with overlap
     ethr =  5.82E-04,  avg # of iterations =  4.9

     negative rho (up, down):  5.170E-03 0.000E+00
 
     Adding external electric field

     Computed dipole along edir(3) : 
        Dipole               -0.9085 Ry au,         -2.3092 Debye
        Dipole field         -0.0017 Ry au, 
 
        Potential amp.        0.1589 Ry
        Total length         46.3494 bohr
 

     total cpu time spent up to now is      747.3 secs

     total energy              =   -2941.59960214 Ry
     estimated scf accuracy    <       1.81300426 Ry

     iteration # 27     ecut=    29.40 Ry     beta= 0.05
     Davidson diagonalization with overlap
     c_bands:  1 eigenvalues not converged
     c_bands:  1 eigenvalues not converged
     ethr =  4.57E-04,  avg # of iterations = 14.3

     negative rho (up, down):  5.953E-03 0.000E+00
 
     Adding external electric field

     Computed dipole along edir(3) : 
        Dipole               -0.9721 Ry au,         -2.4709 Debye
        Dipole field         -0.0018 Ry au, 
 
        Potential amp.        0.1701 Ry
        Total length         46.3494 bohr
 

     total cpu time spent up to now is      772.5 secs

     total energy              =   -2941.68012660 Ry
     estimated scf accuracy    <       0.60452890 Ry

     iteration # 28     ecut=    29.40 Ry     beta= 0.05
     Davidson diagonalization with overlap
     ethr =  1.52E-04,  avg # of iterations =  5.0

     negative rho (up, down):  8.717E-03 0.000E+00
 
     Adding external electric field

     Computed dipole along edir(3) : 
        Dipole               -0.7079 Ry au,         -1.7993 Debye
        Dipole field         -0.0013 Ry au, 
 
        Potential amp.        0.1238 Ry
        Total length         46.3494 bohr
 

     total cpu time spent up to now is      792.4 secs

     total energy              =   -2941.65912463 Ry
     estimated scf accuracy    <       0.68619919 Ry

     iteration # 29     ecut=    29.40 Ry     beta= 0.05
     Davidson diagonalization with overlap
     ethr =  1.52E-04,  avg # of iterations =  3.6

     negative rho (up, down):  1.596E-02 0.000E+00
 
     Adding external electric field

     Computed dipole along edir(3) : 
        Dipole               -0.3396 Ry au,         -0.8632 Debye
        Dipole field         -0.0006 Ry au, 
 
        Potential amp.        0.0594 Ry
        Total length         46.3494 bohr
 

     total cpu time spent up to now is      811.8 secs

     total energy              =   -2941.66217859 Ry
     estimated scf accuracy    <       0.53906720 Ry

     iteration # 30     ecut=    29.40 Ry     beta= 0.05
     Davidson diagonalization with overlap
     ethr =  1.36E-04,  avg # of iterations =  4.7

     negative rho (up, down):  1.396E-02 0.000E+00
 
     Adding external electric field

     Computed dipole along edir(3) : 
        Dipole               -0.2687 Ry au,         -0.6829 Debye
        Dipole field         -0.0005 Ry au, 
 
        Potential amp.        0.0470 Ry
        Total length         46.3494 bohr
 

     total cpu time spent up to now is      832.2 secs

     total energy              =   -2941.69239808 Ry
     estimated scf accuracy    <       0.49553774 Ry

     iteration # 31     ecut=    29.40 Ry     beta= 0.05
     Davidson diagonalization with overlap
     ethr =  1.25E-04,  avg # of iterations =  2.8

     negative rho (up, down):  1.127E-02 0.000E+00
 
     Adding external electric field

     Computed dipole along edir(3) : 
        Dipole               -0.1726 Ry au,         -0.4387 Debye
        Dipole field         -0.0003 Ry au, 
 
        Potential amp.        0.0302 Ry
        Total length         46.3494 bohr
 

     total cpu time spent up to now is      851.0 secs

     total energy              =   -2941.68266783 Ry
     estimated scf accuracy    <       0.57782948 Ry

     iteration # 32     ecut=    29.40 Ry     beta= 0.05
     Davidson diagonalization with overlap
     ethr =  1.25E-04,  avg # of iterations =  3.4

     negative rho (up, down):  8.617E-03 0.000E+00
 
     Adding external electric field

     Computed dipole along edir(3) : 
        Dipole               -0.1573 Ry au,         -0.3998 Debye
        Dipole field         -0.0003 Ry au, 
 
        Potential amp.        0.0275 Ry
        Total length         46.3494 bohr
 

     total cpu time spent up to now is      869.7 secs

     total energy              =   -2941.65626982 Ry
     estimated scf accuracy    <       0.43750822 Ry

     iteration # 33     ecut=    29.40 Ry     beta= 0.05
     Davidson diagonalization with overlap
     c_bands:  4 eigenvalues not converged
     c_bands:  2 eigenvalues not converged
     c_bands:  3 eigenvalues not converged
     c_bands:  1 eigenvalues not converged
     c_bands:  2 eigenvalues not converged
     ethr =  1.10E-04,  avg # of iterations = 17.8

     negative rho (up, down):  9.045E-03 0.000E+00
 
     Adding external electric field

     Computed dipole along edir(3) : 
        Dipole               -0.2864 Ry au,         -0.7279 Debye
        Dipole field         -0.0005 Ry au, 
 
        Potential amp.        0.0501 Ry
        Total length         46.3494 bohr
 

     total cpu time spent up to now is      899.4 secs

     total energy              =   -2941.64594433 Ry
     estimated scf accuracy    <       0.15787071 Ry

     iteration # 34     ecut=    29.40 Ry     beta= 0.05
     Davidson diagonalization with overlap
     c_bands:  1 eigenvalues not converged
     c_bands:  1 eigenvalues not converged
     c_bands:  2 eigenvalues not converged
     c_bands:  2 eigenvalues not converged
     c_bands:  1 eigenvalues not converged
     ethr =  3.98E-05,  avg # of iterations = 17.4

     negative rho (up, down):  1.136E-02 0.000E+00
 
     Adding external electric field

     Computed dipole along edir(3) : 
        Dipole                0.1459 Ry au,          0.3707 Debye
        Dipole field          0.0003 Ry au, 
 
        Potential amp.       -0.0255 Ry
        Total length         46.3494 bohr
 

     total cpu time spent up to now is      934.7 secs

     total energy              =   -2941.72371810 Ry
     estimated scf accuracy    <       0.56085784 Ry

     iteration # 35     ecut=    29.40 Ry     beta= 0.05
     Davidson diagonalization with overlap
     c_bands:  3 eigenvalues not converged
     c_bands:  1 eigenvalues not converged
     ethr =  3.98E-05,  avg # of iterations = 10.4

     negative rho (up, down):  1.194E-02 0.000E+00
 
     Adding external electric field

     Computed dipole along edir(3) : 
        Dipole                0.4214 Ry au,          1.0711 Debye
        Dipole field          0.0008 Ry au, 
 
        Potential amp.       -0.0737 Ry
        Total length         46.3494 bohr
 

     total cpu time spent up to now is      959.3 secs

     total energy              =   -2941.68605189 Ry
     estimated scf accuracy    <       0.68686434 Ry

     iteration # 36     ecut=    29.40 Ry     beta= 0.05
     Davidson diagonalization with overlap
     c_bands:  2 eigenvalues not converged
     ethr =  3.98E-05,  avg # of iterations =  4.9

     negative rho (up, down):  1.115E-02 0.000E+00
 
     Adding external electric field

     Computed dipole along edir(3) : 
        Dipole                0.6259 Ry au,          1.5908 Debye
        Dipole field          0.0012 Ry au, 
 
        Potential amp.       -0.1095 Ry
        Total length         46.3494 bohr
 

     total cpu time spent up to now is      979.2 secs

     total energy              =   -2941.64803557 Ry
     estimated scf accuracy    <       0.46355766 Ry

     iteration # 37     ecut=    29.40 Ry     beta= 0.05
     Davidson diagonalization with overlap
     c_bands:  4 eigenvalues not converged
     c_bands:  5 eigenvalues not converged
     c_bands:  5 eigenvalues not converged
     c_bands:  4 eigenvalues not converged
     c_bands:  1 eigenvalues not converged
     c_bands:  3 eigenvalues not converged
     c_bands:  2 eigenvalues not converged
     ethr =  3.98E-05,  avg # of iterations = 20.4

     negative rho (up, down):  1.218E-02 0.000E+00
 
     Adding external electric field

     Computed dipole along edir(3) : 
        Dipole                0.5132 Ry au,          1.3044 Debye
        Dipole field          0.0010 Ry au, 
 
        Potential amp.       -0.0898 Ry
        Total length         46.3494 bohr
 

     total cpu time spent up to now is     1011.9 secs

     total energy              =   -2941.66113403 Ry
     estimated scf accuracy    <       0.08924795 Ry

     iteration # 38     ecut=    29.40 Ry     beta= 0.05
     Davidson diagonalization with overlap
     c_bands:  1 eigenvalues not converged
     ethr =  2.25E-05,  avg # of iterations = 11.8

     negative rho (up, down):  1.191E-02 0.000E+00
 
     Adding external electric field

     Computed dipole along edir(3) : 
        Dipole                0.5969 Ry au,          1.5172 Debye
        Dipole field          0.0011 Ry au, 
 
        Potential amp.       -0.1044 Ry
        Total length         46.3494 bohr
 

     total cpu time spent up to now is     1034.8 secs

     total energy              =   -2941.66253891 Ry
     estimated scf accuracy    <       0.16153382 Ry

     iteration # 39     ecut=    29.40 Ry     beta= 0.05
     Davidson diagonalization with overlap
     ethr =  2.25E-05,  avg # of iterations =  2.4

     negative rho (up, down):  1.237E-02 0.000E+00
 
     Adding external electric field

     Computed dipole along edir(3) : 
        Dipole                1.0745 Ry au,          2.7312 Debye
        Dipole field          0.0020 Ry au, 
 
        Potential amp.       -0.1880 Ry
        Total length         46.3494 bohr
 

     total cpu time spent up to now is     1053.4 secs

     total energy              =   -2941.63888743 Ry
     estimated scf accuracy    <       0.12230609 Ry

     iteration # 40     ecut=    29.40 Ry     beta= 0.05
     Davidson diagonalization with overlap
     c_bands:  3 eigenvalues not converged
     c_bands:  3 eigenvalues not converged
     c_bands:  3 eigenvalues not converged
     c_bands:  5 eigenvalues not converged
     c_bands:  5 eigenvalues not converged
     c_bands:  5 eigenvalues not converged
     ethr =  2.25E-05,  avg # of iterations = 23.1

     negative rho (up, down):  1.163E-02 0.000E+00
 
     Adding external electric field

     Computed dipole along edir(3) : 
        Dipole                0.8755 Ry au,          2.2254 Debye
        Dipole field          0.0017 Ry au, 
 
        Potential amp.       -0.1532 Ry
        Total length         46.3494 bohr
 

     total cpu time spent up to now is     1096.3 secs

     total energy              =   -2941.65984767 Ry
     estimated scf accuracy    <       0.73661928 Ry

     iteration # 41     ecut=    29.40 Ry     beta= 0.05
     Davidson diagonalization with overlap
     c_bands:  2 eigenvalues not converged
     c_bands:  1 eigenvalues not converged
     ethr =  2.25E-05,  avg # of iterations = 14.5

     negative rho (up, down):  1.202E-02 0.000E+00
 
     Adding external electric field

     Computed dipole along edir(3) : 
        Dipole                0.8180 Ry au,          2.0791 Debye
        Dipole field          0.0015 Ry au, 
 
        Potential amp.       -0.1431 Ry
        Total length         46.3494 bohr
 

     total cpu time spent up to now is     1121.0 secs

     total energy              =   -2941.65762464 Ry
     estimated scf accuracy    <       0.28817025 Ry

     iteration # 42     ecut=    29.40 Ry     beta= 0.05
     Davidson diagonalization with overlap
     c_bands:  1 eigenvalues not converged
     c_bands:  5 eigenvalues not converged
     c_bands:  1 eigenvalues not converged
     c_bands:  1 eigenvalues not converged
     ethr =  2.25E-05,  avg # of iterations = 14.4

     negative rho (up, down):  1.216E-02 0.000E+00
 
     Adding external electric field

     Computed dipole along edir(3) : 
        Dipole                0.7610 Ry au,          1.9343 Debye
        Dipole field          0.0014 Ry au, 
 
        Potential amp.       -0.1331 Ry
        Total length         46.3494 bohr
 

     total cpu time spent up to now is     1145.9 secs

     total energy              =   -2941.65383801 Ry
     estimated scf accuracy    <       0.07919266 Ry

     iteration # 43     ecut=    29.40 Ry     beta= 0.05
     Davidson diagonalization with overlap
     c_bands:  1 eigenvalues not converged
     c_bands:  3 eigenvalues not converged
     c_bands:  1 eigenvalues not converged
     c_bands:  3 eigenvalues not converged
     c_bands:  3 eigenvalues not converged
     c_bands:  4 eigenvalues not converged
     c_bands:  1 eigenvalues not converged
     ethr =  1.99E-05,  avg # of iterations = 17.0

     negative rho (up, down):  1.230E-02 0.000E+00
 
     Adding external electric field

     Computed dipole along edir(3) : 
        Dipole                0.8196 Ry au,          2.0833 Debye
        Dipole field          0.0015 Ry au, 
 
        Potential amp.       -0.1434 Ry
        Total length         46.3494 bohr
 

     total cpu time spent up to now is     1173.4 secs

     total energy              =   -2941.66047150 Ry
     estimated scf accuracy    <       0.01953273 Ry

     iteration # 44     ecut=    29.40 Ry     beta= 0.05
     Davidson diagonalization with overlap
     c_bands:  1 eigenvalues not converged
     c_bands:  1 eigenvalues not converged
     c_bands:  5 eigenvalues not converged
     c_bands:  1 eigenvalues not converged
     c_bands:  2 eigenvalues not converged
     c_bands:  2 eigenvalues not converged
     c_bands:  3 eigenvalues not converged
     ethr =  4.92E-06,  avg # of iterations = 17.6

     negative rho (up, down):  1.249E-02 0.000E+00
 
     Adding external electric field

     Computed dipole along edir(3) : 
        Dipole                0.8787 Ry au,          2.2335 Debye
        Dipole field          0.0017 Ry au, 
 
        Potential amp.       -0.1537 Ry
        Total length         46.3494 bohr
 

     total cpu time spent up to now is     1208.4 secs

     total energy              =   -2941.65914066 Ry
     estimated scf accuracy    <       0.05064702 Ry

     iteration # 45     ecut=    29.40 Ry     beta= 0.05
     Davidson diagonalization with overlap
     c_bands:  1 eigenvalues not converged
     c_bands:  1 eigenvalues not converged
     ethr =  4.92E-06,  avg # of iterations = 15.4

     negative rho (up, down):  1.309E-02 0.000E+00
 
     Adding external electric field

     Computed dipole along edir(3) : 
        Dipole                0.9116 Ry au,          2.3172 Debye
        Dipole field          0.0017 Ry au, 
 
        Potential amp.       -0.1595 Ry
        Total length         46.3494 bohr
 

     total cpu time spent up to now is     1233.4 secs

     total energy              =   -2941.65969367 Ry
     estimated scf accuracy    <       0.00894883 Ry

     iteration # 46     ecut=    29.40 Ry     beta= 0.05
     Davidson diagonalization with overlap
     c_bands:  2 eigenvalues not converged
     c_bands:  2 eigenvalues not converged
     c_bands:  1 eigenvalues not converged
     c_bands:  1 eigenvalues not converged
     c_bands:  3 eigenvalues not converged
     c_bands:  2 eigenvalues not converged
     c_bands:  1 eigenvalues not converged
     ethr =  2.25E-06,  avg # of iterations = 17.9

     negative rho (up, down):  1.323E-02 0.000E+00
 
     Adding external electric field

     Computed dipole along edir(3) : 
        Dipole                0.8968 Ry au,          2.2795 Debye
        Dipole field          0.0017 Ry au, 
 
        Potential amp.       -0.1569 Ry
        Total length         46.3494 bohr
 

     total cpu time spent up to now is     1268.9 secs

     total energy              =   -2941.66001700 Ry
     estimated scf accuracy    <       0.06321674 Ry

     iteration # 47     ecut=    29.40 Ry     beta= 0.05
     Davidson diagonalization with overlap
     c_bands:  2 eigenvalues not converged
     ethr =  2.25E-06,  avg # of iterations = 15.4

     negative rho (up, down):  1.335E-02 0.000E+00
 
     Adding external electric field

     Computed dipole along edir(3) : 
        Dipole                0.8775 Ry au,          2.2303 Debye
        Dipole field          0.0017 Ry au, 
 
        Potential amp.       -0.1535 Ry
        Total length         46.3494 bohr
 

     total cpu time spent up to now is     1294.7 secs

     total energy              =   -2941.66113804 Ry
     estimated scf accuracy    <       0.00423643 Ry

     iteration # 48     ecut=    29.40 Ry     beta= 0.05
     Davidson diagonalization with overlap
     ethr =  1.07E-06,  avg # of iterations = 12.6

     negative rho (up, down):  1.347E-02 0.000E+00
 
     Adding external electric field

     Computed dipole along edir(3) : 
        Dipole                0.8425 Ry au,          2.1413 Debye
        Dipole field          0.0016 Ry au, 
 
        Potential amp.       -0.1474 Ry
        Total length         46.3494 bohr
 

     total cpu time spent up to now is     1317.4 secs

     total energy              =   -2941.66113767 Ry
     estimated scf accuracy    <       0.00169991 Ry

     iteration # 49     ecut=    29.40 Ry     beta= 0.05
     Davidson diagonalization with overlap
     c_bands:  1 eigenvalues not converged
     c_bands:  1 eigenvalues not converged
     c_bands:  2 eigenvalues not converged
     c_bands:  1 eigenvalues not converged
     c_bands:  1 eigenvalues not converged
     c_bands:  1 eigenvalues not converged
     ethr =  4.28E-07,  avg # of iterations = 18.9

     negative rho (up, down):  1.423E-02 0.000E+00
 
     Adding external electric field

     Computed dipole along edir(3) : 
        Dipole                0.8953 Ry au,          2.2756 Debye
        Dipole field          0.0017 Ry au, 
 
        Potential amp.       -0.1566 Ry
        Total length         46.3494 bohr
 

     total cpu time spent up to now is     1352.2 secs

     total energy              =   -2941.66117534 Ry
     estimated scf accuracy    <       0.00937607 Ry

     iteration # 50     ecut=    29.40 Ry     beta= 0.05
     Davidson diagonalization with overlap
     c_bands:  1 eigenvalues not converged
     ethr =  4.28E-07,  avg # of iterations = 14.5

     negative rho (up, down):  1.516E-02 0.000E+00
 
     Adding external electric field

     Computed dipole along edir(3) : 
        Dipole                0.9234 Ry au,          2.3471 Debye
        Dipole field          0.0017 Ry au, 
 
        Potential amp.       -0.1615 Ry
        Total length         46.3494 bohr
 

     total cpu time spent up to now is     1377.4 secs

     total energy              =   -2941.66128989 Ry
     estimated scf accuracy    <       0.00123639 Ry

     iteration # 51     ecut=    29.40 Ry     beta= 0.05
     Davidson diagonalization with overlap
     c_bands:  1 eigenvalues not converged
     c_bands:  1 eigenvalues not converged
     c_bands:  1 eigenvalues not converged
     ethr =  3.11E-07,  avg # of iterations = 16.0

     negative rho (up, down):  1.518E-02 0.000E+00
 
     Adding external electric field

     Computed dipole along edir(3) : 
        Dipole                0.9175 Ry au,          2.3320 Debye
        Dipole field          0.0017 Ry au, 
 
        Potential amp.       -0.1605 Ry
        Total length         46.3494 bohr
 

     total cpu time spent up to now is     1405.5 secs

     total energy              =   -2941.66140496 Ry
     estimated scf accuracy    <       0.00048915 Ry

     iteration # 52     ecut=    29.40 Ry     beta= 0.05
     Davidson diagonalization with overlap
     ethr =  1.23E-07,  avg # of iterations =  8.0

     negative rho (up, down):  1.532E-02 0.000E+00
 
     Adding external electric field

     Computed dipole along edir(3) : 
        Dipole                0.9230 Ry au,          2.3459 Debye
        Dipole field          0.0017 Ry au, 
 
        Potential amp.       -0.1615 Ry
        Total length         46.3494 bohr
 

     total cpu time spent up to now is     1426.4 secs

     total energy              =   -2941.66141549 Ry
     estimated scf accuracy    <       0.00021533 Ry

     iteration # 53     ecut=    29.40 Ry     beta= 0.05
     Davidson diagonalization with overlap
     ethr =  5.42E-08,  avg # of iterations = 12.3

     negative rho (up, down):  1.573E-02 0.000E+00
 
     Adding external electric field

     Computed dipole along edir(3) : 
        Dipole                0.9317 Ry au,          2.3681 Debye
        Dipole field          0.0018 Ry au, 
 
        Potential amp.       -0.1630 Ry
        Total length         46.3494 bohr
 

     total cpu time spent up to now is     1452.9 secs

     total energy              =   -2941.66146759 Ry
     estimated scf accuracy    <       0.00010008 Ry

     iteration # 54     ecut=    29.40 Ry     beta= 0.05
     Davidson diagonalization with overlap
     ethr =  2.52E-08,  avg # of iterations =  8.7

     negative rho (up, down):  1.578E-02 0.000E+00
 
     Adding external electric field

     Computed dipole along edir(3) : 
        Dipole                0.9326 Ry au,          2.3705 Debye
        Dipole field          0.0018 Ry au, 
 
        Potential amp.       -0.1632 Ry
        Total length         46.3494 bohr
 

     total cpu time spent up to now is     1478.7 secs

     total energy              =   -2941.66147533 Ry
     estimated scf accuracy    <       0.00017035 Ry

     iteration # 55     ecut=    29.40 Ry     beta= 0.05
     Davidson diagonalization with overlap
     ethr =  2.52E-08,  avg # of iterations =  6.3

     negative rho (up, down):  1.592E-02 0.000E+00
 
     Adding external electric field

     Computed dipole along edir(3) : 
        Dipole                0.9377 Ry au,          2.3834 Debye
        Dipole field          0.0018 Ry au, 
 
        Potential amp.       -0.1640 Ry
        Total length         46.3494 bohr
 

     total cpu time spent up to now is     1500.1 secs

     total energy              =   -2941.66149430 Ry
     estimated scf accuracy    <       0.00003869 Ry

     iteration # 56     ecut=    29.40 Ry     beta= 0.05
     Davidson diagonalization with overlap
     ethr =  9.75E-09,  avg # of iterations = 12.6

     negative rho (up, down):  1.609E-02 0.000E+00
 
     Adding external electric field

     Computed dipole along edir(3) : 
        Dipole                0.9411 Ry au,          2.3920 Debye
        Dipole field          0.0018 Ry au, 
 
        Potential amp.       -0.1646 Ry
        Total length         46.3494 bohr
 

     total cpu time spent up to now is     1529.1 secs

     total energy              =   -2941.66150925 Ry
     estimated scf accuracy    <       0.00003297 Ry

     iteration # 57     ecut=    29.40 Ry     beta= 0.05
     Davidson diagonalization with overlap
     ethr =  8.30E-09,  avg # of iterations =  6.9

     negative rho (up, down):  1.620E-02 0.000E+00
 
     Adding external electric field

     Computed dipole along edir(3) : 
        Dipole                0.9426 Ry au,          2.3959 Debye
        Dipole field          0.0018 Ry au, 
 
        Potential amp.       -0.1649 Ry
        Total length         46.3494 bohr
 

     total cpu time spent up to now is     1549.8 secs

     total energy              =   -2941.66151825 Ry
     estimated scf accuracy    <       0.00001585 Ry

     iteration # 58     ecut=    29.40 Ry     beta= 0.05
     Davidson diagonalization with overlap
     ethr =  3.99E-09,  avg # of iterations = 12.6

     negative rho (up, down):  1.614E-02 0.000E+00
 
     Adding external electric field

     Computed dipole along edir(3) : 
        Dipole                0.9417 Ry au,          2.3935 Debye
        Dipole field          0.0018 Ry au, 
 
        Potential amp.       -0.1647 Ry
        Total length         46.3494 bohr
 

     total cpu time spent up to now is     1575.7 secs

     total energy              =   -2941.66152539 Ry
     estimated scf accuracy    <       0.00000860 Ry

     iteration # 59     ecut=    29.40 Ry     beta= 0.05
     Davidson diagonalization with overlap
     ethr =  2.17E-09,  avg # of iterations =  5.9

     negative rho (up, down):  1.608E-02 0.000E+00
 
     Adding external electric field

     Computed dipole along edir(3) : 
        Dipole                0.9422 Ry au,          2.3948 Debye
        Dipole field          0.0018 Ry au, 
 
        Potential amp.       -0.1648 Ry
        Total length         46.3494 bohr
 

     total cpu time spent up to now is     1596.7 secs

     total energy              =   -2941.66153126 Ry
     estimated scf accuracy    <       0.00000665 Ry

     iteration # 60     ecut=    29.40 Ry     beta= 0.05
     Davidson diagonalization with overlap
     ethr =  1.67E-09,  avg # of iterations = 11.3

     negative rho (up, down):  1.611E-02 0.000E+00
 
     Adding external electric field

     Computed dipole along edir(3) : 
        Dipole                0.9425 Ry au,          2.3956 Debye
        Dipole field          0.0018 Ry au, 
 
        Potential amp.       -0.1649 Ry
        Total length         46.3494 bohr
 

     total cpu time spent up to now is     1624.6 secs

     total energy              =   -2941.66153756 Ry
     estimated scf accuracy    <       0.00000283 Ry

     iteration # 61     ecut=    29.40 Ry     beta= 0.05
     Davidson diagonalization with overlap
     ethr =  7.12E-10,  avg # of iterations =  9.9

     negative rho (up, down):  1.612E-02 0.000E+00
 
     Adding external electric field

     Computed dipole along edir(3) : 
        Dipole                0.9423 Ry au,          2.3952 Debye
        Dipole field          0.0018 Ry au, 
 
        Potential amp.       -0.1648 Ry
        Total length         46.3494 bohr
 

     total cpu time spent up to now is     1646.9 secs

     total energy              =   -2941.66154217 Ry
     estimated scf accuracy    <       0.00000195 Ry

     iteration # 62     ecut=    29.40 Ry     beta= 0.05
     Davidson diagonalization with overlap
     ethr =  4.91E-10,  avg # of iterations = 10.8

     negative rho (up, down):  1.606E-02 0.000E+00
 
     Adding external electric field

     Computed dipole along edir(3) : 
        Dipole                0.9416 Ry au,          2.3934 Debye
        Dipole field          0.0018 Ry au, 
 
        Potential amp.       -0.1647 Ry
        Total length         46.3494 bohr
 

     total cpu time spent up to now is     1670.7 secs

     total energy              =   -2941.66154666 Ry
     estimated scf accuracy    <       0.00000108 Ry

     iteration # 63     ecut=    29.40 Ry     beta= 0.05
     Davidson diagonalization with overlap
     ethr =  2.71E-10,  avg # of iterations = 10.8

     negative rho (up, down):  1.606E-02 0.000E+00
 
     Adding external electric field

     Computed dipole along edir(3) : 
        Dipole                0.9414 Ry au,          2.3929 Debye
        Dipole field          0.0018 Ry au, 
 
        Potential amp.       -0.1647 Ry
        Total length         46.3494 bohr
 

     total cpu time spent up to now is     1694.3 secs

     total energy              =   -2941.66155061 Ry
     estimated scf accuracy    <       0.00000074 Ry

     iteration # 64     ecut=    29.40 Ry     beta= 0.05
     Davidson diagonalization with overlap
     ethr =  1.85E-10,  avg # of iterations = 10.0

     negative rho (up, down):  1.607E-02 0.000E+00
 
     Adding external electric field

     Computed dipole along edir(3) : 
        Dipole                0.9416 Ry au,          2.3934 Debye
        Dipole field          0.0018 Ry au, 
 
        Potential amp.       -0.1647 Ry
        Total length         46.3494 bohr
 

     total cpu time spent up to now is     1724.7 secs

     total energy              =   -2941.66155424 Ry
     estimated scf accuracy    <       0.00000047 Ry

     iteration # 65     ecut=    29.40 Ry     beta= 0.05
     Davidson diagonalization with overlap
     ethr =  1.18E-10,  avg # of iterations =  4.0

     negative rho (up, down):  1.606E-02 0.000E+00
 
     Adding external electric field

     Computed dipole along edir(3) : 
        Dipole                0.9416 Ry au,          2.3933 Debye
        Dipole field          0.0018 Ry au, 
 
        Potential amp.       -0.1647 Ry
        Total length         46.3494 bohr
 

     total cpu time spent up to now is     1744.3 secs

     total energy              =   -2941.66155736 Ry
     estimated scf accuracy    <       0.00000034 Ry

     iteration # 66     ecut=    29.40 Ry     beta= 0.05
     Davidson diagonalization with overlap
     ethr =  8.55E-11,  avg # of iterations = 13.8

     negative rho (up, down):  1.602E-02 0.000E+00
 
     Adding external electric field

     Computed dipole along edir(3) : 
        Dipole                0.9409 Ry au,          2.3915 Debye
        Dipole field          0.0018 Ry au, 
 
        Potential amp.       -0.1646 Ry
        Total length         46.3494 bohr
 

     total cpu time spent up to now is     1774.1 secs

     total energy              =   -2941.66156032 Ry
     estimated scf accuracy    <       0.00000019 Ry

     iteration # 67     ecut=    29.40 Ry     beta= 0.05
     Davidson diagonalization with overlap
     ethr =  4.68E-11,  avg # of iterations = 15.0

     negative rho (up, down):  1.603E-02 0.000E+00
 
     Adding external electric field

     Computed dipole along edir(3) : 
        Dipole                0.9410 Ry au,          2.3918 Debye
        Dipole field          0.0018 Ry au, 
 
        Potential amp.       -0.1646 Ry
        Total length         46.3494 bohr
 

     total cpu time spent up to now is     1808.0 secs

     total energy              =   -2941.66156292 Ry
     estimated scf accuracy    <       0.00000024 Ry

     iteration # 68     ecut=    29.40 Ry     beta= 0.05
     Davidson diagonalization with overlap
     ethr =  4.68E-11,  avg # of iterations = 11.1

     negative rho (up, down):  1.607E-02 0.000E+00
 
     Adding external electric field

     Computed dipole along edir(3) : 
        Dipole                0.9415 Ry au,          2.3930 Debye
        Dipole field          0.0018 Ry au, 
 
        Potential amp.       -0.1647 Ry
        Total length         46.3494 bohr
 

     total cpu time spent up to now is     1832.2 secs

     End of self-consistent calculation

          k = 0.0000 0.0000 0.0000 ( 18029 PWs)   bands (ev):

   -55.6870 -55.6703 -55.6529 -55.6337 -55.5933 -55.5392 -55.5318 -55.5016
   -55.4957 -55.4676 -55.4656 -55.4315 -55.2596 -55.0354 -54.6677 -54.6337
   -32.2213 -32.1700 -32.0437 -32.0333 -32.0000 -31.9855 -31.9799 -31.9560
   -31.9311 -31.8994 -31.8974 -31.8909 -31.8478 -31.8393 -31.8260 -31.8240
   -31.8074 -31.7919 -31.7833 -31.7482 -31.7442 -31.7374 -31.7222 -31.7186
   -31.6953 -31.6908 -31.6882 -31.6805 -31.6662 -31.6643 -31.6569 -31.6473
   -31.6417 -31.6321 -31.6186 -31.6092 -31.5778 -31.5099 -31.4661 -31.3015
   -31.2922 -31.2381 -31.0749 -30.9863 -30.9639 -30.8917 -30.8052 -30.6941
   -16.7663 -16.4177 -16.1630 -15.9336 -15.8426 -15.8122 -15.6599 -15.5281
   -15.4187 -15.3371 -15.2523 -15.2331 -15.2258 -15.2153 -15.1890 -15.1834
   -15.1360 -15.1317 -15.1121 -15.0992 -15.0489 -15.0325 -15.0289 -14.9343
   -14.8705 -14.8352 -14.8203 -14.7856 -14.7482 -14.3338 -13.1700 -13.0535
   -11.8103  -8.9793  -5.4342  -4.3636  -3.8400  -3.7892  -3.6452  -3.5946
    -3.5344  -3.4960  -3.3179  -3.2155  -2.9427  -2.8856  -2.8562  -2.8470
    -2.7900  -2.7586  -2.6019  -2.5760  -2.5050  -2.4957  -2.4808  -2.4518
    -2.4433  -2.4365  -2.3983  -2.3765  -2.3482  -2.2437  -2.1046  -2.0952
    -2.0721  -2.0387  -2.0010  -1.9525  -1.9361  -1.9159  -1.8975  -1.8852
    -1.8723  -1.7374  -1.7023  -1.5862  -1.4965  -1.4495  -1.3695  -1.2993
    -1.2697  -1.1587  -1.1187  -1.1063  -1.0923  -1.0813  -0.9817  -0.8761
    -0.8589  -0.8211  -0.7659  -0.7100  -0.6394  -0.5945  -0.5438  -0.4913
    -0.4672  -0.4517  -0.4490  -0.4138  -0.3227  -0.1811  -0.1291  -0.0947
    -0.0725   0.0040   0.0393   0.0953   0.1194   0.1432   0.1791   0.2321
     0.2756   0.2822   0.2956   0.3101   0.3148   0.4892   0.5386   0.5804
     0.6135   0.6598   0.8209   0.8432   0.9648   1.0390   1.1988   1.2801
     1.3546   1.4327   1.5464   1.6297   1.9259   1.9717   3.4436   3.5310
     3.5758   3.5895   3.6849   3.7263   3.8964   3.9268   3.9412   4.0012

          k = 0.0000 0.0419 0.0000 ( 17933 PWs)   bands (ev):

   -55.6820 -55.6651 -55.6579 -55.6387 -55.5904 -55.5420 -55.5270 -55.5004
   -55.4965 -55.4725 -55.4607 -55.4363 -55.2590 -55.0359 -54.6626 -54.6386
   -32.1641 -32.1161 -31.9913 -31.9788 -31.9752 -31.9717 -31.9694 -31.9135
   -31.9116 -31.9037 -31.9015 -31.8843 -31.8557 -31.8502 -31.8485 -31.8334
   -31.8255 -31.8136 -31.7700 -31.7581 -31.7390 -31.7379 -31.7334 -31.7101
   -31.7065 -31.7047 -31.6987 -31.6949 -31.6908 -31.6792 -31.6696 -31.6624
   -31.6543 -31.6380 -31.6361 -31.6330 -31.6213 -31.5090 -31.4634 -31.3263
   -31.2922 -31.2533 -31.0208 -30.9829 -30.9670 -30.8791 -30.8177 -30.7512
   -16.7541 -16.2843 -16.0440 -15.8301 -15.7353 -15.7122 -15.6238 -15.5434
   -15.4583 -15.4480 -15.2810 -15.2535 -15.2262 -15.2104 -15.1866 -15.1661
   -15.1567 -15.1495 -15.1406 -15.1260 -15.0791 -15.0378 -14.9989 -14.9424
   -14.9225 -14.8884 -14.8775 -14.8062 -14.7994 -14.4076 -13.1740 -13.0930
   -11.8128  -8.9869  -5.4449  -4.3571  -3.7921  -3.5992  -3.4789  -3.4187
    -3.3794  -3.3430  -3.1609  -2.9870  -2.9013  -2.8585  -2.7706  -2.7512
    -2.7346  -2.6929  -2.6516  -2.6457  -2.6130  -2.5872  -2.5505  -2.5332
    -2.5039  -2.4532  -2.4382  -2.4079  -2.3748  -2.3563  -2.2907  -2.2423
    -2.1868  -2.1727  -2.1536  -2.1089  -1.9955  -1.9577  -1.9269  -1.8729
    -1.8131  -1.6566  -1.6200  -1.5062  -1.4494  -1.3737  -1.3488  -1.3236
    -1.2866  -1.0790  -1.0424  -1.0042  -0.9711  -0.9120  -0.9029  -0.7945
    -0.7158  -0.6983  -0.6675  -0.6414  -0.6246  -0.5895  -0.5689  -0.5280
    -0.5056  -0.4536  -0.3931  -0.3257  -0.3041  -0.2633  -0.2165  -0.1795
    -0.1727  -0.1518  -0.0371   0.0290   0.0689   0.0910   0.1106   0.1407
     0.1494   0.1866   0.2547   0.3118   0.3456   0.4111   0.4673   0.5215
     0.5852   0.6369   0.6479   0.6774   0.8007   0.9563   0.9722   1.0721
     1.3075   1.5434   1.6265   1.6419   1.8801   1.8835   3.6357   3.6840
     3.7004   3.7667   3.7995   3.8435   3.9079   3.9283   3.9495   4.0011

          k = 0.0000-0.0839 0.0000 ( 17884 PWs)   bands (ev):

   -55.6702 -55.6695 -55.6556 -55.6482 -55.5872 -55.5451 -55.5191 -55.5082
   -55.4852 -55.4838 -55.4513 -55.4456 -55.2584 -55.0364 -54.6506 -54.6505
   -32.0298 -32.0201 -31.9840 -31.9835 -31.9655 -31.9648 -31.9449 -31.9385
   -31.8842 -31.8699 -31.8633 -31.8557 -31.8516 -31.8490 -31.8385 -31.8326
   -31.8040 -31.7975 -31.7948 -31.7922 -31.7914 -31.7718 -31.7665 -31.7503
   -31.7381 -31.7371 -31.7188 -31.7174 -31.7071 -31.7062 -31.6832 -31.6763
   -31.6585 -31.6561 -31.6306 -31.6277 -31.6164 -31.5082 -31.4626 -31.3639
   -31.2923 -31.2639 -30.9747 -30.9747 -30.8878 -30.8877 -30.8484 -30.8484
   -16.7430 -15.9665 -15.9137 -15.7746 -15.7373 -15.6051 -15.5765 -15.5165
   -15.4703 -15.4623 -15.4371 -15.4135 -15.3649 -15.2480 -15.2471 -15.1298
   -15.0803 -15.0720 -15.0670 -15.0635 -15.0304 -15.0247 -15.0234 -15.0156
   -14.9875 -14.9484 -14.9397 -14.9339 -14.7806 -14.5102 -13.1557 -13.1556
   -11.8153  -8.9945  -5.4556  -4.3516  -3.7551  -3.1635  -3.1135  -3.0861
    -3.0791  -3.0594  -3.0296  -2.9801  -2.9788  -2.9479  -2.9290  -2.8427
    -2.8152  -2.7881  -2.7672  -2.7229  -2.7067  -2.6513  -2.6351  -2.5695
    -2.5470  -2.5122  -2.5069  -2.4468  -2.4096  -2.3841  -2.2908  -2.2817
    -2.2498  -2.1310  -2.1095  -2.0750  -2.0384  -2.0160  -1.9692  -1.7640
    -1.6793  -1.5993  -1.5462  -1.4844  -1.3832  -1.3641  -1.3322  -1.2257
    -1.1231  -1.1096  -1.1061  -1.0824  -1.0465  -1.0423  -0.9461  -0.9215
    -0.8592  -0.8238  -0.7956  -0.6785  -0.5871  -0.5126  -0.4236  -0.3510
    -0.3334  -0.3265  -0.3032  -0.2649  -0.2275  -0.2066  -0.1721  -0.1652
    -0.1348  -0.1266  -0.0872  -0.0550  -0.0423   0.0049   0.0215   0.0344
     0.1007   0.1103   0.1319   0.1624   0.1939   0.2198   0.2751   0.3779
     0.5456   0.5495   0.5634   0.5882   0.8774   0.9186   0.9945   1.0280
     1.0382   1.6508   1.6867   1.6877   1.8169   1.8175   3.7584   3.7666
     3.8208   3.8622   3.8759   3.8908   3.9564   4.0076   4.0343   4.0443

          k = 0.0380 0.0000 0.0000 ( 17913 PWs)   bands (ev):

   -55.6869 -55.6702 -55.6528 -55.6336 -55.5932 -55.5391 -55.5317 -55.5014
   -55.4956 -55.4675 -55.4657 -55.4314 -55.2595 -55.0353 -54.6676 -54.6335
   -32.2214 -32.1709 -32.0452 -32.0392 -32.0001 -31.9853 -31.9797 -31.9607
   -31.9311 -31.8980 -31.8944 -31.8784 -31.8477 -31.8364 -31.8210 -31.8168
   -31.8069 -31.7916 -31.7630 -31.7548 -31.7474 -31.7440 -31.7305 -31.7100
   -31.6949 -31.6877 -31.6838 -31.6807 -31.6661 -31.6635 -31.6626 -31.6566
   -31.6471 -31.6320 -31.6188 -31.6082 -31.5780 -31.5122 -31.4661 -31.3014
   -31.2927 -31.2379 -31.0744 -30.9897 -30.9619 -30.8915 -30.8050 -30.6938
   -16.7598 -16.3441 -16.0807 -15.8587 -15.8321 -15.7412 -15.6617 -15.5705
   -15.4170 -15.3934 -15.3804 -15.3338 -15.3272 -15.3120 -15.2483 -15.2364
   -15.2057 -15.0603 -15.0497 -15.0118 -14.9567 -14.9523 -14.9337 -14.9202
   -14.8822 -14.8772 -14.8721 -14.8461 -14.7649 -14.3316 -13.1667 -13.0532
   -11.8105  -8.9795  -5.4386  -4.3739  -3.8056  -3.7006  -3.4337  -3.3882
    -3.3171  -3.2841  -3.2381  -3.2016  -3.1461  -2.9420  -2.9359  -2.8427
    -2.7985  -2.7675  -2.7344  -2.6474  -2.5283  -2.5111  -2.4429  -2.4011
    -2.3885  -2.3691  -2.2943  -2.2619  -2.2547  -2.2167  -2.1694  -2.0909
    -2.0577  -2.0334  -1.9612  -1.9265  -1.8936  -1.8809  -1.8630  -1.7227
    -1.6609  -1.6421  -1.6172  -1.5387  -1.5002  -1.4825  -1.4213  -1.2955
    -1.2867  -1.2275  -1.1837  -1.1239  -1.1208  -1.0909  -1.0107  -0.9795
    -0.9629  -0.9510  -0.8648  -0.8285  -0.7272  -0.6124  -0.5862  -0.5119
    -0.4889  -0.4695  -0.4176  -0.4032  -0.2893  -0.2227  -0.1408  -0.1205
    -0.0992  -0.0377  -0.0109   0.0435   0.0517   0.0931   0.1230   0.1457
     0.1526   0.1839   0.2051   0.2362   0.3651   0.3951   0.4622   0.4885
     0.5786   0.6439   0.6619   0.7030   0.9289   0.9993   1.1891   1.2815
     1.3028   1.3665   1.5159   1.6498   1.8144   1.8889   3.4750   3.5040
     3.7946   3.8112   3.8277   3.8658   3.8690   3.8978   3.9125   3.9631

          k = 0.0380 0.0419 0.0000 ( 17878 PWs)   bands (ev):

   -55.6819 -55.6650 -55.6578 -55.6387 -55.5903 -55.5419 -55.5270 -55.5004
   -55.4963 -55.4725 -55.4608 -55.4363 -55.2590 -55.0358 -54.6626 -54.6385
   -32.1643 -32.1169 -31.9928 -31.9859 -31.9750 -31.9715 -31.9696 -31.9139
   -31.9124 -31.9060 -31.9032 -31.8713 -31.8556 -31.8502 -31.8486 -31.8229
   -31.8228 -31.8095 -31.7577 -31.7529 -31.7488 -31.7392 -31.7372 -31.7110
   -31.7052 -31.6984 -31.6964 -31.6934 -31.6905 -31.6792 -31.6696 -31.6635
   -31.6588 -31.6534 -31.6352 -31.6293 -31.6260 -31.5113 -31.4635 -31.3262
   -31.2929 -31.2532 -31.0204 -30.9855 -30.9660 -30.8789 -30.8178 -30.7510
   -16.7503 -16.2165 -15.9678 -15.7624 -15.7264 -15.6414 -15.6203 -15.5442
   -15.4957 -15.4494 -15.3456 -15.3230 -15.2981 -15.2832 -15.2457 -15.1997
   -15.1833 -15.1240 -15.0929 -15.0751 -15.0197 -15.0133 -14.9821 -14.9526
   -14.9416 -14.9275 -14.9052 -14.8826 -14.7841 -14.4054 -13.1718 -13.0933
   -11.8132  -8.9864  -5.4475  -4.3596  -3.7795  -3.5227  -3.2699  -3.2241
    -3.1437  -3.1171  -3.0822  -2.9945  -2.9665  -2.8391  -2.7931  -2.7282
    -2.7033  -2.6787  -2.6553  -2.6065  -2.5700  -2.5423  -2.5185  -2.4912
    -2.4351  -2.4221  -2.4033  -2.3876  -2.3479  -2.3340  -2.3155  -2.2753
    -2.1797  -2.1715  -2.1224  -2.0296  -1.9652  -1.9248  -1.8771  -1.8210
    -1.6942  -1.6771  -1.6381  -1.5197  -1.4666  -1.4129  -1.3770  -1.2771
    -1.1540  -1.1350  -1.1096  -1.0780  -1.0085  -0.9992  -0.9430  -0.9338
    -0.8789  -0.8216  -0.7730  -0.7418  -0.6662  -0.6303  -0.6171  -0.5865
    -0.5163  -0.4967  -0.4416  -0.4064  -0.3860  -0.3540  -0.3262  -0.2983
    -0.2703  -0.2117  -0.1429  -0.1228  -0.0653  -0.0074   0.0086   0.0349
     0.0987   0.1804   0.2395   0.2862   0.3783   0.4068   0.4878   0.5303
     0.5845   0.6363   0.6899   0.7134   0.7510   0.8912   0.9537   1.0797
     1.2440   1.5542   1.6307   1.6547   1.8025   1.8644   3.6286   3.6864
     3.7536   3.8235   3.8455   3.8997   3.9630   3.9879   4.0126   4.0405

          k = 0.0380-0.0839 0.0000 ( 17916 PWs)   bands (ev):

   -55.6702 -55.6696 -55.6556 -55.6482 -55.5872 -55.5451 -55.5191 -55.5083
   -55.4852 -55.4837 -55.4514 -55.4457 -55.2585 -55.0364 -54.6506 -54.6505
   -32.0301 -32.0204 -31.9848 -31.9843 -31.9656 -31.9648 -31.9450 -31.9385
   -31.8849 -31.8781 -31.8704 -31.8671 -31.8526 -31.8339 -31.8268 -31.8177
   -31.8045 -31.7982 -31.7927 -31.7911 -31.7902 -31.7824 -31.7779 -31.7482
   -31.7269 -31.7182 -31.7156 -31.7144 -31.7135 -31.7063 -31.6832 -31.6761
   -31.6585 -31.6561 -31.6423 -31.6396 -31.6160 -31.5103 -31.4627 -31.3638
   -31.2933 -31.2639 -30.9757 -30.9756 -30.8877 -30.8876 -30.8484 -30.8484
   -16.7414 -15.9217 -15.8661 -15.7234 -15.6856 -15.5697 -15.5455 -15.5145
   -15.4451 -15.4429 -15.4021 -15.3910 -15.3639 -15.2625 -15.2579 -15.1710
   -15.1422 -15.1147 -15.1060 -15.0965 -15.0805 -15.0650 -15.0465 -15.0339
   -15.0028 -14.9936 -14.9813 -14.9096 -14.7737 -14.5055 -13.1555 -13.1554
   -11.8160  -8.9940  -5.4519  -4.3511  -3.7595  -3.1567  -3.0729  -2.9389
    -2.9162  -2.8730  -2.8655  -2.8377  -2.7995  -2.7728  -2.7622  -2.7417
    -2.7261  -2.7032  -2.6738  -2.6520  -2.6419  -2.5562  -2.5451  -2.5331
    -2.5152  -2.4985  -2.4913  -2.4143  -2.3991  -2.3772  -2.3364  -2.2921
    -2.2677  -2.1816  -2.1685  -2.1118  -1.9307  -1.8272  -1.7881  -1.7642
    -1.6509  -1.6042  -1.5797  -1.5346  -1.5096  -1.4646  -1.4358  -1.4106
    -1.3518  -1.3294  -1.3018  -1.2542  -1.1782  -1.1329  -0.9914  -0.9214
    -0.8657  -0.8126  -0.7578  -0.7355  -0.7046  -0.6215  -0.6016  -0.5050
    -0.4841  -0.4528  -0.4388  -0.4178  -0.4018  -0.3649  -0.3291  -0.3009
    -0.2761  -0.2416  -0.2295  -0.1840  -0.1597  -0.0990  -0.0659  -0.0041
     0.0923   0.1465   0.2276   0.3021   0.3920   0.4038   0.4290   0.4601
     0.4735   0.5408   0.6480   0.6760   0.8314   0.8374   0.9657   1.0336
     1.0797   1.6472   1.6999   1.7008   1.8061   1.8069   3.7318   3.7490
     3.8281   3.8479   3.8651   3.8858   4.0242   4.0441   4.0713   4.0745

          k = 0.0380-0.0419 0.0000 ( 17876 PWs)   bands (ev):

   -55.6819 -55.6650 -55.6578 -55.6387 -55.5903 -55.5419 -55.5270 -55.5004
   -55.4963 -55.4725 -55.4608 -55.4363 -55.2590 -55.0358 -54.6626 -54.6385
   -32.1643 -32.1169 -31.9925 -31.9859 -31.9750 -31.9716 -31.9696 -31.9138
   -31.9124 -31.9060 -31.9032 -31.8715 -31.8553 -31.8501 -31.8486 -31.8233
   -31.8229 -31.8098 -31.7577 -31.7528 -31.7482 -31.7392 -31.7372 -31.7113
   -31.7051 -31.6978 -31.6970 -31.6933 -31.6905 -31.6793 -31.6696 -31.6632
   -31.6592 -31.6534 -31.6352 -31.6292 -31.6260 -31.5110 -31.4634 -31.3262
   -31.2930 -31.2532 -31.0204 -30.9855 -30.9659 -30.8789 -30.8178 -30.7510
   -16.7502 -16.2162 -15.9676 -15.7609 -15.7261 -15.6415 -15.6198 -15.5452
   -15.4966 -15.4500 -15.3461 -15.3317 -15.2978 -15.2861 -15.2471 -15.1951
   -15.1818 -15.1221 -15.0843 -15.0736 -15.0166 -15.0116 -14.9869 -14.9583
   -14.9413 -14.9285 -14.9052 -14.8815 -14.7839 -14.4058 -13.1718 -13.0933
   -11.8132  -8.9871  -5.4428  -4.3642  -3.7820  -3.5240  -3.2654  -3.2234
    -3.1432  -3.1145  -3.0813  -2.9974  -2.9675  -2.8369  -2.7938  -2.7306
    -2.6932  -2.6818  -2.6542  -2.6157  -2.5767  -2.5601  -2.5262  -2.4919
    -2.4392  -2.4271  -2.4046  -2.3917  -2.3555  -2.3353  -2.3023  -2.2684
    -2.1821  -2.1696  -2.0728  -2.0256  -1.9643  -1.9277  -1.8797  -1.8263
    -1.6947  -1.6730  -1.6408  -1.5026  -1.4454  -1.4122  -1.3837  -1.2829
    -1.1520  -1.1385  -1.1185  -1.0768  -1.0212  -0.9967  -0.9466  -0.9101
    -0.8817  -0.8225  -0.7850  -0.7186  -0.6818  -0.6553  -0.6214  -0.5698
    -0.5505  -0.5026  -0.4685  -0.4037  -0.3729  -0.3622  -0.3340  -0.2955
    -0.2575  -0.2043  -0.1479  -0.1193  -0.0355  -0.0098   0.0136   0.0414
     0.1026   0.1784   0.2503   0.2608   0.3677   0.4194   0.4960   0.5195
     0.5925   0.6392   0.6823   0.7093   0.7474   0.8925   0.9542   1.0936
     1.2442   1.5543   1.6308   1.6470   1.8024   1.8650   3.6248   3.6852
     3.7511   3.8234   3.8530   3.8880   3.9653   3.9914   4.0184   4.0321

          k =-0.0760-0.0000 0.0000 ( 17886 PWs)   bands (ev):

   -55.6869 -55.6701 -55.6529 -55.6336 -55.5931 -55.5391 -55.5317 -55.5011
   -55.4956 -55.4675 -55.4658 -55.4314 -55.2595 -55.0353 -54.6675 -54.6335
   -32.2216 -32.1718 -32.0467 -32.0448 -32.0003 -31.9851 -31.9795 -31.9652
   -31.9312 -31.8978 -31.8939 -31.8557 -31.8476 -31.8335 -31.8163 -31.8106
   -31.8068 -31.7915 -31.7785 -31.7474 -31.7444 -31.7345 -31.7178 -31.7089
   -31.7060 -31.6940 -31.6878 -31.6809 -31.6776 -31.6659 -31.6628 -31.6565
   -31.6472 -31.6319 -31.6197 -31.6075 -31.5787 -31.5150 -31.4661 -31.3014
   -31.2934 -31.2379 -31.0740 -30.9930 -30.9606 -30.8914 -30.8049 -30.6939
   -16.7538 -16.2435 -16.0062 -15.8013 -15.7866 -15.6795 -15.6423 -15.5520
   -15.4736 -15.4635 -15.4136 -15.3950 -15.3882 -15.3702 -15.3272 -15.3246
   -15.1997 -15.0763 -15.0526 -15.0221 -14.9801 -14.9554 -14.9369 -14.9135
   -14.8862 -14.8622 -14.8441 -14.7842 -14.7631 -14.3298 -13.1637 -13.0529
   -11.8108  -8.9799  -5.4425  -4.3823  -3.7914  -3.6772  -3.3802  -3.2761
    -3.1870  -3.0981  -3.0695  -3.0452  -2.9502  -2.9451  -2.9372  -2.9198
    -2.8581  -2.7309  -2.7096  -2.5227  -2.5025  -2.4832  -2.3916  -2.3802
    -2.3259  -2.2661  -2.2306  -2.1890  -2.1843  -2.1685  -2.0916  -2.0386
    -2.0022  -1.9919  -1.9489  -1.9358  -1.9228  -1.9179  -1.8915  -1.8514
    -1.8093  -1.7175  -1.6617  -1.4715  -1.4176  -1.3624  -1.3284  -1.2998
    -1.2922  -1.2779  -1.2726  -1.2496  -1.1942  -1.1525  -1.0610  -1.0353
    -0.9999  -0.9695  -0.9294  -0.8671  -0.8554  -0.8315  -0.7005  -0.6289
    -0.5122  -0.4487  -0.3778  -0.3731  -0.3391  -0.3306  -0.2792  -0.2089
    -0.1741  -0.1353  -0.0897  -0.0341  -0.0046   0.0300   0.0468   0.1141
     0.1208   0.1514   0.1891   0.2775   0.3412   0.3577   0.4276   0.5020
     0.5422   0.5721   0.7516   0.7870   0.8995   1.0024   1.0264   1.1876
     1.2942   1.3877   1.4915   1.6710   1.6852   1.8333   3.4796   3.4842
     3.6118   3.7221   3.7806   3.8743   3.8954   3.9458   3.9784   3.9833

          k =-0.0760 0.0419 0.0000 ( 17914 PWs)   bands (ev):

   -55.6819 -55.6650 -55.6579 -55.6387 -55.5903 -55.5419 -55.5270 -55.5004
   -55.4962 -55.4725 -55.4609 -55.4363 -55.2590 -55.0358 -54.6626 -54.6386
   -32.1646 -32.1179 -31.9942 -31.9926 -31.9750 -31.9717 -31.9698 -31.9152
   -31.9138 -31.9087 -31.9030 -31.8563 -31.8538 -31.8504 -31.8489 -31.8208
   -31.8132 -31.8060 -31.7669 -31.7577 -31.7397 -31.7371 -31.7194 -31.7122
   -31.7048 -31.7004 -31.6985 -31.6959 -31.6898 -31.6810 -31.6780 -31.6694
   -31.6603 -31.6525 -31.6350 -31.6327 -31.6293 -31.5136 -31.4636 -31.3262
   -31.2939 -31.2533 -31.0202 -30.9883 -30.9653 -30.8789 -30.8178 -30.7511
   -16.7467 -16.1250 -15.8928 -15.7130 -15.6850 -15.6219 -15.5651 -15.5408
   -15.4546 -15.4453 -15.4250 -15.3723 -15.3406 -15.3317 -15.3169 -15.2748
   -15.2201 -15.1419 -15.0768 -15.0731 -15.0565 -15.0300 -14.9750 -14.9649
   -14.9600 -14.9432 -14.8765 -14.8739 -14.7806 -14.4041 -13.1696 -13.0936
   -11.8137  -8.9867  -5.4452  -4.3659  -3.7759  -3.5073  -3.2194  -3.0145
    -2.9778  -2.8899  -2.8319  -2.8097  -2.7919  -2.7691  -2.7394  -2.7291
    -2.7053  -2.6682  -2.6366  -2.6190  -2.5867  -2.5543  -2.4708  -2.4685
    -2.4069  -2.3928  -2.3713  -2.3396  -2.2910  -2.2660  -2.2574  -2.1831
    -2.1665  -2.1626  -2.1249  -2.0495  -1.8997  -1.8395  -1.7980  -1.7864
    -1.7517  -1.6627  -1.6229  -1.5819  -1.4748  -1.3745  -1.2989  -1.2831
    -1.2461  -1.2267  -1.1838  -1.1437  -1.0916  -1.0539  -1.0055  -0.9826
    -0.9621  -0.9370  -0.9122  -0.8814  -0.8636  -0.8411  -0.7634  -0.7278
    -0.6805  -0.6541  -0.6363  -0.5578  -0.4572  -0.4479  -0.4130  -0.3662
    -0.3405  -0.3160  -0.2401  -0.2048  -0.1527  -0.1078  -0.0044   0.0155
     0.1394   0.1757   0.2553   0.3183   0.3697   0.4966   0.5592   0.5839
     0.6407   0.6842   0.7287   0.7594   0.8254   0.8741   0.8994   1.0802
     1.1033   1.5691   1.6340   1.6612   1.7258   1.8537   3.6137   3.6726
     3.6833   3.7708   3.7946   3.8093   3.9392   3.9690   4.0393   4.0898

          k =-0.0760-0.0839 0.0000 ( 17948 PWs)   bands (ev):

   -55.6703 -55.6696 -55.6556 -55.6482 -55.5872 -55.5451 -55.5192 -55.5083
   -55.4851 -55.4836 -55.4515 -55.4458 -55.2585 -55.0364 -54.6506 -54.6506
   -32.0304 -32.0207 -31.9856 -31.9850 -31.9656 -31.9649 -31.9452 -31.9386
   -31.8858 -31.8851 -31.8748 -31.8697 -31.8528 -31.8351 -31.8100 -31.8053
   -31.8009 -31.7973 -31.7909 -31.7905 -31.7892 -31.7889 -31.7851 -31.7460
   -31.7372 -31.7257 -31.7175 -31.7063 -31.6855 -31.6846 -31.6825 -31.6758
   -31.6658 -31.6618 -31.6586 -31.6561 -31.6155 -31.5123 -31.4628 -31.3638
   -31.2943 -31.2641 -30.9767 -30.9766 -30.8877 -30.8876 -30.8485 -30.8484
   -16.7398 -15.8651 -15.8040 -15.6460 -15.6108 -15.5913 -15.5564 -15.4957
   -15.4125 -15.3853 -15.3806 -15.3338 -15.3081 -15.2752 -15.2370 -15.2225
   -15.2154 -15.1966 -15.1844 -15.1503 -15.1408 -15.1291 -15.1219 -15.0466
   -15.0088 -15.0045 -14.9992 -14.8955 -14.7691 -14.5014 -13.1553 -13.1552
   -11.8167  -8.9937  -5.4481  -4.3506  -3.7640  -3.1579  -3.0709  -2.8960
    -2.8405  -2.8117  -2.7957  -2.6296  -2.6185  -2.6040  -2.5564  -2.5365
    -2.5262  -2.5177  -2.5091  -2.4880  -2.4752  -2.4408  -2.4308  -2.3954
    -2.3812  -2.3633  -2.3464  -2.3296  -2.3097  -2.2956  -2.2796  -2.2382
    -2.2187  -2.2080  -2.1870  -2.1436  -1.9329  -1.8829  -1.8376  -1.8337
    -1.8224  -1.8031  -1.7481  -1.7430  -1.7095  -1.6583  -1.5796  -1.4346
    -1.3891  -1.3726  -1.2796  -1.2580  -1.2054  -1.1333  -1.0875  -1.0705
    -1.0360  -0.9716  -0.9354  -0.8980  -0.8316  -0.8068  -0.8008  -0.7073
    -0.6864  -0.6502  -0.6435  -0.5651  -0.5140  -0.4514  -0.4361  -0.4197
    -0.3881  -0.3546  -0.3366  -0.2690  -0.1766  -0.1755  -0.1532  -0.0433
     0.0471   0.2756   0.3383   0.3753   0.4202   0.5139   0.5821   0.6069
     0.6230   0.6444   0.6639   0.7122   0.8392   0.8492   0.8834   0.9963
     1.0973   1.6468   1.7182   1.7190   1.7915   1.7916   3.7449   3.7632
     3.7839   3.8302   3.9495   3.9565   3.9787   3.9808   4.1034   4.1165

     the Fermi energy is     3.4451 ev

!    total energy              =   -2941.66158638 Ry
     estimated scf accuracy    <       0.00000005 Ry
     smearing contrib. (-TS)   =      -0.02152261 Ry
     internal energy E=F+TS    =   -2941.64006376 Ry

     The total energy is F=E-TS. E is the sum of the following terms:
     one-electron contribution =  -24275.99589480 Ry
     hartree contribution      =   12228.44613552 Ry
     xc contribution           =    -486.87214462 Ry
     ewald contribution        =    9592.78016745 Ry
     electric field correction =       0.00167268 Ry

     convergence has been achieved in  68 iterations

     Forces acting on atoms (cartesian axes, Ry/au):

     atom    1 type  1   force =     0.00018017   -0.00011695    0.09635646
     atom    2 type  1   force =    -0.00021773   -0.00063766   -0.17552289
     atom    3 type  2   force =    -0.00004311   -0.00003496   -0.02418144
     atom    4 type  2   force =     0.00005044   -0.00143858    0.05290775
     atom    5 type  2   force =    -0.01180940   -0.00048955    0.00396518
     atom    6 type  2   force =     0.01312237    0.00023774    0.00230235
     atom    7 type  1   force =    -0.00140329    0.00080374   -0.01149214
     atom    8 type  1   force =     0.00053479    0.00920602    0.02521876
     atom    9 type  2   force =    -0.00010824    0.00017667    0.00039901
     atom   10 type  2   force =    -0.00086395    0.00148582   -0.01580563
     atom   11 type  2   force =    -0.00020067   -0.00049704    0.00039604
     atom   12 type  2   force =    -0.00013007   -0.00026225    0.00003093
     atom   13 type  1   force =     0.00054559   -0.00091675    0.00005198
     atom   14 type  1   force =    -0.00008282   -0.00040177    0.00022607
     atom   15 type  2   force =     0.00018098    0.00004865   -0.00026883
     atom   16 type  2   force =     0.00006890    0.00025347    0.00008068
     atom   17 type  2   force =    -0.00052722    0.00035091    0.00049739
     atom   18 type  2   force =     0.00011606    0.00010756    0.00033052
     atom   19 type  1   force =     0.00008232   -0.00047028    0.00023290
     atom   20 type  1   force =     0.00015714    0.00027042    0.00062253
     atom   21 type  2   force =     0.00007416   -0.00008095    0.10319543
     atom   22 type  2   force =    -0.00045441   -0.00033305    0.00012543
     atom   23 type  2   force =    -0.07146170   -0.00018082   -0.02770819
     atom   24 type  2   force =     0.07138579    0.00025233   -0.02770782
     atom   25 type  1   force =     0.00003275   -0.00027389    0.09581206
     atom   26 type  1   force =    -0.00014841   -0.00022826   -0.17569332
     atom   27 type  2   force =     0.00009318   -0.00012483   -0.02328584
     atom   28 type  2   force =     0.00007887   -0.00129543    0.05333589
     atom   29 type  2   force =    -0.01193970   -0.00005516    0.00376130
     atom   30 type  2   force =     0.01319011    0.00043201    0.00213825
     atom   31 type  1   force =    -0.00141702    0.00344774   -0.01082238
     atom   32 type  1   force =     0.00064344   -0.01009781    0.02563258
     atom   33 type  2   force =    -0.00038979    0.00004833    0.00005998
     atom   34 type  2   force =     0.00074875    0.00090272   -0.02307190
     atom   35 type  2   force =    -0.00011761    0.00029380   -0.00002226
     atom   36 type  2   force =    -0.00021982    0.00059639   -0.00028605
     atom   37 type  1   force =    -0.00082442   -0.00102247   -0.00015755
     atom   38 type  1   force =    -0.00002642   -0.00010288   -0.00004966
     atom   39 type  2   force =    -0.00035261    0.00001121    0.00059248
     atom   40 type  2   force =     0.00048176    0.00024315    0.00027615
     atom   41 type  2   force =     0.00005830    0.00050074    0.00028172
     atom   42 type  2   force =     0.00009713    0.00033118   -0.00023480
     atom   43 type  1   force =     0.00020040    0.00002730   -0.00023672
     atom   44 type  1   force =    -0.00021713   -0.00048644    0.00002235
     atom   45 type  2   force =     0.00007008   -0.00008826    0.10322960
     atom   46 type  2   force =    -0.07146403   -0.00016866   -0.02770483
     atom   47 type  2   force =     0.07139133    0.00030363   -0.02771968
     atom   48 type  3   force =     0.00034229    0.00024663    0.00015131
     atom   49 type  3   force =     0.00124654   -0.00138470    0.00124009
     atom   50 type  4   force =     0.00070222   -0.00009196    0.00076354
     atom   51 type  5   force =     0.00113253    0.00036063   -0.00060075
     atom   52 type  5   force =    -0.00029202    0.00073608   -0.00066259
     atom   53 type  5   force =    -0.00027177   -0.00161162    0.00058577
     atom   54 type  5   force =    -0.00176078    0.00154021   -0.00145914
     atom   55 type  5   force =    -0.00026425   -0.00032211   -0.00012809

     Total force =     0.367327     Total SCF correction =     0.000478
  @ DRIVER MODE: Message from server: STATUS
  @ DRIVER MODE: Message from server: GETFORCE
  @ DRIVER MODE: Returning v,forces,stress,ensemble 

     Writing output data file ./calc.save/
  @ DRIVER MODE: Message from server: EXIT
  @ DRIVE MODE: Exiting  
 
     init_run     :     18.23s CPU     19.39s WALL (       1 calls)
     electrons    :   1771.68s CPU   1811.71s WALL (       1 calls)
     forces       :      3.92s CPU      4.08s WALL (       1 calls)

     Called by init_run:
     wfcinit      :      8.25s CPU      8.50s WALL (       1 calls)
     potinit      :      8.94s CPU      9.19s WALL (       1 calls)
     hinit0       :      0.48s CPU      0.76s WALL (       1 calls)

     Called by electrons:
     c_bands      :   1484.23s CPU   1505.34s WALL (      68 calls)
     sum_band     :    193.00s CPU    202.22s WALL (      68 calls)
     v_of_rho     :     71.52s CPU     74.06s WALL (      69 calls)
     newd         :     28.09s CPU     35.34s WALL (      69 calls)
     mix_rho      :      2.65s CPU      2.68s WALL (      68 calls)
     vdW_kernel   :      7.58s CPU      7.67s WALL (       1 calls)

     Called by c_bands:
     init_us_2    :     10.39s CPU     10.47s WALL (    1380 calls)
     cegterg      :   1454.21s CPU   1474.78s WALL (     698 calls)

     Called by *egterg:
     cdiaghg      :    190.19s CPU    191.61s WALL (    7082 calls)
     h_psi        :    822.64s CPU    835.22s WALL (    7092 calls)
     s_psi        :    110.81s CPU    111.32s WALL (    7092 calls)
     g_psi        :      2.88s CPU      2.90s WALL (    6384 calls)

     Called by h_psi:
     h_psi:calbec :    103.97s CPU    105.24s WALL (    7092 calls)
     vloc_psi     :    603.90s CPU    609.44s WALL (    7092 calls)
     add_vuspsi   :    110.66s CPU    113.20s WALL (    7092 calls)

     General routines
     calbec       :    137.69s CPU    139.07s WALL (    7812 calls)
     fft          :     38.81s CPU     38.98s WALL (    4347 calls)
     ffts         :      0.23s CPU      0.23s WALL (     137 calls)
     fftw         :    662.50s CPU    668.74s WALL (  910302 calls)
     interpolate  :      0.74s CPU      0.75s WALL (      69 calls)
     davcio       :      0.00s CPU      0.24s WALL (      10 calls)
 
     Parallel routines
 
     PWSCF        :  29m54.15s CPU  30m36.91s WALL

 
   This run was terminated on:  12:58:30  25Aug2021            

=------------------------------------------------------------------------------=
   JOB DONE.
=------------------------------------------------------------------------------=
