
     Program PWSCF v.6.7GPU starts on 15Sep2021 at 22:49:38 

     This program is part of the open-source Quantum ESPRESSO suite
     for quantum simulation of materials; please cite
         "P. Giannozzi et al., J. Phys.:Condens. Matter 21 395502 (2009);
         "P. Giannozzi et al., J. Phys.:Condens. Matter 29 465901 (2017);
         "P. Giannozzi et al., J. Chem. Phys. 152 154105 (2020);
          URL http://www.quantum-espresso.org", 
     in publications or presentations arising from this work. More details at
     http://www.quantum-espresso.org/quote

     Parallel version (MPI), running on    10 processors

     MPI processes distributed on     1 nodes
     R & G space division:  proc/nbgrp/npool/nimage =      10
     Reading input from /storage/home/hcoda1/3/ntian30/research/carbon/CxH_vib/H2O_calc/ads_slab/CH2OHH2O_a/out_0023/pw.inp
Warning: card &CELL ignored
Warning: card   CELL_DYNAMICS='IPI', ignored
Warning: card / ignored

     Current dimensions of program PWSCF are:
     Max number of different atomic species (ntypx) = 10
     Max number of k-points (npk) =  40000
     Max angular momentum in pseudopotentials (lmaxx) =  3
     Presently no symmetry can be used with electric field

     Message from routine cell_base_init:
     DEPRECATED: use true lattice parameter, not A to a.u. conversion factor

     **************************************************************************
     Initializing libbeef V0.1.2 with the BEEF-vdW functional.
     Citation: Wellendorff et al., PRB 85, 235149 (2012).
     **************************************************************************


     IMPORTANT: XC functional enforced from input :
     Exchange-correlation= BEEF-VDW
                           (   1   4  43  14   2   0   0)
     Any further DFT definition will be discarded
     Please, verify this is what you really want


     Subspace diagonalization in iterative solution of the eigenvalue problem:
     one sub-group per band group will be used
     scalapack distributed-memory algorithm (size of sub-group:  3*  3 procs)

  @ DRIVER MODE: Connecting to 
 qe_1139763_2852615.sched-torque.pace.gatech.edupknwh89x_scratch
  using UNIX socket
  @ DRIVER MODE: Message from server: STATUS
  @ DRIVER MODE: Message from server: INIT
  @ DRIVER MODE: Receiving replica           0          -1
  @ DRIVER MODE: Receiving encoded integer          25
  @ DRIVER MODE:  SCF:  T  FORCE:  T  STRESS:  F  VC:  F  ENSEMBLE:  F
  @ DRIVER MODE:  SCF:  T  FORCE:  T  STRESS:  F  VC:  F  ENSEMBLE:  F
 
     Parallelization info
     --------------------
     sticks:   dense  smooth     PW     G-vecs:    dense   smooth      PW
     Min         327     131     37                56683    14340    2191
     Max         328     133     38                56694    14346    2206
     Sum        3275    1317    379               566857   143421   21985
 
     Using Slab Decomposition
 


     bravais-lattice index     =            0
     lattice parameter (alat)  =       1.8897  a.u.
     unit-cell volume          =    6658.9804 (a.u.)^3
     number of atoms/cell      =           55
     number of atomic types    =            4
     number of electrons       =       399.00
     number of Kohn-Sham states=          209
     kinetic-energy cutoff     =      29.3995  Ry
     charge density cutoff     =     293.9946  Ry
     scf convergence threshold =      7.3E-08
     mixing beta               =       0.0500
     number of iterations used =            8  plain     mixing
     Exchange-correlation= BEEF-VDW
                           (   1   4  43  14   2   0   0)

     celldm(1)=   1.889726  celldm(2)=   0.000000  celldm(3)=   0.000000
     celldm(4)=   0.000000  celldm(5)=   0.000000  celldm(6)=   0.000000

     crystal axes: (cart. coord. in units of alat)
               a(1) = (   6.579727   0.000000   0.000000 )  
               a(2) = (  -0.000775   5.961596   0.000000 )  
               a(3) = (   0.000000   0.000000  25.155947 )  

     reciprocal axes: (cart. coord. in units 2 pi/alat)
               b(1) = (  0.151982  0.000020  0.000000 )  
               b(2) = (  0.000000  0.167740  0.000000 )  
               b(3) = (  0.000000  0.000000  0.039752 )  


     PseudoPot. # 1 for Ti read from file:
     /storage/coda1/p-amedford6/0/shared/rich_project_chbe-medford/medford-share/data/pseudos_module/espresso/nninc/pbe/van/Ti.UPF
     MD5 check sum: 8e4df49b7f0d34bbd5052bf3f5ea0213
     Pseudo is Ultrasoft, Zval = 12.0
     Generated by new atomic code, or converted to UPF format
     Using radial grid of  851 points,  6 beta functions with: 
                l(1) =   0
                l(2) =   0
                l(3) =   1
                l(4) =   1
                l(5) =   2
                l(6) =   2
     Q(r) pseudized with  8 coefficients,  rinner =    1.000   1.000   1.000
                                                       1.000   1.000

     PseudoPot. # 2 for O  read from file:
     /storage/coda1/p-amedford6/0/shared/rich_project_chbe-medford/medford-share/data/pseudos_module/espresso/nninc/pbe/van/O.UPF
     MD5 check sum: 78c19812648e8988a0fe644b0f25305e
     Pseudo is Ultrasoft, Zval =  6.0
     Generated by new atomic code, or converted to UPF format
     Using radial grid of  737 points,  4 beta functions with: 
                l(1) =   0
                l(2) =   0
                l(3) =   1
                l(4) =   1
     Q(r) pseudized with  8 coefficients,  rinner =    0.800   0.800   0.800


     PseudoPot. # 3 for C  read from file:
     /storage/coda1/p-amedford6/0/shared/rich_project_chbe-medford/medford-share/data/pseudos_module/espresso/nninc/pbe/van/C.UPF
     MD5 check sum: 1a69bf6b8db32088f5b2163dbdb77a27
     Pseudo is Ultrasoft, Zval =  4.0
     Generated by new atomic code, or converted to UPF format
     Using radial grid of  721 points,  4 beta functions with: 
                l(1) =   0
                l(2) =   0
                l(3) =   1
                l(4) =   1
     Q(r) pseudized with  8 coefficients,  rinner =    0.800   0.800   0.800


     PseudoPot. # 4 for H  read from file:
     /storage/coda1/p-amedford6/0/shared/rich_project_chbe-medford/medford-share/data/pseudos_module/espresso/nninc/pbe/van/H.UPF
     MD5 check sum: b5ee9d7bfd3a09ee7748110bda690ff7
     Pseudo is Ultrasoft, Zval =  1.0
     Generated by new atomic code, or converted to UPF format
     Using radial grid of  615 points,  1 beta functions with: 
                l(1) =   0
     Q(r) pseudized with  8 coefficients,  rinner =    0.800

     atomic species   valence    mass     pseudopotential
        Ti1           12.00    47.86700     Ti( 1.00)
        O1             6.00    15.99900     O ( 1.00)
        C1             4.00    12.01100     C ( 1.00)
        H1             1.00     1.00800     H ( 1.00)

     No symmetry found



   Cartesian axes

     site n.     atom                  positions (alat units)
         1           Ti1 tau(   1) = (   0.0004258   2.9801865   6.0000000  )
         2           Ti1 tau(   2) = (   3.2906075   1.4906267   6.0002472  )
         3           O1  tau(   3) = (   0.0006271   0.0005054   7.9858123  )
         4           O1  tau(   4) = (   3.2906025   0.0005020   7.3038282  )
         5           O1  tau(   5) = (   4.5942328   1.4918067   9.2879030  )
         6           O1  tau(   6) = (   1.9868534   1.4903216   9.2879459  )
         7           Ti1 tau(   7) = (   3.2434587   3.0186650   9.1693953  )
         8           Ti1 tau(   8) = (   6.5248695   1.5265067   9.2859949  )
         9           O1  tau(   9) = (   3.3238096   0.0077392  11.3399147  )
        10           O1  tau(  10) = (   0.0083103   0.0007143  10.5763085  )
        11           O1  tau(  11) = (   1.3076427   1.5153157  12.5877682  )
        12           O1  tau(  12) = (   5.3324098   1.4751673  12.6362968  )
        13           Ti1 tau(  13) = (   0.0822926   2.9518924  12.6100891  )
        14           Ti1 tau(  14) = (   3.3652580   1.6116561  12.6031695  )
        15           O1  tau(  15) = (   0.1623142   0.0003102  14.6136642  )
        16           O1  tau(  16) = (   3.2083997   0.0016335  13.9229753  )
        17           O1  tau(  17) = (   4.6427586   1.3635169  15.8692112  )
        18           O1  tau(  18) = (   2.0707938   1.5934636  16.1317492  )
        19           Ti1 tau(  19) = (   3.4055461   2.9583945  15.9219660  )
        20           Ti1 tau(  20) = (   0.0529163   1.3399360  15.9091509  )
        21           O1  tau(  21) = (   3.2904802   0.0005063   4.7018136  )
        22           O1  tau(  22) = (   0.1143047   5.9459637  17.1421970  )
        23           O1  tau(  23) = (   1.3043587   1.4918075   6.0039043  )
        24           O1  tau(  24) = (   5.2767064   1.4903225   6.0039473  )
        25           Ti1 tau(  25) = (   0.0000382   5.9609847   6.0000000  )
        26           Ti1 tau(  26) = (   3.2902200   4.4714249   6.0002472  )
        27           O1  tau(  27) = (   0.0002396   2.9813036   7.9858123  )
        28           O1  tau(  28) = (   3.2902150   2.9813002   7.3038282  )
        29           O1  tau(  29) = (   4.5938453   4.4726049   9.2879030  )
        30           O1  tau(  30) = (   1.9864658   4.4711199   9.2879459  )
        31           Ti1 tau(  31) = (   3.2519499   0.0415563   9.1803751  )
        32           Ti1 tau(  32) = (   6.5223785   4.4699269   9.2708698  )
        33           O1  tau(  33) = (   3.3249262   3.0006027  11.3427062  )
        34           O1  tau(  34) = (   6.5728067   2.9803724  10.5910131  )
        35           O1  tau(  35) = (   1.3048910   4.4590737  12.5876729  )
        36           O1  tau(  36) = (   5.3248012   4.5079456  12.6396186  )
        37           Ti1 tau(  37) = (   0.0305998   5.9348532  12.4502240  )
        38           Ti1 tau(  38) = (   3.3518916   4.5407868  12.4757475  )
        39           O1  tau(  39) = (   0.0741357   2.9755951  14.7167286  )
        40           O1  tau(  40) = (   3.3703583   2.9475192  13.9294239  )
        41           O1  tau(  41) = (   4.6408928   4.5782690  15.8216857  )
        42           O1  tau(  42) = (   2.0743197   4.3710070  16.0958311  )
        43           Ti1 tau(  43) = (   3.3271525   5.9323444  15.7323421  )
        44           Ti1 tau(  44) = (   0.0603002   4.5335970  15.7939964  )
        45           O1  tau(  45) = (   3.2900926   2.9813045   4.7018136  )
        46           O1  tau(  46) = (   1.3039711   4.4726057   6.0039043  )
        47           O1  tau(  47) = (   5.2763189   4.4711207   6.0039473  )
        48           C1  tau(  48) = (   4.5917920   3.0228413  17.9030398  )
        49           O1  tau(  49) = (   6.0625861   3.0006587  17.4562122  )
        50           H1  tau(  50) = (   0.0503952   3.1075262  18.2373115  )
        51           H1  tau(  51) = (   4.5265887   2.1706275  18.5776854  )
        52           H1  tau(  52) = (   4.4781653   3.9549082  18.4551422  )
        53           O1  tau(  53) = (   2.8659371   5.8926936  18.2031264  )
        54           H1  tau(  54) = (   3.0528466   0.8172038  18.5446680  )
        55           H1  tau(  55) = (   1.8959954   5.8777970  18.0521013  )

     number of k points=    10  Fermi-Dirac smearing, width (Ry)=  0.0073
                       cart. coord. in units 2pi/alat
        k(    1) = (   0.0000000   0.0000000   0.0000000), wk =   0.1250000
        k(    2) = (   0.0000000   0.0419351   0.0000000), wk =   0.2500000
        k(    3) = (   0.0000000  -0.0838702   0.0000000), wk =   0.1250000
        k(    4) = (   0.0379955   0.0000049   0.0000000), wk =   0.2500000
        k(    5) = (   0.0379955   0.0419400   0.0000000), wk =   0.2500000
        k(    6) = (   0.0379955  -0.0838652   0.0000000), wk =   0.2500000
        k(    7) = (   0.0379955  -0.0419301   0.0000000), wk =   0.2500000
        k(    8) = (  -0.0759910  -0.0000099   0.0000000), wk =   0.1250000
        k(    9) = (  -0.0759910   0.0419252   0.0000000), wk =   0.2500000
        k(   10) = (  -0.0759910  -0.0838800   0.0000000), wk =   0.1250000

     Dense  grid:   566857 G-vectors     FFT dimensions: (  72,  64, 270)

     Smooth grid:   143421 G-vectors     FFT dimensions: (  45,  40, 180)

     Estimated max dynamical RAM per process >     366.15 MB

     Estimated total dynamical RAM >       3.58 GB
     Cannot read rho : file not found

     Initial potential from superposition of free atoms

     starting charge  382.99916, renormalised to  399.00000

     negative rho (up, down):  1.858E-02 0.000E+00


     %%%%%%%%%%%%%%%%%%%%%%%%%%%%%%%%%%%%%%%%%%%%%%%%%%%%%%%%%%%%%%%%%%%%%%%%
     %                                                                      %
     % You are using vdW-DF, which was implemented by the Thonhauser group. %
     % Please cite the following two papers that made this development      %
     % possible and the two reviews that describe the various versions:     %
     %                                                                      %
     %   T. Thonhauser et al., PRL 115, 136402 (2015).                      %
     %   T. Thonhauser et al., PRB 76, 125112 (2007).                       %
     %   K. Berland et al., Rep. Prog. Phys. 78, 066501 (2015).             %
     %   D.C. Langreth et al., J. Phys.: Condens. Matter 21, 084203 (2009). %
     %                                                                      %
     %                                                                      %
     % If you are calculating the stress with vdW-DF, please also cite:     %
     %                                                                      %
     %   R. Sabatini et al., J. Phys.: Condens. Matter 24, 424209 (2012).   %
     %                                                                      %
     %%%%%%%%%%%%%%%%%%%%%%%%%%%%%%%%%%%%%%%%%%%%%%%%%%%%%%%%%%%%%%%%%%%%%%%%


 
     Adding external electric field

     Computed dipole along edir(3) : 
        Dipole               -9.7296 Ry au,        -24.7302 Debye
        Dipole field         -0.0184 Ry au, 
 
        Potential amp.        1.7020 Ry
        Total length         46.3494 bohr
 
     Starting wfcs are  301 atomic wfcs
  @ DRIVER MODE: Message from server: STATUS
  @ DRIVER MODE: Message from server: POSDATA
  @ DRIVER MODE: Reading and sharing cell 
  @ DRIVER MODE: Reading and sharing positions 
  @ DRIVER MODE: Received positions 

     total cpu time spent up to now is       11.1 secs

     Self-consistent Calculation

     iteration #  1     ecut=    29.40 Ry     beta= 0.05
     Davidson diagonalization with overlap
     c_bands:  1 eigenvalues not converged
     c_bands:  2 eigenvalues not converged
     c_bands:  3 eigenvalues not converged
     c_bands:  5 eigenvalues not converged
     c_bands:  3 eigenvalues not converged
     c_bands:  2 eigenvalues not converged
     c_bands:  3 eigenvalues not converged
     c_bands:  2 eigenvalues not converged
     ethr =  1.00E-05,  avg # of iterations = 19.8

     negative rho (up, down):  1.247E-02 0.000E+00
 
     Adding external electric field

     Computed dipole along edir(3) : 
        Dipole               47.1131 Ry au,        119.7497 Debye
        Dipole field          0.0889 Ry au, 
 
        Potential amp.       -8.2417 Ry
        Total length         46.3494 bohr
 

     total cpu time spent up to now is       52.4 secs

     total energy              =   -2478.50207427 Ry
     estimated scf accuracy    <    5415.90526031 Ry

     iteration #  2     ecut=    29.40 Ry     beta= 0.05
     Davidson diagonalization with overlap
     ethr =  1.00E-02,  avg # of iterations = 23.8

     negative rho (up, down):  2.669E-03 0.000E+00
 
     Adding external electric field

     Computed dipole along edir(3) : 
        Dipole               -0.7220 Ry au,         -1.8352 Debye
        Dipole field         -0.0014 Ry au, 
 
        Potential amp.        0.1263 Ry
        Total length         46.3494 bohr
 

     total cpu time spent up to now is      126.7 secs

     total energy              =   -2492.30091163 Ry
     estimated scf accuracy    <   66696.40074305 Ry

     iteration #  3     ecut=    29.40 Ry     beta= 0.05
     Davidson diagonalization with overlap
     ethr =  1.00E-02,  avg # of iterations = 15.2

     negative rho (up, down):  2.750E-03 0.000E+00
 
     Adding external electric field

     Computed dipole along edir(3) : 
        Dipole               -3.6658 Ry au,         -9.3176 Debye
        Dipole field         -0.0069 Ry au, 
 
        Potential amp.        0.6413 Ry
        Total length         46.3494 bohr
 

     total cpu time spent up to now is      175.1 secs

     total energy              =   -2950.65440817 Ry
     estimated scf accuracy    <    5043.24694068 Ry

     iteration #  4     ecut=    29.40 Ry     beta= 0.05
     Davidson diagonalization with overlap
     ethr =  1.00E-02,  avg # of iterations = 11.1

     negative rho (up, down):  2.808E-03 0.000E+00
 
     Adding external electric field

     Computed dipole along edir(3) : 
        Dipole               -5.4529 Ry au,        -13.8600 Debye
        Dipole field         -0.0103 Ry au, 
 
        Potential amp.        0.9539 Ry
        Total length         46.3494 bohr
 

     total cpu time spent up to now is      193.9 secs

     total energy              =   -2949.02529949 Ry
     estimated scf accuracy    <    2012.79805588 Ry

     iteration #  5     ecut=    29.40 Ry     beta= 0.05
     Davidson diagonalization with overlap
     c_bands:  1 eigenvalues not converged
     ethr =  1.00E-02,  avg # of iterations =  9.0

     negative rho (up, down):  2.915E-03 0.000E+00
 
     Adding external electric field

     Computed dipole along edir(3) : 
        Dipole               -6.4839 Ry au,        -16.4804 Debye
        Dipole field         -0.0122 Ry au, 
 
        Potential amp.        1.1343 Ry
        Total length         46.3494 bohr
 

     total cpu time spent up to now is      208.3 secs

     total energy              =   -2949.74463691 Ry
     estimated scf accuracy    <     754.49675621 Ry

     iteration #  6     ecut=    29.40 Ry     beta= 0.05
     Davidson diagonalization with overlap
     ethr =  1.00E-02,  avg # of iterations =  9.5

     negative rho (up, down):  2.854E-03 0.000E+00
 
     Adding external electric field

     Computed dipole along edir(3) : 
        Dipole               -5.6671 Ry au,        -14.4043 Debye
        Dipole field         -0.0107 Ry au, 
 
        Potential amp.        0.9914 Ry
        Total length         46.3494 bohr
 

     total cpu time spent up to now is      227.7 secs

     total energy              =   -2969.77242129 Ry
     estimated scf accuracy    <      18.60580869 Ry

     iteration #  7     ecut=    29.40 Ry     beta= 0.05
     Davidson diagonalization with overlap
     ethr =  4.66E-03,  avg # of iterations =  1.4

     negative rho (up, down):  2.872E-03 0.000E+00
 
     Adding external electric field

     Computed dipole along edir(3) : 
        Dipole               -5.2000 Ry au,        -13.2170 Debye
        Dipole field         -0.0098 Ry au, 
 
        Potential amp.        0.9097 Ry
        Total length         46.3494 bohr
 

     total cpu time spent up to now is      238.0 secs

     total energy              =   -2969.53838450 Ry
     estimated scf accuracy    <      15.49303649 Ry

     iteration #  8     ecut=    29.40 Ry     beta= 0.05
     Davidson diagonalization with overlap
     ethr =  3.88E-03,  avg # of iterations =  1.1

     negative rho (up, down):  3.280E-03 0.000E+00
 
     Adding external electric field

     Computed dipole along edir(3) : 
        Dipole               -2.0238 Ry au,         -5.1441 Debye
        Dipole field         -0.0038 Ry au, 
 
        Potential amp.        0.3540 Ry
        Total length         46.3494 bohr
 

     total cpu time spent up to now is      247.9 secs

     total energy              =   -2967.74092723 Ry
     estimated scf accuracy    <      14.43250477 Ry

     iteration #  9     ecut=    29.40 Ry     beta= 0.05
     Davidson diagonalization with overlap
     c_bands:  1 eigenvalues not converged
     c_bands:  1 eigenvalues not converged
     c_bands:  2 eigenvalues not converged
     c_bands:  1 eigenvalues not converged
     ethr =  3.62E-03,  avg # of iterations = 13.9

     negative rho (up, down):  3.634E-03 0.000E+00
 
     Adding external electric field

     Computed dipole along edir(3) : 
        Dipole               -0.8771 Ry au,         -2.2293 Debye
        Dipole field         -0.0017 Ry au, 
 
        Potential amp.        0.1534 Ry
        Total length         46.3494 bohr
 

     total cpu time spent up to now is      265.7 secs

     total energy              =   -2981.25639187 Ry
     estimated scf accuracy    <     950.73748678 Ry

     iteration # 10     ecut=    29.40 Ry     beta= 0.05
     Davidson diagonalization with overlap
     c_bands:  1 eigenvalues not converged
     c_bands:  4 eigenvalues not converged
     ethr =  3.62E-03,  avg # of iterations = 10.2

     negative rho (up, down):  7.328E-03 0.000E+00
 
     Adding external electric field

     Computed dipole along edir(3) : 
        Dipole                1.5991 Ry au,          4.0645 Debye
        Dipole field          0.0030 Ry au, 
 
        Potential amp.       -0.2797 Ry
        Total length         46.3494 bohr
 

     total cpu time spent up to now is      279.9 secs

     total energy              =   -2997.82899900 Ry
     estimated scf accuracy    <    1583.15929487 Ry

     iteration # 11     ecut=    29.40 Ry     beta= 0.05
     Davidson diagonalization with overlap
     c_bands:  1 eigenvalues not converged
     ethr =  3.62E-03,  avg # of iterations = 15.5

     negative rho (up, down):  5.167E-03 0.000E+00
 
     Adding external electric field

     Computed dipole along edir(3) : 
        Dipole               -0.7447 Ry au,         -1.8928 Debye
        Dipole field         -0.0014 Ry au, 
 
        Potential amp.        0.1303 Ry
        Total length         46.3494 bohr
 

     total cpu time spent up to now is      300.7 secs

     total energy              =   -2966.13084662 Ry
     estimated scf accuracy    <    3570.85578331 Ry

     iteration # 12     ecut=    29.40 Ry     beta= 0.05
     Davidson diagonalization with overlap
     c_bands:  1 eigenvalues not converged
     c_bands:  3 eigenvalues not converged
     c_bands:  2 eigenvalues not converged
     ethr =  3.62E-03,  avg # of iterations = 16.0

     negative rho (up, down):  4.315E-03 0.000E+00
 
     Adding external electric field

     Computed dipole along edir(3) : 
        Dipole               -2.4963 Ry au,         -6.3451 Debye
        Dipole field         -0.0047 Ry au, 
 
        Potential amp.        0.4367 Ry
        Total length         46.3494 bohr
 

     total cpu time spent up to now is      319.9 secs

     total energy              =   -2957.00766689 Ry
     estimated scf accuracy    <    1339.41383450 Ry

     iteration # 13     ecut=    29.40 Ry     beta= 0.05
     Davidson diagonalization with overlap
     c_bands:  1 eigenvalues not converged
     ethr =  3.62E-03,  avg # of iterations = 17.0

     negative rho (up, down):  4.163E-03 0.000E+00
 
     Adding external electric field

     Computed dipole along edir(3) : 
        Dipole               -1.8357 Ry au,         -4.6660 Debye
        Dipole field         -0.0035 Ry au, 
 
        Potential amp.        0.3211 Ry
        Total length         46.3494 bohr
 

     total cpu time spent up to now is      342.5 secs

     total energy              =   -2966.15795376 Ry
     estimated scf accuracy    <       5.91209704 Ry

     iteration # 14     ecut=    29.40 Ry     beta= 0.05
     Davidson diagonalization with overlap
     ethr =  1.48E-03,  avg # of iterations =  2.2

     negative rho (up, down):  4.051E-03 0.000E+00
 
     Adding external electric field

     Computed dipole along edir(3) : 
        Dipole               -1.9543 Ry au,         -4.9673 Debye
        Dipole field         -0.0037 Ry au, 
 
        Potential amp.        0.3419 Ry
        Total length         46.3494 bohr
 

     total cpu time spent up to now is      353.3 secs

     total energy              =   -2966.76162142 Ry
     estimated scf accuracy    <      94.74959494 Ry

     iteration # 15     ecut=    29.40 Ry     beta= 0.05
     Davidson diagonalization with overlap
     ethr =  1.48E-03,  avg # of iterations =  2.3

     negative rho (up, down):  3.881E-03 0.000E+00
 
     Adding external electric field

     Computed dipole along edir(3) : 
        Dipole               -2.9366 Ry au,         -7.4641 Debye
        Dipole field         -0.0055 Ry au, 
 
        Potential amp.        0.5137 Ry
        Total length         46.3494 bohr
 

     total cpu time spent up to now is      364.1 secs

     total energy              =   -2964.36488532 Ry
     estimated scf accuracy    <      92.27229535 Ry

     iteration # 16     ecut=    29.40 Ry     beta= 0.05
     Davidson diagonalization with overlap
     ethr =  1.48E-03,  avg # of iterations =  6.6

     negative rho (up, down):  4.267E-03 0.000E+00
 
     Adding external electric field

     Computed dipole along edir(3) : 
        Dipole               -2.2970 Ry au,         -5.8385 Debye
        Dipole field         -0.0043 Ry au, 
 
        Potential amp.        0.4018 Ry
        Total length         46.3494 bohr
 

     total cpu time spent up to now is      376.6 secs

     total energy              =   -2966.23462157 Ry
     estimated scf accuracy    <       1.20964564 Ry

     iteration # 17     ecut=    29.40 Ry     beta= 0.05
     Davidson diagonalization with overlap
     ethr =  3.03E-04,  avg # of iterations = 13.1

     negative rho (up, down):  5.583E-03 0.000E+00
 
     Adding external electric field

     Computed dipole along edir(3) : 
        Dipole               -0.9062 Ry au,         -2.3034 Debye
        Dipole field         -0.0017 Ry au, 
 
        Potential amp.        0.1585 Ry
        Total length         46.3494 bohr
 

     total cpu time spent up to now is      391.8 secs

     total energy              =   -2966.14210975 Ry
     estimated scf accuracy    <       1.19136797 Ry

     iteration # 18     ecut=    29.40 Ry     beta= 0.05
     Davidson diagonalization with overlap
     ethr =  2.99E-04,  avg # of iterations =  2.5

     negative rho (up, down):  5.697E-03 0.000E+00
 
     Adding external electric field

     Computed dipole along edir(3) : 
        Dipole               -0.7753 Ry au,         -1.9707 Debye
        Dipole field         -0.0015 Ry au, 
 
        Potential amp.        0.1356 Ry
        Total length         46.3494 bohr
 

     total cpu time spent up to now is      403.4 secs

     total energy              =   -2966.19902439 Ry
     estimated scf accuracy    <       0.86169426 Ry

     iteration # 19     ecut=    29.40 Ry     beta= 0.05
     Davidson diagonalization with overlap
     ethr =  2.16E-04,  avg # of iterations =  4.3

     negative rho (up, down):  5.661E-03 0.000E+00
 
     Adding external electric field

     Computed dipole along edir(3) : 
        Dipole               -0.7973 Ry au,         -2.0266 Debye
        Dipole field         -0.0015 Ry au, 
 
        Potential amp.        0.1395 Ry
        Total length         46.3494 bohr
 

     total cpu time spent up to now is      414.8 secs

     total energy              =   -2966.18398853 Ry
     estimated scf accuracy    <       0.66903434 Ry

     iteration # 20     ecut=    29.40 Ry     beta= 0.05
     Davidson diagonalization with overlap
     c_bands:  1 eigenvalues not converged
     ethr =  1.68E-04,  avg # of iterations =  6.8

     negative rho (up, down):  7.410E-03 0.000E+00
 
     Adding external electric field

     Computed dipole along edir(3) : 
        Dipole                0.0864 Ry au,          0.2197 Debye
        Dipole field          0.0002 Ry au, 
 
        Potential amp.       -0.0151 Ry
        Total length         46.3494 bohr
 

     total cpu time spent up to now is      426.9 secs

     total energy              =   -2966.11644139 Ry
     estimated scf accuracy    <       0.52118992 Ry

     iteration # 21     ecut=    29.40 Ry     beta= 0.05
     Davidson diagonalization with overlap
     c_bands:  4 eigenvalues not converged
     ethr =  1.31E-04,  avg # of iterations = 12.7

     negative rho (up, down):  8.424E-03 0.000E+00
 
     Adding external electric field

     Computed dipole along edir(3) : 
        Dipole                0.5284 Ry au,          1.3431 Debye
        Dipole field          0.0010 Ry au, 
 
        Potential amp.       -0.0924 Ry
        Total length         46.3494 bohr
 

     total cpu time spent up to now is      441.4 secs

     total energy              =   -2966.14256049 Ry
     estimated scf accuracy    <       0.20149839 Ry

     iteration # 22     ecut=    29.40 Ry     beta= 0.05
     Davidson diagonalization with overlap
     c_bands:  1 eigenvalues not converged
     c_bands:  4 eigenvalues not converged
     c_bands:  2 eigenvalues not converged
     c_bands:  5 eigenvalues not converged
     ethr =  5.05E-05,  avg # of iterations = 19.2

     negative rho (up, down):  8.449E-03 0.000E+00
 
     Adding external electric field

     Computed dipole along edir(3) : 
        Dipole                0.5518 Ry au,          1.4026 Debye
        Dipole field          0.0010 Ry au, 
 
        Potential amp.       -0.0965 Ry
        Total length         46.3494 bohr
 

     total cpu time spent up to now is      461.3 secs

     total energy              =   -2966.16641993 Ry
     estimated scf accuracy    <       0.16551317 Ry

     iteration # 23     ecut=    29.40 Ry     beta= 0.05
     Davidson diagonalization with overlap
     c_bands:  2 eigenvalues not converged
     ethr =  4.15E-05,  avg # of iterations =  6.6

     negative rho (up, down):  8.365E-03 0.000E+00
 
     Adding external electric field

     Computed dipole along edir(3) : 
        Dipole                0.5602 Ry au,          1.4239 Debye
        Dipole field          0.0011 Ry au, 
 
        Potential amp.       -0.0980 Ry
        Total length         46.3494 bohr
 

     total cpu time spent up to now is      473.3 secs

     total energy              =   -2966.16728009 Ry
     estimated scf accuracy    <       0.19111103 Ry

     iteration # 24     ecut=    29.40 Ry     beta= 0.05
     Davidson diagonalization with overlap
     c_bands:  1 eigenvalues not converged
     c_bands:  3 eigenvalues not converged
     ethr =  4.15E-05,  avg # of iterations =  5.9

     negative rho (up, down):  8.808E-03 0.000E+00
 
     Adding external electric field

     Computed dipole along edir(3) : 
        Dipole                0.7672 Ry au,          1.9500 Debye
        Dipole field          0.0014 Ry au, 
 
        Potential amp.       -0.1342 Ry
        Total length         46.3494 bohr
 

     total cpu time spent up to now is      484.6 secs

     total energy              =   -2966.15474137 Ry
     estimated scf accuracy    <       0.16866744 Ry

     iteration # 25     ecut=    29.40 Ry     beta= 0.05
     Davidson diagonalization with overlap
     c_bands:  2 eigenvalues not converged
     ethr =  4.15E-05,  avg # of iterations = 16.7

     negative rho (up, down):  9.373E-03 0.000E+00
 
     Adding external electric field

     Computed dipole along edir(3) : 
        Dipole                0.8005 Ry au,          2.0347 Debye
        Dipole field          0.0015 Ry au, 
 
        Potential amp.       -0.1400 Ry
        Total length         46.3494 bohr
 

     total cpu time spent up to now is      500.7 secs

     total energy              =   -2966.15850748 Ry
     estimated scf accuracy    <       0.13529951 Ry

     iteration # 26     ecut=    29.40 Ry     beta= 0.05
     Davidson diagonalization with overlap
     ethr =  3.39E-05,  avg # of iterations = 10.3

     negative rho (up, down):  1.033E-02 0.000E+00
 
     Adding external electric field

     Computed dipole along edir(3) : 
        Dipole                0.9261 Ry au,          2.3539 Debye
        Dipole field          0.0017 Ry au, 
 
        Potential amp.       -0.1620 Ry
        Total length         46.3494 bohr
 

     total cpu time spent up to now is      513.6 secs

     total energy              =   -2966.15739203 Ry
     estimated scf accuracy    <       0.10062473 Ry

     iteration # 27     ecut=    29.40 Ry     beta= 0.05
     Davidson diagonalization with overlap
     ethr =  2.52E-05,  avg # of iterations =  6.9

     negative rho (up, down):  9.713E-03 0.000E+00
 
     Adding external electric field

     Computed dipole along edir(3) : 
        Dipole                0.8582 Ry au,          2.1813 Debye
        Dipole field          0.0016 Ry au, 
 
        Potential amp.       -0.1501 Ry
        Total length         46.3494 bohr
 

     total cpu time spent up to now is      526.1 secs

     total energy              =   -2966.15794255 Ry
     estimated scf accuracy    <       0.07318949 Ry

     iteration # 28     ecut=    29.40 Ry     beta= 0.05
     Davidson diagonalization with overlap
     c_bands:  1 eigenvalues not converged
     ethr =  1.83E-05,  avg # of iterations =  7.0

     negative rho (up, down):  9.412E-03 0.000E+00
 
     Adding external electric field

     Computed dipole along edir(3) : 
        Dipole                0.8101 Ry au,          2.0591 Debye
        Dipole field          0.0015 Ry au, 
 
        Potential amp.       -0.1417 Ry
        Total length         46.3494 bohr
 

     total cpu time spent up to now is      538.2 secs

     total energy              =   -2966.15699239 Ry
     estimated scf accuracy    <       0.05787582 Ry

     iteration # 29     ecut=    29.40 Ry     beta= 0.05
     Davidson diagonalization with overlap
     ethr =  1.45E-05,  avg # of iterations =  2.4

     negative rho (up, down):  1.124E-02 0.000E+00
 
     Adding external electric field

     Computed dipole along edir(3) : 
        Dipole                0.8940 Ry au,          2.2724 Debye
        Dipole field          0.0017 Ry au, 
 
        Potential amp.       -0.1564 Ry
        Total length         46.3494 bohr
 

     total cpu time spent up to now is      549.2 secs

     total energy              =   -2966.15584856 Ry
     estimated scf accuracy    <       0.04618753 Ry

     iteration # 30     ecut=    29.40 Ry     beta= 0.05
     Davidson diagonalization with overlap
     c_bands:  1 eigenvalues not converged
     c_bands:  1 eigenvalues not converged
     c_bands:  1 eigenvalues not converged
     c_bands:  1 eigenvalues not converged
     ethr =  1.16E-05,  avg # of iterations = 15.0

     negative rho (up, down):  1.134E-02 0.000E+00
 
     Adding external electric field

     Computed dipole along edir(3) : 
        Dipole                0.8612 Ry au,          2.1889 Debye
        Dipole field          0.0016 Ry au, 
 
        Potential amp.       -0.1507 Ry
        Total length         46.3494 bohr
 

     total cpu time spent up to now is      564.6 secs

     total energy              =   -2966.15391834 Ry
     estimated scf accuracy    <       0.02272961 Ry

     iteration # 31     ecut=    29.40 Ry     beta= 0.05
     Davidson diagonalization with overlap
     c_bands:  3 eigenvalues not converged
     c_bands:  3 eigenvalues not converged
     c_bands:  4 eigenvalues not converged
     c_bands:  1 eigenvalues not converged
     c_bands:  1 eigenvalues not converged
     c_bands:  3 eigenvalues not converged
     c_bands:  2 eigenvalues not converged
     ethr =  5.70E-06,  avg # of iterations = 19.4

     negative rho (up, down):  1.232E-02 0.000E+00
 
     Adding external electric field

     Computed dipole along edir(3) : 
        Dipole                0.9164 Ry au,          2.3293 Debye
        Dipole field          0.0017 Ry au, 
 
        Potential amp.       -0.1603 Ry
        Total length         46.3494 bohr
 

     total cpu time spent up to now is      585.5 secs

     total energy              =   -2966.15695575 Ry
     estimated scf accuracy    <       0.01201309 Ry

     iteration # 32     ecut=    29.40 Ry     beta= 0.05
     Davidson diagonalization with overlap
     c_bands:  1 eigenvalues not converged
     c_bands:  1 eigenvalues not converged
     c_bands:  1 eigenvalues not converged
     c_bands:  2 eigenvalues not converged
     ethr =  3.01E-06,  avg # of iterations = 12.7

     negative rho (up, down):  1.373E-02 0.000E+00
 
     Adding external electric field

     Computed dipole along edir(3) : 
        Dipole                0.9495 Ry au,          2.4135 Debye
        Dipole field          0.0018 Ry au, 
 
        Potential amp.       -0.1661 Ry
        Total length         46.3494 bohr
 

     total cpu time spent up to now is      599.7 secs

     total energy              =   -2966.15599755 Ry
     estimated scf accuracy    <       0.01004542 Ry

     iteration # 33     ecut=    29.40 Ry     beta= 0.05
     Davidson diagonalization with overlap
     c_bands:  1 eigenvalues not converged
     c_bands:  2 eigenvalues not converged
     c_bands:  1 eigenvalues not converged
     c_bands:  1 eigenvalues not converged
     c_bands:  1 eigenvalues not converged
     ethr =  2.52E-06,  avg # of iterations = 19.2

     negative rho (up, down):  1.386E-02 0.000E+00
 
     Adding external electric field

     Computed dipole along edir(3) : 
        Dipole                0.9159 Ry au,          2.3279 Debye
        Dipole field          0.0017 Ry au, 
 
        Potential amp.       -0.1602 Ry
        Total length         46.3494 bohr
 

     total cpu time spent up to now is      620.2 secs

     total energy              =   -2966.15640692 Ry
     estimated scf accuracy    <       0.00415222 Ry

     iteration # 34     ecut=    29.40 Ry     beta= 0.05
     Davidson diagonalization with overlap
     ethr =  1.04E-06,  avg # of iterations = 10.9

     negative rho (up, down):  1.476E-02 0.000E+00
 
     Adding external electric field

     Computed dipole along edir(3) : 
        Dipole                0.9627 Ry au,          2.4469 Debye
        Dipole field          0.0018 Ry au, 
 
        Potential amp.       -0.1684 Ry
        Total length         46.3494 bohr
 

     total cpu time spent up to now is      636.8 secs

     total energy              =   -2966.15710702 Ry
     estimated scf accuracy    <       0.00261033 Ry

     iteration # 35     ecut=    29.40 Ry     beta= 0.05
     Davidson diagonalization with overlap
     ethr =  6.54E-07,  avg # of iterations =  7.2

     negative rho (up, down):  1.534E-02 0.000E+00
 
     Adding external electric field

     Computed dipole along edir(3) : 
        Dipole                0.9753 Ry au,          2.4789 Debye
        Dipole field          0.0018 Ry au, 
 
        Potential amp.       -0.1706 Ry
        Total length         46.3494 bohr
 

     total cpu time spent up to now is      649.5 secs

     total energy              =   -2966.15740220 Ry
     estimated scf accuracy    <       0.00095795 Ry

     iteration # 36     ecut=    29.40 Ry     beta= 0.05
     Davidson diagonalization with overlap
     ethr =  2.40E-07,  avg # of iterations =  9.5

     negative rho (up, down):  1.616E-02 0.000E+00
 
     Adding external electric field

     Computed dipole along edir(3) : 
        Dipole                0.9735 Ry au,          2.4744 Debye
        Dipole field          0.0018 Ry au, 
 
        Potential amp.       -0.1703 Ry
        Total length         46.3494 bohr
 

     total cpu time spent up to now is      663.0 secs

     total energy              =   -2966.15744198 Ry
     estimated scf accuracy    <       0.00061887 Ry

     iteration # 37     ecut=    29.40 Ry     beta= 0.05
     Davidson diagonalization with overlap
     c_bands:  2 eigenvalues not converged
     ethr =  1.55E-07,  avg # of iterations = 15.4

     negative rho (up, down):  1.658E-02 0.000E+00
 
     Adding external electric field

     Computed dipole along edir(3) : 
        Dipole                0.9839 Ry au,          2.5009 Debye
        Dipole field          0.0019 Ry au, 
 
        Potential amp.       -0.1721 Ry
        Total length         46.3494 bohr
 

     total cpu time spent up to now is      684.5 secs

     total energy              =   -2966.15760883 Ry
     estimated scf accuracy    <       0.00108704 Ry

     iteration # 38     ecut=    29.40 Ry     beta= 0.05
     Davidson diagonalization with overlap
     ethr =  1.55E-07,  avg # of iterations = 11.0

     negative rho (up, down):  1.650E-02 0.000E+00
 
     Adding external electric field

     Computed dipole along edir(3) : 
        Dipole                0.9837 Ry au,          2.5003 Debye
        Dipole field          0.0019 Ry au, 
 
        Potential amp.       -0.1721 Ry
        Total length         46.3494 bohr
 

     total cpu time spent up to now is      698.6 secs

     total energy              =   -2966.15765129 Ry
     estimated scf accuracy    <       0.00037092 Ry

     iteration # 39     ecut=    29.40 Ry     beta= 0.05
     Davidson diagonalization with overlap
     ethr =  9.30E-08,  avg # of iterations = 12.1

     negative rho (up, down):  1.692E-02 0.000E+00
 
     Adding external electric field

     Computed dipole along edir(3) : 
        Dipole                0.9861 Ry au,          2.5065 Debye
        Dipole field          0.0019 Ry au, 
 
        Potential amp.       -0.1725 Ry
        Total length         46.3494 bohr
 

     total cpu time spent up to now is      714.7 secs

     total energy              =   -2966.15775025 Ry
     estimated scf accuracy    <       0.00016266 Ry

     iteration # 40     ecut=    29.40 Ry     beta= 0.05
     Davidson diagonalization with overlap
     ethr =  4.08E-08,  avg # of iterations = 13.1

     negative rho (up, down):  1.749E-02 0.000E+00
 
     Adding external electric field

     Computed dipole along edir(3) : 
        Dipole                1.0028 Ry au,          2.5489 Debye
        Dipole field          0.0019 Ry au, 
 
        Potential amp.       -0.1754 Ry
        Total length         46.3494 bohr
 

     total cpu time spent up to now is      731.2 secs

     total energy              =   -2966.15779035 Ry
     estimated scf accuracy    <       0.00020706 Ry

     iteration # 41     ecut=    29.40 Ry     beta= 0.05
     Davidson diagonalization with overlap
     ethr =  4.08E-08,  avg # of iterations = 12.8

     negative rho (up, down):  1.771E-02 0.000E+00
 
     Adding external electric field

     Computed dipole along edir(3) : 
        Dipole                1.0013 Ry au,          2.5451 Debye
        Dipole field          0.0019 Ry au, 
 
        Potential amp.       -0.1752 Ry
        Total length         46.3494 bohr
 

     total cpu time spent up to now is      749.3 secs

     total energy              =   -2966.15786289 Ry
     estimated scf accuracy    <       0.00007313 Ry

     iteration # 42     ecut=    29.40 Ry     beta= 0.05
     Davidson diagonalization with overlap
     ethr =  1.83E-08,  avg # of iterations =  5.5

     negative rho (up, down):  1.813E-02 0.000E+00
 
     Adding external electric field

     Computed dipole along edir(3) : 
        Dipole                1.0023 Ry au,          2.5477 Debye
        Dipole field          0.0019 Ry au, 
 
        Potential amp.       -0.1753 Ry
        Total length         46.3494 bohr
 

     total cpu time spent up to now is      761.3 secs

     total energy              =   -2966.15790130 Ry
     estimated scf accuracy    <       0.00003581 Ry

     iteration # 43     ecut=    29.40 Ry     beta= 0.05
     Davidson diagonalization with overlap
     c_bands:  1 eigenvalues not converged
     ethr =  8.97E-09,  avg # of iterations = 12.9

     negative rho (up, down):  1.819E-02 0.000E+00
 
     Adding external electric field

     Computed dipole along edir(3) : 
        Dipole                1.0081 Ry au,          2.5623 Debye
        Dipole field          0.0019 Ry au, 
 
        Potential amp.       -0.1764 Ry
        Total length         46.3494 bohr
 

     total cpu time spent up to now is      780.8 secs

     total energy              =   -2966.15793148 Ry
     estimated scf accuracy    <       0.00005178 Ry

     iteration # 44     ecut=    29.40 Ry     beta= 0.05
     Davidson diagonalization with overlap
     ethr =  8.97E-09,  avg # of iterations =  9.5

     negative rho (up, down):  1.818E-02 0.000E+00
 
     Adding external electric field

     Computed dipole along edir(3) : 
        Dipole                1.0095 Ry au,          2.5658 Debye
        Dipole field          0.0019 Ry au, 
 
        Potential amp.       -0.1766 Ry
        Total length         46.3494 bohr
 

     total cpu time spent up to now is      796.4 secs

     total energy              =   -2966.15796251 Ry
     estimated scf accuracy    <       0.00001001 Ry

     iteration # 45     ecut=    29.40 Ry     beta= 0.05
     Davidson diagonalization with overlap
     c_bands:  1 eigenvalues not converged
     ethr =  2.51E-09,  avg # of iterations = 13.9

     negative rho (up, down):  1.816E-02 0.000E+00
 
     Adding external electric field

     Computed dipole along edir(3) : 
        Dipole                1.0080 Ry au,          2.5622 Debye
        Dipole field          0.0019 Ry au, 
 
        Potential amp.       -0.1763 Ry
        Total length         46.3494 bohr
 

     total cpu time spent up to now is      817.4 secs

     total energy              =   -2966.15798756 Ry
     estimated scf accuracy    <       0.00001600 Ry

     iteration # 46     ecut=    29.40 Ry     beta= 0.05
     Davidson diagonalization with overlap
     ethr =  2.51E-09,  avg # of iterations =  6.2

     negative rho (up, down):  1.819E-02 0.000E+00
 
     Adding external electric field

     Computed dipole along edir(3) : 
        Dipole                1.0062 Ry au,          2.5574 Debye
        Dipole field          0.0019 Ry au, 
 
        Potential amp.       -0.1760 Ry
        Total length         46.3494 bohr
 

     total cpu time spent up to now is      829.3 secs

     total energy              =   -2966.15800773 Ry
     estimated scf accuracy    <       0.00000936 Ry

     iteration # 47     ecut=    29.40 Ry     beta= 0.05
     Davidson diagonalization with overlap
     c_bands:  2 eigenvalues not converged
     ethr =  2.35E-09,  avg # of iterations = 15.3

     negative rho (up, down):  1.812E-02 0.000E+00
 
     Adding external electric field

     Computed dipole along edir(3) : 
        Dipole                1.0085 Ry au,          2.5633 Debye
        Dipole field          0.0019 Ry au, 
 
        Potential amp.       -0.1764 Ry
        Total length         46.3494 bohr
 

     total cpu time spent up to now is      851.4 secs

     total energy              =   -2966.15802721 Ry
     estimated scf accuracy    <       0.00001711 Ry

     iteration # 48     ecut=    29.40 Ry     beta= 0.05
     Davidson diagonalization with overlap
     ethr =  2.35E-09,  avg # of iterations = 11.0

     negative rho (up, down):  1.803E-02 0.000E+00
 
     Adding external electric field

     Computed dipole along edir(3) : 
        Dipole                1.0081 Ry au,          2.5624 Debye
        Dipole field          0.0019 Ry au, 
 
        Potential amp.       -0.1764 Ry
        Total length         46.3494 bohr
 

     total cpu time spent up to now is      868.2 secs

     total energy              =   -2966.15804667 Ry
     estimated scf accuracy    <       0.00000285 Ry

     iteration # 49     ecut=    29.40 Ry     beta= 0.05
     Davidson diagonalization with overlap
     ethr =  7.15E-10,  avg # of iterations = 13.0

     negative rho (up, down):  1.804E-02 0.000E+00
 
     Adding external electric field

     Computed dipole along edir(3) : 
        Dipole                1.0088 Ry au,          2.5640 Debye
        Dipole field          0.0019 Ry au, 
 
        Potential amp.       -0.1765 Ry
        Total length         46.3494 bohr
 

     total cpu time spent up to now is      888.9 secs

     total energy              =   -2966.15806404 Ry
     estimated scf accuracy    <       0.00000442 Ry

     iteration # 50     ecut=    29.40 Ry     beta= 0.05
     Davidson diagonalization with overlap
     ethr =  7.15E-10,  avg # of iterations =  7.4

     negative rho (up, down):  1.804E-02 0.000E+00
 
     Adding external electric field

     Computed dipole along edir(3) : 
        Dipole                1.0082 Ry au,          2.5625 Debye
        Dipole field          0.0019 Ry au, 
 
        Potential amp.       -0.1764 Ry
        Total length         46.3494 bohr
 

     total cpu time spent up to now is      901.1 secs

     total energy              =   -2966.15807813 Ry
     estimated scf accuracy    <       0.00000614 Ry

     iteration # 51     ecut=    29.40 Ry     beta= 0.05
     Davidson diagonalization with overlap
     ethr =  7.15E-10,  avg # of iterations =  3.0

     negative rho (up, down):  1.800E-02 0.000E+00
 
     Adding external electric field

     Computed dipole along edir(3) : 
        Dipole                1.0066 Ry au,          2.5586 Debye
        Dipole field          0.0019 Ry au, 
 
        Potential amp.       -0.1761 Ry
        Total length         46.3494 bohr
 

     total cpu time spent up to now is      912.0 secs

     total energy              =   -2966.15809051 Ry
     estimated scf accuracy    <       0.00000488 Ry

     iteration # 52     ecut=    29.40 Ry     beta= 0.05
     Davidson diagonalization with overlap
     ethr =  7.15E-10,  avg # of iterations = 10.0

     negative rho (up, down):  1.797E-02 0.000E+00
 
     Adding external electric field

     Computed dipole along edir(3) : 
        Dipole                1.0057 Ry au,          2.5562 Debye
        Dipole field          0.0019 Ry au, 
 
        Potential amp.       -0.1759 Ry
        Total length         46.3494 bohr
 

     total cpu time spent up to now is      926.6 secs

     total energy              =   -2966.15810217 Ry
     estimated scf accuracy    <       0.00000161 Ry

     iteration # 53     ecut=    29.40 Ry     beta= 0.05
     Davidson diagonalization with overlap
     ethr =  4.03E-10,  avg # of iterations =  9.5

     negative rho (up, down):  1.797E-02 0.000E+00
 
     Adding external electric field

     Computed dipole along edir(3) : 
        Dipole                1.0058 Ry au,          2.5566 Debye
        Dipole field          0.0019 Ry au, 
 
        Potential amp.       -0.1760 Ry
        Total length         46.3494 bohr
 

     total cpu time spent up to now is      944.8 secs

     total energy              =   -2966.15811314 Ry
     estimated scf accuracy    <       0.00000052 Ry

     iteration # 54     ecut=    29.40 Ry     beta= 0.05
     Davidson diagonalization with overlap
     ethr =  1.31E-10,  avg # of iterations =  1.9

     negative rho (up, down):  1.797E-02 0.000E+00
 
     Adding external electric field

     Computed dipole along edir(3) : 
        Dipole                1.0067 Ry au,          2.5587 Debye
        Dipole field          0.0019 Ry au, 
 
        Potential amp.       -0.1761 Ry
        Total length         46.3494 bohr
 

     total cpu time spent up to now is      955.5 secs

     total energy              =   -2966.15812255 Ry
     estimated scf accuracy    <       0.00000043 Ry

     iteration # 55     ecut=    29.40 Ry     beta= 0.05
     Davidson diagonalization with overlap
     ethr =  1.07E-10,  avg # of iterations = 14.4

     negative rho (up, down):  1.794E-02 0.000E+00
 
     Adding external electric field

     Computed dipole along edir(3) : 
        Dipole                1.0057 Ry au,          2.5561 Debye
        Dipole field          0.0019 Ry au, 
 
        Potential amp.       -0.1759 Ry
        Total length         46.3494 bohr
 

     total cpu time spent up to now is      977.0 secs

     total energy              =   -2966.15813139 Ry
     estimated scf accuracy    <       0.00000065 Ry

     iteration # 56     ecut=    29.40 Ry     beta= 0.05
     Davidson diagonalization with overlap
     ethr =  1.07E-10,  avg # of iterations =  7.2

     negative rho (up, down):  1.798E-02 0.000E+00
 
     Adding external electric field

     Computed dipole along edir(3) : 
        Dipole                1.0043 Ry au,          2.5527 Debye
        Dipole field          0.0019 Ry au, 
 
        Potential amp.       -0.1757 Ry
        Total length         46.3494 bohr
 

     total cpu time spent up to now is      991.5 secs

     End of self-consistent calculation

          k = 0.0000 0.0000 0.0000 ( 18029 PWs)   bands (ev):

   -55.6886 -55.6522 -55.5814 -55.5728 -55.5166 -55.5142 -55.5081 -55.5054
   -55.4775 -55.4603 -55.4530 -55.4421 -55.4267 -55.3356 -54.6577 -54.6237
   -32.1791 -32.1647 -32.0545 -32.0247 -32.0024 -31.9759 -31.9546 -31.9434
   -31.9298 -31.8706 -31.8430 -31.8362 -31.8327 -31.8236 -31.7965 -31.7868
   -31.7833 -31.7638 -31.7587 -31.7477 -31.7365 -31.7315 -31.6975 -31.6923
   -31.6896 -31.6828 -31.6773 -31.6695 -31.6644 -31.6596 -31.6520 -31.6351
   -31.6312 -31.6295 -31.6235 -31.6201 -31.6116 -31.6110 -31.5861 -31.5634
   -31.5509 -31.4220 -31.0647 -30.9763 -30.9538 -30.8816 -30.7952 -30.6839
   -19.3890 -18.7485 -16.3739 -16.1772 -15.9725 -15.8589 -15.8391 -15.6579
   -15.5341 -15.3878 -15.3357 -15.3067 -15.2855 -15.2163 -15.2095 -15.1944
   -15.1593 -15.1545 -15.1180 -15.0983 -15.0923 -15.0644 -15.0129 -14.9914
   -14.9419 -14.8816 -14.8130 -14.7928 -14.7837 -14.7086 -14.6171 -13.1584
   -13.0418  -9.4468  -6.5093  -6.2801  -4.0918  -3.8421  -3.6861  -3.6436
    -3.6110  -3.5748  -3.4149  -3.3033  -3.1239  -3.0207  -2.9526  -2.9026
    -2.8652  -2.7883  -2.7462  -2.6219  -2.5990  -2.5487  -2.5160  -2.4805
    -2.4729  -2.4518  -2.4064  -2.3890  -2.3736  -2.2167  -2.2063  -2.1730
    -2.1078  -2.0764  -2.0490  -2.0123  -1.9905  -1.9635  -1.9454  -1.8987
    -1.8802  -1.8087  -1.8005  -1.7575  -1.6904  -1.6583  -1.3933  -1.3167
    -1.2944  -1.2565  -1.1929  -1.0955  -1.0919  -1.0853  -1.0848  -1.0288
    -1.0158  -0.8624  -0.8481  -0.8330  -0.7532  -0.6742  -0.5950  -0.5585
    -0.4938  -0.4435  -0.4107  -0.3829  -0.3566  -0.3013  -0.2340  -0.2101
    -0.1398  -0.0653  -0.0323   0.0203   0.0461   0.0905   0.1211   0.1976
     0.2365   0.2705   0.2983   0.3163   0.3263   0.3697   0.3898   0.4791
     0.5565   0.5843   0.5912   0.6653   0.7918   0.8742   0.9863   1.0778
     1.3003   1.3664   1.4178   1.5524   1.5596   1.9382   1.9886   3.4527
     3.5219   3.5813   3.5818   3.6166   3.6972   3.9001   3.9474   4.0046
     4.0387

          k = 0.0000 0.0419 0.0000 ( 17933 PWs)   bands (ev):

   -55.6840 -55.6566 -55.5789 -55.5705 -55.5187 -55.5134 -55.5086 -55.5044
   -55.4724 -55.4564 -55.4548 -55.4470 -55.4315 -55.3363 -54.6527 -54.6286
   -32.1422 -32.1109 -32.0011 -31.9819 -31.9719 -31.9582 -31.9144 -31.9070
   -31.8895 -31.8595 -31.8433 -31.8310 -31.8292 -31.8208 -31.8153 -31.8062
   -31.7789 -31.7615 -31.7563 -31.7499 -31.7471 -31.7381 -31.7216 -31.7153
   -31.6924 -31.6894 -31.6827 -31.6772 -31.6767 -31.6711 -31.6694 -31.6648
   -31.6599 -31.6492 -31.6319 -31.6264 -31.6198 -31.6156 -31.6139 -31.6105
   -31.6006 -31.4221 -31.0106 -30.9729 -30.9569 -30.8690 -30.8077 -30.7409
   -19.3860 -18.7482 -16.2513 -16.0631 -15.8606 -15.8107 -15.7296 -15.5942
   -15.4898 -15.4305 -15.3512 -15.3244 -15.2391 -15.2331 -15.2202 -15.1976
   -15.1710 -15.1552 -15.1480 -15.1351 -15.1053 -15.0619 -15.0355 -15.0159
   -14.9869 -14.9287 -14.8711 -14.8537 -14.8396 -14.7652 -14.7161 -13.1625
   -13.0813  -9.4477  -6.5231  -6.2648  -4.0697  -3.7760  -3.5292  -3.4756
    -3.4354  -3.4028  -3.2866  -3.1598  -3.0445  -2.9202  -2.8743  -2.8210
    -2.8003  -2.7460  -2.6986  -2.6566  -2.6173  -2.6065  -2.5853  -2.5474
    -2.5116  -2.4932  -2.4354  -2.4063  -2.3964  -2.3577  -2.3287  -2.2939
    -2.2296  -2.1795  -2.1516  -2.1156  -2.0917  -2.0666  -2.0241  -1.9592
    -1.9290  -1.8482  -1.7544  -1.6534  -1.5067  -1.4926  -1.4204  -1.3490
    -1.3170  -1.2180  -1.1948  -1.1065  -1.0057  -0.9067  -0.8749  -0.8384
    -0.8081  -0.7827  -0.7290  -0.6673  -0.6390  -0.6281  -0.6117  -0.5644
    -0.5411  -0.5002  -0.4483  -0.4350  -0.3964  -0.3443  -0.3034  -0.2546
    -0.1940  -0.1730  -0.1174  -0.0845  -0.0462   0.0058   0.0254   0.1193
     0.1588   0.1674   0.1945   0.2113   0.2958   0.3143   0.3811   0.4333
     0.4679   0.4983   0.5636   0.6486   0.6601   0.7001   0.7974   0.9468
     0.9862   1.3017   1.5538   1.5661   1.6549   1.8907   1.9013   3.6335
     3.6878   3.7365   3.7937   3.8076   3.8208   3.8569   3.9549   3.9874
     4.0047

          k = 0.0000-0.0839 0.0000 ( 17884 PWs)   bands (ev):

   -55.6769 -55.6637 -55.5761 -55.5681 -55.5212 -55.5125 -55.5108 -55.5015
   -55.4626 -55.4591 -55.4568 -55.4451 -55.4415 -55.3370 -54.6406 -54.6406
   -32.0975 -31.9847 -31.9749 -31.9722 -31.9512 -31.8944 -31.8725 -31.8518
   -31.8404 -31.8337 -31.8291 -31.8153 -31.8134 -31.8050 -31.8012 -31.8001
   -31.7974 -31.7907 -31.7830 -31.7633 -31.7601 -31.7569 -31.7476 -31.7419
   -31.7384 -31.7281 -31.7171 -31.7119 -31.7056 -31.7041 -31.6904 -31.6745
   -31.6728 -31.6677 -31.6594 -31.6537 -31.6478 -31.6293 -31.6154 -31.6147
   -31.6126 -31.4224 -30.9647 -30.9646 -30.8780 -30.8773 -30.8385 -30.8380
   -19.3830 -18.7479 -16.0595 -15.8338 -15.7716 -15.7043 -15.6191 -15.5872
   -15.5753 -15.4862 -15.4350 -15.3939 -15.3513 -15.2665 -15.2194 -15.1596
   -15.1282 -15.1036 -15.0853 -15.0783 -15.0386 -15.0173 -15.0156 -15.0117
   -15.0056 -14.9982 -14.9870 -14.9639 -14.9064 -14.8964 -14.8901 -13.1456
   -13.1425  -9.4486  -6.5352  -6.2516  -4.0483  -3.7359  -3.1836  -3.1670
    -3.1128  -3.0466  -3.0095  -3.0093  -2.9837  -2.9667  -2.9649  -2.9361
    -2.8616  -2.8222  -2.7790  -2.7438  -2.7241  -2.6900  -2.6720  -2.6579
    -2.6118  -2.5854  -2.5408  -2.5173  -2.4581  -2.4264  -2.3916  -2.3491
    -2.2616  -2.2519  -2.2200  -2.0649  -2.0363  -1.9654  -1.8647  -1.7781
    -1.7396  -1.6661  -1.6526  -1.5268  -1.4762  -1.4025  -1.3772  -1.3444
    -1.3055  -1.2141  -1.1341  -1.0986  -1.0789  -1.0615  -1.0403  -1.0359
    -1.0234  -1.0112  -0.9115  -0.8759  -0.6823  -0.6501  -0.5882  -0.5026
    -0.4433  -0.3589  -0.3172  -0.2980  -0.2512  -0.1888  -0.1741  -0.1483
    -0.1435  -0.1220  -0.1009  -0.0699  -0.0609  -0.0516  -0.0263   0.0024
     0.0121   0.0799   0.0903   0.1123   0.1555   0.1779   0.2082   0.2227
     0.2953   0.3484   0.5081   0.5714   0.5789   0.5951   0.8379   0.8730
     1.0121   1.0789   1.5679   1.6986   1.7032   1.8289   1.8305   3.6917
     3.8299   3.8676   3.8833   3.9135   4.0020   4.0326   4.0612   4.1067
     4.1225

          k = 0.0380 0.0000 0.0000 ( 17913 PWs)   bands (ev):

   -55.6885 -55.6521 -55.5813 -55.5726 -55.5163 -55.5143 -55.5078 -55.5056
   -55.4770 -55.4605 -55.4529 -55.4420 -55.4266 -55.3355 -54.6576 -54.6236
   -32.1792 -32.1656 -32.0574 -32.0250 -32.0026 -31.9757 -31.9597 -31.9478
   -31.9298 -31.8703 -31.8401 -31.8337 -31.8197 -31.8074 -31.7962 -31.7865
   -31.7829 -31.7589 -31.7475 -31.7438 -31.7364 -31.7290 -31.7045 -31.6972
   -31.6886 -31.6835 -31.6800 -31.6695 -31.6649 -31.6539 -31.6520 -31.6441
   -31.6403 -31.6309 -31.6291 -31.6205 -31.6119 -31.6109 -31.5850 -31.5640
   -31.5507 -31.4223 -31.0642 -30.9796 -30.9518 -30.8814 -30.7951 -30.6836
   -19.3884 -18.7483 -16.2889 -16.0889 -15.9100 -15.8658 -15.7488 -15.6714
   -15.5505 -15.4303 -15.4093 -15.3681 -15.3635 -15.3507 -15.3015 -15.2699
   -15.2294 -15.1568 -15.1247 -15.0217 -15.0160 -14.9936 -14.9225 -14.9204
   -14.8933 -14.8736 -14.8444 -14.8325 -14.8092 -14.7723 -14.6177 -13.1552
   -13.0415  -9.4491  -6.5161  -6.2686  -4.0866  -3.8216  -3.5222  -3.4428
    -3.3899  -3.3357  -3.3029  -3.2159  -3.1255  -3.0820  -3.0049  -2.9427
    -2.9234  -2.8745  -2.8253  -2.7568  -2.7271  -2.6419  -2.5524  -2.4257
    -2.4087  -2.3393  -2.3197  -2.2677  -2.2369  -2.1893  -2.1732  -2.0935
    -2.0676  -2.0437  -2.0319  -2.0281  -2.0030  -1.9508  -1.8723  -1.8511
    -1.8121  -1.8045  -1.6623  -1.6217  -1.5645  -1.5099  -1.4727  -1.3903
    -1.2886  -1.2677  -1.2381  -1.1809  -1.1504  -1.1161  -1.1098  -1.0744
    -1.0344  -0.9653  -0.9393  -0.8961  -0.8322  -0.8086  -0.6755  -0.5984
    -0.5488  -0.4702  -0.4462  -0.3657  -0.3339  -0.2928  -0.2482  -0.2363
    -0.1617  -0.1287  -0.0211   0.0160   0.0375   0.0642   0.0966   0.1207
     0.1478   0.1850   0.1969   0.2241   0.2390   0.3188   0.3634   0.4009
     0.4782   0.4852   0.5437   0.6561   0.6651   0.6842   0.9344   1.0196
     1.2730   1.3229   1.3782   1.5238   1.5832   1.8261   1.9043   3.4862
     3.5181   3.7307   3.7882   3.8087   3.8756   3.8935   3.9006   3.9129
     3.9451

          k = 0.0380 0.0419 0.0000 ( 17878 PWs)   bands (ev):

   -55.6840 -55.6566 -55.5788 -55.5704 -55.5185 -55.5135 -55.5084 -55.5046
   -55.4721 -55.4564 -55.4549 -55.4470 -55.4315 -55.3362 -54.6526 -54.6286
   -32.1423 -32.1117 -32.0041 -31.9819 -31.9723 -31.9582 -31.9146 -31.9128
   -31.8945 -31.8594 -31.8435 -31.8297 -31.8268 -31.8091 -31.8070 -31.8002
   -31.7785 -31.7611 -31.7564 -31.7473 -31.7326 -31.7322 -31.7213 -31.7098
   -31.7047 -31.6895 -31.6819 -31.6787 -31.6753 -31.6705 -31.6664 -31.6646
   -31.6595 -31.6494 -31.6443 -31.6384 -31.6214 -31.6170 -31.6154 -31.6136
   -31.5992 -31.4227 -31.0102 -30.9754 -30.9559 -30.8688 -30.8078 -30.7408
   -19.3855 -18.7480 -16.1775 -15.9855 -15.8371 -15.7603 -15.6584 -15.5944
   -15.5073 -15.4331 -15.4056 -15.3628 -15.3312 -15.3156 -15.2804 -15.2526
   -15.1790 -15.1660 -15.1502 -15.1063 -15.0429 -15.0360 -15.0085 -14.9960
   -14.9453 -14.9264 -14.9014 -14.8893 -14.8624 -14.8249 -14.7175 -13.1602
   -13.0816  -9.4496  -6.5286  -6.2528  -4.0705  -3.7682  -3.3716  -3.2856
    -3.2321  -3.1835  -3.1284  -3.0696  -3.0192  -2.9305  -2.8882  -2.8371
    -2.7946  -2.7632  -2.7075  -2.6214  -2.5942  -2.5724  -2.5496  -2.4896
    -2.4645  -2.4457  -2.4030  -2.3929  -2.3650  -2.3485  -2.3183  -2.3061
    -2.2571  -2.1817  -2.1361  -2.1160  -2.0889  -2.0073  -1.9842  -1.8968
    -1.8139  -1.7845  -1.6899  -1.6240  -1.5853  -1.5142  -1.3865  -1.3496
    -1.2937  -1.2399  -1.1693  -1.1423  -1.0619  -1.0357  -0.9838  -0.9214
    -0.8849  -0.8609  -0.8220  -0.8077  -0.7493  -0.6961  -0.6293  -0.6185
    -0.5820  -0.5468  -0.4748  -0.4562  -0.4256  -0.3873  -0.3776  -0.3372
    -0.2985  -0.2748  -0.2550  -0.2214  -0.1683  -0.0896  -0.0567  -0.0293
     0.0421   0.0667   0.1231   0.1788   0.2361   0.3165   0.3714   0.4511
     0.5068   0.5407   0.5897   0.6441   0.6882   0.7111   0.7773   0.9173
     0.9602   1.2397   1.5623   1.5705   1.6577   1.8136   1.8795   3.6353
     3.6818   3.7602   3.8173   3.9028   3.9410   3.9552   3.9979   4.0189
     4.0485

          k = 0.0380-0.0839 0.0000 ( 17916 PWs)   bands (ev):

   -55.6769 -55.6637 -55.5761 -55.5681 -55.5211 -55.5127 -55.5107 -55.5016
   -55.4625 -55.4591 -55.4566 -55.4452 -55.4417 -55.3371 -54.6406 -54.6406
   -32.0978 -31.9854 -31.9751 -31.9729 -31.9512 -31.8976 -31.8733 -31.8524
   -31.8426 -31.8378 -31.8352 -31.8148 -31.8137 -31.7997 -31.7989 -31.7935
   -31.7901 -31.7896 -31.7832 -31.7689 -31.7658 -31.7620 -31.7395 -31.7374
   -31.7284 -31.7277 -31.7119 -31.7041 -31.7000 -31.6958 -31.6917 -31.6753
   -31.6726 -31.6677 -31.6596 -31.6532 -31.6483 -31.6377 -31.6266 -31.6239
   -31.6205 -31.4233 -30.9657 -30.9655 -30.8780 -30.8772 -30.8385 -30.8380
   -19.3827 -18.7476 -16.0279 -15.7707 -15.7201 -15.6423 -15.6276 -15.5275
   -15.5196 -15.4564 -15.4361 -15.3722 -15.3376 -15.2804 -15.2706 -15.2050
   -15.1937 -15.1613 -15.1029 -15.0862 -15.0720 -15.0480 -15.0470 -15.0301
   -15.0292 -14.9942 -14.9815 -14.9601 -14.9399 -14.9387 -14.8829 -13.1454
   -13.1422  -9.4507  -6.5225  -6.2557  -4.0488  -3.7340  -3.1630  -3.0836
    -2.9455  -2.9214  -2.8682  -2.8393  -2.8169  -2.8029  -2.7769  -2.7589
    -2.7546  -2.7319  -2.7181  -2.6763  -2.6543  -2.6409  -2.5944  -2.5816
    -2.5611  -2.5360  -2.5114  -2.4665  -2.4520  -2.4152  -2.3536  -2.3303
    -2.3010  -2.2722  -2.2086  -2.0885  -1.9878  -1.8929  -1.8463  -1.7533
    -1.6970  -1.6831  -1.6220  -1.5835  -1.5162  -1.4988  -1.4593  -1.4387
    -1.4037  -1.3806  -1.3654  -1.3150  -1.2877  -1.2218  -1.2048  -1.1403
    -1.0582  -1.0330  -0.8325  -0.8104  -0.7835  -0.6858  -0.6699  -0.6256
    -0.4981  -0.4825  -0.4402  -0.4245  -0.4064  -0.3768  -0.3350  -0.3146
    -0.2971  -0.2637  -0.2594  -0.2321  -0.2198  -0.2119  -0.0920  -0.0666
    -0.0420   0.0259   0.0526   0.1539   0.2276   0.2779   0.4207   0.4282
     0.4503   0.4717   0.4873   0.5718   0.6272   0.6627   0.8071   0.8365
     0.9998   1.0521   1.5413   1.7119   1.7163   1.8182   1.8208   3.7235
     3.8148   3.8637   3.8846   3.9283   4.0090   4.0449   4.0777   4.1141
     4.1391

          k = 0.0380-0.0419 0.0000 ( 17876 PWs)   bands (ev):

   -55.6840 -55.6566 -55.5788 -55.5704 -55.5185 -55.5135 -55.5084 -55.5046
   -55.4721 -55.4564 -55.4549 -55.4470 -55.4315 -55.3362 -54.6526 -54.6286
   -32.1423 -32.1117 -32.0041 -31.9819 -31.9723 -31.9582 -31.9146 -31.9128
   -31.8944 -31.8593 -31.8434 -31.8297 -31.8268 -31.8088 -31.8080 -31.7986
   -31.7785 -31.7611 -31.7566 -31.7474 -31.7324 -31.7312 -31.7229 -31.7092
   -31.7058 -31.6897 -31.6822 -31.6794 -31.6747 -31.6696 -31.6661 -31.6647
   -31.6594 -31.6494 -31.6451 -31.6384 -31.6216 -31.6169 -31.6158 -31.6127
   -31.5990 -31.4227 -31.0102 -30.9754 -30.9559 -30.8688 -30.8078 -30.7408
   -19.3855 -18.7479 -16.1778 -15.9854 -15.8365 -15.7617 -15.6586 -15.5938
   -15.5052 -15.4338 -15.4018 -15.3648 -15.3314 -15.3165 -15.2796 -15.2537
   -15.1802 -15.1670 -15.1493 -15.1048 -15.0427 -15.0383 -15.0080 -14.9963
   -14.9459 -14.9268 -14.9013 -14.8903 -14.8597 -14.8259 -14.7168 -13.1602
   -13.0816  -9.4501  -6.5097  -6.2712  -4.0643  -3.7720  -3.3739  -3.2952
    -3.2198  -3.1868  -3.1279  -3.0706  -3.0307  -2.9289  -2.8846  -2.8369
    -2.7991  -2.7708  -2.6944  -2.6252  -2.5954  -2.5700  -2.5431  -2.4763
    -2.4691  -2.4508  -2.4122  -2.4031  -2.3820  -2.3519  -2.3074  -2.3020
    -2.2584  -2.1612  -2.1383  -2.1136  -2.0884  -2.0135  -1.9716  -1.8866
    -1.8093  -1.8013  -1.6915  -1.6116  -1.5872  -1.5325  -1.3848  -1.3243
    -1.3222  -1.2628  -1.1775  -1.1311  -1.0598  -1.0305  -0.9878  -0.9114
    -0.8928  -0.8643  -0.8139  -0.7837  -0.7427  -0.7047  -0.6493  -0.6205
    -0.5695  -0.5566  -0.4907  -0.4603  -0.4302  -0.3812  -0.3417  -0.3150
    -0.3022  -0.2538  -0.2376  -0.2059  -0.1683  -0.0896  -0.0716  -0.0220
     0.0326   0.0726   0.1306   0.1772   0.2179   0.3095   0.3589   0.4381
     0.4973   0.5631   0.5827   0.6334   0.6881   0.7014   0.7751   0.9065
     0.9611   1.2399   1.5628   1.5728   1.6570   1.8137   1.8799   3.6371
     3.6773   3.7496   3.8346   3.8966   3.9373   3.9547   4.0086   4.0263
     4.0419

          k =-0.0760-0.0000 0.0000 ( 17886 PWs)   bands (ev):

   -55.6885 -55.6521 -55.5811 -55.5725 -55.5160 -55.5146 -55.5076 -55.5059
   -55.4766 -55.4608 -55.4529 -55.4420 -55.4266 -55.3355 -54.6576 -54.6236
   -32.1794 -32.1665 -32.0604 -32.0254 -32.0027 -31.9756 -31.9646 -31.9520
   -31.9298 -31.8700 -31.8373 -31.8333 -31.8022 -31.7964 -31.7865 -31.7825
   -31.7772 -31.7610 -31.7479 -31.7433 -31.7364 -31.7121 -31.7034 -31.7008
   -31.6899 -31.6869 -31.6849 -31.6812 -31.6693 -31.6648 -31.6519 -31.6489
   -31.6441 -31.6307 -31.6288 -31.6211 -31.6129 -31.6108 -31.5840 -31.5651
   -31.5507 -31.4228 -31.0638 -30.9828 -30.9505 -30.8813 -30.7949 -30.6837
   -19.3877 -18.7483 -16.1454 -16.0101 -15.9536 -15.7708 -15.6581 -15.6127
   -15.5790 -15.5034 -15.4863 -15.4511 -15.4263 -15.3715 -15.3545 -15.3512
   -15.3109 -15.1493 -15.1349 -15.0472 -15.0123 -14.9436 -14.9383 -14.9118
   -14.9057 -14.8712 -14.8401 -14.8316 -14.7767 -14.7440 -14.6191 -13.1522
   -13.0412  -9.4515  -6.5223  -6.2578  -4.0817  -3.8070  -3.4637  -3.4064
    -3.2197  -3.1561  -3.1017  -3.0856  -3.0645  -3.0097  -2.9390  -2.9365
    -2.9239  -2.9095  -2.8941  -2.8177  -2.6145  -2.5880  -2.4773  -2.2872
    -2.2675  -2.2466  -2.2443  -2.2233  -2.1746  -2.1559  -2.1431  -2.1045
    -2.0799  -2.0742  -2.0030  -1.9884  -1.9833  -1.9670  -1.9499  -1.9086
    -1.8397  -1.8175  -1.7753  -1.6871  -1.5130  -1.4614  -1.3791  -1.3334
    -1.2875  -1.2809  -1.2602  -1.2321  -1.2047  -1.1593  -1.1395  -1.1344
    -1.0868  -1.0234  -0.9618  -0.9208  -0.9104  -0.8280  -0.8264  -0.7800
    -0.7252  -0.5427  -0.4648  -0.4239  -0.4047  -0.2810  -0.2477  -0.2217
    -0.2111  -0.1657  -0.0951  -0.0845  -0.0805  -0.0358  -0.0019   0.0389
     0.0571   0.1076   0.1724   0.2179   0.2226   0.2597   0.3378   0.3794
     0.4409   0.4803   0.5543   0.5832   0.7394   0.8006   0.9622   1.0047
     1.0191   1.3234   1.3996   1.4989   1.6088   1.6959   1.8455   3.4868
     3.4947   3.6173   3.6827   3.7414   3.8250   3.8666   3.9047   3.9329
     3.9585

          k =-0.0760 0.0419 0.0000 ( 17914 PWs)   bands (ev):

   -55.6840 -55.6566 -55.5787 -55.5704 -55.5184 -55.5137 -55.5082 -55.5048
   -55.4718 -55.4566 -55.4551 -55.4469 -55.4316 -55.3363 -54.6526 -54.6286
   -32.1425 -32.1127 -32.0073 -31.9820 -31.9730 -31.9584 -31.9185 -31.9148
   -31.8994 -31.8592 -31.8437 -31.8295 -31.8248 -31.8073 -31.7932 -31.7784
   -31.7759 -31.7610 -31.7574 -31.7486 -31.7387 -31.7272 -31.7143 -31.7004
   -31.6936 -31.6907 -31.6880 -31.6839 -31.6801 -31.6775 -31.6699 -31.6647
   -31.6579 -31.6530 -31.6491 -31.6458 -31.6237 -31.6202 -31.6200 -31.6144
   -31.5981 -31.4234 -31.0100 -30.9782 -30.9552 -30.8688 -30.8078 -30.7409
   -19.3851 -18.7478 -16.0680 -15.8954 -15.8704 -15.6713 -15.5804 -15.5283
   -15.5159 -15.4548 -15.4260 -15.4205 -15.4045 -15.3827 -15.3175 -15.3095
   -15.2691 -15.1816 -15.1788 -15.0854 -15.0372 -15.0341 -14.9845 -14.9743
   -14.9574 -14.9483 -14.9346 -14.8991 -14.8536 -14.8204 -14.7194 -13.1581
   -13.0819  -9.4522  -6.5161  -6.2586  -4.0650  -3.7614  -3.3349  -3.2512
    -3.0556  -2.9643  -2.9265  -2.8910  -2.8612  -2.8447  -2.7870  -2.7580
    -2.7205  -2.7183  -2.7020  -2.6386  -2.5597  -2.5355  -2.5103  -2.4691
    -2.4411  -2.4217  -2.4079  -2.3615  -2.3432  -2.3038  -2.2496  -2.2375
    -2.1907  -2.1726  -2.1512  -2.1331  -2.1085  -2.0796  -1.9406  -1.7707
    -1.7404  -1.7091  -1.6675  -1.6335  -1.5707  -1.4804  -1.4586  -1.3760
    -1.3187  -1.2438  -1.2271  -1.2081  -1.1547  -1.0894  -1.0559  -1.0134
    -0.9801  -0.9586  -0.9087  -0.8968  -0.8734  -0.8403  -0.8146  -0.8075
    -0.7437  -0.6988  -0.6436  -0.6002  -0.5569  -0.4889  -0.4484  -0.4173
    -0.3704  -0.3345  -0.3006  -0.2746  -0.2280  -0.1937  -0.1366  -0.0853
     0.0010   0.0473   0.0805   0.1707   0.1899   0.2852   0.4396   0.4939
     0.5222   0.5978   0.6436   0.7165   0.7905   0.8201   0.8374   0.8640
     0.9560   1.0533   1.5710   1.5821   1.6590   1.7369   1.8669   3.6384
     3.6562   3.7027   3.7613   3.8036   3.8202   3.9299   3.9582   4.0729
     4.0949

          k =-0.0760-0.0839 0.0000 ( 17948 PWs)   bands (ev):

   -55.6769 -55.6637 -55.5760 -55.5681 -55.5211 -55.5128 -55.5106 -55.5018
   -55.4623 -55.4592 -55.4565 -55.4455 -55.4419 -55.3371 -54.6406 -54.6406
   -32.0980 -31.9862 -31.9753 -31.9734 -31.9512 -31.9006 -31.8738 -31.8532
   -31.8459 -31.8412 -31.8380 -31.8149 -31.8139 -31.7992 -31.7977 -31.7884
   -31.7873 -31.7790 -31.7776 -31.7744 -31.7716 -31.7620 -31.7404 -31.7349
   -31.7289 -31.7174 -31.7103 -31.7038 -31.7012 -31.6867 -31.6726 -31.6645
   -31.6640 -31.6618 -31.6599 -31.6535 -31.6521 -31.6500 -31.6480 -31.6455
   -31.6265 -31.4241 -30.9666 -30.9665 -30.8779 -30.8772 -30.8385 -30.8380
   -19.3825 -18.7474 -15.9921 -15.6530 -15.6401 -15.6349 -15.6040 -15.4828
   -15.4588 -15.4364 -15.3910 -15.3607 -15.3550 -15.3318 -15.2876 -15.2310
   -15.2118 -15.2040 -15.1943 -15.1419 -15.1276 -15.1167 -15.0709 -15.0305
   -15.0279 -15.0041 -14.9779 -14.9725 -14.9720 -14.9444 -14.8779 -13.1452
   -13.1420  -9.4529  -6.5092  -6.2605  -4.0494  -3.7305  -3.1607  -3.0422
    -2.8706  -2.8489  -2.7975  -2.7754  -2.7224  -2.6537  -2.6249  -2.6134
    -2.6117  -2.5778  -2.5151  -2.4811  -2.4772  -2.4380  -2.4197  -2.4119
    -2.3915  -2.3665  -2.3417  -2.3230  -2.3167  -2.2811  -2.2688  -2.2539
    -2.2479  -2.2363  -2.2176  -2.1773  -2.0704  -1.9478  -1.9138  -1.8784
    -1.8385  -1.7793  -1.7731  -1.7592  -1.7248  -1.7240  -1.7080  -1.6304
    -1.4667  -1.4050  -1.3421  -1.3202  -1.2472  -1.2344  -1.2187  -1.1753
    -1.1344  -1.0905  -1.0468  -1.0209  -0.9642  -0.9199  -0.7908  -0.7378
    -0.6528  -0.6476  -0.6251  -0.6101  -0.5560  -0.5315  -0.5066  -0.4617
    -0.4272  -0.3836  -0.3513  -0.3424  -0.3201  -0.2588  -0.1593  -0.1100
    -0.0480  -0.0416   0.0400   0.1703   0.3559   0.3862   0.4444   0.4955
     0.5845   0.6073   0.6560   0.6756   0.7332   0.7605   0.8019   0.8620
     0.9227   0.9509   1.5201   1.7298   1.7362   1.7993   1.8087   3.7441
     3.8317   3.9243   3.9382   3.9725   3.9848   3.9904   4.0199   4.0764
     4.1135

     the Fermi energy is     3.4502 ev

!    total energy              =   -2966.15821138 Ry
     estimated scf accuracy    <       0.00000006 Ry
     smearing contrib. (-TS)   =      -0.02139732 Ry
     internal energy E=F+TS    =   -2966.13681406 Ry

     The total energy is F=E-TS. E is the sum of the following terms:
     one-electron contribution =  -24756.19097911 Ry
     hartree contribution      =   12470.61901507 Ry
     xc contribution           =    -490.96343847 Ry
     ewald contribution        =    9810.39668501 Ry
     electric field correction =       0.00190344 Ry

     convergence has been achieved in  56 iterations

     Forces acting on atoms (cartesian axes, Ry/au):

     atom    1 type  1   force =     0.00074691   -0.00017494    0.09534219
     atom    2 type  1   force =     0.00024379   -0.00220785   -0.17567618
     atom    3 type  2   force =    -0.00066376   -0.00040992   -0.03008403
     atom    4 type  2   force =    -0.00084852    0.00063622    0.05231700
     atom    5 type  2   force =    -0.01386959   -0.00100009    0.00145887
     atom    6 type  2   force =     0.01583051    0.00241135    0.00318217
     atom    7 type  1   force =     0.00034024    0.00038122   -0.00030449
     atom    8 type  1   force =    -0.00036944    0.00140364    0.00065227
     atom    9 type  2   force =     0.00011339   -0.00003219    0.00024948
     atom   10 type  2   force =     0.00017582    0.00017289   -0.00058849
     atom   11 type  2   force =    -0.00024050    0.00025589    0.00018700
     atom   12 type  2   force =    -0.00037198    0.00009417    0.00007924
     atom   13 type  1   force =     0.00022485   -0.00017941   -0.00060844
     atom   14 type  1   force =    -0.00101849    0.00004315    0.00030044
     atom   15 type  2   force =     0.00006263   -0.00107629   -0.00010429
     atom   16 type  2   force =    -0.00000643   -0.00006063   -0.00016129
     atom   17 type  2   force =    -0.00036244   -0.00030598   -0.00006690
     atom   18 type  2   force =     0.00034577   -0.00034825    0.00012802
     atom   19 type  1   force =     0.00008244    0.00050913    0.00010940
     atom   20 type  1   force =     0.00027911    0.00091545    0.00023679
     atom   21 type  2   force =     0.00015055    0.00019997    0.10306168
     atom   22 type  2   force =     0.00016199   -0.00111192    0.00027332
     atom   23 type  2   force =    -0.07129454    0.00094422   -0.02831626
     atom   24 type  2   force =     0.07134982    0.00133977   -0.02835255
     atom   25 type  1   force =     0.00022700    0.00038350    0.10642708
     atom   26 type  1   force =     0.00000499    0.00252690   -0.17557380
     atom   27 type  2   force =    -0.00037959    0.00013515   -0.02786454
     atom   28 type  2   force =    -0.00096194    0.00076215    0.05162393
     atom   29 type  2   force =    -0.01301791   -0.00123328    0.00106357
     atom   30 type  2   force =     0.01547332    0.00036951    0.00294539
     atom   31 type  1   force =     0.00051900    0.00002243   -0.00004299
     atom   32 type  1   force =    -0.00042306   -0.00140267    0.00016817
     atom   33 type  2   force =    -0.00016589   -0.00031031    0.00020622
     atom   34 type  2   force =     0.00001110    0.00010703   -0.00015695
     atom   35 type  2   force =    -0.00062217   -0.00019928    0.00066106
     atom   36 type  2   force =     0.00003558   -0.00037404    0.00023881
     atom   37 type  1   force =     0.00059420    0.00028989    0.00052924
     atom   38 type  1   force =    -0.00092244    0.00012455    0.00046844
     atom   39 type  2   force =    -0.00016816    0.00064726    0.00026800
     atom   40 type  2   force =    -0.00000517   -0.00052409   -0.00074598
     atom   41 type  2   force =     0.00120528    0.00006137   -0.00012690
     atom   42 type  2   force =    -0.00091215   -0.00012137    0.00017315
     atom   43 type  1   force =     0.00017442   -0.00108364   -0.00013332
     atom   44 type  1   force =    -0.00036515    0.00024576   -0.00017716
     atom   45 type  2   force =     0.00012300    0.00015421    0.10333580
     atom   46 type  2   force =    -0.07121762   -0.00126292   -0.02831535
     atom   47 type  2   force =     0.07129054   -0.00086531   -0.02834897
     atom   48 type  3   force =    -0.00012767    0.00497214   -0.00520535
     atom   49 type  2   force =     0.00070907    0.00018318   -0.00039000
     atom   50 type  4   force =    -0.00002706   -0.00041484   -0.00016147
     atom   51 type  4   force =    -0.00138182   -0.00520901    0.00527149
     atom   52 type  4   force =    -0.00049294   -0.00048572   -0.00001454
     atom   53 type  2   force =     0.00161502   -0.00037396    0.00089635
     atom   54 type  4   force =    -0.00034914    0.00035150    0.00011236
     atom   55 type  4   force =    -0.00150474    0.00012429   -0.00044671

     Total force =     0.367515     Total SCF correction =     0.000823
  @ DRIVER MODE: Message from server: STATUS
  @ DRIVER MODE: Message from server: GETFORCE
  @ DRIVER MODE: Returning v,forces,stress,ensemble 

     Writing output data file ./calc.save/
  @ DRIVER MODE: Message from server: EXIT
  @ DRIVE MODE: Exiting  
 
     init_run     :     10.72s CPU     10.94s WALL (       1 calls)
     electrons    :    967.05s CPU    980.32s WALL (       1 calls)
     forces       :      2.38s CPU      2.47s WALL (       1 calls)

     Called by init_run:
     wfcinit      :      4.82s CPU      4.89s WALL (       1 calls)
     potinit      :      5.33s CPU      5.38s WALL (       1 calls)
     hinit0       :      0.24s CPU      0.25s WALL (       1 calls)

     Called by electrons:
     c_bands      :    834.34s CPU    839.97s WALL (      56 calls)
     sum_band     :     89.92s CPU     92.98s WALL (      56 calls)
     v_of_rho     :     33.85s CPU     35.44s WALL (      57 calls)
     newd         :     12.40s CPU     15.44s WALL (      57 calls)
     mix_rho      :      1.21s CPU      1.23s WALL (      56 calls)
     vdW_kernel   :      4.54s CPU      4.56s WALL (       1 calls)

     Called by c_bands:
     init_us_2    :      6.26s CPU      6.28s WALL (    1140 calls)
     cegterg      :    818.23s CPU    823.64s WALL (     572 calls)

     Called by *egterg:
     cdiaghg      :    137.91s CPU    138.48s WALL (    6452 calls)
     h_psi        :    423.54s CPU    427.21s WALL (    6462 calls)
     s_psi        :     58.94s CPU     59.13s WALL (    6462 calls)
     g_psi        :      1.68s CPU      1.69s WALL (    5880 calls)

     Called by h_psi:
     h_psi:calbec :     55.45s CPU     55.73s WALL (    6462 calls)
     vloc_psi     :    305.55s CPU    308.46s WALL (    6462 calls)
     add_vuspsi   :     59.20s CPU     59.51s WALL (    6462 calls)

     General routines
     calbec       :     71.85s CPU     72.19s WALL (    7062 calls)
     fft          :     16.91s CPU     17.03s WALL (    3591 calls)
     ffts         :      0.11s CPU      0.11s WALL (     113 calls)
     fftw         :    339.28s CPU    342.51s WALL (  811870 calls)
     interpolate  :      0.34s CPU      0.35s WALL (      57 calls)
     davcio       :      0.01s CPU      0.43s WALL (      10 calls)
 
     Parallel routines
 
     PWSCF        :  16m20.40s CPU  16m34.68s WALL

 
   This run was terminated on:  23: 6:12  15Sep2021            

=------------------------------------------------------------------------------=
   JOB DONE.
=------------------------------------------------------------------------------=
