
     Program PWSCF v.6.7GPU starts on 16Sep2021 at  0: 1:52 

     This program is part of the open-source Quantum ESPRESSO suite
     for quantum simulation of materials; please cite
         "P. Giannozzi et al., J. Phys.:Condens. Matter 21 395502 (2009);
         "P. Giannozzi et al., J. Phys.:Condens. Matter 29 465901 (2017);
         "P. Giannozzi et al., J. Chem. Phys. 152 154105 (2020);
          URL http://www.quantum-espresso.org", 
     in publications or presentations arising from this work. More details at
     http://www.quantum-espresso.org/quote

     Parallel version (MPI), running on    10 processors

     MPI processes distributed on     1 nodes
     R & G space division:  proc/nbgrp/npool/nimage =      10
     Reading input from /storage/home/hcoda1/3/ntian30/research/carbon/CxH_vib/H2O_calc/ads_slab/CHOH2O_a/out_0026/pw.inp
Warning: card &CELL ignored
Warning: card   CELL_DYNAMICS='IPI', ignored
Warning: card / ignored

     Current dimensions of program PWSCF are:
     Max number of different atomic species (ntypx) = 10
     Max number of k-points (npk) =  40000
     Max angular momentum in pseudopotentials (lmaxx) =  3
     Presently no symmetry can be used with electric field

     Message from routine cell_base_init:
     DEPRECATED: use true lattice parameter, not A to a.u. conversion factor

     **************************************************************************
     Initializing libbeef V0.1.2 with the BEEF-vdW functional.
     Citation: Wellendorff et al., PRB 85, 235149 (2012).
     **************************************************************************


     IMPORTANT: XC functional enforced from input :
     Exchange-correlation= BEEF-VDW
                           (   1   4  43  14   2   0   0)
     Any further DFT definition will be discarded
     Please, verify this is what you really want


     Subspace diagonalization in iterative solution of the eigenvalue problem:
     one sub-group per band group will be used
     scalapack distributed-memory algorithm (size of sub-group:  3*  3 procs)

  @ DRIVER MODE: Connecting to 
 qe_1139763_2852631.sched-torque.pace.gatech.eduf1xdjgpn_scratch
  using UNIX socket
  @ DRIVER MODE: Message from server: STATUS
  @ DRIVER MODE: Message from server: INIT
  @ DRIVER MODE: Receiving replica           0          -1
  @ DRIVER MODE: Receiving encoded integer          25
  @ DRIVER MODE:  SCF:  T  FORCE:  T  STRESS:  F  VC:  F  ENSEMBLE:  F
  @ DRIVER MODE:  SCF:  T  FORCE:  T  STRESS:  F  VC:  F  ENSEMBLE:  F
 
     Parallelization info
     --------------------
     sticks:   dense  smooth     PW     G-vecs:    dense   smooth      PW
     Min         327     131     37                56683    14340    2191
     Max         328     133     38                56694    14346    2206
     Sum        3275    1317    379               566857   143421   21985
 
     Using Slab Decomposition
 


     bravais-lattice index     =            0
     lattice parameter (alat)  =       1.8897  a.u.
     unit-cell volume          =    6658.9804 (a.u.)^3
     number of atoms/cell      =           53
     number of atomic types    =            4
     number of electrons       =       397.00
     number of Kohn-Sham states=          208
     kinetic-energy cutoff     =      29.3995  Ry
     charge density cutoff     =     293.9946  Ry
     scf convergence threshold =      7.3E-08
     mixing beta               =       0.0500
     number of iterations used =            8  plain     mixing
     Exchange-correlation= BEEF-VDW
                           (   1   4  43  14   2   0   0)

     celldm(1)=   1.889726  celldm(2)=   0.000000  celldm(3)=   0.000000
     celldm(4)=   0.000000  celldm(5)=   0.000000  celldm(6)=   0.000000

     crystal axes: (cart. coord. in units of alat)
               a(1) = (   6.579727   0.000000   0.000000 )  
               a(2) = (  -0.000775   5.961596   0.000000 )  
               a(3) = (   0.000000   0.000000  25.155947 )  

     reciprocal axes: (cart. coord. in units 2 pi/alat)
               b(1) = (  0.151982  0.000020  0.000000 )  
               b(2) = (  0.000000  0.167740  0.000000 )  
               b(3) = (  0.000000  0.000000  0.039752 )  


     PseudoPot. # 1 for O  read from file:
     /storage/coda1/p-amedford6/0/shared/rich_project_chbe-medford/medford-share/data/pseudos_module/espresso/nninc/pbe/van/O.UPF
     MD5 check sum: 78c19812648e8988a0fe644b0f25305e
     Pseudo is Ultrasoft, Zval =  6.0
     Generated by new atomic code, or converted to UPF format
     Using radial grid of  737 points,  4 beta functions with: 
                l(1) =   0
                l(2) =   0
                l(3) =   1
                l(4) =   1
     Q(r) pseudized with  8 coefficients,  rinner =    0.800   0.800   0.800


     PseudoPot. # 2 for Ti read from file:
     /storage/coda1/p-amedford6/0/shared/rich_project_chbe-medford/medford-share/data/pseudos_module/espresso/nninc/pbe/van/Ti.UPF
     MD5 check sum: 8e4df49b7f0d34bbd5052bf3f5ea0213
     Pseudo is Ultrasoft, Zval = 12.0
     Generated by new atomic code, or converted to UPF format
     Using radial grid of  851 points,  6 beta functions with: 
                l(1) =   0
                l(2) =   0
                l(3) =   1
                l(4) =   1
                l(5) =   2
                l(6) =   2
     Q(r) pseudized with  8 coefficients,  rinner =    1.000   1.000   1.000
                                                       1.000   1.000

     PseudoPot. # 3 for C  read from file:
     /storage/coda1/p-amedford6/0/shared/rich_project_chbe-medford/medford-share/data/pseudos_module/espresso/nninc/pbe/van/C.UPF
     MD5 check sum: 1a69bf6b8db32088f5b2163dbdb77a27
     Pseudo is Ultrasoft, Zval =  4.0
     Generated by new atomic code, or converted to UPF format
     Using radial grid of  721 points,  4 beta functions with: 
                l(1) =   0
                l(2) =   0
                l(3) =   1
                l(4) =   1
     Q(r) pseudized with  8 coefficients,  rinner =    0.800   0.800   0.800


     PseudoPot. # 4 for H  read from file:
     /storage/coda1/p-amedford6/0/shared/rich_project_chbe-medford/medford-share/data/pseudos_module/espresso/nninc/pbe/van/H.UPF
     MD5 check sum: b5ee9d7bfd3a09ee7748110bda690ff7
     Pseudo is Ultrasoft, Zval =  1.0
     Generated by new atomic code, or converted to UPF format
     Using radial grid of  615 points,  1 beta functions with: 
                l(1) =   0
     Q(r) pseudized with  8 coefficients,  rinner =    0.800

     atomic species   valence    mass     pseudopotential
        O1             6.00    15.99900     O ( 1.00)
        Ti1           12.00    47.86700     Ti( 1.00)
        C1             4.00    12.01100     C ( 1.00)
        H1             1.00     1.00800     H ( 1.00)

     No symmetry found



   Cartesian axes

     site n.     atom                  positions (alat units)
         1           O1  tau(   1) = (   3.2904802   0.0005063   4.7018136  )
         2           O1  tau(   2) = (   3.2900926   2.9813045   4.7018136  )
         3           Ti1 tau(   3) = (   0.0004258   2.9801865   6.0000000  )
         4           Ti1 tau(   4) = (   0.0000382   5.9609847   6.0000000  )
         5           Ti1 tau(   5) = (   3.2906075   1.4906267   6.0002472  )
         6           Ti1 tau(   6) = (   3.2902200   4.4714249   6.0002472  )
         7           O1  tau(   7) = (   1.3043587   1.4918075   6.0039043  )
         8           O1  tau(   8) = (   1.3039711   4.4726057   6.0039043  )
         9           O1  tau(   9) = (   5.2767064   1.4903225   6.0039473  )
        10           O1  tau(  10) = (   5.2763189   4.4711207   6.0039473  )
        11           O1  tau(  11) = (   3.2906025   0.0005020   7.3038282  )
        12           O1  tau(  12) = (   3.2902150   2.9813002   7.3038282  )
        13           O1  tau(  13) = (   0.0006271   0.0005054   7.9858123  )
        14           O1  tau(  14) = (   0.0002396   2.9813036   7.9858123  )
        15           Ti1 tau(  15) = (   3.2898052   0.0549011   9.1556235  )
        16           Ti1 tau(  16) = (   3.3203827   3.0319468   9.1649589  )
        17           Ti1 tau(  17) = (   0.0233352   4.5284096   9.2575609  )
        18           Ti1 tau(  18) = (   0.0173867   1.6076536   9.3607995  )
        19           O1  tau(  19) = (   4.5942328   1.4918067   9.2879030  )
        20           O1  tau(  20) = (   4.5938453   4.4726049   9.2879030  )
        21           O1  tau(  21) = (   1.9868534   1.4903216   9.2879459  )
        22           O1  tau(  22) = (   1.9864658   4.4711199   9.2879459  )
        23           O1  tau(  23) = (   0.0034721   0.0125384  10.6021848  )
        24           O1  tau(  24) = (   0.0020335   2.9928551  10.5785608  )
        25           O1  tau(  25) = (   3.2937812   2.9995440  11.3622203  )
        26           O1  tau(  26) = (   3.2898347   0.0201518  11.3605052  )
        27           Ti1 tau(  27) = (   0.0300534   0.0302837  12.4945235  )
        28           Ti1 tau(  28) = (   3.3347356   4.5017157  12.5123549  )
        29           Ti1 tau(  29) = (   3.3349302   1.5071924  12.5110355  )
        30           Ti1 tau(  30) = (   0.0295963   3.0145660  12.7881340  )
        31           O1  tau(  31) = (   1.2797855   4.4923438  12.6426172  )
        32           O1  tau(  32) = (   1.2799313   1.5104473  12.6443552  )
        33           O1  tau(  33) = (   5.2866386   4.4922094  12.6434695  )
        34           O1  tau(  34) = (   5.2866683   1.5083124  12.6439979  )
        35           O1  tau(  35) = (   3.2814828   3.0070543  13.9178409  )
        36           O1  tau(  36) = (   3.2867003   0.0227894  13.9786966  )
        37           O1  tau(  37) = (   0.0021618   0.0175046  14.6784646  )
        38           O1  tau(  38) = (   0.0002945   3.0143855  14.7103493  )
        39           Ti1 tau(  39) = (   3.2869621   3.0144872  15.7052805  )
        40           Ti1 tau(  40) = (   3.3044863   0.0423327  15.8215216  )
        41           Ti1 tau(  41) = (   0.0135451   4.5796903  15.9522020  )
        42           Ti1 tau(  42) = (   0.0105102   1.3838334  15.9764479  )
        43           O1  tau(  43) = (   4.5519026   4.4709862  16.0573678  )
        44           O1  tau(  44) = (   4.5564327   1.5473262  16.0430495  )
        45           O1  tau(  45) = (   2.0152543   1.5518810  16.0555283  )
        46           O1  tau(  46) = (   2.0123771   4.4621050  16.0713562  )
        47           O1  tau(  47) = (   0.0008539   0.0298781  17.1953024  )
        48           O1  tau(  48) = (   6.5358978   3.0350243  17.4695059  )
        49           C1  tau(  49) = (   6.3916590   3.0774531  18.7359330  )
        50           H1  tau(  50) = (   6.4332689   2.0249999  19.1325638  )
        51           O1  tau(  51) = (   3.2941481   0.0813851  18.1811625  )
        52           H1  tau(  52) = (   4.0621942   5.5777154  18.5714528  )
        53           H1  tau(  53) = (   2.4879692   5.6555715  18.5615442  )

     number of k points=    10  Fermi-Dirac smearing, width (Ry)=  0.0073
                       cart. coord. in units 2pi/alat
        k(    1) = (   0.0000000   0.0000000   0.0000000), wk =   0.1250000
        k(    2) = (   0.0000000   0.0419351   0.0000000), wk =   0.2500000
        k(    3) = (   0.0000000  -0.0838702   0.0000000), wk =   0.1250000
        k(    4) = (   0.0379955   0.0000049   0.0000000), wk =   0.2500000
        k(    5) = (   0.0379955   0.0419400   0.0000000), wk =   0.2500000
        k(    6) = (   0.0379955  -0.0838652   0.0000000), wk =   0.2500000
        k(    7) = (   0.0379955  -0.0419301   0.0000000), wk =   0.2500000
        k(    8) = (  -0.0759910  -0.0000099   0.0000000), wk =   0.1250000
        k(    9) = (  -0.0759910   0.0419252   0.0000000), wk =   0.2500000
        k(   10) = (  -0.0759910  -0.0838800   0.0000000), wk =   0.1250000

     Dense  grid:   566857 G-vectors     FFT dimensions: (  72,  64, 270)

     Smooth grid:   143421 G-vectors     FFT dimensions: (  45,  40, 180)

     Estimated max dynamical RAM per process >     365.80 MB

     Estimated total dynamical RAM >       3.57 GB
     Cannot read rho : file not found

     Initial potential from superposition of free atoms

     starting charge  380.99918, renormalised to  397.00000

     negative rho (up, down):  1.751E-02 0.000E+00


     %%%%%%%%%%%%%%%%%%%%%%%%%%%%%%%%%%%%%%%%%%%%%%%%%%%%%%%%%%%%%%%%%%%%%%%%
     %                                                                      %
     % You are using vdW-DF, which was implemented by the Thonhauser group. %
     % Please cite the following two papers that made this development      %
     % possible and the two reviews that describe the various versions:     %
     %                                                                      %
     %   T. Thonhauser et al., PRL 115, 136402 (2015).                      %
     %   T. Thonhauser et al., PRB 76, 125112 (2007).                       %
     %   K. Berland et al., Rep. Prog. Phys. 78, 066501 (2015).             %
     %   D.C. Langreth et al., J. Phys.: Condens. Matter 21, 084203 (2009). %
     %                                                                      %
     %                                                                      %
     % If you are calculating the stress with vdW-DF, please also cite:     %
     %                                                                      %
     %   R. Sabatini et al., J. Phys.: Condens. Matter 24, 424209 (2012).   %
     %                                                                      %
     %%%%%%%%%%%%%%%%%%%%%%%%%%%%%%%%%%%%%%%%%%%%%%%%%%%%%%%%%%%%%%%%%%%%%%%%


 
     Adding external electric field

     Computed dipole along edir(3) : 
        Dipole               -8.9490 Ry au,        -22.7462 Debye
        Dipole field         -0.0169 Ry au, 
 
        Potential amp.        1.5655 Ry
        Total length         46.3494 bohr
 
     Starting wfcs are  299 atomic wfcs
  @ DRIVER MODE: Message from server: STATUS
  @ DRIVER MODE: Message from server: POSDATA
  @ DRIVER MODE: Reading and sharing cell 
  @ DRIVER MODE: Reading and sharing positions 
  @ DRIVER MODE: Received positions 

     total cpu time spent up to now is       11.0 secs

     Self-consistent Calculation

     iteration #  1     ecut=    29.40 Ry     beta= 0.05
     Davidson diagonalization with overlap
     c_bands:  1 eigenvalues not converged
     c_bands:  1 eigenvalues not converged
     c_bands:  1 eigenvalues not converged
     c_bands:  1 eigenvalues not converged
     c_bands:  2 eigenvalues not converged
     ethr =  1.00E-05,  avg # of iterations = 19.3

     negative rho (up, down):  1.368E-02 0.000E+00
 
     Adding external electric field

     Computed dipole along edir(3) : 
        Dipole               41.4988 Ry au,        105.4794 Debye
        Dipole field          0.0783 Ry au, 
 
        Potential amp.       -7.2596 Ry
        Total length         46.3494 bohr
 

     total cpu time spent up to now is       50.4 secs

     total energy              =   -2583.17378726 Ry
     estimated scf accuracy    <    4233.85933118 Ry

     iteration #  2     ecut=    29.40 Ry     beta= 0.05
     Davidson diagonalization with overlap
     ethr =  1.00E-02,  avg # of iterations = 23.0

     negative rho (up, down):  4.076E-03 0.000E+00
 
     Adding external electric field

     Computed dipole along edir(3) : 
        Dipole               -2.1635 Ry au,         -5.4991 Debye
        Dipole field         -0.0041 Ry au, 
 
        Potential amp.        0.3785 Ry
        Total length         46.3494 bohr
 

     total cpu time spent up to now is      120.8 secs

     total energy              =   -2485.04277103 Ry
     estimated scf accuracy    <   64586.27945546 Ry

     iteration #  3     ecut=    29.40 Ry     beta= 0.05
     Davidson diagonalization with overlap
     ethr =  1.00E-02,  avg # of iterations = 15.0

     negative rho (up, down):  4.148E-03 0.000E+00
 
     Adding external electric field

     Computed dipole along edir(3) : 
        Dipole               -4.4019 Ry au,        -11.1885 Debye
        Dipole field         -0.0083 Ry au, 
 
        Potential amp.        0.7700 Ry
        Total length         46.3494 bohr
 

     total cpu time spent up to now is      166.4 secs

     total energy              =   -2945.06766673 Ry
     estimated scf accuracy    <    4104.11437836 Ry

     iteration #  4     ecut=    29.40 Ry     beta= 0.05
     Davidson diagonalization with overlap
     c_bands:  2 eigenvalues not converged
     c_bands:  5 eigenvalues not converged
     c_bands:  1 eigenvalues not converged
     ethr =  1.00E-02,  avg # of iterations = 20.5

     negative rho (up, down):  4.193E-03 0.000E+00
 
     Adding external electric field

     Computed dipole along edir(3) : 
        Dipole               -5.4760 Ry au,        -13.9187 Debye
        Dipole field         -0.0103 Ry au, 
 
        Potential amp.        0.9579 Ry
        Total length         46.3494 bohr
 

     total cpu time spent up to now is      190.2 secs

     total energy              =   -2956.63186301 Ry
     estimated scf accuracy    <     748.97633604 Ry

     iteration #  5     ecut=    29.40 Ry     beta= 0.05
     Davidson diagonalization with overlap
     ethr =  1.00E-02,  avg # of iterations =  4.4

     negative rho (up, down):  4.198E-03 0.000E+00
 
     Adding external electric field

     Computed dipole along edir(3) : 
        Dipole               -5.9554 Ry au,        -15.1370 Debye
        Dipole field         -0.0112 Ry au, 
 
        Potential amp.        1.0418 Ry
        Total length         46.3494 bohr
 

     total cpu time spent up to now is      201.4 secs

     total energy              =   -2955.67804863 Ry
     estimated scf accuracy    <     468.44197481 Ry

     iteration #  6     ecut=    29.40 Ry     beta= 0.05
     Davidson diagonalization with overlap
     ethr =  1.00E-02,  avg # of iterations =  2.7

     negative rho (up, down):  4.376E-03 0.000E+00
 
     Adding external electric field

     Computed dipole along edir(3) : 
        Dipole               -7.7657 Ry au,        -19.7384 Debye
        Dipole field         -0.0147 Ry au, 
 
        Potential amp.        1.3585 Ry
        Total length         46.3494 bohr
 

     total cpu time spent up to now is      211.9 secs

     total energy              =   -2943.98175296 Ry
     estimated scf accuracy    <     461.65212969 Ry

     iteration #  7     ecut=    29.40 Ry     beta= 0.05
     Davidson diagonalization with overlap
     ethr =  1.00E-02,  avg # of iterations =  8.8

     negative rho (up, down):  2.969E-03 0.000E+00
 
     Adding external electric field

     Computed dipole along edir(3) : 
        Dipole               -6.0988 Ry au,        -15.5017 Debye
        Dipole field         -0.0115 Ry au, 
 
        Potential amp.        1.0669 Ry
        Total length         46.3494 bohr
 

     total cpu time spent up to now is      230.6 secs

     total energy              =   -2963.95776520 Ry
     estimated scf accuracy    <     306.12620911 Ry

     iteration #  8     ecut=    29.40 Ry     beta= 0.05
     Davidson diagonalization with overlap
     ethr =  1.00E-02,  avg # of iterations =  2.0

     negative rho (up, down):  3.117E-03 0.000E+00
 
     Adding external electric field

     Computed dipole along edir(3) : 
        Dipole               -5.6115 Ry au,        -14.2629 Debye
        Dipole field         -0.0106 Ry au, 
 
        Potential amp.        0.9816 Ry
        Total length         46.3494 bohr
 

     total cpu time spent up to now is      241.3 secs

     total energy              =   -2966.84052331 Ry
     estimated scf accuracy    <      35.77738323 Ry

     iteration #  9     ecut=    29.40 Ry     beta= 0.05
     Davidson diagonalization with overlap
     ethr =  9.01E-03,  avg # of iterations =  1.0

     negative rho (up, down):  3.536E-03 0.000E+00
 
     Adding external electric field

     Computed dipole along edir(3) : 
        Dipole               -5.0141 Ry au,        -12.7445 Debye
        Dipole field         -0.0095 Ry au, 
 
        Potential amp.        0.8771 Ry
        Total length         46.3494 bohr
 

     total cpu time spent up to now is      251.0 secs

     total energy              =   -2966.15425371 Ry
     estimated scf accuracy    <      32.92303598 Ry

     iteration # 10     ecut=    29.40 Ry     beta= 0.05
     Davidson diagonalization with overlap
     ethr =  8.29E-03,  avg # of iterations =  1.1

     negative rho (up, down):  3.156E-02 0.000E+00
 
     Adding external electric field

     Computed dipole along edir(3) : 
        Dipole               -0.3562 Ry au,         -0.9054 Debye
        Dipole field         -0.0007 Ry au, 
 
        Potential amp.        0.0623 Ry
        Total length         46.3494 bohr
 

     total cpu time spent up to now is      260.8 secs

     total energy              =   -2961.26018821 Ry
     estimated scf accuracy    <      29.65030717 Ry

     iteration # 11     ecut=    29.40 Ry     beta= 0.05
     Davidson diagonalization with overlap
     c_bands:  1 eigenvalues not converged
     ethr =  7.47E-03,  avg # of iterations = 18.1

     negative rho (up, down):  1.603E-02 0.000E+00
 
     Adding external electric field

     Computed dipole along edir(3) : 
        Dipole               -1.6221 Ry au,         -4.1230 Debye
        Dipole field         -0.0031 Ry au, 
 
        Potential amp.        0.2838 Ry
        Total length         46.3494 bohr
 

     total cpu time spent up to now is      283.0 secs

     total energy              =   -2960.53461464 Ry
     estimated scf accuracy    <    2295.86014916 Ry

     iteration # 12     ecut=    29.40 Ry     beta= 0.05
     Davidson diagonalization with overlap
     ethr =  7.47E-03,  avg # of iterations =  2.3

     negative rho (up, down):  2.235E-02 0.000E+00
 
     Adding external electric field

     Computed dipole along edir(3) : 
        Dipole               -1.9587 Ry au,         -4.9784 Debye
        Dipole field         -0.0037 Ry au, 
 
        Potential amp.        0.3426 Ry
        Total length         46.3494 bohr
 

     total cpu time spent up to now is      293.7 secs

     total energy              =   -2955.55291765 Ry
     estimated scf accuracy    <    1704.32514358 Ry

     iteration # 13     ecut=    29.40 Ry     beta= 0.05
     Davidson diagonalization with overlap
     ethr =  7.47E-03,  avg # of iterations = 13.2

     negative rho (up, down):  2.231E-02 0.000E+00
 
     Adding external electric field

     Computed dipole along edir(3) : 
        Dipole               -0.5970 Ry au,         -1.5175 Debye
        Dipole field         -0.0011 Ry au, 
 
        Potential amp.        0.1044 Ry
        Total length         46.3494 bohr
 

     total cpu time spent up to now is      311.5 secs

     total energy              =   -2968.17641152 Ry
     estimated scf accuracy    <     194.62301157 Ry

     iteration # 14     ecut=    29.40 Ry     beta= 0.05
     Davidson diagonalization with overlap
     ethr =  7.47E-03,  avg # of iterations =  4.8

     negative rho (up, down):  1.269E-02 0.000E+00
 
     Adding external electric field

     Computed dipole along edir(3) : 
        Dipole               -1.9029 Ry au,         -4.8367 Debye
        Dipole field         -0.0036 Ry au, 
 
        Potential amp.        0.3329 Ry
        Total length         46.3494 bohr
 

     total cpu time spent up to now is      322.5 secs

     total energy              =   -2961.80492032 Ry
     estimated scf accuracy    <     850.25152034 Ry

     iteration # 15     ecut=    29.40 Ry     beta= 0.05
     Davidson diagonalization with overlap
     ethr =  7.47E-03,  avg # of iterations =  1.7

     negative rho (up, down):  3.962E-03 0.000E+00
 
     Adding external electric field

     Computed dipole along edir(3) : 
        Dipole               -3.7421 Ry au,         -9.5114 Debye
        Dipole field         -0.0071 Ry au, 
 
        Potential amp.        0.6546 Ry
        Total length         46.3494 bohr
 

     total cpu time spent up to now is      332.6 secs

     total energy              =   -2958.69575018 Ry
     estimated scf accuracy    <     230.78400759 Ry

     iteration # 16     ecut=    29.40 Ry     beta= 0.05
     Davidson diagonalization with overlap
     ethr =  7.47E-03,  avg # of iterations =  7.2

     negative rho (up, down):  3.911E-03 0.000E+00
 
     Adding external electric field

     Computed dipole along edir(3) : 
        Dipole               -3.4604 Ry au,         -8.7954 Debye
        Dipole field         -0.0065 Ry au, 
 
        Potential amp.        0.6053 Ry
        Total length         46.3494 bohr
 

     total cpu time spent up to now is      345.5 secs

     total energy              =   -2963.08212904 Ry
     estimated scf accuracy    <      16.21605792 Ry

     iteration # 17     ecut=    29.40 Ry     beta= 0.05
     Davidson diagonalization with overlap
     ethr =  4.08E-03,  avg # of iterations =  2.6

     negative rho (up, down):  4.398E-03 0.000E+00
 
     Adding external electric field

     Computed dipole along edir(3) : 
        Dipole               -2.2470 Ry au,         -5.7113 Debye
        Dipole field         -0.0042 Ry au, 
 
        Potential amp.        0.3931 Ry
        Total length         46.3494 bohr
 

     total cpu time spent up to now is      356.2 secs

     total energy              =   -2962.46101697 Ry
     estimated scf accuracy    <      12.55942981 Ry

     iteration # 18     ecut=    29.40 Ry     beta= 0.05
     Davidson diagonalization with overlap
     ethr =  3.16E-03,  avg # of iterations =  9.9

     negative rho (up, down):  5.007E-03 0.000E+00
 
     Adding external electric field

     Computed dipole along edir(3) : 
        Dipole               -2.0303 Ry au,         -5.1606 Debye
        Dipole field         -0.0038 Ry au, 
 
        Potential amp.        0.3552 Ry
        Total length         46.3494 bohr
 

     total cpu time spent up to now is      369.2 secs

     total energy              =   -2963.42578418 Ry
     estimated scf accuracy    <       2.72488439 Ry

     iteration # 19     ecut=    29.40 Ry     beta= 0.05
     Davidson diagonalization with overlap
     c_bands:  1 eigenvalues not converged
     c_bands:  1 eigenvalues not converged
     c_bands:  1 eigenvalues not converged
     c_bands:  1 eigenvalues not converged
     ethr =  6.86E-04,  avg # of iterations = 19.3

     negative rho (up, down):  4.916E-03 0.000E+00
 
     Adding external electric field

     Computed dipole along edir(3) : 
        Dipole               -2.2633 Ry au,         -5.7528 Debye
        Dipole field         -0.0043 Ry au, 
 
        Potential amp.        0.3959 Ry
        Total length         46.3494 bohr
 

     total cpu time spent up to now is      391.0 secs

     total energy              =   -2963.95175021 Ry
     estimated scf accuracy    <      15.99047820 Ry

     iteration # 20     ecut=    29.40 Ry     beta= 0.05
     Davidson diagonalization with overlap
     ethr =  6.86E-04,  avg # of iterations =  1.2

     negative rho (up, down):  5.628E-03 0.000E+00
 
     Adding external electric field

     Computed dipole along edir(3) : 
        Dipole               -2.1870 Ry au,         -5.5589 Debye
        Dipole field         -0.0041 Ry au, 
 
        Potential amp.        0.3826 Ry
        Total length         46.3494 bohr
 

     total cpu time spent up to now is      400.9 secs

     total energy              =   -2963.77187494 Ry
     estimated scf accuracy    <      10.45885044 Ry

     iteration # 21     ecut=    29.40 Ry     beta= 0.05
     Davidson diagonalization with overlap
     ethr =  6.86E-04,  avg # of iterations =  2.0

     negative rho (up, down):  6.223E-03 0.000E+00
 
     Adding external electric field

     Computed dipole along edir(3) : 
        Dipole               -1.8265 Ry au,         -4.6424 Debye
        Dipole field         -0.0034 Ry au, 
 
        Potential amp.        0.3195 Ry
        Total length         46.3494 bohr
 

     total cpu time spent up to now is      411.5 secs

     total energy              =   -2963.78117535 Ry
     estimated scf accuracy    <       2.07962349 Ry

     iteration # 22     ecut=    29.40 Ry     beta= 0.05
     Davidson diagonalization with overlap
     ethr =  5.24E-04,  avg # of iterations =  1.2

     negative rho (up, down):  5.973E-03 0.000E+00
 
     Adding external electric field

     Computed dipole along edir(3) : 
        Dipole               -1.7906 Ry au,         -4.5513 Debye
        Dipole field         -0.0034 Ry au, 
 
        Potential amp.        0.3132 Ry
        Total length         46.3494 bohr
 

     total cpu time spent up to now is      421.4 secs

     total energy              =   -2963.69868463 Ry
     estimated scf accuracy    <       1.81466991 Ry

     iteration # 23     ecut=    29.40 Ry     beta= 0.05
     Davidson diagonalization with overlap
     ethr =  4.57E-04,  avg # of iterations =  3.8

     negative rho (up, down):  7.146E-03 0.000E+00
 
     Adding external electric field

     Computed dipole along edir(3) : 
        Dipole               -1.4951 Ry au,         -3.8000 Debye
        Dipole field         -0.0028 Ry au, 
 
        Potential amp.        0.2615 Ry
        Total length         46.3494 bohr
 

     total cpu time spent up to now is      432.4 secs

     total energy              =   -2963.56217131 Ry
     estimated scf accuracy    <       2.18927206 Ry

     iteration # 24     ecut=    29.40 Ry     beta= 0.05
     Davidson diagonalization with overlap
     c_bands:  1 eigenvalues not converged
     c_bands:  5 eigenvalues not converged
     c_bands:  3 eigenvalues not converged
     c_bands:  2 eigenvalues not converged
     c_bands:  1 eigenvalues not converged
     c_bands:  2 eigenvalues not converged
     c_bands:  1 eigenvalues not converged
     c_bands:  1 eigenvalues not converged
     ethr =  4.57E-04,  avg # of iterations = 19.7

     negative rho (up, down):  8.067E-03 0.000E+00
 
     Adding external electric field

     Computed dipole along edir(3) : 
        Dipole               -1.1740 Ry au,         -2.9839 Debye
        Dipole field         -0.0022 Ry au, 
 
        Potential amp.        0.2054 Ry
        Total length         46.3494 bohr
 

     total cpu time spent up to now is      450.6 secs

     total energy              =   -2963.68554846 Ry
     estimated scf accuracy    <       0.81812890 Ry

     iteration # 25     ecut=    29.40 Ry     beta= 0.05
     Davidson diagonalization with overlap
     ethr =  2.06E-04,  avg # of iterations =  6.7

     negative rho (up, down):  8.435E-03 0.000E+00
 
     Adding external electric field

     Computed dipole along edir(3) : 
        Dipole               -0.8463 Ry au,         -2.1512 Debye
        Dipole field         -0.0016 Ry au, 
 
        Potential amp.        0.1481 Ry
        Total length         46.3494 bohr
 

     total cpu time spent up to now is      462.6 secs

     total energy              =   -2963.65978408 Ry
     estimated scf accuracy    <       0.55887257 Ry

     iteration # 26     ecut=    29.40 Ry     beta= 0.05
     Davidson diagonalization with overlap
     ethr =  1.41E-04,  avg # of iterations =  8.5

     negative rho (up, down):  8.527E-03 0.000E+00
 
     Adding external electric field

     Computed dipole along edir(3) : 
        Dipole               -0.2890 Ry au,         -0.7345 Debye
        Dipole field         -0.0005 Ry au, 
 
        Potential amp.        0.0506 Ry
        Total length         46.3494 bohr
 

     total cpu time spent up to now is      475.0 secs

     total energy              =   -2963.66118300 Ry
     estimated scf accuracy    <       0.28669682 Ry

     iteration # 27     ecut=    29.40 Ry     beta= 0.05
     Davidson diagonalization with overlap
     c_bands:  2 eigenvalues not converged
     c_bands:  1 eigenvalues not converged
     c_bands:  2 eigenvalues not converged
     c_bands:  2 eigenvalues not converged
     c_bands:  4 eigenvalues not converged
     c_bands:  5 eigenvalues not converged
     c_bands:  1 eigenvalues not converged
     ethr =  7.22E-05,  avg # of iterations = 19.4

     negative rho (up, down):  8.927E-03 0.000E+00
 
     Adding external electric field

     Computed dipole along edir(3) : 
        Dipole               -0.1759 Ry au,         -0.4470 Debye
        Dipole field         -0.0003 Ry au, 
 
        Potential amp.        0.0308 Ry
        Total length         46.3494 bohr
 

     total cpu time spent up to now is      496.5 secs

     total energy              =   -2963.65580548 Ry
     estimated scf accuracy    <       0.91440337 Ry

     iteration # 28     ecut=    29.40 Ry     beta= 0.05
     Davidson diagonalization with overlap
     c_bands:  2 eigenvalues not converged
     c_bands:  1 eigenvalues not converged
     ethr =  7.22E-05,  avg # of iterations = 15.4

     negative rho (up, down):  8.507E-03 0.000E+00
 
     Adding external electric field

     Computed dipole along edir(3) : 
        Dipole               -0.1152 Ry au,         -0.2929 Debye
        Dipole field         -0.0002 Ry au, 
 
        Potential amp.        0.0202 Ry
        Total length         46.3494 bohr
 

     total cpu time spent up to now is      512.2 secs

     total energy              =   -2963.67287369 Ry
     estimated scf accuracy    <       0.29950967 Ry

     iteration # 29     ecut=    29.40 Ry     beta= 0.05
     Davidson diagonalization with overlap
     c_bands:  3 eigenvalues not converged
     c_bands:  5 eigenvalues not converged
     c_bands:  5 eigenvalues not converged
     ethr =  7.22E-05,  avg # of iterations = 13.6

     negative rho (up, down):  7.821E-03 0.000E+00
 
     Adding external electric field

     Computed dipole along edir(3) : 
        Dipole               -0.1115 Ry au,         -0.2833 Debye
        Dipole field         -0.0002 Ry au, 
 
        Potential amp.        0.0195 Ry
        Total length         46.3494 bohr
 

     total cpu time spent up to now is      526.3 secs

     total energy              =   -2963.67176852 Ry
     estimated scf accuracy    <       0.34927711 Ry

     iteration # 30     ecut=    29.40 Ry     beta= 0.05
     Davidson diagonalization with overlap
     c_bands:  4 eigenvalues not converged
     c_bands:  2 eigenvalues not converged
     ethr =  7.22E-05,  avg # of iterations =  9.0

     negative rho (up, down):  7.324E-03 0.000E+00
 
     Adding external electric field

     Computed dipole along edir(3) : 
        Dipole                0.1321 Ry au,          0.3358 Debye
        Dipole field          0.0002 Ry au, 
 
        Potential amp.       -0.0231 Ry
        Total length         46.3494 bohr
 

     total cpu time spent up to now is      539.0 secs

     total energy              =   -2963.65709985 Ry
     estimated scf accuracy    <       0.32573349 Ry

     iteration # 31     ecut=    29.40 Ry     beta= 0.05
     Davidson diagonalization with overlap
     ethr =  7.22E-05,  avg # of iterations =  8.5

     negative rho (up, down):  7.245E-03 0.000E+00
 
     Adding external electric field

     Computed dipole along edir(3) : 
        Dipole                0.1896 Ry au,          0.4819 Debye
        Dipole field          0.0004 Ry au, 
 
        Potential amp.       -0.0332 Ry
        Total length         46.3494 bohr
 

     total cpu time spent up to now is      551.3 secs

     total energy              =   -2963.66806410 Ry
     estimated scf accuracy    <       0.09125027 Ry

     iteration # 32     ecut=    29.40 Ry     beta= 0.05
     Davidson diagonalization with overlap
     c_bands:  2 eigenvalues not converged
     c_bands:  1 eigenvalues not converged
     c_bands:  1 eigenvalues not converged
     c_bands:  1 eigenvalues not converged
     c_bands:  1 eigenvalues not converged
     ethr =  2.30E-05,  avg # of iterations = 16.7

     negative rho (up, down):  7.782E-03 0.000E+00
 
     Adding external electric field

     Computed dipole along edir(3) : 
        Dipole                0.2615 Ry au,          0.6646 Debye
        Dipole field          0.0005 Ry au, 
 
        Potential amp.       -0.0457 Ry
        Total length         46.3494 bohr
 

     total cpu time spent up to now is      566.6 secs

     total energy              =   -2963.66980550 Ry
     estimated scf accuracy    <       0.03677920 Ry

     iteration # 33     ecut=    29.40 Ry     beta= 0.05
     Davidson diagonalization with overlap
     c_bands:  2 eigenvalues not converged
     c_bands:  1 eigenvalues not converged
     c_bands:  1 eigenvalues not converged
     c_bands:  1 eigenvalues not converged
     c_bands:  1 eigenvalues not converged
     c_bands:  1 eigenvalues not converged
     ethr =  9.26E-06,  avg # of iterations = 18.2

     negative rho (up, down):  7.779E-03 0.000E+00
 
     Adding external electric field

     Computed dipole along edir(3) : 
        Dipole                0.2874 Ry au,          0.7304 Debye
        Dipole field          0.0005 Ry au, 
 
        Potential amp.       -0.0503 Ry
        Total length         46.3494 bohr
 

     total cpu time spent up to now is      583.9 secs

     total energy              =   -2963.66636770 Ry
     estimated scf accuracy    <       0.13073612 Ry

     iteration # 34     ecut=    29.40 Ry     beta= 0.05
     Davidson diagonalization with overlap
     c_bands:  1 eigenvalues not converged
     ethr =  9.26E-06,  avg # of iterations = 10.0

     negative rho (up, down):  8.971E-03 0.000E+00
 
     Adding external electric field

     Computed dipole along edir(3) : 
        Dipole                0.4240 Ry au,          1.0777 Debye
        Dipole field          0.0008 Ry au, 
 
        Potential amp.       -0.0742 Ry
        Total length         46.3494 bohr
 

     total cpu time spent up to now is      596.6 secs

     total energy              =   -2963.67220896 Ry
     estimated scf accuracy    <       0.02063775 Ry

     iteration # 35     ecut=    29.40 Ry     beta= 0.05
     Davidson diagonalization with overlap
     c_bands:  1 eigenvalues not converged
     c_bands:  1 eigenvalues not converged
     ethr =  5.20E-06,  avg # of iterations = 12.7

     negative rho (up, down):  1.054E-02 0.000E+00
 
     Adding external electric field

     Computed dipole along edir(3) : 
        Dipole                0.4561 Ry au,          1.1593 Debye
        Dipole field          0.0009 Ry au, 
 
        Potential amp.       -0.0798 Ry
        Total length         46.3494 bohr
 

     total cpu time spent up to now is      610.8 secs

     total energy              =   -2963.67330458 Ry
     estimated scf accuracy    <       0.01260384 Ry

     iteration # 36     ecut=    29.40 Ry     beta= 0.05
     Davidson diagonalization with overlap
     c_bands:  1 eigenvalues not converged
     c_bands:  2 eigenvalues not converged
     c_bands:  1 eigenvalues not converged
     c_bands:  2 eigenvalues not converged
     c_bands:  2 eigenvalues not converged
     c_bands:  1 eigenvalues not converged
     ethr =  3.17E-06,  avg # of iterations = 16.1

     negative rho (up, down):  1.049E-02 0.000E+00
 
     Adding external electric field

     Computed dipole along edir(3) : 
        Dipole                0.4195 Ry au,          1.0662 Debye
        Dipole field          0.0008 Ry au, 
 
        Potential amp.       -0.0734 Ry
        Total length         46.3494 bohr
 

     total cpu time spent up to now is      627.1 secs

     total energy              =   -2963.67395132 Ry
     estimated scf accuracy    <       0.00881729 Ry

     iteration # 37     ecut=    29.40 Ry     beta= 0.05
     Davidson diagonalization with overlap
     c_bands:  2 eigenvalues not converged
     ethr =  2.22E-06,  avg # of iterations = 11.3

     negative rho (up, down):  1.081E-02 0.000E+00
 
     Adding external electric field

     Computed dipole along edir(3) : 
        Dipole                0.4110 Ry au,          1.0446 Debye
        Dipole field          0.0008 Ry au, 
 
        Potential amp.       -0.0719 Ry
        Total length         46.3494 bohr
 

     total cpu time spent up to now is      640.6 secs

     total energy              =   -2963.67395508 Ry
     estimated scf accuracy    <       0.01172576 Ry

     iteration # 38     ecut=    29.40 Ry     beta= 0.05
     Davidson diagonalization with overlap
     ethr =  2.22E-06,  avg # of iterations =  4.2

     negative rho (up, down):  1.260E-02 0.000E+00
 
     Adding external electric field

     Computed dipole along edir(3) : 
        Dipole                0.4480 Ry au,          1.1387 Debye
        Dipole field          0.0008 Ry au, 
 
        Potential amp.       -0.0784 Ry
        Total length         46.3494 bohr
 

     total cpu time spent up to now is      651.9 secs

     total energy              =   -2963.67395246 Ry
     estimated scf accuracy    <       0.00326879 Ry

     iteration # 39     ecut=    29.40 Ry     beta= 0.05
     Davidson diagonalization with overlap
     c_bands:  1 eigenvalues not converged
     ethr =  8.23E-07,  avg # of iterations = 14.4

     negative rho (up, down):  1.389E-02 0.000E+00
 
     Adding external electric field

     Computed dipole along edir(3) : 
        Dipole                0.4524 Ry au,          1.1499 Debye
        Dipole field          0.0009 Ry au, 
 
        Potential amp.       -0.0791 Ry
        Total length         46.3494 bohr
 

     total cpu time spent up to now is      670.1 secs

     total energy              =   -2963.67458122 Ry
     estimated scf accuracy    <       0.00337934 Ry

     iteration # 40     ecut=    29.40 Ry     beta= 0.05
     Davidson diagonalization with overlap
     ethr =  8.23E-07,  avg # of iterations =  2.9

     negative rho (up, down):  1.507E-02 0.000E+00
 
     Adding external electric field

     Computed dipole along edir(3) : 
        Dipole                0.4593 Ry au,          1.1674 Debye
        Dipole field          0.0009 Ry au, 
 
        Potential amp.       -0.0803 Ry
        Total length         46.3494 bohr
 

     total cpu time spent up to now is      680.9 secs

     total energy              =   -2963.67471333 Ry
     estimated scf accuracy    <       0.00109684 Ry

     iteration # 41     ecut=    29.40 Ry     beta= 0.05
     Davidson diagonalization with overlap
     ethr =  2.76E-07,  avg # of iterations = 13.0

     negative rho (up, down):  1.525E-02 0.000E+00
 
     Adding external electric field

     Computed dipole along edir(3) : 
        Dipole                0.4664 Ry au,          1.1854 Debye
        Dipole field          0.0009 Ry au, 
 
        Potential amp.       -0.0816 Ry
        Total length         46.3494 bohr
 

     total cpu time spent up to now is      696.4 secs

     total energy              =   -2963.67486453 Ry
     estimated scf accuracy    <       0.00031749 Ry

     iteration # 42     ecut=    29.40 Ry     beta= 0.05
     Davidson diagonalization with overlap
     ethr =  8.00E-08,  avg # of iterations =  8.6

     negative rho (up, down):  1.551E-02 0.000E+00
 
     Adding external electric field

     Computed dipole along edir(3) : 
        Dipole                0.4624 Ry au,          1.1752 Debye
        Dipole field          0.0009 Ry au, 
 
        Potential amp.       -0.0809 Ry
        Total length         46.3494 bohr
 

     total cpu time spent up to now is      709.6 secs

     total energy              =   -2963.67489269 Ry
     estimated scf accuracy    <       0.00033367 Ry

     iteration # 43     ecut=    29.40 Ry     beta= 0.05
     Davidson diagonalization with overlap
     c_bands:  1 eigenvalues not converged
     ethr =  8.00E-08,  avg # of iterations = 12.6

     negative rho (up, down):  1.572E-02 0.000E+00
 
     Adding external electric field

     Computed dipole along edir(3) : 
        Dipole                0.4570 Ry au,          1.1615 Debye
        Dipole field          0.0009 Ry au, 
 
        Potential amp.       -0.0799 Ry
        Total length         46.3494 bohr
 

     total cpu time spent up to now is      723.5 secs

     total energy              =   -2963.67493613 Ry
     estimated scf accuracy    <       0.00013886 Ry

     iteration # 44     ecut=    29.40 Ry     beta= 0.05
     Davidson diagonalization with overlap
     ethr =  3.50E-08,  avg # of iterations = 11.0

     negative rho (up, down):  1.568E-02 0.000E+00
 
     Adding external electric field

     Computed dipole along edir(3) : 
        Dipole                0.4568 Ry au,          1.1611 Debye
        Dipole field          0.0009 Ry au, 
 
        Potential amp.       -0.0799 Ry
        Total length         46.3494 bohr
 

     total cpu time spent up to now is      740.3 secs

     total energy              =   -2963.67498118 Ry
     estimated scf accuracy    <       0.00011545 Ry

     iteration # 45     ecut=    29.40 Ry     beta= 0.05
     Davidson diagonalization with overlap
     ethr =  2.91E-08,  avg # of iterations =  1.5

     negative rho (up, down):  1.599E-02 0.000E+00
 
     Adding external electric field

     Computed dipole along edir(3) : 
        Dipole                0.4588 Ry au,          1.1662 Debye
        Dipole field          0.0009 Ry au, 
 
        Potential amp.       -0.0803 Ry
        Total length         46.3494 bohr
 

     total cpu time spent up to now is      750.5 secs

     total energy              =   -2963.67500655 Ry
     estimated scf accuracy    <       0.00007733 Ry

     iteration # 46     ecut=    29.40 Ry     beta= 0.05
     Davidson diagonalization with overlap
     c_bands:  1 eigenvalues not converged
     ethr =  1.95E-08,  avg # of iterations = 11.0

     negative rho (up, down):  1.597E-02 0.000E+00
 
     Adding external electric field

     Computed dipole along edir(3) : 
        Dipole                0.4612 Ry au,          1.1723 Debye
        Dipole field          0.0009 Ry au, 
 
        Potential amp.       -0.0807 Ry
        Total length         46.3494 bohr
 

     total cpu time spent up to now is      768.2 secs

     total energy              =   -2963.67504499 Ry
     estimated scf accuracy    <       0.00005803 Ry

     iteration # 47     ecut=    29.40 Ry     beta= 0.05
     Davidson diagonalization with overlap
     ethr =  1.46E-08,  avg # of iterations =  2.0

     negative rho (up, down):  1.619E-02 0.000E+00
 
     Adding external electric field

     Computed dipole along edir(3) : 
        Dipole                0.4612 Ry au,          1.1723 Debye
        Dipole field          0.0009 Ry au, 
 
        Potential amp.       -0.0807 Ry
        Total length         46.3494 bohr
 

     total cpu time spent up to now is      778.8 secs

     total energy              =   -2963.67506129 Ry
     estimated scf accuracy    <       0.00007733 Ry

     iteration # 48     ecut=    29.40 Ry     beta= 0.05
     Davidson diagonalization with overlap
     ethr =  1.46E-08,  avg # of iterations =  9.8

     negative rho (up, down):  1.621E-02 0.000E+00
 
     Adding external electric field

     Computed dipole along edir(3) : 
        Dipole                0.4608 Ry au,          1.1713 Debye
        Dipole field          0.0009 Ry au, 
 
        Potential amp.       -0.0806 Ry
        Total length         46.3494 bohr
 

     total cpu time spent up to now is      792.2 secs

     total energy              =   -2963.67508464 Ry
     estimated scf accuracy    <       0.00001396 Ry

     iteration # 49     ecut=    29.40 Ry     beta= 0.05
     Davidson diagonalization with overlap
     c_bands:  2 eigenvalues not converged
     ethr =  3.52E-09,  avg # of iterations = 15.1

     negative rho (up, down):  1.619E-02 0.000E+00
 
     Adding external electric field

     Computed dipole along edir(3) : 
        Dipole                0.4612 Ry au,          1.1722 Debye
        Dipole field          0.0009 Ry au, 
 
        Potential amp.       -0.0807 Ry
        Total length         46.3494 bohr
 

     total cpu time spent up to now is      808.4 secs

     total energy              =   -2963.67510386 Ry
     estimated scf accuracy    <       0.00001005 Ry

     iteration # 50     ecut=    29.40 Ry     beta= 0.05
     Davidson diagonalization with overlap
     ethr =  2.53E-09,  avg # of iterations = 11.9

     negative rho (up, down):  1.626E-02 0.000E+00
 
     Adding external electric field

     Computed dipole along edir(3) : 
        Dipole                0.4634 Ry au,          1.1779 Debye
        Dipole field          0.0009 Ry au, 
 
        Potential amp.       -0.0811 Ry
        Total length         46.3494 bohr
 

     total cpu time spent up to now is      823.4 secs

     total energy              =   -2963.67512087 Ry
     estimated scf accuracy    <       0.00000791 Ry

     iteration # 51     ecut=    29.40 Ry     beta= 0.05
     Davidson diagonalization with overlap
     ethr =  1.99E-09,  avg # of iterations =  9.1

     negative rho (up, down):  1.632E-02 0.000E+00
 
     Adding external electric field

     Computed dipole along edir(3) : 
        Dipole                0.4646 Ry au,          1.1809 Debye
        Dipole field          0.0009 Ry au, 
 
        Potential amp.       -0.0813 Ry
        Total length         46.3494 bohr
 

     total cpu time spent up to now is      837.3 secs

     total energy              =   -2963.67513502 Ry
     estimated scf accuracy    <       0.00000344 Ry

     iteration # 52     ecut=    29.40 Ry     beta= 0.05
     Davidson diagonalization with overlap
     ethr =  8.67E-10,  avg # of iterations = 11.2

     negative rho (up, down):  1.632E-02 0.000E+00
 
     Adding external electric field

     Computed dipole along edir(3) : 
        Dipole                0.4645 Ry au,          1.1806 Debye
        Dipole field          0.0009 Ry au, 
 
        Potential amp.       -0.0813 Ry
        Total length         46.3494 bohr
 

     total cpu time spent up to now is      855.3 secs

     total energy              =   -2963.67514784 Ry
     estimated scf accuracy    <       0.00000168 Ry

     iteration # 53     ecut=    29.40 Ry     beta= 0.05
     Davidson diagonalization with overlap
     ethr =  4.24E-10,  avg # of iterations =  2.6

     negative rho (up, down):  1.632E-02 0.000E+00
 
     Adding external electric field

     Computed dipole along edir(3) : 
        Dipole                0.4644 Ry au,          1.1804 Debye
        Dipole field          0.0009 Ry au, 
 
        Potential amp.       -0.0812 Ry
        Total length         46.3494 bohr
 

     total cpu time spent up to now is      865.8 secs

     total energy              =   -2963.67515868 Ry
     estimated scf accuracy    <       0.00000167 Ry

     iteration # 54     ecut=    29.40 Ry     beta= 0.05
     Davidson diagonalization with overlap
     ethr =  4.20E-10,  avg # of iterations =  1.7

     negative rho (up, down):  1.626E-02 0.000E+00
 
     Adding external electric field

     Computed dipole along edir(3) : 
        Dipole                0.4636 Ry au,          1.1784 Debye
        Dipole field          0.0009 Ry au, 
 
        Potential amp.       -0.0811 Ry
        Total length         46.3494 bohr
 

     total cpu time spent up to now is      876.1 secs

     total energy              =   -2963.67516844 Ry
     estimated scf accuracy    <       0.00000185 Ry

     iteration # 55     ecut=    29.40 Ry     beta= 0.05
     Davidson diagonalization with overlap
     ethr =  4.20E-10,  avg # of iterations =  5.1

     negative rho (up, down):  1.623E-02 0.000E+00
 
     Adding external electric field

     Computed dipole along edir(3) : 
        Dipole                0.4629 Ry au,          1.1765 Debye
        Dipole field          0.0009 Ry au, 
 
        Potential amp.       -0.0810 Ry
        Total length         46.3494 bohr
 

     total cpu time spent up to now is      887.6 secs

     total energy              =   -2963.67517715 Ry
     estimated scf accuracy    <       0.00000142 Ry

     iteration # 56     ecut=    29.40 Ry     beta= 0.05
     Davidson diagonalization with overlap
     ethr =  3.58E-10,  avg # of iterations = 12.1

     negative rho (up, down):  1.627E-02 0.000E+00
 
     Adding external electric field

     Computed dipole along edir(3) : 
        Dipole                0.4633 Ry au,          1.1776 Debye
        Dipole field          0.0009 Ry au, 
 
        Potential amp.       -0.0810 Ry
        Total length         46.3494 bohr
 

     total cpu time spent up to now is      903.2 secs

     total energy              =   -2963.67518532 Ry
     estimated scf accuracy    <       0.00000083 Ry

     iteration # 57     ecut=    29.40 Ry     beta= 0.05
     Davidson diagonalization with overlap
     ethr =  2.08E-10,  avg # of iterations =  9.7

     negative rho (up, down):  1.627E-02 0.000E+00
 
     Adding external electric field

     Computed dipole along edir(3) : 
        Dipole                0.4636 Ry au,          1.1783 Debye
        Dipole field          0.0009 Ry au, 
 
        Potential amp.       -0.0811 Ry
        Total length         46.3494 bohr
 

     total cpu time spent up to now is      917.8 secs

     total energy              =   -2963.67519260 Ry
     estimated scf accuracy    <       0.00000038 Ry

     iteration # 58     ecut=    29.40 Ry     beta= 0.05
     Davidson diagonalization with overlap
     ethr =  9.63E-11,  avg # of iterations = 11.6

     negative rho (up, down):  1.626E-02 0.000E+00
 
     Adding external electric field

     Computed dipole along edir(3) : 
        Dipole                0.4635 Ry au,          1.1782 Debye
        Dipole field          0.0009 Ry au, 
 
        Potential amp.       -0.0811 Ry
        Total length         46.3494 bohr
 

     total cpu time spent up to now is      932.2 secs

     total energy              =   -2963.67519916 Ry
     estimated scf accuracy    <       0.00000027 Ry

     iteration # 59     ecut=    29.40 Ry     beta= 0.05
     Davidson diagonalization with overlap
     ethr =  6.72E-11,  avg # of iterations =  8.3

     negative rho (up, down):  1.625E-02 0.000E+00
 
     Adding external electric field

     Computed dipole along edir(3) : 
        Dipole                0.4634 Ry au,          1.1777 Debye
        Dipole field          0.0009 Ry au, 
 
        Potential amp.       -0.0811 Ry
        Total length         46.3494 bohr
 

     total cpu time spent up to now is      945.0 secs

     total energy              =   -2963.67520505 Ry
     estimated scf accuracy    <       0.00000017 Ry

     iteration # 60     ecut=    29.40 Ry     beta= 0.05
     Davidson diagonalization with overlap
     ethr =  4.17E-11,  avg # of iterations = 12.6

     negative rho (up, down):  1.625E-02 0.000E+00
 
     Adding external electric field

     Computed dipole along edir(3) : 
        Dipole                0.4632 Ry au,          1.1773 Debye
        Dipole field          0.0009 Ry au, 
 
        Potential amp.       -0.0810 Ry
        Total length         46.3494 bohr
 

     total cpu time spent up to now is      959.6 secs

     total energy              =   -2963.67521040 Ry
     estimated scf accuracy    <       0.00000010 Ry

     iteration # 61     ecut=    29.40 Ry     beta= 0.05
     Davidson diagonalization with overlap
     ethr =  2.60E-11,  avg # of iterations = 12.0

     negative rho (up, down):  1.624E-02 0.000E+00
 
     Adding external electric field

     Computed dipole along edir(3) : 
        Dipole                0.4632 Ry au,          1.1772 Debye
        Dipole field          0.0009 Ry au, 
 
        Potential amp.       -0.0810 Ry
        Total length         46.3494 bohr
 

     total cpu time spent up to now is      976.4 secs

     total energy              =   -2963.67521520 Ry
     estimated scf accuracy    <       0.00000009 Ry

     iteration # 62     ecut=    29.40 Ry     beta= 0.05
     Davidson diagonalization with overlap
     ethr =  2.14E-11,  avg # of iterations =  1.9

     negative rho (up, down):  1.624E-02 0.000E+00
 
     Adding external electric field

     Computed dipole along edir(3) : 
        Dipole                0.4633 Ry au,          1.1775 Debye
        Dipole field          0.0009 Ry au, 
 
        Potential amp.       -0.0810 Ry
        Total length         46.3494 bohr
 

     total cpu time spent up to now is      986.8 secs

     End of self-consistent calculation

          k = 0.0000 0.0000 0.0000 ( 18029 PWs)   bands (ev):

   -56.0143 -55.9775 -55.9774 -55.9555 -55.9414 -55.8969 -55.8631 -55.8286
   -55.7969 -55.7921 -55.7811 -55.7550 -55.7475 -55.6873 -55.0234 -54.9893
   -32.5305 -32.4850 -32.4067 -32.3738 -32.3644 -32.3101 -32.2904 -32.2790
   -32.2595 -32.2468 -32.2081 -32.2009 -32.1910 -32.1726 -32.1713 -32.1597
   -32.1331 -32.1196 -32.1070 -32.1059 -32.0854 -32.0773 -32.0718 -32.0654
   -32.0511 -32.0428 -32.0400 -32.0286 -32.0123 -32.0023 -31.9987 -31.9855
   -31.9658 -31.9594 -31.9566 -31.9541 -31.9256 -31.9077 -31.8976 -31.8866
   -31.8737 -31.8698 -31.4329 -31.3370 -31.3146 -31.2493 -31.1632 -31.0522
   -19.4390 -19.0643 -16.7346 -16.4736 -16.3136 -16.1951 -16.1465 -15.9300
   -15.8461 -15.7957 -15.7081 -15.6325 -15.6038 -15.5864 -15.5534 -15.5393
   -15.5327 -15.5111 -15.4595 -15.4425 -15.4209 -15.4154 -15.4039 -15.3845
   -15.3033 -15.2299 -15.1676 -15.1358 -15.0632 -15.0238 -14.9861 -13.5245
   -13.4066  -7.8984  -6.8973  -4.6602  -4.0920  -3.9485  -3.9301  -3.9020
    -3.8298  -3.6437  -3.6139  -3.4667  -3.3163  -3.3056  -3.1857  -3.1489
    -3.1241  -3.0564  -3.0377  -2.9780  -2.8493  -2.8359  -2.8253  -2.8071
    -2.7966  -2.7529  -2.7311  -2.6939  -2.6538  -2.5877  -2.5168  -2.4913
    -2.4163  -2.4105  -2.3729  -2.3179  -2.3117  -2.2870  -2.2733  -2.2472
    -2.1965  -2.1822  -2.1712  -2.0676  -1.9801  -1.8674  -1.7070  -1.6798
    -1.6769  -1.5548  -1.5060  -1.4436  -1.4193  -1.4175  -1.3680  -1.3191
    -1.2728  -1.2541  -1.1496  -1.0361  -1.0038  -0.9430  -0.9161  -0.7916
    -0.7414  -0.7357  -0.7263  -0.7180  -0.6940  -0.6241  -0.5106  -0.4373
    -0.4283  -0.3376  -0.3152  -0.3026  -0.2441  -0.2348  -0.2136  -0.1590
    -0.1137  -0.0669  -0.0499  -0.0203   0.0173   0.0220   0.1524   0.2018
     0.2307   0.2513   0.2893   0.4579   0.5025   0.6322   0.7380   0.9081
     1.0004   1.0657   1.1750   1.5859   1.6433   2.8407   3.1632   3.2077
     3.2211   3.2356   3.2981   3.4006   3.5460   3.6162   3.6308   3.6662

          k = 0.0000 0.0419 0.0000 ( 17933 PWs)   bands (ev):

   -56.0098 -55.9817 -55.9722 -55.9546 -55.9465 -55.8923 -55.8675 -55.8265
   -55.7953 -55.7929 -55.7763 -55.7569 -55.7524 -55.6886 -55.0183 -54.9942
   -32.4735 -32.4312 -32.3675 -32.3220 -32.3158 -32.3032 -32.2753 -32.2655
   -32.2190 -32.2097 -32.2069 -32.2016 -32.1946 -32.1835 -32.1635 -32.1589
   -32.1555 -32.1438 -32.1321 -32.1257 -32.0917 -32.0911 -32.0685 -32.0581
   -32.0523 -32.0487 -32.0435 -32.0416 -32.0242 -32.0125 -32.0072 -32.0017
   -31.9948 -31.9817 -31.9700 -31.9488 -31.9438 -31.9321 -31.9285 -31.9272
   -31.9020 -31.8703 -31.3788 -31.3335 -31.3176 -31.2368 -31.1757 -31.1093
   -19.4349 -19.0641 -16.6010 -16.3527 -16.2042 -16.1116 -16.0402 -15.8868
   -15.8673 -15.7867 -15.7583 -15.6492 -15.6195 -15.6086 -15.5478 -15.5334
   -15.5188 -15.4984 -15.4970 -15.4801 -15.4680 -15.4312 -15.4054 -15.3560
   -15.3470 -15.2810 -15.2242 -15.1947 -15.1251 -15.0795 -15.0695 -13.5279
   -13.4457  -7.8989  -6.8973  -4.6338  -3.9170  -3.8049  -3.7654  -3.7319
    -3.6885  -3.5762  -3.4752  -3.3061  -3.2511  -3.2185  -3.1676  -3.0965
    -3.0427  -3.0250  -3.0047  -2.9841  -2.9410  -2.9176  -2.9130  -2.8704
    -2.8474  -2.8080  -2.7641  -2.7472  -2.7274  -2.7206  -2.6869  -2.6205
    -2.5824  -2.5124  -2.4883  -2.4097  -2.3933  -2.3160  -2.2869  -2.2496
    -2.2025  -2.1541  -2.1001  -1.9088  -1.8413  -1.7703  -1.7280  -1.6753
    -1.6419  -1.5422  -1.4025  -1.3744  -1.3071  -1.2529  -1.2001  -1.1754
    -1.1314  -1.1213  -1.0264  -1.0011  -0.9857  -0.9675  -0.9531  -0.9103
    -0.8314  -0.8057  -0.7789  -0.6664  -0.6394  -0.6215  -0.5662  -0.5232
    -0.4918  -0.4611  -0.4077  -0.3460  -0.3387  -0.2772  -0.2635  -0.2293
    -0.1978  -0.1512  -0.1422  -0.1086  -0.0783  -0.0000   0.0791   0.1002
     0.1380   0.2040   0.2982   0.3109   0.3713   0.4051   0.6099   0.6430
     0.9436   1.1891   1.2630   1.5351   1.5556   2.7523   3.3350   3.3430
     3.4182   3.4312   3.4896   3.5239   3.5275   3.5673   3.6146   3.6868

          k = 0.0000-0.0839 0.0000 ( 17884 PWs)   bands (ev):

   -56.0029 -55.9885 -55.9606 -55.9582 -55.9535 -55.8846 -55.8751 -55.8242
   -55.7939 -55.7938 -55.7661 -55.7626 -55.7590 -55.6899 -55.0068 -55.0057
   -32.3449 -32.3241 -32.3182 -32.3078 -32.2962 -32.2918 -32.2734 -32.2409
   -32.2373 -32.2261 -32.2004 -32.1918 -32.1758 -32.1684 -32.1648 -32.1614
   -32.1503 -32.1386 -32.1296 -32.1205 -32.1162 -32.0943 -32.0907 -32.0772
   -32.0710 -32.0615 -32.0555 -32.0491 -32.0448 -32.0311 -32.0233 -32.0162
   -32.0144 -32.0083 -32.0014 -31.9939 -31.9919 -31.9492 -31.9447 -31.9297
   -31.9144 -31.8675 -31.3260 -31.3246 -31.2464 -31.2454 -31.2067 -31.2057
   -19.4308 -19.0640 -16.2778 -16.2609 -16.0713 -16.0616 -15.9316 -15.9231
   -15.8687 -15.8372 -15.7865 -15.7677 -15.6977 -15.6901 -15.5600 -15.5417
   -15.5242 -15.4666 -15.4618 -15.4208 -15.4157 -15.3986 -15.3620 -15.3582
   -15.3402 -15.3343 -15.3224 -15.2204 -15.2186 -15.2147 -15.2119 -13.5095
   -13.5073  -7.8996  -6.8974  -4.6106  -3.7161  -3.4959  -3.4421  -3.4067
    -3.3646  -3.3454  -3.3389  -3.3268  -3.3115  -3.2926  -3.2802  -3.2546
    -3.1529  -3.1165  -3.1098  -3.0734  -3.0667  -2.9909  -2.9485  -2.9419
    -2.8908  -2.8860  -2.8191  -2.7876  -2.7711  -2.7365  -2.7209  -2.6656
    -2.6158  -2.5374  -2.4389  -2.4075  -2.3627  -2.3172  -2.1882  -2.1446
    -2.0766  -1.9594  -1.9211  -1.8735  -1.8239  -1.7490  -1.7068  -1.6310
    -1.5572  -1.4895  -1.4488  -1.4253  -1.4122  -1.3965  -1.3628  -1.3156
    -1.2830  -1.2533  -1.2163  -1.0720  -0.9296  -0.9008  -0.8427  -0.7681
    -0.6817  -0.6619  -0.6440  -0.6284  -0.6059  -0.5488  -0.5130  -0.4904
    -0.4667  -0.4395  -0.4300  -0.4214  -0.3984  -0.3958  -0.3415  -0.3101
    -0.2775  -0.2611  -0.2358  -0.2195  -0.1967  -0.1702  -0.1314  -0.0746
     0.0032   0.1465   0.1876   0.2157   0.2227   0.5110   0.5676   0.6691
     0.7273   1.3246   1.3290   1.4753   1.4789   2.6760   3.4208   3.4730
     3.5059   3.5253   3.5368   3.5664   3.5855   3.7066   3.7369   3.8044

          k = 0.0380 0.0000 0.0000 ( 17913 PWs)   bands (ev):

   -56.0142 -55.9773 -55.9772 -55.9554 -55.9413 -55.8969 -55.8629 -55.8285
   -55.7965 -55.7920 -55.7812 -55.7549 -55.7474 -55.6873 -55.0233 -54.9892
   -32.5307 -32.4859 -32.4069 -32.3784 -32.3674 -32.3100 -32.2904 -32.2788
   -32.2632 -32.2469 -32.2014 -32.1886 -32.1801 -32.1711 -32.1697 -32.1596
   -32.1330 -32.1140 -32.1067 -32.1054 -32.0914 -32.0846 -32.0771 -32.0514
   -32.0471 -32.0444 -32.0397 -32.0280 -32.0124 -32.0023 -31.9986 -31.9822
   -31.9651 -31.9649 -31.9632 -31.9575 -31.9247 -31.9073 -31.8977 -31.8855
   -31.8791 -31.8709 -31.4324 -31.3403 -31.3126 -31.2491 -31.1630 -31.0520
   -19.4387 -19.0641 -16.6548 -16.3819 -16.2579 -16.1849 -16.0550 -15.9535
   -15.8829 -15.7977 -15.7315 -15.7128 -15.7081 -15.6964 -15.6334 -15.6272
   -15.5742 -15.5453 -15.4623 -15.4129 -15.3908 -15.3677 -15.2917 -15.2865
   -15.2490 -15.2458 -15.2088 -15.1444 -15.1084 -15.0569 -14.9849 -13.5212
   -13.4063  -7.8966  -6.8927  -4.6508  -3.9961  -3.7810  -3.7545  -3.6830
    -3.6336  -3.6304  -3.5227  -3.4704  -3.4400  -3.3914  -3.3026  -3.2236
    -3.1412  -3.1018  -3.0919  -2.9953  -2.9190  -2.8580  -2.8229  -2.7288
    -2.6828  -2.6575  -2.6282  -2.6096  -2.5672  -2.5342  -2.5276  -2.5005
    -2.4382  -2.3729  -2.3663  -2.2963  -2.2790  -2.2344  -2.2145  -2.1481
    -2.0615  -2.0468  -1.9719  -1.9477  -1.8916  -1.8208  -1.7963  -1.7728
    -1.6921  -1.6392  -1.5574  -1.4985  -1.4428  -1.4262  -1.3778  -1.3658
    -1.3547  -1.2684  -1.2478  -1.2069  -1.0933  -1.0096  -0.9172  -0.8441
    -0.8199  -0.7611  -0.7356  -0.6989  -0.6613  -0.6255  -0.5567  -0.4957
    -0.4452  -0.4119  -0.3861  -0.3400  -0.3068  -0.2562  -0.2534  -0.2335
    -0.1931  -0.1505  -0.1402  -0.1163  -0.0945   0.0143   0.0541   0.1393
     0.1654   0.1959   0.2662   0.2829   0.3478   0.6220   0.6751   0.9092
     0.9365   1.0123   1.1430   1.4704   1.5558   2.8479   3.2056   3.2473
     3.3841   3.4519   3.4676   3.4995   3.5221   3.5764   3.6164   3.6452

          k = 0.0380 0.0419 0.0000 ( 17878 PWs)   bands (ev):

   -56.0097 -55.9817 -55.9720 -55.9545 -55.9465 -55.8924 -55.8674 -55.8264
   -55.7951 -55.7929 -55.7763 -55.7569 -55.7523 -55.6886 -55.0183 -54.9942
   -32.4737 -32.4320 -32.3678 -32.3272 -32.3188 -32.3031 -32.2753 -32.2654
   -32.2193 -32.2122 -32.2068 -32.2033 -32.1791 -32.1736 -32.1637 -32.1562
   -32.1553 -32.1437 -32.1260 -32.1222 -32.0944 -32.0907 -32.0835 -32.0570
   -32.0503 -32.0475 -32.0416 -32.0356 -32.0235 -32.0103 -32.0072 -32.0019
   -31.9911 -31.9815 -31.9703 -31.9580 -31.9446 -31.9371 -31.9281 -31.9265
   -31.9019 -31.8762 -31.3785 -31.3362 -31.3166 -31.2366 -31.1757 -31.1092
   -19.4347 -19.0639 -16.5278 -16.2674 -16.1673 -16.0843 -15.9530 -15.9026
   -15.8663 -15.8053 -15.7828 -15.7002 -15.6786 -15.6583 -15.6177 -15.5986
   -15.5741 -15.5098 -15.4719 -15.4480 -15.4307 -15.4270 -15.3660 -15.3297
   -15.3253 -15.2990 -15.2620 -15.2185 -15.1571 -15.1163 -15.0691 -13.5255
   -13.4460  -7.8979  -6.8933  -4.6270  -3.8446  -3.6680  -3.6003  -3.5445
    -3.5242  -3.4574  -3.3765  -3.3185  -3.2570  -3.2252  -3.1816  -3.0998
    -3.0685  -2.9913  -2.9739  -2.9307  -2.9074  -2.8829  -2.8617  -2.8440
    -2.8001  -2.7656  -2.7573  -2.7319  -2.7116  -2.6590  -2.6260  -2.5871
    -2.5709  -2.5304  -2.4860  -2.3753  -2.3471  -2.2928  -2.2724  -2.1880
    -2.1490  -2.0808  -2.0070  -1.9536  -1.8725  -1.7879  -1.7184  -1.6741
    -1.5977  -1.5183  -1.4768  -1.4359  -1.3691  -1.3287  -1.2933  -1.2565
    -1.2377  -1.1665  -1.1366  -1.1138  -1.0445  -1.0173  -0.9863  -0.9236
    -0.8721  -0.8300  -0.8110  -0.7507  -0.7274  -0.7022  -0.6626  -0.6269
    -0.5975  -0.5540  -0.5223  -0.4925  -0.4736  -0.4507  -0.4003  -0.3177
    -0.2797  -0.2452  -0.1979  -0.1367  -0.0718  -0.0082   0.0903   0.1411
     0.1750   0.2316   0.2848   0.3086   0.3707   0.4463   0.5533   0.6091
     0.8869   1.2014   1.2672   1.4569   1.5319   2.7663   3.3159   3.3941
     3.4411   3.4667   3.5495   3.5625   3.5878   3.6463   3.6623   3.6926

          k = 0.0380-0.0839 0.0000 ( 17916 PWs)   bands (ev):

   -56.0029 -55.9885 -55.9606 -55.9582 -55.9535 -55.8847 -55.8752 -55.8242
   -55.7938 -55.7937 -55.7662 -55.7627 -55.7591 -55.6900 -55.0068 -55.0057
   -32.3452 -32.3244 -32.3187 -32.3085 -32.2964 -32.2926 -32.2734 -32.2435
   -32.2373 -32.2264 -32.2103 -32.2034 -32.1698 -32.1666 -32.1510 -32.1443
   -32.1416 -32.1371 -32.1284 -32.1193 -32.1160 -32.1018 -32.0910 -32.0834
   -32.0778 -32.0717 -32.0597 -32.0498 -32.0405 -32.0246 -32.0167 -32.0158
   -32.0097 -32.0080 -31.9973 -31.9944 -31.9801 -31.9561 -31.9478 -31.9410
   -31.9144 -31.8748 -31.3270 -31.3256 -31.2463 -31.2454 -31.2067 -31.2058
   -19.4307 -19.0638 -16.2364 -16.2046 -16.0187 -16.0124 -15.9184 -15.8721
   -15.8473 -15.8227 -15.7484 -15.7362 -15.7185 -15.6934 -15.5546 -15.5495
   -15.5452 -15.5174 -15.4996 -15.4587 -15.4316 -15.4131 -15.4122 -15.3992
   -15.3826 -15.3740 -15.3085 -15.2789 -15.2584 -15.2109 -15.1975 -13.5093
   -13.5071  -7.8994  -6.8939  -4.6077  -3.7050  -3.4719  -3.3343  -3.3209
    -3.2566  -3.2127  -3.1905  -3.1688  -3.1526  -3.1188  -3.0907  -3.0745
    -3.0657  -3.0317  -3.0271  -3.0022  -2.9834  -2.9522  -2.9140  -2.8759
    -2.8617  -2.8089  -2.7932  -2.7767  -2.7640  -2.7338  -2.6980  -2.6403
    -2.6229  -2.5649  -2.5060  -2.4100  -2.2411  -2.2233  -2.1616  -2.1160
    -2.0275  -1.9279  -1.9075  -1.8987  -1.8710  -1.8383  -1.7865  -1.7714
    -1.7433  -1.7157  -1.6697  -1.6050  -1.5864  -1.5523  -1.5384  -1.3863
    -1.3273  -1.1968  -1.1539  -1.0877  -1.0541  -0.9651  -0.9416  -0.9107
    -0.8183  -0.8005  -0.7820  -0.7546  -0.7401  -0.7179  -0.6891  -0.6701
    -0.6069  -0.5835  -0.5598  -0.5512  -0.5065  -0.4724  -0.4474  -0.4022
    -0.3592  -0.2721  -0.2052  -0.1344  -0.0792   0.0230   0.0662   0.0719
     0.1169   0.1359   0.1831   0.2793   0.3227   0.4698   0.5152   0.6529
     0.7042   1.3397   1.3434   1.4651   1.4704   2.6915   3.3854   3.3874
     3.5194   3.5332   3.5370   3.5674   3.6311   3.7300   3.7575   3.7676

          k = 0.0380-0.0419 0.0000 ( 17876 PWs)   bands (ev):

   -56.0097 -55.9817 -55.9720 -55.9545 -55.9465 -55.8924 -55.8674 -55.8264
   -55.7951 -55.7929 -55.7763 -55.7569 -55.7523 -55.6886 -55.0183 -54.9942
   -32.4737 -32.4320 -32.3678 -32.3272 -32.3188 -32.3031 -32.2753 -32.2654
   -32.2191 -32.2122 -32.2068 -32.2033 -32.1791 -32.1737 -32.1636 -32.1564
   -32.1553 -32.1436 -32.1261 -32.1222 -32.0941 -32.0907 -32.0835 -32.0566
   -32.0498 -32.0473 -32.0418 -32.0365 -32.0236 -32.0126 -32.0072 -32.0019
   -31.9902 -31.9811 -31.9694 -31.9573 -31.9414 -31.9387 -31.9299 -31.9270
   -31.9020 -31.8761 -31.3785 -31.3362 -31.3166 -31.2366 -31.1757 -31.1092
   -19.4347 -19.0639 -16.5277 -16.2673 -16.1671 -16.0842 -15.9528 -15.9030
   -15.8666 -15.8045 -15.7844 -15.7003 -15.6759 -15.6608 -15.6188 -15.5978
   -15.5752 -15.5085 -15.4684 -15.4478 -15.4335 -15.4277 -15.3663 -15.3280
   -15.3250 -15.2991 -15.2622 -15.2174 -15.1597 -15.1158 -15.0689 -13.5255
   -13.4460  -7.8979  -6.8932  -4.6285  -3.8444  -3.6668  -3.5995  -3.5438
    -3.5220  -3.4562  -3.3750  -3.3191  -3.2574  -3.2229  -3.1809  -3.0974
    -3.0691  -2.9991  -2.9742  -2.9323  -2.9043  -2.8871  -2.8653  -2.8383
    -2.8018  -2.7652  -2.7561  -2.7301  -2.7121  -2.6588  -2.6273  -2.5924
    -2.5673  -2.5282  -2.4838  -2.3722  -2.3500  -2.2895  -2.2740  -2.1904
    -2.1454  -2.0795  -2.0058  -1.9535  -1.8657  -1.7859  -1.7257  -1.6721
    -1.5999  -1.5150  -1.4795  -1.4364  -1.3732  -1.3378  -1.2904  -1.2587
    -1.2421  -1.1702  -1.1311  -1.1116  -1.0500  -1.0202  -0.9904  -0.9239
    -0.8808  -0.8380  -0.8035  -0.7631  -0.7244  -0.7053  -0.6585  -0.6305
    -0.5977  -0.5494  -0.5220  -0.4910  -0.4766  -0.4479  -0.3987  -0.3191
    -0.2770  -0.2395  -0.1990  -0.1362  -0.0690  -0.0056   0.0903   0.1443
     0.1818   0.2351   0.2863   0.3186   0.3673   0.4466   0.5547   0.6105
     0.8863   1.2012   1.2673   1.4565   1.5326   2.7634   3.3190   3.3961
     3.4435   3.4691   3.5339   3.5610   3.5835   3.6383   3.6661   3.6804

          k =-0.0760-0.0000 0.0000 ( 17886 PWs)   bands (ev):

   -56.0141 -55.9773 -55.9772 -55.9553 -55.9413 -55.8969 -55.8629 -55.8284
   -55.7962 -55.7920 -55.7814 -55.7549 -55.7474 -55.6872 -55.0232 -54.9892
   -32.5309 -32.4868 -32.4073 -32.3829 -32.3703 -32.3099 -32.2904 -32.2786
   -32.2669 -32.2470 -32.2012 -32.1717 -32.1686 -32.1667 -32.1595 -32.1505
   -32.1329 -32.1283 -32.1093 -32.1066 -32.1050 -32.0849 -32.0775 -32.0529
   -32.0467 -32.0398 -32.0280 -32.0144 -32.0115 -32.0024 -31.9985 -31.9902
   -31.9757 -31.9753 -31.9636 -31.9576 -31.9242 -31.9071 -31.8980 -31.8848
   -31.8828 -31.8724 -31.4320 -31.3437 -31.3112 -31.2491 -31.1629 -31.0521
   -19.4383 -19.0639 -16.5326 -16.3526 -16.1594 -16.1141 -16.0048 -15.9386
   -15.8901 -15.8554 -15.7870 -15.7796 -15.7788 -15.7478 -15.7013 -15.6548
   -15.6233 -15.5794 -15.4674 -15.4043 -15.3994 -15.3479 -15.3247 -15.2960
   -15.2770 -15.2100 -15.1920 -15.1597 -15.0569 -15.0559 -14.9852 -13.5180
   -13.4060  -7.8949  -6.8882  -4.6433  -3.9736  -3.7519  -3.6967  -3.5952
    -3.5835  -3.4450  -3.3909  -3.3839  -3.3466  -3.3049  -3.2798  -3.2585
    -3.1980  -3.1369  -3.0431  -2.9282  -2.8652  -2.7836  -2.6767  -2.6442
    -2.6410  -2.5666  -2.5590  -2.5381  -2.5163  -2.5075  -2.4908  -2.4659
    -2.3648  -2.3562  -2.3418  -2.2788  -2.2465  -2.2379  -2.1935  -2.1670
    -2.1434  -2.0725  -2.0574  -2.0318  -1.8431  -1.7701  -1.7357  -1.6937
    -1.6835  -1.6307  -1.5952  -1.5626  -1.5088  -1.4732  -1.4125  -1.3581
    -1.3367  -1.3124  -1.2868  -1.2753  -1.2569  -1.1583  -1.1364  -1.1131
    -0.8063  -0.8014  -0.7266  -0.7171  -0.6863  -0.6829  -0.6205  -0.5784
    -0.5673  -0.5149  -0.4665  -0.4194  -0.4074  -0.3708  -0.3040  -0.2494
    -0.2279  -0.2182  -0.2038  -0.1640  -0.0474  -0.0318  -0.0024   0.0812
     0.1160   0.1493   0.3094   0.4345   0.4415   0.5640   0.6625   0.6888
     0.9246   1.0346   1.1174   1.3329   1.4926   2.8552   3.2037   3.2433
     3.2730   3.3996   3.4479   3.4605   3.5250   3.5814   3.6070   3.6183

          k =-0.0760 0.0419 0.0000 ( 17914 PWs)   bands (ev):

   -56.0097 -55.9817 -55.9720 -55.9545 -55.9465 -55.8924 -55.8675 -55.8264
   -55.7949 -55.7929 -55.7765 -55.7569 -55.7524 -55.6886 -55.0183 -54.9942
   -32.4740 -32.4331 -32.3682 -32.3324 -32.3220 -32.3032 -32.2754 -32.2654
   -32.2193 -32.2158 -32.2068 -32.2040 -32.1639 -32.1639 -32.1564 -32.1542
   -32.1506 -32.1443 -32.1260 -32.1160 -32.1123 -32.0906 -32.0892 -32.0585
   -32.0536 -32.0523 -32.0420 -32.0240 -32.0078 -32.0062 -32.0024 -32.0011
   -31.9938 -31.9874 -31.9768 -31.9722 -31.9396 -31.9368 -31.9331 -31.9267
   -31.9020 -31.8826 -31.3782 -31.3390 -31.3159 -31.2366 -31.1757 -31.1093
   -19.4345 -19.0637 -16.4165 -16.2463 -16.0645 -16.0289 -15.9200 -15.8515
   -15.8502 -15.8313 -15.8091 -15.7504 -15.7434 -15.6988 -15.6647 -15.6583
   -15.6078 -15.5400 -15.4833 -15.4491 -15.4421 -15.4010 -15.3840 -15.3727
   -15.3210 -15.3129 -15.2695 -15.2289 -15.1534 -15.1149 -15.0714 -13.5234
   -13.4464  -7.8971  -6.8893  -4.6229  -3.8310  -3.6376  -3.5440  -3.4919
    -3.3252  -3.2648  -3.2325  -3.1449  -3.1317  -3.1041  -3.0799  -3.0522
    -3.0439  -3.0221  -2.9762  -2.9420  -2.8868  -2.8324  -2.8162  -2.7830
    -2.7425  -2.7334  -2.6812  -2.6561  -2.6209  -2.6023  -2.5877  -2.5669
    -2.5410  -2.4819  -2.4625  -2.4031  -2.3427  -2.2377  -2.2105  -2.1274
    -2.0902  -2.0618  -2.0168  -1.9932  -1.9184  -1.7960  -1.6785  -1.6633
    -1.6013  -1.5880  -1.5232  -1.5150  -1.4699  -1.4314  -1.3708  -1.3050
    -1.2821  -1.2658  -1.2457  -1.2313  -1.1850  -1.1590  -1.1202  -1.0919
    -1.0425  -1.0218  -0.9616  -0.9429  -0.8668  -0.8468  -0.7584  -0.7220
    -0.7058  -0.6429  -0.6243  -0.5643  -0.5353  -0.5087  -0.4541  -0.3676
    -0.3539  -0.2819  -0.1469  -0.1310  -0.1168   0.0993   0.1276   0.1793
     0.2097   0.2790   0.3809   0.4220   0.4672   0.4785   0.5417   0.5662
     0.7212   1.2167   1.2703   1.3814   1.5174   2.7784   3.2825   3.3256
     3.3998   3.4413   3.4444   3.4837   3.5703   3.6414   3.6850   3.7415

          k =-0.0760-0.0839 0.0000 ( 17948 PWs)   bands (ev):

   -56.0030 -55.9885 -55.9605 -55.9582 -55.9535 -55.8847 -55.8752 -55.8242
   -55.7938 -55.7936 -55.7662 -55.7627 -55.7592 -55.6900 -55.0068 -55.0057
   -32.3454 -32.3248 -32.3192 -32.3092 -32.2966 -32.2933 -32.2735 -32.2461
   -32.2374 -32.2267 -32.2168 -32.2102 -32.1687 -32.1581 -32.1507 -32.1402
   -32.1271 -32.1229 -32.1180 -32.1163 -32.1123 -32.1108 -32.0929 -32.0888
   -32.0884 -32.0820 -32.0760 -32.0484 -32.0318 -32.0260 -32.0180 -32.0163
   -32.0082 -31.9953 -31.9840 -31.9775 -31.9748 -31.9722 -31.9617 -31.9481
   -31.9143 -31.8836 -31.3280 -31.3266 -31.2463 -31.2453 -31.2067 -31.2058
   -19.4306 -19.0636 -16.1870 -16.0796 -16.0710 -15.8961 -15.8822 -15.8595
   -15.8172 -15.8073 -15.7146 -15.7119 -15.6682 -15.6549 -15.6288 -15.5946
   -15.5896 -15.5287 -15.5279 -15.5234 -15.4683 -15.4627 -15.4409 -15.4257
   -15.4036 -15.3940 -15.3487 -15.3373 -15.2741 -15.2053 -15.1920 -13.5091
   -13.5069  -7.8993  -6.8905  -4.6052  -3.7018  -3.4691  -3.3216  -3.2902
    -3.2268  -3.1321  -3.1057  -3.0679  -3.0196  -2.9793  -2.9300  -2.8701
    -2.8468  -2.8432  -2.8322  -2.8265  -2.8073  -2.8008  -2.7614  -2.7366
    -2.7044  -2.6766  -2.6579  -2.6350  -2.6293  -2.6113  -2.5867  -2.5757
    -2.5627  -2.5534  -2.4838  -2.4543  -2.3319  -2.3240  -2.2438  -2.2106
    -2.1502  -2.1432  -2.1207  -2.0781  -2.0697  -2.0545  -1.8796  -1.8553
    -1.7466  -1.7387  -1.7181  -1.6884  -1.5992  -1.5310  -1.4945  -1.4749
    -1.4241  -1.4064  -1.3280  -1.2696  -1.2093  -1.1734  -1.1049  -1.0733
    -1.0574  -0.9799  -0.9706  -0.9337  -0.9094  -0.8913  -0.7722  -0.7655
    -0.7299  -0.6943  -0.6635  -0.6100  -0.5625  -0.5456  -0.5075  -0.4563
    -0.3841  -0.3602  -0.1706   0.0110   0.0178   0.0473   0.1379   0.1771
     0.2954   0.3281   0.3335   0.3685   0.4091   0.5028   0.5254   0.5329
     0.6066   1.3607   1.3617   1.4481   1.4591   2.7077   3.3530   3.4124
     3.4764   3.5123   3.6169   3.6343   3.6490   3.6601   3.6967   3.7975

     the Fermi energy is     3.1366 ev

!    total energy              =   -2963.67525919 Ry
     estimated scf accuracy    <       0.00000005 Ry
     smearing contrib. (-TS)   =      -0.02581738 Ry
     internal energy E=F+TS    =   -2963.64944181 Ry

     The total energy is F=E-TS. E is the sum of the following terms:
     one-electron contribution =  -24422.84204412 Ry
     hartree contribution      =   12298.83527937 Ry
     xc contribution           =    -489.18219541 Ry
     ewald contribution        =    9649.53911333 Ry
     electric field correction =       0.00040503 Ry

     convergence has been achieved in  62 iterations

     Forces acting on atoms (cartesian axes, Ry/au):

     atom    1 type  1   force =    -0.00006657    0.00007030    0.10399638
     atom    2 type  1   force =    -0.00005878    0.00006002    0.10401973
     atom    3 type  2   force =    -0.00018240   -0.00195525    0.10278254
     atom    4 type  2   force =    -0.00008372    0.00160737    0.11467425
     atom    5 type  2   force =    -0.00026297    0.00155263   -0.17901149
     atom    6 type  2   force =    -0.00014611   -0.00104429   -0.17938029
     atom    7 type  1   force =    -0.06954779    0.00066191   -0.02929387
     atom    8 type  1   force =    -0.06908813   -0.00122312   -0.02933922
     atom    9 type  1   force =     0.06922708    0.00119112   -0.02934771
     atom   10 type  1   force =     0.06884828   -0.00085625   -0.02942050
     atom   11 type  1   force =     0.00006017    0.00063991    0.04734281
     atom   12 type  1   force =     0.00063964    0.00090478    0.04971166
     atom   13 type  1   force =     0.00021844   -0.00562647   -0.03310304
     atom   14 type  1   force =     0.00028265    0.00398284   -0.02650583
     atom   15 type  2   force =    -0.00015893   -0.00005252   -0.00071603
     atom   16 type  2   force =    -0.00020051   -0.00006659   -0.00076258
     atom   17 type  2   force =     0.00009158   -0.00092835   -0.00006424
     atom   18 type  2   force =     0.00011332    0.00112108   -0.00007205
     atom   19 type  1   force =    -0.01878967   -0.00005689    0.00452977
     atom   20 type  1   force =    -0.01688703    0.00165012    0.00398158
     atom   21 type  1   force =     0.01836973   -0.00109387    0.00451195
     atom   22 type  1   force =     0.01748185    0.00197755    0.00384016
     atom   23 type  1   force =     0.00018072    0.00006031   -0.00075005
     atom   24 type  1   force =     0.00011109   -0.00023341   -0.00029298
     atom   25 type  1   force =    -0.00031499    0.00016117   -0.00070076
     atom   26 type  1   force =    -0.00019620   -0.00004114   -0.00087054
     atom   27 type  2   force =    -0.00021454    0.00044704    0.00035669
     atom   28 type  2   force =     0.00028027    0.00065013    0.00082688
     atom   29 type  2   force =     0.00028772   -0.00011662    0.00100809
     atom   30 type  2   force =    -0.00019582   -0.00023754    0.00018920
     atom   31 type  1   force =     0.00024515   -0.00007437   -0.00035596
     atom   32 type  1   force =     0.00002756    0.00012217   -0.00009145
     atom   33 type  1   force =    -0.00010162   -0.00017580   -0.00071941
     atom   34 type  1   force =     0.00004200    0.00012341   -0.00042533
     atom   35 type  1   force =     0.00010795   -0.00003846   -0.00117265
     atom   36 type  1   force =     0.00012566   -0.00053686    0.00028773
     atom   37 type  1   force =    -0.00019982    0.00016513    0.00007660
     atom   38 type  1   force =     0.00015396   -0.00003751   -0.00063268
     atom   39 type  2   force =    -0.00010992   -0.00046992    0.00084420
     atom   40 type  2   force =    -0.00003493   -0.00078359    0.00021753
     atom   41 type  2   force =     0.00027144   -0.00087470   -0.00014859
     atom   42 type  2   force =     0.00004751    0.00052805    0.00014174
     atom   43 type  1   force =    -0.00080421   -0.00046540    0.00008693
     atom   44 type  1   force =    -0.00015638   -0.00017103    0.00007886
     atom   45 type  1   force =     0.00011490   -0.00031978    0.00015526
     atom   46 type  1   force =     0.00074426   -0.00015935    0.00001752
     atom   47 type  1   force =    -0.00035750    0.00034212    0.00021793
     atom   48 type  1   force =     0.00011656    0.00057939   -0.00007627
     atom   49 type  3   force =    -0.00010121   -0.00011045   -0.00044070
     atom   50 type  4   force =    -0.00056496    0.00080428   -0.00072426
     atom   51 type  1   force =     0.01150706   -0.00549686    0.00328438
     atom   52 type  4   force =    -0.01160321    0.00505399   -0.00397567
     atom   53 type  4   force =     0.00073137   -0.00121043    0.00121378

     Total force =     0.374789     Total SCF correction =     0.000623
  @ DRIVER MODE: Message from server: STATUS
  @ DRIVER MODE: Message from server: GETFORCE
  @ DRIVER MODE: Returning v,forces,stress,ensemble 

     Writing output data file ./calc.save/
  @ DRIVER MODE: Message from server: EXIT
  @ DRIVE MODE: Exiting  
 
     init_run     :     10.54s CPU     10.78s WALL (       1 calls)
     electrons    :    962.21s CPU    975.78s WALL (       1 calls)
     forces       :      2.28s CPU      2.35s WALL (       1 calls)

     Called by init_run:
     wfcinit      :      4.73s CPU      4.81s WALL (       1 calls)
     potinit      :      5.25s CPU      5.31s WALL (       1 calls)
     hinit0       :      0.24s CPU      0.25s WALL (       1 calls)

     Called by electrons:
     c_bands      :    820.19s CPU    825.70s WALL (      62 calls)
     sum_band     :     97.17s CPU    100.43s WALL (      62 calls)
     v_of_rho     :     35.28s CPU     37.00s WALL (      63 calls)
     newd         :     12.94s CPU     16.06s WALL (      63 calls)
     mix_rho      :      1.26s CPU      1.29s WALL (      62 calls)
     vdW_kernel   :      4.54s CPU      4.56s WALL (       1 calls)

     Called by c_bands:
     init_us_2    :      5.70s CPU      5.73s WALL (    1260 calls)
     cegterg      :    803.50s CPU    808.78s WALL (     633 calls)

     Called by *egterg:
     cdiaghg      :    134.63s CPU    135.17s WALL (    6501 calls)
     h_psi        :    428.51s CPU    432.23s WALL (    6511 calls)
     s_psi        :     57.40s CPU     57.59s WALL (    6511 calls)
     g_psi        :      1.52s CPU      1.53s WALL (    5868 calls)

     Called by h_psi:
     h_psi:calbec :     54.75s CPU     55.02s WALL (    6511 calls)
     vloc_psi     :    313.06s CPU    315.98s WALL (    6511 calls)
     add_vuspsi   :     57.97s CPU     58.29s WALL (    6511 calls)

     General routines
     calbec       :     72.77s CPU     73.11s WALL (    7171 calls)
     fft          :     17.62s CPU     17.74s WALL (    3969 calls)
     ffts         :      0.11s CPU      0.11s WALL (     125 calls)
     fftw         :    351.35s CPU    354.63s WALL (  837080 calls)
     interpolate  :      0.36s CPU      0.36s WALL (      63 calls)
     davcio       :      0.00s CPU      0.21s WALL (      10 calls)
 
     Parallel routines
 
     PWSCF        :  16m15.30s CPU  16m29.53s WALL

 
   This run was terminated on:   0:18:21  16Sep2021            

=------------------------------------------------------------------------------=
   JOB DONE.
=------------------------------------------------------------------------------=
