
     Program PWSCF v.6.7GPU starts on  2Aug2021 at 16:21:10 

     This program is part of the open-source Quantum ESPRESSO suite
     for quantum simulation of materials; please cite
         "P. Giannozzi et al., J. Phys.:Condens. Matter 21 395502 (2009);
         "P. Giannozzi et al., J. Phys.:Condens. Matter 29 465901 (2017);
         "P. Giannozzi et al., J. Chem. Phys. 152 154105 (2020);
          URL http://www.quantum-espresso.org", 
     in publications or presentations arising from this work. More details at
     http://www.quantum-espresso.org/quote

     Parallel version (MPI), running on    16 processors

     MPI processes distributed on     1 nodes
     R & G space division:  proc/nbgrp/npool/nimage =      16
     Reading input from /storage/home/hcoda1/3/ntian30/research/carbon/02Aug_vib_paired/ads_slab/CH3NH_a/out_0018/pw.inp
Warning: card &CELL ignored
Warning: card   CELL_DYNAMICS='IPI', ignored
Warning: card / ignored

     Current dimensions of program PWSCF are:
     Max number of different atomic species (ntypx) = 10
     Max number of k-points (npk) =  40000
     Max angular momentum in pseudopotentials (lmaxx) =  3
     Presently no symmetry can be used with electric field

     Message from routine cell_base_init:
     DEPRECATED: use true lattice parameter, not A to a.u. conversion factor

     **************************************************************************
     Initializing libbeef V0.1.2 with the BEEF-vdW functional.
     Citation: Wellendorff et al., PRB 85, 235149 (2012).
     **************************************************************************


     IMPORTANT: XC functional enforced from input :
     Exchange-correlation= BEEF-VDW
                           (   1   4  43  14   2   0   0)
     Any further DFT definition will be discarded
     Please, verify this is what you really want


     Subspace diagonalization in iterative solution of the eigenvalue problem:
     one sub-group per band group will be used
     scalapack distributed-memory algorithm (size of sub-group:  4*  4 procs)

  @ DRIVER MODE: Connecting to 
 qe_1139763_2482540.sched-torque.pace.gatech.edublwoh137_scratch
  using UNIX socket
  @ DRIVER MODE: Message from server: STATUS
  @ DRIVER MODE: Message from server: INIT
  @ DRIVER MODE: Receiving replica           0          -1
  @ DRIVER MODE: Receiving encoded integer          25
  @ DRIVER MODE:  SCF:  T  FORCE:  T  STRESS:  F  VC:  F  ENSEMBLE:  F
  @ DRIVER MODE:  SCF:  T  FORCE:  T  STRESS:  F  VC:  F  ENSEMBLE:  F
 
     Parallelization info
     --------------------
     sticks:   dense  smooth     PW     G-vecs:    dense   smooth      PW
     Min         204      82     23                35422     8962    1367
     Max         205      84     24                35435     8968    1382
     Sum        3275    1317    379               566857   143421   21985
 
     Using Slab Decomposition
 


     bravais-lattice index     =            0
     lattice parameter (alat)  =       1.8897  a.u.
     unit-cell volume          =    6658.9804 (a.u.)^3
     number of atoms/cell      =           53
     number of atomic types    =            5
     number of electrons       =       391.00
     number of Kohn-Sham states=          205
     kinetic-energy cutoff     =      29.3995  Ry
     charge density cutoff     =     293.9946  Ry
     scf convergence threshold =      7.3E-08
     mixing beta               =       0.0500
     number of iterations used =            8  plain     mixing
     Exchange-correlation= BEEF-VDW
                           (   1   4  43  14   2   0   0)

     celldm(1)=   1.889726  celldm(2)=   0.000000  celldm(3)=   0.000000
     celldm(4)=   0.000000  celldm(5)=   0.000000  celldm(6)=   0.000000

     crystal axes: (cart. coord. in units of alat)
               a(1) = (   6.579727   0.000000   0.000000 )  
               a(2) = (  -0.000775   5.961596   0.000000 )  
               a(3) = (   0.000000   0.000000  25.155947 )  

     reciprocal axes: (cart. coord. in units 2 pi/alat)
               b(1) = (  0.151982  0.000020  0.000000 )  
               b(2) = (  0.000000  0.167740  0.000000 )  
               b(3) = (  0.000000  0.000000  0.039752 )  


     PseudoPot. # 1 for Ti read from file:
     /storage/coda1/p-amedford6/0/shared/rich_project_chbe-medford/medford-share/data/pseudos_module/espresso/nninc/pbe/van/Ti.UPF
     MD5 check sum: 8e4df49b7f0d34bbd5052bf3f5ea0213
     Pseudo is Ultrasoft, Zval = 12.0
     Generated by new atomic code, or converted to UPF format
     Using radial grid of  851 points,  6 beta functions with: 
                l(1) =   0
                l(2) =   0
                l(3) =   1
                l(4) =   1
                l(5) =   2
                l(6) =   2
     Q(r) pseudized with  8 coefficients,  rinner =    1.000   1.000   1.000
                                                       1.000   1.000

     PseudoPot. # 2 for O  read from file:
     /storage/coda1/p-amedford6/0/shared/rich_project_chbe-medford/medford-share/data/pseudos_module/espresso/nninc/pbe/van/O.UPF
     MD5 check sum: 78c19812648e8988a0fe644b0f25305e
     Pseudo is Ultrasoft, Zval =  6.0
     Generated by new atomic code, or converted to UPF format
     Using radial grid of  737 points,  4 beta functions with: 
                l(1) =   0
                l(2) =   0
                l(3) =   1
                l(4) =   1
     Q(r) pseudized with  8 coefficients,  rinner =    0.800   0.800   0.800


     PseudoPot. # 3 for H  read from file:
     /storage/coda1/p-amedford6/0/shared/rich_project_chbe-medford/medford-share/data/pseudos_module/espresso/nninc/pbe/van/H.UPF
     MD5 check sum: b5ee9d7bfd3a09ee7748110bda690ff7
     Pseudo is Ultrasoft, Zval =  1.0
     Generated by new atomic code, or converted to UPF format
     Using radial grid of  615 points,  1 beta functions with: 
                l(1) =   0
     Q(r) pseudized with  8 coefficients,  rinner =    0.800

     PseudoPot. # 4 for N  read from file:
     /storage/coda1/p-amedford6/0/shared/rich_project_chbe-medford/medford-share/data/pseudos_module/espresso/nninc/pbe/van/N.UPF
     MD5 check sum: 90d10febe142ad51ac9d5be1deb811c4
     Pseudo is Ultrasoft, Zval =  5.0
     Generated by new atomic code, or converted to UPF format
     Using radial grid of  729 points,  4 beta functions with: 
                l(1) =   0
                l(2) =   0
                l(3) =   1
                l(4) =   1
     Q(r) pseudized with  8 coefficients,  rinner =    0.800   0.800   0.800


     PseudoPot. # 5 for C  read from file:
     /storage/coda1/p-amedford6/0/shared/rich_project_chbe-medford/medford-share/data/pseudos_module/espresso/nninc/pbe/van/C.UPF
     MD5 check sum: 1a69bf6b8db32088f5b2163dbdb77a27
     Pseudo is Ultrasoft, Zval =  4.0
     Generated by new atomic code, or converted to UPF format
     Using radial grid of  721 points,  4 beta functions with: 
                l(1) =   0
                l(2) =   0
                l(3) =   1
                l(4) =   1
     Q(r) pseudized with  8 coefficients,  rinner =    0.800   0.800   0.800


     atomic species   valence    mass     pseudopotential
        Ti1           12.00    47.86700     Ti( 1.00)
        O1             6.00    15.99900     O ( 1.00)
        H1             1.00     1.00800     H ( 1.00)
        N1             5.00    14.00700     N ( 1.00)
        C1             4.00    12.01100     C ( 1.00)

     No symmetry found



   Cartesian axes

     site n.     atom                  positions (alat units)
         1           Ti1 tau(   1) = (   0.0004258   2.9801865   6.0000000  )
         2           Ti1 tau(   2) = (   3.2906075   1.4906267   6.0002472  )
         3           O1  tau(   3) = (   0.0006271   0.0005054   7.9858123  )
         4           O1  tau(   4) = (   3.2906025   0.0005020   7.3038282  )
         5           O1  tau(   5) = (   4.5942328   1.4918067   9.2879030  )
         6           O1  tau(   6) = (   1.9868534   1.4903216   9.2879459  )
         7           Ti1 tau(   7) = (   3.2907910   2.8959150   9.1758416  )
         8           Ti1 tau(   8) = (   0.0015273   1.4827037   9.2680791  )
         9           O1  tau(   9) = (   3.2884659   0.0075485  11.3235732  )
        10           O1  tau(  10) = (   0.0116148   5.9584955  10.6183126  )
        11           O1  tau(  11) = (   1.3171120   1.5008813  12.6157184  )
        12           O1  tau(  12) = (   5.2946386   1.4924346  12.6071097  )
        13           Ti1 tau(  13) = (   6.5241923   2.9548932  12.6217359  )
        14           Ti1 tau(  14) = (   3.2094326   1.4975571  12.4685497  )
        15           O1  tau(  15) = (   6.5712017   0.0435206  14.6415704  )
        16           O1  tau(  16) = (   3.3105969   0.0188825  13.9167609  )
        17           O1  tau(  17) = (   4.5276945   1.5520673  16.0775932  )
        18           O1  tau(  18) = (   2.0451199   1.5488911  16.0433559  )
        19           Ti1 tau(  19) = (   3.3056363   3.0248959  15.6834923  )
        20           Ti1 tau(  20) = (   0.0598299   1.5678558  15.8702049  )
        21           O1  tau(  21) = (   3.2904802   0.0005063   4.7018136  )
        22           O1  tau(  22) = (   0.0261329   0.0581799  17.1997403  )
        23           O1  tau(  23) = (   1.3043587   1.4918075   6.0039043  )
        24           O1  tau(  24) = (   5.2767064   1.4903225   6.0039473  )
        25           Ti1 tau(  25) = (   0.0000382   5.9609847   6.0000000  )
        26           Ti1 tau(  26) = (   3.2902200   4.4714249   6.0002472  )
        27           O1  tau(  27) = (   0.0002396   2.9813036   7.9858123  )
        28           O1  tau(  28) = (   3.2902150   2.9813002   7.3038282  )
        29           O1  tau(  29) = (   4.5938453   4.4726049   9.2879030  )
        30           O1  tau(  30) = (   1.9864658   4.4711199   9.2879459  )
        31           Ti1 tau(  31) = (   3.2891106   5.8743827   9.1763621  )
        32           Ti1 tau(  32) = (   0.0006254   4.4649316   9.2693709  )
        33           O1  tau(  33) = (   3.2900467   2.9919642  11.3219399  )
        34           O1  tau(  34) = (   0.0092240   2.9805883  10.6323155  )
        35           O1  tau(  35) = (   1.3109590   4.4888342  12.6262493  )
        36           O1  tau(  36) = (   5.2962169   4.4808628  12.6191006  )
        37           Ti1 tau(  37) = (   6.5213093   5.9327278  12.5667326  )
        38           Ti1 tau(  38) = (   3.2063601   4.4772876  12.4706241  )
        39           O1  tau(  39) = (   6.5765807   2.9606619  14.6437028  )
        40           O1  tau(  40) = (   3.3047873   3.0036736  13.8926904  )
        41           O1  tau(  41) = (   4.5386289   4.5058657  16.0833063  )
        42           O1  tau(  42) = (   2.0584685   4.5123608  16.0729366  )
        43           Ti1 tau(  43) = (   3.3398093   0.0384087  15.7085799  )
        44           Ti1 tau(  44) = (   0.0478225   4.6849499  16.0879628  )
        45           O1  tau(  45) = (   3.2900926   2.9813045   4.7018136  )
        46           O1  tau(  46) = (   1.3039711   4.4726057   6.0039043  )
        47           O1  tau(  47) = (   5.2763189   4.4711207   6.0039473  )
        48           H1  tau(  48) = (   5.6109407   2.9912845  17.7881963  )
        49           N1  tau(  49) = (   6.5652763   3.0051276  17.4431066  )
        50           C1  tau(  50) = (   0.8863280   2.9891452  18.6226320  )
        51           H1  tau(  51) = (   1.3596840   3.9617220  18.7724638  )
        52           H1  tau(  52) = (   0.3315535   2.7344040  19.5171108  )
        53           H1  tau(  53) = (   1.6705027   2.2407838  18.4910999  )

     number of k points=    10  Fermi-Dirac smearing, width (Ry)=  0.0073
                       cart. coord. in units 2pi/alat
        k(    1) = (   0.0000000   0.0000000   0.0000000), wk =   0.1250000
        k(    2) = (   0.0000000   0.0419351   0.0000000), wk =   0.2500000
        k(    3) = (   0.0000000  -0.0838702   0.0000000), wk =   0.1250000
        k(    4) = (   0.0379955   0.0000049   0.0000000), wk =   0.2500000
        k(    5) = (   0.0379955   0.0419400   0.0000000), wk =   0.2500000
        k(    6) = (   0.0379955  -0.0838652   0.0000000), wk =   0.2500000
        k(    7) = (   0.0379955  -0.0419301   0.0000000), wk =   0.2500000
        k(    8) = (  -0.0759910  -0.0000099   0.0000000), wk =   0.1250000
        k(    9) = (  -0.0759910   0.0419252   0.0000000), wk =   0.2500000
        k(   10) = (  -0.0759910  -0.0838800   0.0000000), wk =   0.1250000

     Dense  grid:   566857 G-vectors     FFT dimensions: (  72,  64, 270)

     Smooth grid:   143421 G-vectors     FFT dimensions: (  45,  40, 180)

     Estimated max dynamical RAM per process >     229.32 MB

     Estimated total dynamical RAM >       3.58 GB
     Cannot read rho : file not found

     Initial potential from superposition of free atoms

     starting charge  374.99916, renormalised to  391.00000

     negative rho (up, down):  1.778E-02 0.000E+00


     %%%%%%%%%%%%%%%%%%%%%%%%%%%%%%%%%%%%%%%%%%%%%%%%%%%%%%%%%%%%%%%%%%%%%%%%
     %                                                                      %
     % You are using vdW-DF, which was implemented by the Thonhauser group. %
     % Please cite the following two papers that made this development      %
     % possible and the two reviews that describe the various versions:     %
     %                                                                      %
     %   T. Thonhauser et al., PRL 115, 136402 (2015).                      %
     %   T. Thonhauser et al., PRB 76, 125112 (2007).                       %
     %   K. Berland et al., Rep. Prog. Phys. 78, 066501 (2015).             %
     %   D.C. Langreth et al., J. Phys.: Condens. Matter 21, 084203 (2009). %
     %                                                                      %
     %                                                                      %
     % If you are calculating the stress with vdW-DF, please also cite:     %
     %                                                                      %
     %   R. Sabatini et al., J. Phys.: Condens. Matter 24, 424209 (2012).   %
     %                                                                      %
     %%%%%%%%%%%%%%%%%%%%%%%%%%%%%%%%%%%%%%%%%%%%%%%%%%%%%%%%%%%%%%%%%%%%%%%%


 
     Adding external electric field

     Computed dipole along edir(3) : 
        Dipole               -5.8116 Ry au,        -14.7717 Debye
        Dipole field         -0.0110 Ry au, 
 
        Potential amp.        1.0167 Ry
        Total length         46.3494 bohr
 
     Starting wfcs are  296 atomic wfcs
  @ DRIVER MODE: Message from server: STATUS
  @ DRIVER MODE: Message from server: POSDATA
  @ DRIVER MODE: Reading and sharing cell 
  @ DRIVER MODE: Reading and sharing positions 
  @ DRIVER MODE: Received positions 

     total cpu time spent up to now is       22.2 secs

     Self-consistent Calculation

     iteration #  1     ecut=    29.40 Ry     beta= 0.05
     Davidson diagonalization with overlap
     c_bands:  3 eigenvalues not converged
     c_bands:  1 eigenvalues not converged
     c_bands:  1 eigenvalues not converged
     c_bands:  2 eigenvalues not converged
     c_bands:  4 eigenvalues not converged
     c_bands:  2 eigenvalues not converged
     c_bands:  1 eigenvalues not converged
     c_bands:  1 eigenvalues not converged
     c_bands:  2 eigenvalues not converged
     ethr =  1.00E-05,  avg # of iterations = 19.5

     negative rho (up, down):  1.705E-02 0.000E+00
 
     Adding external electric field

     Computed dipole along edir(3) : 
        Dipole               25.9932 Ry au,         66.0681 Debye
        Dipole field          0.0491 Ry au, 
 
        Potential amp.       -4.5471 Ry
        Total length         46.3494 bohr
 

     total cpu time spent up to now is       50.1 secs

     total energy              =   -2770.82944742 Ry
     estimated scf accuracy    <    1639.54783483 Ry

     iteration #  2     ecut=    29.40 Ry     beta= 0.05
     Davidson diagonalization with overlap
     ethr =  1.00E-02,  avg # of iterations = 18.7

     negative rho (up, down):  6.652E-03 0.000E+00
 
     Adding external electric field

     Computed dipole along edir(3) : 
        Dipole               -2.4099 Ry au,         -6.1255 Debye
        Dipole field         -0.0045 Ry au, 
 
        Potential amp.        0.4216 Ry
        Total length         46.3494 bohr
 

     total cpu time spent up to now is       84.5 secs

     total energy              =   -2640.98182300 Ry
     estimated scf accuracy    <   36934.59354650 Ry

     iteration #  3     ecut=    29.40 Ry     beta= 0.05
     Davidson diagonalization with overlap
     ethr =  1.00E-02,  avg # of iterations = 14.9

     negative rho (up, down):  6.707E-03 0.000E+00
 
     Adding external electric field

     Computed dipole along edir(3) : 
        Dipole               -3.5711 Ry au,         -9.0768 Debye
        Dipole field         -0.0067 Ry au, 
 
        Potential amp.        0.6247 Ry
        Total length         46.3494 bohr
 

     total cpu time spent up to now is      112.1 secs

     total energy              =   -2907.71141057 Ry
     estimated scf accuracy    <    1420.58826507 Ry

     iteration #  4     ecut=    29.40 Ry     beta= 0.05
     Davidson diagonalization with overlap
     ethr =  1.00E-02,  avg # of iterations =  7.3

     negative rho (up, down):  6.811E-03 0.000E+00
 
     Adding external electric field

     Computed dipole along edir(3) : 
        Dipole               -4.5845 Ry au,        -11.6525 Debye
        Dipole field         -0.0087 Ry au, 
 
        Potential amp.        0.8020 Ry
        Total length         46.3494 bohr
 

     total cpu time spent up to now is      120.9 secs

     total energy              =   -2902.49355094 Ry
     estimated scf accuracy    <     889.62694065 Ry

     iteration #  5     ecut=    29.40 Ry     beta= 0.05
     Davidson diagonalization with overlap
     ethr =  1.00E-02,  avg # of iterations =  9.4

     negative rho (up, down):  6.651E-03 0.000E+00
 
     Adding external electric field

     Computed dipole along edir(3) : 
        Dipole               -4.2957 Ry au,        -10.9187 Debye
        Dipole field         -0.0081 Ry au, 
 
        Potential amp.        0.7515 Ry
        Total length         46.3494 bohr
 

     total cpu time spent up to now is      134.1 secs

     total energy              =   -2922.66717647 Ry
     estimated scf accuracy    <      12.80454392 Ry

     iteration #  6     ecut=    29.40 Ry     beta= 0.05
     Davidson diagonalization with overlap
     ethr =  3.27E-03,  avg # of iterations =  2.6

     negative rho (up, down):  6.889E-03 0.000E+00
 
     Adding external electric field

     Computed dipole along edir(3) : 
        Dipole               -2.1349 Ry au,         -5.4263 Debye
        Dipole field         -0.0040 Ry au, 
 
        Potential amp.        0.3735 Ry
        Total length         46.3494 bohr
 

     total cpu time spent up to now is      141.7 secs

     total energy              =   -2919.17042847 Ry
     estimated scf accuracy    <      11.72429060 Ry

     iteration #  7     ecut=    29.40 Ry     beta= 0.05
     Davidson diagonalization with overlap
     ethr =  3.00E-03,  avg # of iterations =  8.2

     negative rho (up, down):  6.918E-03 0.000E+00
 
     Adding external electric field

     Computed dipole along edir(3) : 
        Dipole               -1.8520 Ry au,         -4.7072 Debye
        Dipole field         -0.0035 Ry au, 
 
        Potential amp.        0.3240 Ry
        Total length         46.3494 bohr
 

     total cpu time spent up to now is      151.4 secs

     total energy              =   -2923.03250675 Ry
     estimated scf accuracy    <     197.81972386 Ry

     iteration #  8     ecut=    29.40 Ry     beta= 0.05
     Davidson diagonalization with overlap
     ethr =  3.00E-03,  avg # of iterations =  3.2

     negative rho (up, down):  6.898E-03 0.000E+00
 
     Adding external electric field

     Computed dipole along edir(3) : 
        Dipole               -1.9262 Ry au,         -4.8959 Debye
        Dipole field         -0.0036 Ry au, 
 
        Potential amp.        0.3370 Ry
        Total length         46.3494 bohr
 

     total cpu time spent up to now is      159.1 secs

     total energy              =   -2922.03655589 Ry
     estimated scf accuracy    <     218.62502389 Ry

     iteration #  9     ecut=    29.40 Ry     beta= 0.05
     Davidson diagonalization with overlap
     ethr =  3.00E-03,  avg # of iterations =  1.1

     negative rho (up, down):  6.729E-03 0.000E+00
 
     Adding external electric field

     Computed dipole along edir(3) : 
        Dipole               -3.0837 Ry au,         -7.8380 Debye
        Dipole field         -0.0058 Ry au, 
 
        Potential amp.        0.5394 Ry
        Total length         46.3494 bohr
 

     total cpu time spent up to now is      165.9 secs

     total energy              =   -2914.77933381 Ry
     estimated scf accuracy    <     200.76968608 Ry

     iteration # 10     ecut=    29.40 Ry     beta= 0.05
     Davidson diagonalization with overlap
     ethr =  3.00E-03,  avg # of iterations =  7.0

     negative rho (up, down):  6.850E-03 0.000E+00
 
     Adding external electric field

     Computed dipole along edir(3) : 
        Dipole               -2.3463 Ry au,         -5.9636 Debye
        Dipole field         -0.0044 Ry au, 
 
        Potential amp.        0.4104 Ry
        Total length         46.3494 bohr
 

     total cpu time spent up to now is      175.2 secs

     total energy              =   -2920.20469360 Ry
     estimated scf accuracy    <       1.66104306 Ry

     iteration # 11     ecut=    29.40 Ry     beta= 0.05
     Davidson diagonalization with overlap
     c_bands:  3 eigenvalues not converged
     ethr =  4.25E-04,  avg # of iterations = 14.1

     negative rho (up, down):  6.736E-03 0.000E+00
 
     Adding external electric field

     Computed dipole along edir(3) : 
        Dipole               -2.4982 Ry au,         -6.3498 Debye
        Dipole field         -0.0047 Ry au, 
 
        Potential amp.        0.4370 Ry
        Total length         46.3494 bohr
 

     total cpu time spent up to now is      189.8 secs

     total energy              =   -2920.59010717 Ry
     estimated scf accuracy    <       2.87156482 Ry

     iteration # 12     ecut=    29.40 Ry     beta= 0.05
     Davidson diagonalization with overlap
     ethr =  4.25E-04,  avg # of iterations =  2.5

     negative rho (up, down):  6.693E-03 0.000E+00
 
     Adding external electric field

     Computed dipole along edir(3) : 
        Dipole               -2.4983 Ry au,         -6.3500 Debye
        Dipole field         -0.0047 Ry au, 
 
        Potential amp.        0.4370 Ry
        Total length         46.3494 bohr
 

     total cpu time spent up to now is      197.4 secs

     total energy              =   -2920.47426729 Ry
     estimated scf accuracy    <       1.67862688 Ry

     iteration # 13     ecut=    29.40 Ry     beta= 0.05
     Davidson diagonalization with overlap
     c_bands:  2 eigenvalues not converged
     c_bands:  2 eigenvalues not converged
     ethr =  4.25E-04,  avg # of iterations = 16.1

     negative rho (up, down):  6.868E-03 0.000E+00
 
     Adding external electric field

     Computed dipole along edir(3) : 
        Dipole               -1.7032 Ry au,         -4.3291 Debye
        Dipole field         -0.0032 Ry au, 
 
        Potential amp.        0.2979 Ry
        Total length         46.3494 bohr
 

     total cpu time spent up to now is      210.3 secs

     total energy              =   -2920.44857131 Ry
     estimated scf accuracy    <       1.55273499 Ry

     iteration # 14     ecut=    29.40 Ry     beta= 0.05
     Davidson diagonalization with overlap
     ethr =  3.97E-04,  avg # of iterations =  3.1

     negative rho (up, down):  7.192E-03 0.000E+00
 
     Adding external electric field

     Computed dipole along edir(3) : 
        Dipole               -0.8780 Ry au,         -2.2317 Debye
        Dipole field         -0.0017 Ry au, 
 
        Potential amp.        0.1536 Ry
        Total length         46.3494 bohr
 

     total cpu time spent up to now is      217.9 secs

     total energy              =   -2920.38591117 Ry
     estimated scf accuracy    <       0.78302478 Ry

     iteration # 15     ecut=    29.40 Ry     beta= 0.05
     Davidson diagonalization with overlap
     c_bands:  4 eigenvalues not converged
     ethr =  2.00E-04,  avg # of iterations = 13.2

     negative rho (up, down):  7.198E-03 0.000E+00
 
     Adding external electric field

     Computed dipole along edir(3) : 
        Dipole               -0.8564 Ry au,         -2.1768 Debye
        Dipole field         -0.0016 Ry au, 
 
        Potential amp.        0.1498 Ry
        Total length         46.3494 bohr
 

     total cpu time spent up to now is      228.9 secs

     total energy              =   -2920.43556344 Ry
     estimated scf accuracy    <       0.53168119 Ry

     iteration # 16     ecut=    29.40 Ry     beta= 0.05
     Davidson diagonalization with overlap
     ethr =  1.36E-04,  avg # of iterations =  5.5

     negative rho (up, down):  7.718E-03 0.000E+00
 
     Adding external electric field

     Computed dipole along edir(3) : 
        Dipole               -0.6353 Ry au,         -1.6146 Debye
        Dipole field         -0.0012 Ry au, 
 
        Potential amp.        0.1111 Ry
        Total length         46.3494 bohr
 

     total cpu time spent up to now is      237.3 secs

     total energy              =   -2920.45767052 Ry
     estimated scf accuracy    <       0.63139715 Ry

     iteration # 17     ecut=    29.40 Ry     beta= 0.05
     Davidson diagonalization with overlap
     c_bands:  2 eigenvalues not converged
     c_bands:  2 eigenvalues not converged
     c_bands:  1 eigenvalues not converged
     c_bands:  1 eigenvalues not converged
     ethr =  1.36E-04,  avg # of iterations = 14.6

     negative rho (up, down):  8.852E-03 0.000E+00
 
     Adding external electric field

     Computed dipole along edir(3) : 
        Dipole               -0.0645 Ry au,         -0.1640 Debye
        Dipole field         -0.0001 Ry au, 
 
        Potential amp.        0.0113 Ry
        Total length         46.3494 bohr
 

     total cpu time spent up to now is      249.7 secs

     total energy              =   -2920.42946801 Ry
     estimated scf accuracy    <       0.92415921 Ry

     iteration # 18     ecut=    29.40 Ry     beta= 0.05
     Davidson diagonalization with overlap
     ethr =  1.36E-04,  avg # of iterations =  6.6

     negative rho (up, down):  1.048E-02 0.000E+00
 
     Adding external electric field

     Computed dipole along edir(3) : 
        Dipole                0.3420 Ry au,          0.8692 Debye
        Dipole field          0.0006 Ry au, 
 
        Potential amp.       -0.0598 Ry
        Total length         46.3494 bohr
 

     total cpu time spent up to now is      258.3 secs

     total energy              =   -2920.38263839 Ry
     estimated scf accuracy    <       0.59254426 Ry

     iteration # 19     ecut=    29.40 Ry     beta= 0.05
     Davidson diagonalization with overlap
     ethr =  1.36E-04,  avg # of iterations = 13.1

     negative rho (up, down):  1.125E-02 0.000E+00
 
     Adding external electric field

     Computed dipole along edir(3) : 
        Dipole                0.4446 Ry au,          1.1301 Debye
        Dipole field          0.0008 Ry au, 
 
        Potential amp.       -0.0778 Ry
        Total length         46.3494 bohr
 

     total cpu time spent up to now is      273.5 secs

     total energy              =   -2920.44594218 Ry
     estimated scf accuracy    <       0.28710888 Ry

     iteration # 20     ecut=    29.40 Ry     beta= 0.05
     Davidson diagonalization with overlap
     c_bands:  1 eigenvalues not converged
     c_bands:  5 eigenvalues not converged
     c_bands:  2 eigenvalues not converged
     c_bands:  5 eigenvalues not converged
     c_bands:  3 eigenvalues not converged
     ethr =  7.34E-05,  avg # of iterations = 18.7

     negative rho (up, down):  1.071E-02 0.000E+00
 
     Adding external electric field

     Computed dipole along edir(3) : 
        Dipole                0.5025 Ry au,          1.2771 Debye
        Dipole field          0.0009 Ry au, 
 
        Potential amp.       -0.0879 Ry
        Total length         46.3494 bohr
 

     total cpu time spent up to now is      291.4 secs

     total energy              =   -2920.43591653 Ry
     estimated scf accuracy    <       0.49751076 Ry

     iteration # 21     ecut=    29.40 Ry     beta= 0.05
     Davidson diagonalization with overlap
     ethr =  7.34E-05,  avg # of iterations =  6.9

     negative rho (up, down):  1.206E-02 0.000E+00
 
     Adding external electric field

     Computed dipole along edir(3) : 
        Dipole                0.5431 Ry au,          1.3805 Debye
        Dipole field          0.0010 Ry au, 
 
        Potential amp.       -0.0950 Ry
        Total length         46.3494 bohr
 

     total cpu time spent up to now is      300.1 secs

     total energy              =   -2920.40777345 Ry
     estimated scf accuracy    <       0.36083311 Ry

     iteration # 22     ecut=    29.40 Ry     beta= 0.05
     Davidson diagonalization with overlap
     ethr =  7.34E-05,  avg # of iterations =  4.2

     negative rho (up, down):  1.085E-02 0.000E+00
 
     Adding external electric field

     Computed dipole along edir(3) : 
        Dipole                0.4704 Ry au,          1.1956 Debye
        Dipole field          0.0009 Ry au, 
 
        Potential amp.       -0.0823 Ry
        Total length         46.3494 bohr
 

     total cpu time spent up to now is      308.3 secs

     total energy              =   -2920.42195433 Ry
     estimated scf accuracy    <       0.23055912 Ry

     iteration # 23     ecut=    29.40 Ry     beta= 0.05
     Davidson diagonalization with overlap
     ethr =  5.90E-05,  avg # of iterations =  1.1

     negative rho (up, down):  1.201E-02 0.000E+00
 
     Adding external electric field

     Computed dipole along edir(3) : 
        Dipole                0.5310 Ry au,          1.3496 Debye
        Dipole field          0.0010 Ry au, 
 
        Potential amp.       -0.0929 Ry
        Total length         46.3494 bohr
 

     total cpu time spent up to now is      315.2 secs

     total energy              =   -2920.42883604 Ry
     estimated scf accuracy    <       0.20484872 Ry

     iteration # 24     ecut=    29.40 Ry     beta= 0.05
     Davidson diagonalization with overlap
     ethr =  5.24E-05,  avg # of iterations =  1.2

     negative rho (up, down):  9.545E-03 0.000E+00
 
     Adding external electric field

     Computed dipole along edir(3) : 
        Dipole                0.3373 Ry au,          0.8572 Debye
        Dipole field          0.0006 Ry au, 
 
        Potential amp.       -0.0590 Ry
        Total length         46.3494 bohr
 

     total cpu time spent up to now is      322.1 secs

     total energy              =   -2920.36893665 Ry
     estimated scf accuracy    <       0.21259677 Ry

     iteration # 25     ecut=    29.40 Ry     beta= 0.05
     Davidson diagonalization with overlap
     c_bands:  5 eigenvalues not converged
     c_bands:  1 eigenvalues not converged
     c_bands:  5 eigenvalues not converged
     ethr =  5.24E-05,  avg # of iterations = 16.7

     negative rho (up, down):  1.156E-02 0.000E+00
 
     Adding external electric field

     Computed dipole along edir(3) : 
        Dipole                0.5607 Ry au,          1.4251 Debye
        Dipole field          0.0011 Ry au, 
 
        Potential amp.       -0.0981 Ry
        Total length         46.3494 bohr
 

     total cpu time spent up to now is      337.4 secs

     total energy              =   -2920.40531451 Ry
     estimated scf accuracy    <       0.21061093 Ry

     iteration # 26     ecut=    29.40 Ry     beta= 0.05
     Davidson diagonalization with overlap
     ethr =  5.24E-05,  avg # of iterations =  6.2

     negative rho (up, down):  1.113E-02 0.000E+00
 
     Adding external electric field

     Computed dipole along edir(3) : 
        Dipole                0.5992 Ry au,          1.5229 Debye
        Dipole field          0.0011 Ry au, 
 
        Potential amp.       -0.1048 Ry
        Total length         46.3494 bohr
 

     total cpu time spent up to now is      346.0 secs

     total energy              =   -2920.40705809 Ry
     estimated scf accuracy    <       0.07391231 Ry

     iteration # 27     ecut=    29.40 Ry     beta= 0.05
     Davidson diagonalization with overlap
     c_bands:  1 eigenvalues not converged
     c_bands:  1 eigenvalues not converged
     c_bands:  2 eigenvalues not converged
     ethr =  1.89E-05,  avg # of iterations = 16.5

     negative rho (up, down):  1.310E-02 0.000E+00
 
     Adding external electric field

     Computed dipole along edir(3) : 
        Dipole                0.6361 Ry au,          1.6169 Debye
        Dipole field          0.0012 Ry au, 
 
        Potential amp.       -0.1113 Ry
        Total length         46.3494 bohr
 

     total cpu time spent up to now is      362.4 secs

     total energy              =   -2920.41077110 Ry
     estimated scf accuracy    <       0.08657635 Ry

     iteration # 28     ecut=    29.40 Ry     beta= 0.05
     Davidson diagonalization with overlap
     ethr =  1.89E-05,  avg # of iterations =  7.7

     negative rho (up, down):  1.573E-02 0.000E+00
 
     Adding external electric field

     Computed dipole along edir(3) : 
        Dipole                0.6879 Ry au,          1.7485 Debye
        Dipole field          0.0013 Ry au, 
 
        Potential amp.       -0.1203 Ry
        Total length         46.3494 bohr
 

     total cpu time spent up to now is      378.4 secs

     total energy              =   -2920.41669842 Ry
     estimated scf accuracy    <       0.01558551 Ry

     iteration # 29     ecut=    29.40 Ry     beta= 0.05
     Davidson diagonalization with overlap
     c_bands:  1 eigenvalues not converged
     c_bands:  1 eigenvalues not converged
     c_bands:  1 eigenvalues not converged
     c_bands:  1 eigenvalues not converged
     c_bands:  2 eigenvalues not converged
     c_bands:  1 eigenvalues not converged
     ethr =  3.99E-06,  avg # of iterations = 18.4

     negative rho (up, down):  1.750E-02 0.000E+00
 
     Adding external electric field

     Computed dipole along edir(3) : 
        Dipole                0.7421 Ry au,          1.8862 Debye
        Dipole field          0.0014 Ry au, 
 
        Potential amp.       -0.1298 Ry
        Total length         46.3494 bohr
 

     total cpu time spent up to now is      393.4 secs

     total energy              =   -2920.41859671 Ry
     estimated scf accuracy    <       0.01160033 Ry

     iteration # 30     ecut=    29.40 Ry     beta= 0.05
     Davidson diagonalization with overlap
     c_bands:  1 eigenvalues not converged
     c_bands:  3 eigenvalues not converged
     ethr =  2.97E-06,  avg # of iterations = 14.4

     negative rho (up, down):  1.793E-02 0.000E+00
 
     Adding external electric field

     Computed dipole along edir(3) : 
        Dipole                0.7265 Ry au,          1.8465 Debye
        Dipole field          0.0014 Ry au, 
 
        Potential amp.       -0.1271 Ry
        Total length         46.3494 bohr
 

     total cpu time spent up to now is      404.5 secs

     total energy              =   -2920.41922792 Ry
     estimated scf accuracy    <       0.00829939 Ry

     iteration # 31     ecut=    29.40 Ry     beta= 0.05
     Davidson diagonalization with overlap
     c_bands:  1 eigenvalues not converged
     c_bands:  1 eigenvalues not converged
     c_bands:  1 eigenvalues not converged
     c_bands:  2 eigenvalues not converged
     ethr =  2.12E-06,  avg # of iterations = 14.5

     negative rho (up, down):  1.781E-02 0.000E+00
 
     Adding external electric field

     Computed dipole along edir(3) : 
        Dipole                0.7025 Ry au,          1.7855 Debye
        Dipole field          0.0013 Ry au, 
 
        Potential amp.       -0.1229 Ry
        Total length         46.3494 bohr
 

     total cpu time spent up to now is      416.7 secs

     total energy              =   -2920.41901136 Ry
     estimated scf accuracy    <       0.01124725 Ry

     iteration # 32     ecut=    29.40 Ry     beta= 0.05
     Davidson diagonalization with overlap
     ethr =  2.12E-06,  avg # of iterations =  3.5

     negative rho (up, down):  1.908E-02 0.000E+00
 
     Adding external electric field

     Computed dipole along edir(3) : 
        Dipole                0.7335 Ry au,          1.8644 Debye
        Dipole field          0.0014 Ry au, 
 
        Potential amp.       -0.1283 Ry
        Total length         46.3494 bohr
 

     total cpu time spent up to now is      424.3 secs

     total energy              =   -2920.41820060 Ry
     estimated scf accuracy    <       0.00675740 Ry

     iteration # 33     ecut=    29.40 Ry     beta= 0.05
     Davidson diagonalization with overlap
     c_bands:  1 eigenvalues not converged
     c_bands:  1 eigenvalues not converged
     c_bands:  1 eigenvalues not converged
     ethr =  1.73E-06,  avg # of iterations = 13.8

     negative rho (up, down):  1.906E-02 0.000E+00
 
     Adding external electric field

     Computed dipole along edir(3) : 
        Dipole                0.7326 Ry au,          1.8621 Debye
        Dipole field          0.0014 Ry au, 
 
        Potential amp.       -0.1282 Ry
        Total length         46.3494 bohr
 

     total cpu time spent up to now is      436.9 secs

     total energy              =   -2920.41898186 Ry
     estimated scf accuracy    <       0.00141232 Ry

     iteration # 34     ecut=    29.40 Ry     beta= 0.05
     Davidson diagonalization with overlap
     ethr =  3.61E-07,  avg # of iterations = 11.5

     negative rho (up, down):  1.927E-02 0.000E+00
 
     Adding external electric field

     Computed dipole along edir(3) : 
        Dipole                0.7180 Ry au,          1.8250 Debye
        Dipole field          0.0014 Ry au, 
 
        Potential amp.       -0.1256 Ry
        Total length         46.3494 bohr
 

     total cpu time spent up to now is      451.8 secs

     total energy              =   -2920.41899420 Ry
     estimated scf accuracy    <       0.00124253 Ry

     iteration # 35     ecut=    29.40 Ry     beta= 0.05
     Davidson diagonalization with overlap
     ethr =  3.18E-07,  avg # of iterations = 10.2

     negative rho (up, down):  1.889E-02 0.000E+00
 
     Adding external electric field

     Computed dipole along edir(3) : 
        Dipole                0.7033 Ry au,          1.7877 Debye
        Dipole field          0.0013 Ry au, 
 
        Potential amp.       -0.1230 Ry
        Total length         46.3494 bohr
 

     total cpu time spent up to now is      465.0 secs

     total energy              =   -2920.41925931 Ry
     estimated scf accuracy    <       0.00055283 Ry

     iteration # 36     ecut=    29.40 Ry     beta= 0.05
     Davidson diagonalization with overlap
     ethr =  1.41E-07,  avg # of iterations = 13.8

     negative rho (up, down):  1.875E-02 0.000E+00
 
     Adding external electric field

     Computed dipole along edir(3) : 
        Dipole                0.7042 Ry au,          1.7900 Debye
        Dipole field          0.0013 Ry au, 
 
        Potential amp.       -0.1232 Ry
        Total length         46.3494 bohr
 

     total cpu time spent up to now is      478.4 secs

     total energy              =   -2920.41928709 Ry
     estimated scf accuracy    <       0.00070706 Ry

     iteration # 37     ecut=    29.40 Ry     beta= 0.05
     Davidson diagonalization with overlap
     ethr =  1.41E-07,  avg # of iterations =  4.1

     negative rho (up, down):  1.874E-02 0.000E+00
 
     Adding external electric field

     Computed dipole along edir(3) : 
        Dipole                0.7130 Ry au,          1.8124 Debye
        Dipole field          0.0013 Ry au, 
 
        Potential amp.       -0.1247 Ry
        Total length         46.3494 bohr
 

     total cpu time spent up to now is      486.5 secs

     total energy              =   -2920.41925663 Ry
     estimated scf accuracy    <       0.00038867 Ry

     iteration # 38     ecut=    29.40 Ry     beta= 0.05
     Davidson diagonalization with overlap
     ethr =  9.94E-08,  avg # of iterations = 10.1

     negative rho (up, down):  1.877E-02 0.000E+00
 
     Adding external electric field

     Computed dipole along edir(3) : 
        Dipole                0.7129 Ry au,          1.8121 Debye
        Dipole field          0.0013 Ry au, 
 
        Potential amp.       -0.1247 Ry
        Total length         46.3494 bohr
 

     total cpu time spent up to now is      499.8 secs

     total energy              =   -2920.41940857 Ry
     estimated scf accuracy    <       0.00033370 Ry

     iteration # 39     ecut=    29.40 Ry     beta= 0.05
     Davidson diagonalization with overlap
     ethr =  8.53E-08,  avg # of iterations =  2.0

     negative rho (up, down):  1.880E-02 0.000E+00
 
     Adding external electric field

     Computed dipole along edir(3) : 
        Dipole                0.7090 Ry au,          1.8022 Debye
        Dipole field          0.0013 Ry au, 
 
        Potential amp.       -0.1240 Ry
        Total length         46.3494 bohr
 

     total cpu time spent up to now is      507.3 secs

     total energy              =   -2920.41942298 Ry
     estimated scf accuracy    <       0.00021290 Ry

     iteration # 40     ecut=    29.40 Ry     beta= 0.05
     Davidson diagonalization with overlap
     ethr =  5.45E-08,  avg # of iterations =  7.3

     negative rho (up, down):  1.858E-02 0.000E+00
 
     Adding external electric field

     Computed dipole along edir(3) : 
        Dipole                0.7055 Ry au,          1.7931 Debye
        Dipole field          0.0013 Ry au, 
 
        Potential amp.       -0.1234 Ry
        Total length         46.3494 bohr
 

     total cpu time spent up to now is      518.2 secs

     total energy              =   -2920.41948484 Ry
     estimated scf accuracy    <       0.00006524 Ry

     iteration # 41     ecut=    29.40 Ry     beta= 0.05
     Davidson diagonalization with overlap
     ethr =  1.67E-08,  avg # of iterations =  6.4

     negative rho (up, down):  1.849E-02 0.000E+00
 
     Adding external electric field

     Computed dipole along edir(3) : 
        Dipole                0.7047 Ry au,          1.7911 Debye
        Dipole field          0.0013 Ry au, 
 
        Potential amp.       -0.1233 Ry
        Total length         46.3494 bohr
 

     total cpu time spent up to now is      536.5 secs

     total energy              =   -2920.41951506 Ry
     estimated scf accuracy    <       0.00001982 Ry

     iteration # 42     ecut=    29.40 Ry     beta= 0.05
     Davidson diagonalization with overlap
     ethr =  5.07E-09,  avg # of iterations =  9.6

     negative rho (up, down):  1.846E-02 0.000E+00
 
     Adding external electric field

     Computed dipole along edir(3) : 
        Dipole                0.7042 Ry au,          1.7899 Debye
        Dipole field          0.0013 Ry au, 
 
        Potential amp.       -0.1232 Ry
        Total length         46.3494 bohr
 

     total cpu time spent up to now is      547.7 secs

     total energy              =   -2920.41954166 Ry
     estimated scf accuracy    <       0.00001196 Ry

     iteration # 43     ecut=    29.40 Ry     beta= 0.05
     Davidson diagonalization with overlap
     ethr =  3.06E-09,  avg # of iterations =  2.8

     negative rho (up, down):  1.841E-02 0.000E+00
 
     Adding external electric field

     Computed dipole along edir(3) : 
        Dipole                0.7038 Ry au,          1.7888 Debye
        Dipole field          0.0013 Ry au, 
 
        Potential amp.       -0.1231 Ry
        Total length         46.3494 bohr
 

     total cpu time spent up to now is      555.4 secs

     total energy              =   -2920.41956525 Ry
     estimated scf accuracy    <       0.00000867 Ry

     iteration # 44     ecut=    29.40 Ry     beta= 0.05
     Davidson diagonalization with overlap
     ethr =  2.22E-09,  avg # of iterations = 13.5

     negative rho (up, down):  1.835E-02 0.000E+00
 
     Adding external electric field

     Computed dipole along edir(3) : 
        Dipole                0.7027 Ry au,          1.7861 Debye
        Dipole field          0.0013 Ry au, 
 
        Potential amp.       -0.1229 Ry
        Total length         46.3494 bohr
 

     total cpu time spent up to now is      570.2 secs

     total energy              =   -2920.41958638 Ry
     estimated scf accuracy    <       0.00000544 Ry

     iteration # 45     ecut=    29.40 Ry     beta= 0.05
     Davidson diagonalization with overlap
     ethr =  1.39E-09,  avg # of iterations =  7.1

     negative rho (up, down):  1.836E-02 0.000E+00
 
     Adding external electric field

     Computed dipole along edir(3) : 
        Dipole                0.7026 Ry au,          1.7859 Debye
        Dipole field          0.0013 Ry au, 
 
        Potential amp.       -0.1229 Ry
        Total length         46.3494 bohr
 

     total cpu time spent up to now is      579.9 secs

     total energy              =   -2920.41960543 Ry
     estimated scf accuracy    <       0.00000279 Ry

     iteration # 46     ecut=    29.40 Ry     beta= 0.05
     Davidson diagonalization with overlap
     ethr =  7.13E-10,  avg # of iterations = 12.0

     negative rho (up, down):  1.835E-02 0.000E+00
 
     Adding external electric field

     Computed dipole along edir(3) : 
        Dipole                0.7028 Ry au,          1.7864 Debye
        Dipole field          0.0013 Ry au, 
 
        Potential amp.       -0.1229 Ry
        Total length         46.3494 bohr
 

     total cpu time spent up to now is      592.5 secs

     total energy              =   -2920.41962209 Ry
     estimated scf accuracy    <       0.00000251 Ry

     iteration # 47     ecut=    29.40 Ry     beta= 0.05
     Davidson diagonalization with overlap
     ethr =  6.41E-10,  avg # of iterations =  8.5

     negative rho (up, down):  1.832E-02 0.000E+00
 
     Adding external electric field

     Computed dipole along edir(3) : 
        Dipole                0.7023 Ry au,          1.7852 Debye
        Dipole field          0.0013 Ry au, 
 
        Potential amp.       -0.1229 Ry
        Total length         46.3494 bohr
 

     total cpu time spent up to now is      602.9 secs

     total energy              =   -2920.41963769 Ry
     estimated scf accuracy    <       0.00000097 Ry

     iteration # 48     ecut=    29.40 Ry     beta= 0.05
     Davidson diagonalization with overlap
     c_bands:  1 eigenvalues not converged
     ethr =  2.48E-10,  avg # of iterations = 13.0

     negative rho (up, down):  1.831E-02 0.000E+00
 
     Adding external electric field

     Computed dipole along edir(3) : 
        Dipole                0.7020 Ry au,          1.7844 Debye
        Dipole field          0.0013 Ry au, 
 
        Potential amp.       -0.1228 Ry
        Total length         46.3494 bohr
 

     total cpu time spent up to now is      617.3 secs

     total energy              =   -2920.41965120 Ry
     estimated scf accuracy    <       0.00000200 Ry

     iteration # 49     ecut=    29.40 Ry     beta= 0.05
     Davidson diagonalization with overlap
     ethr =  2.48E-10,  avg # of iterations =  8.0

     negative rho (up, down):  1.829E-02 0.000E+00
 
     Adding external electric field

     Computed dipole along edir(3) : 
        Dipole                0.7015 Ry au,          1.7832 Debye
        Dipole field          0.0013 Ry au, 
 
        Potential amp.       -0.1227 Ry
        Total length         46.3494 bohr
 

     total cpu time spent up to now is      626.4 secs

     total energy              =   -2920.41966299 Ry
     estimated scf accuracy    <       0.00000126 Ry

     iteration # 50     ecut=    29.40 Ry     beta= 0.05
     Davidson diagonalization with overlap
     c_bands:  1 eigenvalues not converged
     ethr =  2.48E-10,  avg # of iterations = 15.8

     negative rho (up, down):  1.828E-02 0.000E+00
 
     Adding external electric field

     Computed dipole along edir(3) : 
        Dipole                0.7016 Ry au,          1.7832 Debye
        Dipole field          0.0013 Ry au, 
 
        Potential amp.       -0.1227 Ry
        Total length         46.3494 bohr
 

     total cpu time spent up to now is      642.7 secs

     total energy              =   -2920.41967427 Ry
     estimated scf accuracy    <       0.00000094 Ry

     iteration # 51     ecut=    29.40 Ry     beta= 0.05
     Davidson diagonalization with overlap
     ethr =  2.41E-10,  avg # of iterations =  9.9

     negative rho (up, down):  1.826E-02 0.000E+00
 
     Adding external electric field

     Computed dipole along edir(3) : 
        Dipole                0.7012 Ry au,          1.7823 Debye
        Dipole field          0.0013 Ry au, 
 
        Potential amp.       -0.1227 Ry
        Total length         46.3494 bohr
 

     total cpu time spent up to now is      653.2 secs

     total energy              =   -2920.41968432 Ry
     estimated scf accuracy    <       0.00000019 Ry

     iteration # 52     ecut=    29.40 Ry     beta= 0.05
     Davidson diagonalization with overlap
     ethr =  4.88E-11,  avg # of iterations = 15.9

     negative rho (up, down):  1.825E-02 0.000E+00
 
     Adding external electric field

     Computed dipole along edir(3) : 
        Dipole                0.7011 Ry au,          1.7820 Debye
        Dipole field          0.0013 Ry au, 
 
        Potential amp.       -0.1226 Ry
        Total length         46.3494 bohr
 

     total cpu time spent up to now is      670.2 secs

     total energy              =   -2920.41969329 Ry
     estimated scf accuracy    <       0.00000041 Ry

     iteration # 53     ecut=    29.40 Ry     beta= 0.05
     Davidson diagonalization with overlap
     ethr =  4.88E-11,  avg # of iterations = 12.1

     negative rho (up, down):  1.825E-02 0.000E+00
 
     Adding external electric field

     Computed dipole along edir(3) : 
        Dipole                0.7010 Ry au,          1.7818 Debye
        Dipole field          0.0013 Ry au, 
 
        Potential amp.       -0.1226 Ry
        Total length         46.3494 bohr
 

     total cpu time spent up to now is      682.8 secs

     total energy              =   -2920.41970137 Ry
     estimated scf accuracy    <       0.00000011 Ry

     iteration # 54     ecut=    29.40 Ry     beta= 0.05
     Davidson diagonalization with overlap
     ethr =  2.87E-11,  avg # of iterations =  5.4

     negative rho (up, down):  1.826E-02 0.000E+00
 
     Adding external electric field

     Computed dipole along edir(3) : 
        Dipole                0.7014 Ry au,          1.7829 Debye
        Dipole field          0.0013 Ry au, 
 
        Potential amp.       -0.1227 Ry
        Total length         46.3494 bohr
 

     total cpu time spent up to now is      691.3 secs

     End of self-consistent calculation

          k = 0.0000 0.0000 0.0000 ( 18029 PWs)   bands (ev):

   -55.9786 -55.9703 -55.9446 -55.9342 -55.8823 -55.8216 -55.8167 -55.7837
   -55.7820 -55.7497 -55.7428 -55.7091 -55.5521 -55.2722 -54.9509 -54.9169
   -32.5303 -32.4601 -32.3315 -32.3180 -32.2976 -32.2829 -32.2718 -32.2340
   -32.2202 -32.2178 -32.1933 -32.1864 -32.1535 -32.1308 -32.1220 -32.1152
   -32.1133 -32.0820 -32.0616 -32.0358 -32.0279 -32.0237 -32.0081 -31.9865
   -31.9767 -31.9745 -31.9700 -31.9599 -31.9462 -31.9400 -31.9375 -31.9321
   -31.9198 -31.9139 -31.8961 -31.8905 -31.8555 -31.8169 -31.7208 -31.5467
   -31.5401 -31.4688 -31.3578 -31.2702 -31.2477 -31.1747 -31.0882 -30.9770
   -16.7397 -16.4562 -16.2770 -16.1337 -16.1008 -16.0159 -15.8152 -15.6900
   -15.6772 -15.5740 -15.5364 -15.5130 -15.5058 -15.4789 -15.4752 -15.4164
   -15.4133 -15.4009 -15.3886 -15.3324 -15.3085 -15.2690 -15.1750 -15.1506
   -15.1352 -15.1084 -15.0275 -15.0204 -14.5804 -14.0571 -13.4536 -13.3373
    -8.9545  -4.3616  -4.1104  -3.9333  -3.8919  -3.8807  -3.8326  -3.5807
    -3.5648  -3.3060  -3.1844  -3.1680  -3.1640  -3.1441  -3.1347  -3.1133
    -2.8779  -2.8074  -2.7937  -2.7720  -2.7644  -2.7613  -2.7497  -2.7446
    -2.7024  -2.6433  -2.5323  -2.5125  -2.4060  -2.3585  -2.3338  -2.2881
    -2.2454  -2.2381  -2.2262  -2.2087  -2.1927  -2.1749  -2.1569  -2.0224
    -1.9596  -1.8307  -1.7835  -1.7778  -1.5791  -1.5352  -1.4455  -1.4221
    -1.4052  -1.3976  -1.3653  -1.2853  -1.1941  -1.1369  -1.1254  -1.0705
    -0.9944  -0.9824  -0.8736  -0.8681  -0.8158  -0.7476  -0.7384  -0.7287
    -0.6844  -0.6200  -0.5399  -0.4631  -0.4138  -0.3927  -0.3656  -0.2865
    -0.2563  -0.1598  -0.1419  -0.0960  -0.0914  -0.0423  -0.0002   0.0094
     0.0160   0.0306   0.0483   0.1969   0.3041   0.3603   0.3932   0.4042
     0.5605   0.5962   0.6848   0.7721   0.9978   1.0709   1.1644   1.2638
     1.3258   1.6416   1.6869   3.1643   3.2433   3.2966   3.3049   3.4063
     3.4089   3.6142   3.6266   3.6370   3.7054

          k = 0.0000 0.0419 0.0000 ( 17933 PWs)   bands (ev):

   -55.9736 -55.9650 -55.9495 -55.9394 -55.8797 -55.8240 -55.8117 -55.7870
   -55.7786 -55.7546 -55.7378 -55.7140 -55.5516 -55.2726 -54.9459 -54.9218
   -32.4728 -32.4061 -32.2854 -32.2775 -32.2672 -32.2634 -32.2580 -32.2253
   -32.2056 -32.1968 -32.1814 -32.1796 -32.1593 -32.1551 -32.1387 -32.1311
   -32.1170 -32.1033 -32.0497 -32.0484 -32.0233 -32.0209 -32.0137 -31.9966
   -31.9888 -31.9845 -31.9833 -31.9724 -31.9699 -31.9597 -31.9498 -31.9419
   -31.9275 -31.9160 -31.9154 -31.9115 -31.8991 -31.8160 -31.7179 -31.5722
   -31.5403 -31.4833 -31.3037 -31.2667 -31.2508 -31.1621 -31.1007 -31.0341
   -16.6040 -16.3366 -16.1667 -16.0263 -16.0022 -15.9779 -15.8657 -15.7609
   -15.7297 -15.5951 -15.5892 -15.5134 -15.4943 -15.4814 -15.4551 -15.4491
   -15.4319 -15.4281 -15.3575 -15.3567 -15.3142 -15.2403 -15.2257 -15.1900
   -15.1677 -15.1668 -15.0840 -15.0354 -14.6531 -14.0698 -13.4578 -13.3768
    -8.9545  -4.3680  -3.9198  -3.7686  -3.7244  -3.7049  -3.6734  -3.4216
    -3.3519  -3.2601  -3.2361  -3.1641  -3.0886  -3.0501  -3.0304  -3.0110
    -2.9543  -2.9449  -2.9214  -2.8618  -2.8430  -2.8232  -2.7724  -2.7265
    -2.7125  -2.6639  -2.6522  -2.6358  -2.6056  -2.4797  -2.4675  -2.4339
    -2.3934  -2.3442  -2.2487  -2.2252  -2.2052  -2.1267  -2.0574  -1.9525
    -1.9027  -1.7550  -1.7182  -1.6509  -1.6252  -1.5752  -1.4523  -1.3457
    -1.3135  -1.2919  -1.2161  -1.1906  -1.0889  -1.0311  -1.0027  -0.9282
    -0.9187  -0.9009  -0.8728  -0.8654  -0.8271  -0.7877  -0.7347  -0.7023
    -0.6686  -0.6417  -0.5665  -0.5372  -0.4815  -0.4697  -0.4444  -0.4320
    -0.2791  -0.2441  -0.2200  -0.1866  -0.1572  -0.1271  -0.1056  -0.0648
    -0.0088   0.0464   0.0711   0.1377   0.2138   0.2797   0.3030   0.3607
     0.3745   0.4088   0.5482   0.6902   0.7040   1.0349   1.2506   1.2604
     1.3448   1.5955   1.5990   3.3542   3.3798   3.4143   3.4594   3.5138
     3.5629   3.6069   3.6348   3.6938   3.7115

          k = 0.0000-0.0839 0.0000 ( 17884 PWs)   bands (ev):

   -55.9618 -55.9611 -55.9531 -55.9511 -55.8769 -55.8268 -55.8015 -55.7971
   -55.7675 -55.7656 -55.7265 -55.7252 -55.5511 -55.2730 -54.9339 -54.9337
   -32.3341 -32.3313 -32.2741 -32.2736 -32.2629 -32.2574 -32.2567 -32.2424
   -32.1796 -32.1779 -32.1568 -32.1534 -32.1443 -32.1319 -32.1270 -32.1147
   -32.0856 -32.0837 -32.0835 -32.0830 -32.0779 -32.0483 -32.0454 -32.0382
   -32.0164 -32.0162 -32.0049 -31.9991 -31.9913 -31.9824 -31.9599 -31.9588
   -31.9388 -31.9373 -31.9073 -31.9070 -31.8858 -31.8150 -31.7160 -31.6102
   -31.5402 -31.4941 -31.2585 -31.2585 -31.1707 -31.1706 -31.1314 -31.1314
   -16.2665 -16.2534 -16.0605 -16.0544 -15.9207 -15.9083 -15.8102 -15.7920
   -15.7650 -15.7388 -15.7005 -15.6984 -15.5380 -15.5336 -15.3657 -15.3589
   -15.3550 -15.3501 -15.3322 -15.3188 -15.3170 -15.3098 -15.3066 -15.2288
   -15.2265 -15.2143 -15.1811 -15.0192 -14.7578 -14.0817 -13.4396 -13.4395
    -8.9546  -4.3759  -3.4911  -3.4567  -3.3733  -3.3676  -3.3584  -3.3537
    -3.3446  -3.3238  -3.2668  -3.2666  -3.1988  -3.0997  -3.0963  -3.0848
    -3.0630  -3.0299  -2.9950  -2.9355  -2.9230  -2.9183  -2.8174  -2.7830
    -2.7738  -2.7252  -2.7026  -2.6385  -2.6126  -2.5704  -2.5405  -2.4338
    -2.3611  -2.3507  -2.3332  -2.3014  -2.0384  -1.9864  -1.8783  -1.8404
    -1.8108  -1.6976  -1.6700  -1.6178  -1.5744  -1.4856  -1.4133  -1.4079
    -1.3696  -1.3565  -1.3274  -1.2958  -1.1984  -1.1676  -1.1612  -1.1120
    -1.0653  -0.8478  -0.7840  -0.6997  -0.6643  -0.6336  -0.6124  -0.6087
    -0.5842  -0.5630  -0.5397  -0.5080  -0.4611  -0.4242  -0.4089  -0.3968
    -0.3584  -0.3369  -0.2913  -0.2594  -0.2457  -0.2278  -0.1784  -0.1607
    -0.1273  -0.1103  -0.0770   0.0044   0.0298   0.1040   0.2690   0.2709
     0.2766   0.3013   0.6158   0.6588   0.7227   0.7622   1.2345   1.4039
     1.4041   1.5326   1.5332   3.4396   3.4657   3.4977   3.5183   3.5936
     3.6033   3.6745   3.7081   3.7540   3.7606

          k = 0.0380 0.0000 0.0000 ( 17913 PWs)   bands (ev):

   -55.9785 -55.9701 -55.9445 -55.9341 -55.8822 -55.8215 -55.8166 -55.7834
   -55.7819 -55.7496 -55.7428 -55.7090 -55.5520 -55.2721 -54.9508 -54.9168
   -32.5304 -32.4609 -32.3329 -32.3242 -32.2975 -32.2831 -32.2716 -32.2387
   -32.2202 -32.2175 -32.1897 -32.1741 -32.1535 -32.1279 -32.1147 -32.1129
   -32.1103 -32.0817 -32.0442 -32.0411 -32.0356 -32.0235 -32.0114 -31.9827
   -31.9761 -31.9741 -31.9631 -31.9600 -31.9461 -31.9408 -31.9396 -31.9370
   -31.9319 -31.9138 -31.8963 -31.8896 -31.8557 -31.8194 -31.7207 -31.5466
   -31.5404 -31.4686 -31.3573 -31.2735 -31.2457 -31.1745 -31.0881 -30.9768
   -16.6718 -16.3697 -16.1966 -16.1122 -16.0311 -16.0146 -15.8592 -15.6874
   -15.6784 -15.6742 -15.6676 -15.6348 -15.5890 -15.5689 -15.5204 -15.4937
   -15.3586 -15.3345 -15.2880 -15.2405 -15.2253 -15.2209 -15.1789 -15.1692
   -15.1603 -15.1491 -15.1058 -15.0080 -14.5777 -14.0526 -13.4504 -13.3370
    -8.9574  -4.4122  -4.0448  -3.7202  -3.6683  -3.6083  -3.6000  -3.5501
    -3.5100  -3.4511  -3.3042  -3.2142  -3.1999  -3.1772  -3.0939  -3.0528
    -2.9916  -2.9419  -2.8497  -2.7587  -2.7523  -2.7047  -2.6905  -2.6121
    -2.5815  -2.5580  -2.5122  -2.4816  -2.4349  -2.3663  -2.3170  -2.3127
    -2.2484  -2.2046  -2.1838  -2.1464  -2.0242  -1.9983  -1.9617  -1.9115
    -1.8678  -1.8497  -1.7935  -1.7642  -1.6569  -1.5757  -1.5474  -1.5302
    -1.4363  -1.4104  -1.3838  -1.2809  -1.2646  -1.2529  -1.2182  -1.1581
    -1.1121  -1.0050  -0.8827  -0.8513  -0.8394  -0.8069  -0.7811  -0.7408
    -0.7054  -0.6282  -0.5588  -0.5009  -0.4473  -0.4070  -0.3560  -0.3266
    -0.2645  -0.2440  -0.2153  -0.1816  -0.1616  -0.1274  -0.1169  -0.0986
    -0.0849  -0.0538   0.0997   0.1548   0.2097   0.2319   0.3248   0.3838
     0.4296   0.4799   0.6558   0.7183   1.0009   1.0298   1.0827   1.2334
     1.3231   1.5302   1.6041   3.2022   3.2186   3.5015   3.5202   3.5398
     3.5736   3.5888   3.6139   3.6391   3.6680

          k = 0.0380 0.0419 0.0000 ( 17878 PWs)   bands (ev):

   -55.9735 -55.9648 -55.9495 -55.9393 -55.8796 -55.8240 -55.8116 -55.7870
   -55.7784 -55.7545 -55.7379 -55.7140 -55.5515 -55.2726 -54.9458 -54.9218
   -32.4729 -32.4069 -32.2853 -32.2789 -32.2711 -32.2669 -32.2582 -32.2253
   -32.2056 -32.1970 -32.1862 -32.1674 -32.1591 -32.1554 -32.1388 -32.1204
   -32.1145 -32.0993 -32.0494 -32.0376 -32.0311 -32.0206 -32.0134 -31.9971
   -31.9880 -31.9857 -31.9726 -31.9719 -31.9696 -31.9598 -31.9498 -31.9426
   -31.9373 -31.9270 -31.9150 -31.9071 -31.9037 -31.8183 -31.7178 -31.5721
   -31.5410 -31.4832 -31.3033 -31.2693 -31.2498 -31.1619 -31.1008 -31.0340
   -16.5428 -16.2568 -16.0930 -16.0069 -15.9790 -15.9287 -15.8656 -15.7948
   -15.7311 -15.6322 -15.6309 -15.5938 -15.5880 -15.5565 -15.4678 -15.4542
   -15.4273 -15.3907 -15.3577 -15.3013 -15.2866 -15.2579 -15.2220 -15.2182
   -15.2012 -15.1742 -15.1360 -15.0255 -14.6511 -14.0665 -13.4555 -13.3771
    -8.9568  -4.3929  -3.8682  -3.5516  -3.5070  -3.4564  -3.4295  -3.3568
    -3.3485  -3.2917  -3.2519  -3.1628  -3.0854  -3.0664  -3.0089  -2.9913
    -2.9575  -2.8687  -2.8606  -2.8411  -2.7845  -2.7613  -2.7304  -2.6997
    -2.6856  -2.6836  -2.6263  -2.6011  -2.5933  -2.5216  -2.4612  -2.4362
    -2.3359  -2.2833  -2.2557  -2.1785  -2.1198  -2.0457  -1.9847  -1.9618
    -1.9345  -1.7521  -1.7150  -1.6773  -1.5862  -1.5248  -1.4326  -1.4207
    -1.3961  -1.3065  -1.2830  -1.2572  -1.2249  -1.1444  -1.1109  -1.0976
    -1.0413  -0.9705  -0.9348  -0.9081  -0.8693  -0.8169  -0.7820  -0.7376
    -0.6959  -0.6740  -0.6560  -0.6395  -0.5982  -0.5585  -0.5425  -0.4786
    -0.4394  -0.3985  -0.3053  -0.2820  -0.2713  -0.2221  -0.1712  -0.0799
    -0.0417  -0.0121   0.1027   0.1605   0.2126   0.2595   0.3355   0.3843
     0.4155   0.4522   0.4751   0.6129   0.6784   0.9727   1.2589   1.2713
     1.3494   1.5180   1.5798   3.3432   3.4121   3.4461   3.5201   3.5828
     3.6048   3.6711   3.6991   3.7281   3.7509

          k = 0.0380-0.0839 0.0000 ( 17916 PWs)   bands (ev):

   -55.9619 -55.9611 -55.9531 -55.9511 -55.8769 -55.8268 -55.8015 -55.7971
   -55.7674 -55.7656 -55.7266 -55.7253 -55.5511 -55.2731 -54.9339 -54.9338
   -32.3344 -32.3315 -32.2748 -32.2744 -32.2630 -32.2575 -32.2568 -32.2425
   -32.1800 -32.1787 -32.1668 -32.1631 -32.1453 -32.1164 -32.1140 -32.1098
   -32.0841 -32.0831 -32.0825 -32.0819 -32.0786 -32.0594 -32.0569 -32.0356
   -32.0126 -32.0068 -31.9936 -31.9927 -31.9910 -31.9824 -31.9599 -31.9587
   -31.9389 -31.9374 -31.9190 -31.9187 -31.8856 -31.8174 -31.7160 -31.6101
   -31.5412 -31.4941 -31.2595 -31.2594 -31.1706 -31.1705 -31.1314 -31.1314
   -16.2312 -16.2107 -16.0097 -16.0032 -15.8843 -15.8761 -15.7752 -15.7658
   -15.7470 -15.7313 -15.6722 -15.6651 -15.5522 -15.5474 -15.4527 -15.4362
   -15.4016 -15.3960 -15.3857 -15.3824 -15.3376 -15.3289 -15.2907 -15.2740
   -15.2652 -15.2111 -15.1566 -15.0132 -14.7542 -14.0795 -13.4394 -13.4393
    -8.9564  -4.3746  -3.4864  -3.4478  -3.2919  -3.2325  -3.2265  -3.2069
    -3.1594  -3.1465  -3.1064  -3.0774  -3.0554  -3.0437  -3.0274  -2.9865
    -2.9754  -2.9465  -2.9155  -2.8698  -2.8174  -2.8104  -2.8000  -2.7811
    -2.7384  -2.6940  -2.6870  -2.6625  -2.6221  -2.5898  -2.5606  -2.5047
    -2.4481  -2.2763  -2.0971  -2.0732  -2.0623  -1.9567  -1.8925  -1.8724
    -1.8255  -1.8144  -1.7642  -1.7335  -1.7126  -1.6782  -1.6289  -1.6084
    -1.5556  -1.4781  -1.4449  -1.4062  -1.2551  -1.1921  -1.1468  -1.1057
    -1.0040  -0.9819  -0.9218  -0.9016  -0.8310  -0.7744  -0.7441  -0.7318
    -0.7137  -0.6910  -0.6684  -0.6271  -0.5899  -0.5770  -0.5502  -0.5261
    -0.5161  -0.4361  -0.4054  -0.3454  -0.3231  -0.2583  -0.1450  -0.1239
    -0.0222   0.0382   0.1168   0.1237   0.1638   0.1793   0.1978   0.2426
     0.3799   0.4044   0.5624   0.5801   0.7049   0.7631   1.2558   1.4170
     1.4174   1.5216   1.5223   3.4175   3.4312   3.5116   3.5332   3.5784
     3.5871   3.7300   3.7613   3.7862   3.7903

          k = 0.0380-0.0419 0.0000 ( 17876 PWs)   bands (ev):

   -55.9735 -55.9648 -55.9494 -55.9393 -55.8796 -55.8240 -55.8116 -55.7870
   -55.7784 -55.7545 -55.7379 -55.7140 -55.5515 -55.2726 -54.9458 -54.9218
   -32.4729 -32.4069 -32.2853 -32.2789 -32.2711 -32.2669 -32.2582 -32.2253
   -32.2055 -32.1970 -32.1862 -32.1679 -32.1587 -32.1553 -32.1387 -32.1205
   -32.1145 -32.0993 -32.0493 -32.0373 -32.0311 -32.0209 -32.0134 -31.9970
   -31.9879 -31.9859 -31.9727 -31.9717 -31.9696 -31.9598 -31.9498 -31.9424
   -31.9375 -31.9269 -31.9149 -31.9072 -31.9036 -31.8183 -31.7178 -31.5721
   -31.5410 -31.4832 -31.3033 -31.2693 -31.2497 -31.1619 -31.1008 -31.0340
   -16.5427 -16.2568 -16.0933 -16.0061 -15.9793 -15.9282 -15.8668 -15.7947
   -15.7316 -15.6314 -15.6287 -15.5941 -15.5890 -15.5567 -15.4681 -15.4542
   -15.4306 -15.3889 -15.3573 -15.3009 -15.2884 -15.2564 -15.2220 -15.2172
   -15.2012 -15.1745 -15.1362 -15.0256 -14.6509 -14.0666 -13.4555 -13.3771
    -8.9569  -4.3908  -3.8689  -3.5493  -3.5066  -3.4582  -3.4288  -3.3563
    -3.3453  -3.2973  -3.2534  -3.1608  -3.0907  -3.0641  -3.0147  -2.9927
    -2.9562  -2.8684  -2.8582  -2.8226  -2.7926  -2.7640  -2.7188  -2.6997
    -2.6850  -2.6774  -2.6280  -2.6123  -2.5761  -2.5211  -2.4618  -2.4354
    -2.3471  -2.2947  -2.2337  -2.1757  -2.1141  -2.0355  -1.9794  -1.9683
    -1.9275  -1.7818  -1.7264  -1.6804  -1.6023  -1.5330  -1.4372  -1.4145
    -1.3957  -1.3089  -1.2939  -1.2610  -1.2118  -1.1406  -1.1104  -1.0989
    -1.0461  -0.9848  -0.9409  -0.9063  -0.8753  -0.8245  -0.7828  -0.7629
    -0.7026  -0.6821  -0.6563  -0.6282  -0.6045  -0.5727  -0.5112  -0.4708
    -0.4250  -0.3896  -0.3060  -0.2831  -0.2711  -0.2166  -0.1733  -0.0497
    -0.0370  -0.0085   0.1277   0.1535   0.2075   0.2613   0.3406   0.3740
     0.4209   0.4446   0.4772   0.6157   0.6797   0.9743   1.2617   1.2714
     1.3492   1.5178   1.5803   3.3438   3.4110   3.4418   3.5387   3.5649
     3.5887   3.6586   3.7058   3.7209   3.7460

          k =-0.0760-0.0000 0.0000 ( 17886 PWs)   bands (ev):

   -55.9785 -55.9701 -55.9445 -55.9341 -55.8822 -55.8214 -55.8166 -55.7832
   -55.7819 -55.7496 -55.7429 -55.7090 -55.5520 -55.2721 -54.9508 -54.9168
   -32.5306 -32.4618 -32.3344 -32.3301 -32.2973 -32.2832 -32.2715 -32.2432
   -32.2203 -32.2175 -32.1892 -32.1535 -32.1530 -32.1250 -32.1129 -32.1083
   -32.1054 -32.0817 -32.0659 -32.0360 -32.0234 -32.0142 -31.9971 -31.9862
   -31.9799 -31.9760 -31.9733 -31.9602 -31.9569 -31.9459 -31.9394 -31.9366
   -31.9319 -31.9137 -31.8971 -31.8889 -31.8563 -31.8223 -31.7206 -31.5466
   -31.5411 -31.4686 -31.3569 -31.2767 -31.2444 -31.1744 -31.0880 -30.9768
   -16.5870 -16.2729 -16.1178 -16.0622 -16.0167 -15.9688 -15.8284 -15.7585
   -15.7507 -15.6927 -15.6840 -15.6730 -15.6715 -15.6565 -15.6265 -15.5441
   -15.3370 -15.3175 -15.3046 -15.2922 -15.2494 -15.2218 -15.1731 -15.1482
   -15.1315 -15.1281 -15.0611 -15.0049 -14.5756 -14.0485 -13.4474 -13.3367
    -8.9603  -4.4459  -4.0262  -3.6473  -3.5807  -3.5355  -3.3716  -3.3652
    -3.3094  -3.2956  -3.2468  -3.2362  -3.2210  -3.1926  -3.1813  -3.0096
    -2.9715  -2.8584  -2.7786  -2.7387  -2.7318  -2.6173  -2.6058  -2.5431
    -2.5403  -2.4782  -2.4729  -2.4048  -2.3559  -2.3066  -2.2820  -2.2707
    -2.2346  -2.2059  -2.2046  -2.1521  -2.1308  -2.1067  -2.0689  -1.9911
    -1.7958  -1.7849  -1.7767  -1.6317  -1.6178  -1.5913  -1.5694  -1.5591
    -1.5468  -1.4606  -1.4402  -1.3590  -1.3361  -1.3084  -1.2534  -1.2053
    -1.1800  -1.1342  -1.1301  -1.0592  -0.8552  -0.8221  -0.8125  -0.7244
    -0.6681  -0.6512  -0.6280  -0.5908  -0.5247  -0.4926  -0.4698  -0.4080
    -0.3798  -0.2960  -0.2546  -0.2368  -0.2114  -0.1727  -0.1607  -0.1249
    -0.0751   0.0037   0.0391   0.0828   0.1347   0.2770   0.2850   0.3292
     0.5096   0.5223   0.6426   0.7186   0.7669   1.0127   1.1039   1.2091
     1.3184   1.4009   1.5484   3.2020   3.2089   3.3252   3.4442   3.4928
     3.5775   3.6132   3.6679   3.6880   3.6942

          k =-0.0760 0.0419 0.0000 ( 17914 PWs)   bands (ev):

   -55.9735 -55.9648 -55.9495 -55.9394 -55.8797 -55.8240 -55.8117 -55.7870
   -55.7783 -55.7545 -55.7380 -55.7140 -55.5516 -55.2726 -54.9458 -54.9218
   -32.4732 -32.4079 -32.2855 -32.2805 -32.2783 -32.2670 -32.2584 -32.2253
   -32.2056 -32.1972 -32.1912 -32.1599 -32.1559 -32.1511 -32.1390 -32.1124
   -32.1106 -32.0955 -32.0544 -32.0493 -32.0207 -32.0134 -31.9986 -31.9978
   -31.9892 -31.9867 -31.9761 -31.9713 -31.9689 -31.9602 -31.9583 -31.9496
   -31.9399 -31.9263 -31.9147 -31.9101 -31.9070 -31.8209 -31.7179 -31.5721
   -31.5419 -31.4832 -31.3031 -31.2721 -31.2491 -31.1619 -31.1008 -31.0340
   -16.4675 -16.1598 -16.0293 -15.9774 -15.9555 -15.8796 -15.8670 -15.7316
   -15.7244 -15.7124 -15.6614 -15.6404 -15.6310 -15.6043 -15.5813 -15.5378
   -15.4093 -15.3869 -15.3706 -15.3563 -15.3029 -15.2588 -15.2413 -15.2255
   -15.1756 -15.1523 -15.1324 -15.0223 -14.6494 -14.0635 -13.4534 -13.3775
    -8.9593  -4.4086  -3.8557  -3.4836  -3.3539  -3.3095  -3.2639  -3.2102
    -3.1608  -3.1284  -3.0924  -3.0712  -3.0492  -3.0215  -2.9800  -2.9623
    -2.9401  -2.9199  -2.8430  -2.7881  -2.7533  -2.7328  -2.6963  -2.6757
    -2.6642  -2.6307  -2.5787  -2.5584  -2.4645  -2.4532  -2.4491  -2.4314
    -2.3346  -2.2240  -2.1905  -2.1078  -2.1009  -2.0648  -2.0166  -1.9474
    -1.9286  -1.7629  -1.7406  -1.6274  -1.5856  -1.5380  -1.5305  -1.4662
    -1.4560  -1.4106  -1.3838  -1.3061  -1.2905  -1.2607  -1.2127  -1.2007
    -1.1888  -1.1400  -1.1156  -1.0802  -1.0240  -0.9963  -0.9699  -0.9131
    -0.8207  -0.7836  -0.7433  -0.7118  -0.6991  -0.6625  -0.6050  -0.5699
    -0.5267  -0.4912  -0.3888  -0.3178  -0.2822  -0.2630  -0.1424  -0.0705
     0.0188   0.0600   0.1055   0.2155   0.2573   0.3288   0.3712   0.4119
     0.4739   0.4846   0.5476   0.5974   0.6226   0.8209   1.2685   1.2862
     1.3526   1.4415   1.5690   3.3299   3.3868   3.4094   3.4781   3.4932
     3.5217   3.6469   3.6820   3.7339   3.7892

          k =-0.0760-0.0839 0.0000 ( 17948 PWs)   bands (ev):

   -55.9619 -55.9612 -55.9531 -55.9511 -55.8769 -55.8268 -55.8016 -55.7972
   -55.7674 -55.7655 -55.7267 -55.7254 -55.5511 -55.2731 -54.9339 -54.9338
   -32.3347 -32.3318 -32.2756 -32.2751 -32.2632 -32.2575 -32.2568 -32.2427
   -32.1804 -32.1794 -32.1727 -32.1689 -32.1459 -32.1177 -32.0989 -32.0948
   -32.0841 -32.0814 -32.0809 -32.0807 -32.0786 -32.0667 -32.0642 -32.0330
   -32.0220 -32.0160 -31.9916 -31.9824 -31.9641 -31.9637 -31.9596 -31.9584
   -31.9416 -31.9410 -31.9390 -31.9372 -31.8853 -31.8197 -31.7160 -31.6100
   -31.5422 -31.4941 -31.2605 -31.2604 -31.1706 -31.1705 -31.1315 -31.1314
   -16.1917 -16.1583 -15.9227 -15.9129 -15.9043 -15.8879 -15.7435 -15.6915
   -15.6831 -15.6763 -15.6521 -15.6286 -15.5772 -15.5465 -15.5128 -15.5061
   -15.4994 -15.4943 -15.4378 -15.4313 -15.4090 -15.4016 -15.2880 -15.2838
   -15.2825 -15.2065 -15.1421 -15.0090 -14.7510 -14.0774 -13.4392 -13.4391
    -8.9583  -4.3728  -3.4862  -3.4480  -3.2686  -3.1773  -3.1622  -3.1493
    -3.1269  -3.0470  -2.8890  -2.8744  -2.8559  -2.8432  -2.8028  -2.7978
    -2.7859  -2.7721  -2.7647  -2.7474  -2.7135  -2.6729  -2.6444  -2.6375
    -2.6285  -2.6034  -2.5913  -2.5657  -2.5597  -2.5268  -2.5182  -2.4990
    -2.4759  -2.2099  -2.1930  -2.1779  -2.1089  -2.1020  -2.0677  -2.0590
    -2.0401  -2.0267  -1.9756  -1.8754  -1.7107  -1.6775  -1.6728  -1.6515
    -1.5865  -1.5640  -1.4146  -1.3862  -1.3682  -1.3301  -1.2813  -1.2494
    -1.2129  -1.1741  -1.1357  -1.0755  -1.0679  -0.9885  -0.9384  -0.9375
    -0.9120  -0.8410  -0.7622  -0.7445  -0.7327  -0.6918  -0.6787  -0.5965
    -0.5739  -0.4755  -0.4628  -0.3990  -0.3629  -0.2958  -0.0993   0.0064
     0.0651   0.0891   0.1421   0.2394   0.2930   0.3069   0.3409   0.3459
     0.4056   0.4461   0.5609   0.5685   0.6369   0.7405   1.2745   1.4352
     1.4358   1.5067   1.5068   3.4261   3.4318   3.4813   3.5121   3.6640
     3.6684   3.6912   3.6923   3.8138   3.8319

     the Fermi energy is     3.1575 ev

!    total energy              =   -2920.41977551 Ry
     estimated scf accuracy    <       0.00000006 Ry
     smearing contrib. (-TS)   =      -0.02203292 Ry
     internal energy E=F+TS    =   -2920.39774259 Ry

     The total energy is F=E-TS. E is the sum of the following terms:
     one-electron contribution =  -24725.73082641 Ry
     hartree contribution      =   12447.55669623 Ry
     xc contribution           =    -480.87502187 Ry
     ewald contribution        =    9838.65048096 Ry
     electric field correction =       0.00092851 Ry

     convergence has been achieved in  54 iterations

     Forces acting on atoms (cartesian axes, Ry/au):

     atom    1 type  1   force =     0.00011920   -0.00017686    0.09687158
     atom    2 type  1   force =     0.00004938   -0.00047619   -0.17502469
     atom    3 type  2   force =     0.00012750    0.00000680   -0.02532606
     atom    4 type  2   force =    -0.00003661   -0.00127945    0.05236661
     atom    5 type  2   force =    -0.01222745   -0.00000760    0.00299471
     atom    6 type  2   force =     0.01366388    0.00058606    0.00232684
     atom    7 type  1   force =     0.00056597    0.00034988   -0.01303988
     atom    8 type  1   force =     0.00045821    0.00730502    0.03072070
     atom    9 type  2   force =     0.00056030    0.00003624   -0.00020583
     atom   10 type  2   force =    -0.00267791    0.00211271   -0.01738709
     atom   11 type  2   force =    -0.00014451    0.00007221   -0.00002848
     atom   12 type  2   force =     0.00047137    0.00033721    0.00017894
     atom   13 type  1   force =    -0.00009549   -0.00054380   -0.00021136
     atom   14 type  1   force =    -0.00043622    0.00002610    0.00078904
     atom   15 type  2   force =    -0.00000796   -0.00076774    0.00080218
     atom   16 type  2   force =     0.00025178    0.00063091   -0.00045901
     atom   17 type  2   force =     0.00060107    0.00005553    0.00061771
     atom   18 type  2   force =    -0.00005372   -0.00006738    0.00012949
     atom   19 type  1   force =     0.00004465    0.00045038   -0.00033121
     atom   20 type  1   force =    -0.00016042   -0.00041797    0.00031467
     atom   21 type  2   force =     0.00006290   -0.00002679    0.10307608
     atom   22 type  2   force =     0.00015752   -0.00091886    0.00108843
     atom   23 type  2   force =    -0.07163765   -0.00015328   -0.02780364
     atom   24 type  2   force =     0.07153321    0.00034443   -0.02786066
     atom   25 type  1   force =     0.00007262   -0.00012899    0.09660077
     atom   26 type  1   force =     0.00009388   -0.00019195   -0.17515185
     atom   27 type  2   force =     0.00011644   -0.00011290   -0.02438693
     atom   28 type  2   force =     0.00004350   -0.00103956    0.05228239
     atom   29 type  2   force =    -0.01242621    0.00064027    0.00278434
     atom   30 type  2   force =     0.01373267    0.00098297    0.00213148
     atom   31 type  1   force =     0.00045392    0.00316965   -0.01359730
     atom   32 type  1   force =     0.00031862   -0.00952520    0.03109850
     atom   33 type  2   force =    -0.00007108    0.00030612   -0.00059544
     atom   34 type  2   force =    -0.00206494    0.00182484   -0.02538137
     atom   35 type  2   force =    -0.00018772   -0.00029302    0.00037002
     atom   36 type  2   force =     0.00026391   -0.00078319    0.00040214
     atom   37 type  1   force =     0.00005527    0.00027171    0.00101344
     atom   38 type  1   force =    -0.00021915    0.00038669    0.00075685
     atom   39 type  2   force =    -0.00005931   -0.00017027   -0.00055357
     atom   40 type  2   force =     0.00041563    0.00006777    0.00060083
     atom   41 type  2   force =     0.00023532   -0.00021434   -0.00005967
     atom   42 type  2   force =    -0.00046203   -0.00039226   -0.00025765
     atom   43 type  1   force =    -0.00073608   -0.00019416    0.00033953
     atom   44 type  1   force =    -0.00028800   -0.00085880    0.00077513
     atom   45 type  2   force =     0.00004032   -0.00004865    0.10309224
     atom   46 type  2   force =    -0.07163213   -0.00007107   -0.02779438
     atom   47 type  2   force =     0.07155069    0.00034975   -0.02786822
     atom   48 type  3   force =    -0.00032883   -0.00045711   -0.00005738
     atom   49 type  4   force =     0.00240589   -0.00010989    0.00480237
     atom   50 type  5   force =     0.00312979   -0.00048757   -0.01720217
     atom   51 type  3   force =    -0.00055448    0.00119109    0.00205255
     atom   52 type  3   force =    -0.00424363   -0.00248812    0.00766372
     atom   53 type  3   force =    -0.00084390    0.00089863    0.00154056

     Total force =     0.368958     Total SCF correction =     0.000631
  @ DRIVER MODE: Message from server: STATUS
  @ DRIVER MODE: Message from server: GETFORCE
  @ DRIVER MODE: Returning v,forces,stress,ensemble 

     Writing output data file ./calc.save/
  @ DRIVER MODE: Message from server: EXIT
  @ DRIVE MODE: Exiting  
 
     init_run     :      7.24s CPU      7.41s WALL (       1 calls)
     electrons    :    660.69s CPU    669.18s WALL (       1 calls)
     forces       :      1.63s CPU      1.67s WALL (       1 calls)

     Called by init_run:
     wfcinit      :      3.25s CPU      3.30s WALL (       1 calls)
     potinit      :      3.53s CPU      3.57s WALL (       1 calls)
     hinit0       :      0.19s CPU      0.20s WALL (       1 calls)

     Called by electrons:
     c_bands      :    572.10s CPU    575.32s WALL (      54 calls)
     sum_band     :     60.92s CPU     62.64s WALL (      54 calls)
     v_of_rho     :     20.52s CPU     21.04s WALL (      55 calls)
     newd         :      7.94s CPU      9.73s WALL (      55 calls)
     mix_rho      :      1.92s CPU      3.14s WALL (      54 calls)
     vdW_kernel   :      3.03s CPU      3.04s WALL (       1 calls)

     Called by c_bands:
     init_us_2    :      3.57s CPU      3.59s WALL (    1100 calls)
     cegterg      :    562.26s CPU    565.27s WALL (     541 calls)

     Called by *egterg:
     cdiaghg      :    134.81s CPU    135.28s WALL (    5776 calls)
     h_psi        :    267.77s CPU    269.83s WALL (    5786 calls)
     s_psi        :     32.06s CPU     32.17s WALL (    5786 calls)
     g_psi        :      0.84s CPU      0.84s WALL (    5235 calls)

     Called by h_psi:
     h_psi:calbec :     32.47s CPU     32.60s WALL (    5786 calls)
     vloc_psi     :    201.15s CPU    202.96s WALL (    5786 calls)
     add_vuspsi   :     32.50s CPU     32.62s WALL (    5786 calls)

     General routines
     calbec       :     42.94s CPU     43.11s WALL (    6366 calls)
     fft          :     10.32s CPU     10.43s WALL (    3465 calls)
     ffts         :      0.09s CPU      0.10s WALL (     109 calls)
     fftw         :    228.40s CPU    230.44s WALL (  722366 calls)
     interpolate  :      0.23s CPU      0.24s WALL (      55 calls)
     davcio       :      0.00s CPU      0.13s WALL (      10 calls)
 
     Parallel routines
 
     PWSCF        :  11m16.99s CPU  11m33.30s WALL

 
   This run was terminated on:  16:32:43   2Aug2021            

=------------------------------------------------------------------------------=
   JOB DONE.
=------------------------------------------------------------------------------=
