
     Program PWSCF v.6.7GPU starts on  2Aug2021 at 16:53: 9 

     This program is part of the open-source Quantum ESPRESSO suite
     for quantum simulation of materials; please cite
         "P. Giannozzi et al., J. Phys.:Condens. Matter 21 395502 (2009);
         "P. Giannozzi et al., J. Phys.:Condens. Matter 29 465901 (2017);
         "P. Giannozzi et al., J. Chem. Phys. 152 154105 (2020);
          URL http://www.quantum-espresso.org", 
     in publications or presentations arising from this work. More details at
     http://www.quantum-espresso.org/quote

     Parallel version (MPI), running on    16 processors

     MPI processes distributed on     1 nodes
     R & G space division:  proc/nbgrp/npool/nimage =      16
     Reading input from /storage/home/hcoda1/3/ntian30/research/carbon/02Aug_vib_paired/ads_slab/CH3N_a/out_0024/pw.inp
Warning: card &CELL ignored
Warning: card   CELL_DYNAMICS='IPI', ignored
Warning: card / ignored

     Current dimensions of program PWSCF are:
     Max number of different atomic species (ntypx) = 10
     Max number of k-points (npk) =  40000
     Max angular momentum in pseudopotentials (lmaxx) =  3
     Presently no symmetry can be used with electric field

     Message from routine cell_base_init:
     DEPRECATED: use true lattice parameter, not A to a.u. conversion factor

     **************************************************************************
     Initializing libbeef V0.1.2 with the BEEF-vdW functional.
     Citation: Wellendorff et al., PRB 85, 235149 (2012).
     **************************************************************************


     IMPORTANT: XC functional enforced from input :
     Exchange-correlation= BEEF-VDW
                           (   1   4  43  14   2   0   0)
     Any further DFT definition will be discarded
     Please, verify this is what you really want


     Subspace diagonalization in iterative solution of the eigenvalue problem:
     one sub-group per band group will be used
     scalapack distributed-memory algorithm (size of sub-group:  4*  4 procs)

  @ DRIVER MODE: Connecting to 
 qe_1139763_2482542.sched-torque.pace.gatech.edu5qvwt1kc_scratch
  using UNIX socket
  @ DRIVER MODE: Message from server: STATUS
  @ DRIVER MODE: Message from server: INIT
  @ DRIVER MODE: Receiving replica           0          -1
  @ DRIVER MODE: Receiving encoded integer          25
  @ DRIVER MODE:  SCF:  T  FORCE:  T  STRESS:  F  VC:  F  ENSEMBLE:  F
  @ DRIVER MODE:  SCF:  T  FORCE:  T  STRESS:  F  VC:  F  ENSEMBLE:  F
 
     Parallelization info
     --------------------
     sticks:   dense  smooth     PW     G-vecs:    dense   smooth      PW
     Min         204      82     23                35422     8962    1367
     Max         205      84     24                35435     8968    1382
     Sum        3275    1317    379               566857   143421   21985
 
     Using Slab Decomposition
 


     bravais-lattice index     =            0
     lattice parameter (alat)  =       1.8897  a.u.
     unit-cell volume          =    6658.9804 (a.u.)^3
     number of atoms/cell      =           52
     number of atomic types    =            5
     number of electrons       =       390.00
     number of Kohn-Sham states=          205
     kinetic-energy cutoff     =      29.3995  Ry
     charge density cutoff     =     293.9946  Ry
     scf convergence threshold =      7.3E-08
     mixing beta               =       0.0500
     number of iterations used =            8  plain     mixing
     Exchange-correlation= BEEF-VDW
                           (   1   4  43  14   2   0   0)

     celldm(1)=   1.889726  celldm(2)=   0.000000  celldm(3)=   0.000000
     celldm(4)=   0.000000  celldm(5)=   0.000000  celldm(6)=   0.000000

     crystal axes: (cart. coord. in units of alat)
               a(1) = (   6.579727   0.000000   0.000000 )  
               a(2) = (  -0.000775   5.961596   0.000000 )  
               a(3) = (   0.000000   0.000000  25.155947 )  

     reciprocal axes: (cart. coord. in units 2 pi/alat)
               b(1) = (  0.151982  0.000020  0.000000 )  
               b(2) = (  0.000000  0.167740  0.000000 )  
               b(3) = (  0.000000  0.000000  0.039752 )  


     PseudoPot. # 1 for Ti read from file:
     /storage/coda1/p-amedford6/0/shared/rich_project_chbe-medford/medford-share/data/pseudos_module/espresso/nninc/pbe/van/Ti.UPF
     MD5 check sum: 8e4df49b7f0d34bbd5052bf3f5ea0213
     Pseudo is Ultrasoft, Zval = 12.0
     Generated by new atomic code, or converted to UPF format
     Using radial grid of  851 points,  6 beta functions with: 
                l(1) =   0
                l(2) =   0
                l(3) =   1
                l(4) =   1
                l(5) =   2
                l(6) =   2
     Q(r) pseudized with  8 coefficients,  rinner =    1.000   1.000   1.000
                                                       1.000   1.000

     PseudoPot. # 2 for O  read from file:
     /storage/coda1/p-amedford6/0/shared/rich_project_chbe-medford/medford-share/data/pseudos_module/espresso/nninc/pbe/van/O.UPF
     MD5 check sum: 78c19812648e8988a0fe644b0f25305e
     Pseudo is Ultrasoft, Zval =  6.0
     Generated by new atomic code, or converted to UPF format
     Using radial grid of  737 points,  4 beta functions with: 
                l(1) =   0
                l(2) =   0
                l(3) =   1
                l(4) =   1
     Q(r) pseudized with  8 coefficients,  rinner =    0.800   0.800   0.800


     PseudoPot. # 3 for N  read from file:
     /storage/coda1/p-amedford6/0/shared/rich_project_chbe-medford/medford-share/data/pseudos_module/espresso/nninc/pbe/van/N.UPF
     MD5 check sum: 90d10febe142ad51ac9d5be1deb811c4
     Pseudo is Ultrasoft, Zval =  5.0
     Generated by new atomic code, or converted to UPF format
     Using radial grid of  729 points,  4 beta functions with: 
                l(1) =   0
                l(2) =   0
                l(3) =   1
                l(4) =   1
     Q(r) pseudized with  8 coefficients,  rinner =    0.800   0.800   0.800


     PseudoPot. # 4 for C  read from file:
     /storage/coda1/p-amedford6/0/shared/rich_project_chbe-medford/medford-share/data/pseudos_module/espresso/nninc/pbe/van/C.UPF
     MD5 check sum: 1a69bf6b8db32088f5b2163dbdb77a27
     Pseudo is Ultrasoft, Zval =  4.0
     Generated by new atomic code, or converted to UPF format
     Using radial grid of  721 points,  4 beta functions with: 
                l(1) =   0
                l(2) =   0
                l(3) =   1
                l(4) =   1
     Q(r) pseudized with  8 coefficients,  rinner =    0.800   0.800   0.800


     PseudoPot. # 5 for H  read from file:
     /storage/coda1/p-amedford6/0/shared/rich_project_chbe-medford/medford-share/data/pseudos_module/espresso/nninc/pbe/van/H.UPF
     MD5 check sum: b5ee9d7bfd3a09ee7748110bda690ff7
     Pseudo is Ultrasoft, Zval =  1.0
     Generated by new atomic code, or converted to UPF format
     Using radial grid of  615 points,  1 beta functions with: 
                l(1) =   0
     Q(r) pseudized with  8 coefficients,  rinner =    0.800

     atomic species   valence    mass     pseudopotential
        Ti1           12.00    47.86700     Ti( 1.00)
        O1             6.00    15.99900     O ( 1.00)
        N1             5.00    14.00700     N ( 1.00)
        C1             4.00    12.01100     C ( 1.00)
        H1             1.00     1.00800     H ( 1.00)

     No symmetry found



   Cartesian axes

     site n.     atom                  positions (alat units)
         1           Ti1 tau(   1) = (   0.0004258   2.9801865   6.0000000  )
         2           Ti1 tau(   2) = (   3.2906075   1.4906267   6.0002472  )
         3           O1  tau(   3) = (   0.0006271   0.0005054   7.9858123  )
         4           O1  tau(   4) = (   3.2906025   0.0005020   7.3038282  )
         5           O1  tau(   5) = (   4.5942328   1.4918067   9.2879030  )
         6           O1  tau(   6) = (   1.9868534   1.4903216   9.2879459  )
         7           Ti1 tau(   7) = (   3.2907910   2.8959150   9.1758416  )
         8           Ti1 tau(   8) = (   0.0015273   1.4827037   9.2680791  )
         9           O1  tau(   9) = (   3.2848820   0.0184509  11.2968037  )
        10           O1  tau(  10) = (   0.0116148   5.9584955  10.6183126  )
        11           O1  tau(  11) = (   1.3164307   1.5202202  12.6152053  )
        12           O1  tau(  12) = (   5.2938533   1.5248534  12.6363518  )
        13           Ti1 tau(  13) = (   6.4693392   3.0155455  12.7604093  )
        14           Ti1 tau(  14) = (   3.1621140   1.5165027  12.4659144  )
        15           O1  tau(  15) = (   0.0250032   0.0426882  14.5925537  )
        16           O1  tau(  16) = (   3.2896737   0.0171256  13.8799622  )
        17           O1  tau(  17) = (   4.5365032   1.4993634  16.0438468  )
        18           O1  tau(  18) = (   2.0814567   1.5015292  16.0591106  )
        19           Ti1 tau(  19) = (   3.3082904   2.9956922  15.6854367  )
        20           Ti1 tau(  20) = (   0.0032501   1.4479889  16.1249605  )
        21           O1  tau(  21) = (   3.2904802   0.0005063   4.7018136  )
        22           O1  tau(  22) = (   0.0161699   0.0004382  17.1970091  )
        23           O1  tau(  23) = (   1.3043587   1.4918075   6.0039043  )
        24           O1  tau(  24) = (   5.2767064   1.4903225   6.0039473  )
        25           Ti1 tau(  25) = (   0.0000382   5.9609847   6.0000000  )
        26           Ti1 tau(  26) = (   3.2902200   4.4714249   6.0002472  )
        27           O1  tau(  27) = (   0.0002396   2.9813036   7.9858123  )
        28           O1  tau(  28) = (   3.2902150   2.9813002   7.3038282  )
        29           O1  tau(  29) = (   4.5938453   4.4726049   9.2879030  )
        30           O1  tau(  30) = (   1.9864658   4.4711199   9.2879459  )
        31           Ti1 tau(  31) = (   3.2891106   5.8743827   9.1763621  )
        32           Ti1 tau(  32) = (   0.0006254   4.4649316   9.2693709  )
        33           O1  tau(  33) = (   3.2855107   2.9994495  11.2959752  )
        34           O1  tau(  34) = (   0.0092240   2.9805883  10.6323155  )
        35           O1  tau(  35) = (   1.3179678   4.4860142  12.6155112  )
        36           O1  tau(  36) = (   5.2920789   4.4901865  12.6316709  )
        37           Ti1 tau(  37) = (   6.5050993   0.0355131  12.7707974  )
        38           Ti1 tau(  38) = (   3.1594757   4.4963870  12.4672366  )
        39           O1  tau(  39) = (   6.5726527   3.0227966  14.6583025  )
        40           O1  tau(  40) = (   3.2932321   2.9979836  13.8792693  )
        41           O1  tau(  41) = (   4.5322310   4.4839795  16.0418810  )
        42           O1  tau(  42) = (   2.0800586   4.4799519  16.0553745  )
        43           Ti1 tau(  43) = (   3.2910362   0.0127607  15.6894215  )
        44           Ti1 tau(  44) = (   0.0049462   4.4269923  16.0943486  )
        45           O1  tau(  45) = (   3.2900926   2.9813045   4.7018136  )
        46           O1  tau(  46) = (   1.3039711   4.4726057   6.0039043  )
        47           O1  tau(  47) = (   5.2763189   4.4711207   6.0039473  )
        48           N1  tau(  48) = (   0.0596666   2.9942962  17.3216073  )
        49           C1  tau(  49) = (   0.3918855   2.9774893  18.7266025  )
        50           H1  tau(  50) = (   0.0017595   3.8652167  19.2343835  )
        51           H1  tau(  51) = (   0.0043965   2.0815098  19.2300810  )
        52           H1  tau(  52) = (   1.4843755   2.9788857  18.8581259  )

     number of k points=    10  Fermi-Dirac smearing, width (Ry)=  0.0073
                       cart. coord. in units 2pi/alat
        k(    1) = (   0.0000000   0.0000000   0.0000000), wk =   0.1250000
        k(    2) = (   0.0000000   0.0419351   0.0000000), wk =   0.2500000
        k(    3) = (   0.0000000  -0.0838702   0.0000000), wk =   0.1250000
        k(    4) = (   0.0379955   0.0000049   0.0000000), wk =   0.2500000
        k(    5) = (   0.0379955   0.0419400   0.0000000), wk =   0.2500000
        k(    6) = (   0.0379955  -0.0838652   0.0000000), wk =   0.2500000
        k(    7) = (   0.0379955  -0.0419301   0.0000000), wk =   0.2500000
        k(    8) = (  -0.0759910  -0.0000099   0.0000000), wk =   0.1250000
        k(    9) = (  -0.0759910   0.0419252   0.0000000), wk =   0.2500000
        k(   10) = (  -0.0759910  -0.0838800   0.0000000), wk =   0.1250000

     Dense  grid:   566857 G-vectors     FFT dimensions: (  72,  64, 270)

     Smooth grid:   143421 G-vectors     FFT dimensions: (  45,  40, 180)

     Estimated max dynamical RAM per process >     229.30 MB

     Estimated total dynamical RAM >       3.58 GB
     Cannot read rho : file not found

     Initial potential from superposition of free atoms

     starting charge  373.99917, renormalised to  390.00000

     negative rho (up, down):  1.729E-02 0.000E+00


     %%%%%%%%%%%%%%%%%%%%%%%%%%%%%%%%%%%%%%%%%%%%%%%%%%%%%%%%%%%%%%%%%%%%%%%%
     %                                                                      %
     % You are using vdW-DF, which was implemented by the Thonhauser group. %
     % Please cite the following two papers that made this development      %
     % possible and the two reviews that describe the various versions:     %
     %                                                                      %
     %   T. Thonhauser et al., PRL 115, 136402 (2015).                      %
     %   T. Thonhauser et al., PRB 76, 125112 (2007).                       %
     %   K. Berland et al., Rep. Prog. Phys. 78, 066501 (2015).             %
     %   D.C. Langreth et al., J. Phys.: Condens. Matter 21, 084203 (2009). %
     %                                                                      %
     %                                                                      %
     % If you are calculating the stress with vdW-DF, please also cite:     %
     %                                                                      %
     %   R. Sabatini et al., J. Phys.: Condens. Matter 24, 424209 (2012).   %
     %                                                                      %
     %%%%%%%%%%%%%%%%%%%%%%%%%%%%%%%%%%%%%%%%%%%%%%%%%%%%%%%%%%%%%%%%%%%%%%%%


 
     Adding external electric field

     Computed dipole along edir(3) : 
        Dipole               -4.6271 Ry au,        -11.7609 Debye
        Dipole field         -0.0087 Ry au, 
 
        Potential amp.        0.8094 Ry
        Total length         46.3494 bohr
 
     Starting wfcs are  295 atomic wfcs
  @ DRIVER MODE: Message from server: STATUS
  @ DRIVER MODE: Message from server: POSDATA
  @ DRIVER MODE: Reading and sharing cell 
  @ DRIVER MODE: Reading and sharing positions 
  @ DRIVER MODE: Received positions 

     total cpu time spent up to now is       20.9 secs

     Self-consistent Calculation

     iteration #  1     ecut=    29.40 Ry     beta= 0.05
     Davidson diagonalization with overlap
     c_bands:  4 eigenvalues not converged
     c_bands:  3 eigenvalues not converged
     c_bands:  2 eigenvalues not converged
     c_bands:  4 eigenvalues not converged
     c_bands:  4 eigenvalues not converged
     c_bands:  2 eigenvalues not converged
     c_bands:  3 eigenvalues not converged
     c_bands:  2 eigenvalues not converged
     ethr =  1.00E-05,  avg # of iterations = 19.7

     negative rho (up, down):  1.688E-02 0.000E+00
 
     Adding external electric field

     Computed dipole along edir(3) : 
        Dipole               12.7813 Ry au,         32.4868 Debye
        Dipole field          0.0241 Ry au, 
 
        Potential amp.       -2.2359 Ry
        Total length         46.3494 bohr
 

     total cpu time spent up to now is       54.2 secs

     total energy              =   -2876.90755750 Ry
     estimated scf accuracy    <     486.54101739 Ry

     iteration #  2     ecut=    29.40 Ry     beta= 0.05
     Davidson diagonalization with overlap
     ethr =  1.00E-02,  avg # of iterations = 13.5

     negative rho (up, down):  8.084E-03 0.000E+00
 
     Adding external electric field

     Computed dipole along edir(3) : 
        Dipole               -1.9857 Ry au,         -5.0471 Debye
        Dipole field         -0.0037 Ry au, 
 
        Potential amp.        0.3474 Ry
        Total length         46.3494 bohr
 

     total cpu time spent up to now is       76.6 secs

     total energy              =   -2826.66798733 Ry
     estimated scf accuracy    <   10899.54344930 Ry

     iteration #  3     ecut=    29.40 Ry     beta= 0.05
     Davidson diagonalization with overlap
     c_bands:  1 eigenvalues not converged
     ethr =  1.00E-02,  avg # of iterations = 18.7

     negative rho (up, down):  8.027E-03 0.000E+00
 
     Adding external electric field

     Computed dipole along edir(3) : 
        Dipole               -2.0656 Ry au,         -5.2502 Debye
        Dipole field         -0.0039 Ry au, 
 
        Potential amp.        0.3613 Ry
        Total length         46.3494 bohr
 

     total cpu time spent up to now is      108.7 secs

     total energy              =   -2921.02589292 Ry
     estimated scf accuracy    <      11.58924484 Ry

     iteration #  4     ecut=    29.40 Ry     beta= 0.05
     Davidson diagonalization with overlap
     ethr =  2.97E-03,  avg # of iterations =  2.4

     negative rho (up, down):  8.694E-03 0.000E+00
 
     Adding external electric field

     Computed dipole along edir(3) : 
        Dipole               -2.3552 Ry au,         -5.9864 Debye
        Dipole field         -0.0044 Ry au, 
 
        Potential amp.        0.4120 Ry
        Total length         46.3494 bohr
 

     total cpu time spent up to now is      116.3 secs

     total energy              =   -2916.82362779 Ry
     estimated scf accuracy    <      10.03944647 Ry

     iteration #  5     ecut=    29.40 Ry     beta= 0.05
     Davidson diagonalization with overlap
     ethr =  2.57E-03,  avg # of iterations = 10.2

     negative rho (up, down):  8.346E-03 0.000E+00
 
     Adding external electric field

     Computed dipole along edir(3) : 
        Dipole               -2.0054 Ry au,         -5.0971 Debye
        Dipole field         -0.0038 Ry au, 
 
        Potential amp.        0.3508 Ry
        Total length         46.3494 bohr
 

     total cpu time spent up to now is      145.6 secs

     total energy              =   -2918.60598316 Ry
     estimated scf accuracy    <     157.56203962 Ry

     iteration #  6     ecut=    29.40 Ry     beta= 0.05
     Davidson diagonalization with overlap
     ethr =  2.57E-03,  avg # of iterations =  1.5

     negative rho (up, down):  8.125E-03 0.000E+00
 
     Adding external electric field

     Computed dipole along edir(3) : 
        Dipole               -1.7623 Ry au,         -4.4794 Debye
        Dipole field         -0.0033 Ry au, 
 
        Potential amp.        0.3083 Ry
        Total length         46.3494 bohr
 

     total cpu time spent up to now is      155.3 secs

     total energy              =   -2918.88491231 Ry
     estimated scf accuracy    <      19.44603991 Ry

     iteration #  7     ecut=    29.40 Ry     beta= 0.05
     Davidson diagonalization with overlap
     ethr =  2.57E-03,  avg # of iterations =  1.1

     negative rho (up, down):  8.029E-03 0.000E+00
 
     Adding external electric field

     Computed dipole along edir(3) : 
        Dipole               -1.6761 Ry au,         -4.2603 Debye
        Dipole field         -0.0032 Ry au, 
 
        Potential amp.        0.2932 Ry
        Total length         46.3494 bohr
 

     total cpu time spent up to now is      162.2 secs

     total energy              =   -2919.09634916 Ry
     estimated scf accuracy    <       1.15242515 Ry

     iteration #  8     ecut=    29.40 Ry     beta= 0.05
     Davidson diagonalization with overlap
     c_bands:  2 eigenvalues not converged
     c_bands:  1 eigenvalues not converged
     ethr =  2.95E-04,  avg # of iterations = 12.9

     negative rho (up, down):  8.073E-03 0.000E+00
 
     Adding external electric field

     Computed dipole along edir(3) : 
        Dipole               -1.5230 Ry au,         -3.8712 Debye
        Dipole field         -0.0029 Ry au, 
 
        Potential amp.        0.2664 Ry
        Total length         46.3494 bohr
 

     total cpu time spent up to now is      173.0 secs

     total energy              =   -2919.11356233 Ry
     estimated scf accuracy    <       0.67803630 Ry

     iteration #  9     ecut=    29.40 Ry     beta= 0.05
     Davidson diagonalization with overlap
     ethr =  1.74E-04,  avg # of iterations =  6.7

     negative rho (up, down):  8.680E-03 0.000E+00
 
     Adding external electric field

     Computed dipole along edir(3) : 
        Dipole               -0.9413 Ry au,         -2.3926 Debye
        Dipole field         -0.0018 Ry au, 
 
        Potential amp.        0.1647 Ry
        Total length         46.3494 bohr
 

     total cpu time spent up to now is      195.7 secs

     total energy              =   -2919.06805405 Ry
     estimated scf accuracy    <       0.61438195 Ry

     iteration # 10     ecut=    29.40 Ry     beta= 0.05
     Davidson diagonalization with overlap
     c_bands:  1 eigenvalues not converged
     ethr =  1.58E-04,  avg # of iterations =  9.8

     negative rho (up, down):  8.395E-03 0.000E+00
 
     Adding external electric field

     Computed dipole along edir(3) : 
        Dipole               -0.7808 Ry au,         -1.9845 Debye
        Dipole field         -0.0015 Ry au, 
 
        Potential amp.        0.1366 Ry
        Total length         46.3494 bohr
 

     total cpu time spent up to now is      222.8 secs

     total energy              =   -2919.02278116 Ry
     estimated scf accuracy    <       5.23508939 Ry

     iteration # 11     ecut=    29.40 Ry     beta= 0.05
     Davidson diagonalization with overlap
     ethr =  1.58E-04,  avg # of iterations =  5.2

     negative rho (up, down):  8.632E-03 0.000E+00
 
     Adding external electric field

     Computed dipole along edir(3) : 
        Dipole               -0.4153 Ry au,         -1.0555 Debye
        Dipole field         -0.0008 Ry au, 
 
        Potential amp.        0.0726 Ry
        Total length         46.3494 bohr
 

     total cpu time spent up to now is      231.2 secs

     total energy              =   -2919.10339283 Ry
     estimated scf accuracy    <       0.21188165 Ry

     iteration # 12     ecut=    29.40 Ry     beta= 0.05
     Davidson diagonalization with overlap
     c_bands:  2 eigenvalues not converged
     ethr =  5.43E-05,  avg # of iterations =  8.5

     negative rho (up, down):  9.695E-03 0.000E+00
 
     Adding external electric field

     Computed dipole along edir(3) : 
        Dipole                0.2489 Ry au,          0.6325 Debye
        Dipole field          0.0005 Ry au, 
 
        Potential amp.       -0.0435 Ry
        Total length         46.3494 bohr
 

     total cpu time spent up to now is      241.7 secs

     total energy              =   -2919.13443168 Ry
     estimated scf accuracy    <       0.14848643 Ry

     iteration # 13     ecut=    29.40 Ry     beta= 0.05
     Davidson diagonalization with overlap
     c_bands:  2 eigenvalues not converged
     c_bands:  1 eigenvalues not converged
     ethr =  3.81E-05,  avg # of iterations = 13.0

     negative rho (up, down):  1.025E-02 0.000E+00
 
     Adding external electric field

     Computed dipole along edir(3) : 
        Dipole                0.2119 Ry au,          0.5385 Debye
        Dipole field          0.0004 Ry au, 
 
        Potential amp.       -0.0371 Ry
        Total length         46.3494 bohr
 

     total cpu time spent up to now is      255.9 secs

     total energy              =   -2919.08741305 Ry
     estimated scf accuracy    <       0.27979209 Ry

     iteration # 14     ecut=    29.40 Ry     beta= 0.05
     Davidson diagonalization with overlap
     ethr =  3.81E-05,  avg # of iterations =  6.8

     negative rho (up, down):  1.083E-02 0.000E+00
 
     Adding external electric field

     Computed dipole along edir(3) : 
        Dipole                0.1729 Ry au,          0.4393 Debye
        Dipole field          0.0003 Ry au, 
 
        Potential amp.       -0.0302 Ry
        Total length         46.3494 bohr
 

     total cpu time spent up to now is      268.1 secs

     total energy              =   -2919.12022286 Ry
     estimated scf accuracy    <       0.13349342 Ry

     iteration # 15     ecut=    29.40 Ry     beta= 0.05
     Davidson diagonalization with overlap
     ethr =  3.42E-05,  avg # of iterations =  5.3

     negative rho (up, down):  1.080E-02 0.000E+00
 
     Adding external electric field

     Computed dipole along edir(3) : 
        Dipole                0.1068 Ry au,          0.2714 Debye
        Dipole field          0.0002 Ry au, 
 
        Potential amp.       -0.0187 Ry
        Total length         46.3494 bohr
 

     total cpu time spent up to now is      276.6 secs

     total energy              =   -2919.12728025 Ry
     estimated scf accuracy    <       0.06018729 Ry

     iteration # 16     ecut=    29.40 Ry     beta= 0.05
     Davidson diagonalization with overlap
     c_bands:  1 eigenvalues not converged
     ethr =  1.54E-05,  avg # of iterations =  6.9

     negative rho (up, down):  1.225E-02 0.000E+00
 
     Adding external electric field

     Computed dipole along edir(3) : 
        Dipole                0.1689 Ry au,          0.4292 Debye
        Dipole field          0.0003 Ry au, 
 
        Potential amp.       -0.0295 Ry
        Total length         46.3494 bohr
 

     total cpu time spent up to now is      285.4 secs

     total energy              =   -2919.12253398 Ry
     estimated scf accuracy    <       0.06540291 Ry

     iteration # 17     ecut=    29.40 Ry     beta= 0.05
     Davidson diagonalization with overlap
     c_bands:  1 eigenvalues not converged
     c_bands:  1 eigenvalues not converged
     ethr =  1.54E-05,  avg # of iterations = 10.9

     negative rho (up, down):  1.222E-02 0.000E+00
 
     Adding external electric field

     Computed dipole along edir(3) : 
        Dipole                0.2941 Ry au,          0.7475 Debye
        Dipole field          0.0006 Ry au, 
 
        Potential amp.       -0.0514 Ry
        Total length         46.3494 bohr
 

     total cpu time spent up to now is      297.3 secs

     total energy              =   -2919.12466364 Ry
     estimated scf accuracy    <       0.03237525 Ry

     iteration # 18     ecut=    29.40 Ry     beta= 0.05
     Davidson diagonalization with overlap
     c_bands:  1 eigenvalues not converged
     ethr =  8.30E-06,  avg # of iterations = 11.7

     negative rho (up, down):  1.217E-02 0.000E+00
 
     Adding external electric field

     Computed dipole along edir(3) : 
        Dipole                0.2747 Ry au,          0.6982 Debye
        Dipole field          0.0005 Ry au, 
 
        Potential amp.       -0.0481 Ry
        Total length         46.3494 bohr
 

     total cpu time spent up to now is      311.5 secs

     total energy              =   -2919.13153175 Ry
     estimated scf accuracy    <       0.05962467 Ry

     iteration # 19     ecut=    29.40 Ry     beta= 0.05
     Davidson diagonalization with overlap
     ethr =  8.30E-06,  avg # of iterations =  1.4

     negative rho (up, down):  1.331E-02 0.000E+00
 
     Adding external electric field

     Computed dipole along edir(3) : 
        Dipole                0.2290 Ry au,          0.5821 Debye
        Dipole field          0.0004 Ry au, 
 
        Potential amp.       -0.0401 Ry
        Total length         46.3494 bohr
 

     total cpu time spent up to now is      318.7 secs

     total energy              =   -2919.11888591 Ry
     estimated scf accuracy    <       0.04156803 Ry

     iteration # 20     ecut=    29.40 Ry     beta= 0.05
     Davidson diagonalization with overlap
     ethr =  8.30E-06,  avg # of iterations =  7.7

     negative rho (up, down):  1.422E-02 0.000E+00
 
     Adding external electric field

     Computed dipole along edir(3) : 
        Dipole                0.2612 Ry au,          0.6640 Debye
        Dipole field          0.0005 Ry au, 
 
        Potential amp.       -0.0457 Ry
        Total length         46.3494 bohr
 

     total cpu time spent up to now is      335.7 secs

     total energy              =   -2919.12665763 Ry
     estimated scf accuracy    <       0.03421654 Ry

     iteration # 21     ecut=    29.40 Ry     beta= 0.05
     Davidson diagonalization with overlap
     ethr =  8.30E-06,  avg # of iterations =  5.0

     negative rho (up, down):  1.576E-02 0.000E+00
 
     Adding external electric field

     Computed dipole along edir(3) : 
        Dipole                0.2153 Ry au,          0.5473 Debye
        Dipole field          0.0004 Ry au, 
 
        Potential amp.       -0.0377 Ry
        Total length         46.3494 bohr
 

     total cpu time spent up to now is      352.9 secs

     total energy              =   -2919.12846837 Ry
     estimated scf accuracy    <       0.00989364 Ry

     iteration # 22     ecut=    29.40 Ry     beta= 0.05
     Davidson diagonalization with overlap
     c_bands:  1 eigenvalues not converged
     ethr =  2.54E-06,  avg # of iterations =  9.5

     negative rho (up, down):  1.576E-02 0.000E+00
 
     Adding external electric field

     Computed dipole along edir(3) : 
        Dipole                0.2051 Ry au,          0.5213 Debye
        Dipole field          0.0004 Ry au, 
 
        Potential amp.       -0.0359 Ry
        Total length         46.3494 bohr
 

     total cpu time spent up to now is      378.7 secs

     total energy              =   -2919.13328542 Ry
     estimated scf accuracy    <       0.02096818 Ry

     iteration # 23     ecut=    29.40 Ry     beta= 0.05
     Davidson diagonalization with overlap
     ethr =  2.54E-06,  avg # of iterations =  1.1

     negative rho (up, down):  1.580E-02 0.000E+00
 
     Adding external electric field

     Computed dipole along edir(3) : 
        Dipole                0.1880 Ry au,          0.4777 Debye
        Dipole field          0.0004 Ry au, 
 
        Potential amp.       -0.0329 Ry
        Total length         46.3494 bohr
 

     total cpu time spent up to now is      396.9 secs

     total energy              =   -2919.13217552 Ry
     estimated scf accuracy    <       0.01848278 Ry

     iteration # 24     ecut=    29.40 Ry     beta= 0.05
     Davidson diagonalization with overlap
     ethr =  2.54E-06,  avg # of iterations =  1.8

     negative rho (up, down):  1.582E-02 0.000E+00
 
     Adding external electric field

     Computed dipole along edir(3) : 
        Dipole                0.1951 Ry au,          0.4960 Debye
        Dipole field          0.0004 Ry au, 
 
        Potential amp.       -0.0341 Ry
        Total length         46.3494 bohr
 

     total cpu time spent up to now is      410.0 secs

     total energy              =   -2919.13021672 Ry
     estimated scf accuracy    <       0.01315997 Ry

     iteration # 25     ecut=    29.40 Ry     beta= 0.05
     Davidson diagonalization with overlap
     ethr =  2.54E-06,  avg # of iterations =  5.0

     negative rho (up, down):  1.617E-02 0.000E+00
 
     Adding external electric field

     Computed dipole along edir(3) : 
        Dipole                0.2015 Ry au,          0.5123 Debye
        Dipole field          0.0004 Ry au, 
 
        Potential amp.       -0.0353 Ry
        Total length         46.3494 bohr
 

     total cpu time spent up to now is      419.0 secs

     total energy              =   -2919.13085593 Ry
     estimated scf accuracy    <       0.00302524 Ry

     iteration # 26     ecut=    29.40 Ry     beta= 0.05
     Davidson diagonalization with overlap
     c_bands:  1 eigenvalues not converged
     c_bands:  1 eigenvalues not converged
     ethr =  7.76E-07,  avg # of iterations = 11.6

     negative rho (up, down):  1.616E-02 0.000E+00
 
     Adding external electric field

     Computed dipole along edir(3) : 
        Dipole                0.2062 Ry au,          0.5240 Debye
        Dipole field          0.0004 Ry au, 
 
        Potential amp.       -0.0361 Ry
        Total length         46.3494 bohr
 

     total cpu time spent up to now is      431.6 secs

     total energy              =   -2919.13147383 Ry
     estimated scf accuracy    <       0.00056718 Ry

     iteration # 27     ecut=    29.40 Ry     beta= 0.05
     Davidson diagonalization with overlap
     ethr =  1.45E-07,  avg # of iterations =  4.4

     negative rho (up, down):  1.701E-02 0.000E+00
 
     Adding external electric field

     Computed dipole along edir(3) : 
        Dipole                0.2252 Ry au,          0.5723 Debye
        Dipole field          0.0004 Ry au, 
 
        Potential amp.       -0.0394 Ry
        Total length         46.3494 bohr
 

     total cpu time spent up to now is      440.8 secs

     total energy              =   -2919.13170283 Ry
     estimated scf accuracy    <       0.00044449 Ry

     iteration # 28     ecut=    29.40 Ry     beta= 0.05
     Davidson diagonalization with overlap
     ethr =  1.14E-07,  avg # of iterations =  8.7

     negative rho (up, down):  1.771E-02 0.000E+00
 
     Adding external electric field

     Computed dipole along edir(3) : 
        Dipole                0.2398 Ry au,          0.6096 Debye
        Dipole field          0.0005 Ry au, 
 
        Potential amp.       -0.0420 Ry
        Total length         46.3494 bohr
 

     total cpu time spent up to now is      452.8 secs

     total energy              =   -2919.13194631 Ry
     estimated scf accuracy    <       0.00034208 Ry

     iteration # 29     ecut=    29.40 Ry     beta= 0.05
     Davidson diagonalization with overlap
     ethr =  8.77E-08,  avg # of iterations =  7.0

     negative rho (up, down):  1.784E-02 0.000E+00
 
     Adding external electric field

     Computed dipole along edir(3) : 
        Dipole                0.2438 Ry au,          0.6196 Debye
        Dipole field          0.0005 Ry au, 
 
        Potential amp.       -0.0426 Ry
        Total length         46.3494 bohr
 

     total cpu time spent up to now is      467.0 secs

     total energy              =   -2919.13208063 Ry
     estimated scf accuracy    <       0.00224319 Ry

     iteration # 30     ecut=    29.40 Ry     beta= 0.05
     Davidson diagonalization with overlap
     ethr =  8.77E-08,  avg # of iterations =  4.6

     negative rho (up, down):  1.769E-02 0.000E+00
 
     Adding external electric field

     Computed dipole along edir(3) : 
        Dipole                0.2491 Ry au,          0.6332 Debye
        Dipole field          0.0005 Ry au, 
 
        Potential amp.       -0.0436 Ry
        Total length         46.3494 bohr
 

     total cpu time spent up to now is      477.8 secs

     total energy              =   -2919.13183566 Ry
     estimated scf accuracy    <       0.00121042 Ry

     iteration # 31     ecut=    29.40 Ry     beta= 0.05
     Davidson diagonalization with overlap
     ethr =  8.77E-08,  avg # of iterations =  6.1

     negative rho (up, down):  1.783E-02 0.000E+00
 
     Adding external electric field

     Computed dipole along edir(3) : 
        Dipole                0.2506 Ry au,          0.6369 Debye
        Dipole field          0.0005 Ry au, 
 
        Potential amp.       -0.0438 Ry
        Total length         46.3494 bohr
 

     total cpu time spent up to now is      493.9 secs

     total energy              =   -2919.13210792 Ry
     estimated scf accuracy    <       0.00020509 Ry

     iteration # 32     ecut=    29.40 Ry     beta= 0.05
     Davidson diagonalization with overlap
     ethr =  5.26E-08,  avg # of iterations =  5.2

     negative rho (up, down):  1.794E-02 0.000E+00
 
     Adding external electric field

     Computed dipole along edir(3) : 
        Dipole                0.2536 Ry au,          0.6445 Debye
        Dipole field          0.0005 Ry au, 
 
        Potential amp.       -0.0444 Ry
        Total length         46.3494 bohr
 

     total cpu time spent up to now is      507.1 secs

     total energy              =   -2919.13220012 Ry
     estimated scf accuracy    <       0.00038652 Ry

     iteration # 33     ecut=    29.40 Ry     beta= 0.05
     Davidson diagonalization with overlap
     ethr =  5.26E-08,  avg # of iterations =  5.0

     negative rho (up, down):  1.785E-02 0.000E+00
 
     Adding external electric field

     Computed dipole along edir(3) : 
        Dipole                0.2524 Ry au,          0.6415 Debye
        Dipole field          0.0005 Ry au, 
 
        Potential amp.       -0.0441 Ry
        Total length         46.3494 bohr
 

     total cpu time spent up to now is      518.6 secs

     total energy              =   -2919.13230581 Ry
     estimated scf accuracy    <       0.00002328 Ry

     iteration # 34     ecut=    29.40 Ry     beta= 0.05
     Davidson diagonalization with overlap
     ethr =  5.97E-09,  avg # of iterations =  5.1

     negative rho (up, down):  1.786E-02 0.000E+00
 
     Adding external electric field

     Computed dipole along edir(3) : 
        Dipole                0.2529 Ry au,          0.6428 Debye
        Dipole field          0.0005 Ry au, 
 
        Potential amp.       -0.0442 Ry
        Total length         46.3494 bohr
 

     total cpu time spent up to now is      530.4 secs

     total energy              =   -2919.13235362 Ry
     estimated scf accuracy    <       0.00007551 Ry

     iteration # 35     ecut=    29.40 Ry     beta= 0.05
     Davidson diagonalization with overlap
     ethr =  5.97E-09,  avg # of iterations =  5.0

     negative rho (up, down):  1.785E-02 0.000E+00
 
     Adding external electric field

     Computed dipole along edir(3) : 
        Dipole                0.2522 Ry au,          0.6411 Debye
        Dipole field          0.0005 Ry au, 
 
        Potential amp.       -0.0441 Ry
        Total length         46.3494 bohr
 

     total cpu time spent up to now is      551.0 secs

     total energy              =   -2919.13240571 Ry
     estimated scf accuracy    <       0.00001519 Ry

     iteration # 36     ecut=    29.40 Ry     beta= 0.05
     Davidson diagonalization with overlap
     ethr =  3.90E-09,  avg # of iterations =  2.0

     negative rho (up, down):  1.780E-02 0.000E+00
 
     Adding external electric field

     Computed dipole along edir(3) : 
        Dipole                0.2510 Ry au,          0.6379 Debye
        Dipole field          0.0005 Ry au, 
 
        Potential amp.       -0.0439 Ry
        Total length         46.3494 bohr
 

     total cpu time spent up to now is      560.9 secs

     total energy              =   -2919.13244658 Ry
     estimated scf accuracy    <       0.00001074 Ry

     iteration # 37     ecut=    29.40 Ry     beta= 0.05
     Davidson diagonalization with overlap
     ethr =  2.75E-09,  avg # of iterations =  5.7

     negative rho (up, down):  1.782E-02 0.000E+00
 
     Adding external electric field

     Computed dipole along edir(3) : 
        Dipole                0.2519 Ry au,          0.6404 Debye
        Dipole field          0.0005 Ry au, 
 
        Potential amp.       -0.0441 Ry
        Total length         46.3494 bohr
 

     total cpu time spent up to now is      575.5 secs

     total energy              =   -2919.13248743 Ry
     estimated scf accuracy    <       0.00000257 Ry

     iteration # 38     ecut=    29.40 Ry     beta= 0.05
     Davidson diagonalization with overlap
     ethr =  6.60E-10,  avg # of iterations =  5.5

     negative rho (up, down):  1.784E-02 0.000E+00
 
     Adding external electric field

     Computed dipole along edir(3) : 
        Dipole                0.2522 Ry au,          0.6409 Debye
        Dipole field          0.0005 Ry au, 
 
        Potential amp.       -0.0441 Ry
        Total length         46.3494 bohr
 

     total cpu time spent up to now is      585.0 secs

     total energy              =   -2919.13252121 Ry
     estimated scf accuracy    <       0.00000330 Ry

     iteration # 39     ecut=    29.40 Ry     beta= 0.05
     Davidson diagonalization with overlap
     ethr =  6.60E-10,  avg # of iterations =  4.7

     negative rho (up, down):  1.783E-02 0.000E+00
 
     Adding external electric field

     Computed dipole along edir(3) : 
        Dipole                0.2519 Ry au,          0.6402 Debye
        Dipole field          0.0005 Ry au, 
 
        Potential amp.       -0.0441 Ry
        Total length         46.3494 bohr
 

     total cpu time spent up to now is      595.0 secs

     total energy              =   -2919.13255228 Ry
     estimated scf accuracy    <       0.00000104 Ry

     iteration # 40     ecut=    29.40 Ry     beta= 0.05
     Davidson diagonalization with overlap
     ethr =  2.67E-10,  avg # of iterations =  5.0

     negative rho (up, down):  1.779E-02 0.000E+00
 
     Adding external electric field

     Computed dipole along edir(3) : 
        Dipole                0.2513 Ry au,          0.6387 Debye
        Dipole field          0.0005 Ry au, 
 
        Potential amp.       -0.0440 Ry
        Total length         46.3494 bohr
 

     total cpu time spent up to now is      611.3 secs

     total energy              =   -2919.13258056 Ry
     estimated scf accuracy    <       0.00000070 Ry

     iteration # 41     ecut=    29.40 Ry     beta= 0.05
     Davidson diagonalization with overlap
     ethr =  1.78E-10,  avg # of iterations =  5.0

     negative rho (up, down):  1.776E-02 0.000E+00
 
     Adding external electric field

     Computed dipole along edir(3) : 
        Dipole                0.2505 Ry au,          0.6368 Debye
        Dipole field          0.0005 Ry au, 
 
        Potential amp.       -0.0438 Ry
        Total length         46.3494 bohr
 

     total cpu time spent up to now is      622.5 secs

     total energy              =   -2919.13260602 Ry
     estimated scf accuracy    <       0.00000061 Ry

     iteration # 42     ecut=    29.40 Ry     beta= 0.05
     Davidson diagonalization with overlap
     ethr =  1.56E-10,  avg # of iterations =  5.0

     negative rho (up, down):  1.775E-02 0.000E+00
 
     Adding external electric field

     Computed dipole along edir(3) : 
        Dipole                0.2505 Ry au,          0.6367 Debye
        Dipole field          0.0005 Ry au, 
 
        Potential amp.       -0.0438 Ry
        Total length         46.3494 bohr
 

     total cpu time spent up to now is      632.0 secs

     total energy              =   -2919.13262891 Ry
     estimated scf accuracy    <       0.00000009 Ry

     iteration # 43     ecut=    29.40 Ry     beta= 0.05
     Davidson diagonalization with overlap
     ethr =  2.22E-11,  avg # of iterations =  5.2

     negative rho (up, down):  1.773E-02 0.000E+00
 
     Adding external electric field

     Computed dipole along edir(3) : 
        Dipole                0.2505 Ry au,          0.6367 Debye
        Dipole field          0.0005 Ry au, 
 
        Potential amp.       -0.0438 Ry
        Total length         46.3494 bohr
 

     total cpu time spent up to now is      643.8 secs

     total energy              =   -2919.13264961 Ry
     estimated scf accuracy    <       0.00000013 Ry

     iteration # 44     ecut=    29.40 Ry     beta= 0.05
     Davidson diagonalization with overlap
     ethr =  2.22E-11,  avg # of iterations =  3.5

     negative rho (up, down):  1.772E-02 0.000E+00
 
     Adding external electric field

     Computed dipole along edir(3) : 
        Dipole                0.2504 Ry au,          0.6365 Debye
        Dipole field          0.0005 Ry au, 
 
        Potential amp.       -0.0438 Ry
        Total length         46.3494 bohr
 

     total cpu time spent up to now is      651.9 secs

     total energy              =   -2919.13266826 Ry
     estimated scf accuracy    <       0.00000014 Ry

     iteration # 45     ecut=    29.40 Ry     beta= 0.05
     Davidson diagonalization with overlap
     ethr =  2.22E-11,  avg # of iterations =  3.0

     negative rho (up, down):  1.771E-02 0.000E+00
 
     Adding external electric field

     Computed dipole along edir(3) : 
        Dipole                0.2503 Ry au,          0.6362 Debye
        Dipole field          0.0005 Ry au, 
 
        Potential amp.       -0.0438 Ry
        Total length         46.3494 bohr
 

     total cpu time spent up to now is      660.0 secs

     total energy              =   -2919.13268498 Ry
     estimated scf accuracy    <       0.00000013 Ry

     iteration # 46     ecut=    29.40 Ry     beta= 0.05
     Davidson diagonalization with overlap
     ethr =  2.22E-11,  avg # of iterations =  3.6

     negative rho (up, down):  1.772E-02 0.000E+00
 
     Adding external electric field

     Computed dipole along edir(3) : 
        Dipole                0.2504 Ry au,          0.6365 Debye
        Dipole field          0.0005 Ry au, 
 
        Potential amp.       -0.0438 Ry
        Total length         46.3494 bohr
 

     total cpu time spent up to now is      669.0 secs

     End of self-consistent calculation

          k = 0.0000 0.0000 0.0000 ( 18029 PWs)   bands (ev):

   -56.8999 -56.8663 -56.0128 -56.0035 -55.9777 -55.9710 -55.8628 -55.8270
   -55.6449 -55.6097 -55.5618 -55.5395 -55.5279 -55.4419 -54.9964 -54.9442
   -33.3275 -33.1741 -33.1460 -33.0763 -32.9853 -32.9536 -32.4862 -32.4770
   -32.4057 -32.2987 -32.2531 -32.2264 -32.2112 -32.1872 -32.1544 -32.1513
   -32.1436 -32.1417 -32.1175 -32.1092 -32.1031 -32.0712 -32.0451 -32.0300
   -32.0163 -31.9991 -31.9901 -31.9666 -31.9539 -31.9005 -31.8766 -31.8763
   -31.7839 -31.7832 -31.7727 -31.7150 -31.7112 -31.6892 -31.6697 -31.6482
   -31.6238 -31.5783 -31.5190 -31.2397 -31.2209 -31.1937 -31.1655 -31.0471
   -17.0620 -16.6222 -16.3911 -16.2612 -16.1897 -16.1393 -16.0916 -15.9639
   -15.8935 -15.8902 -15.8531 -15.8134 -15.7455 -15.6062 -15.5088 -15.4490
   -15.4058 -15.2861 -15.2291 -15.1920 -15.1841 -15.1534 -15.1331 -14.9359
   -14.9135 -14.8178 -14.8000 -14.6770 -14.4490 -14.0606 -13.9505 -13.0845
    -7.8028  -4.6282  -4.1184  -3.8754  -3.7931  -3.6825  -3.6754  -3.5929
    -3.4793  -3.4283  -3.3827  -3.2672  -3.2626  -3.1175  -3.0867  -3.0746
    -3.0679  -3.0263  -2.9905  -2.9520  -2.8998  -2.8940  -2.8891  -2.7380
    -2.6387  -2.5679  -2.5463  -2.5290  -2.5013  -2.4077  -2.4038  -2.3894
    -2.3858  -2.2899  -2.1411  -2.1306  -2.0966  -2.0608  -2.0567  -2.0128
    -2.0025  -1.8468  -1.8024  -1.6861  -1.6741  -1.6399  -1.5734  -1.5699
    -1.4543  -1.3982  -1.3526  -1.3072  -1.2003  -1.1555  -1.1262  -1.0369
    -0.9767  -0.9399  -0.9206  -0.9017  -0.7942  -0.7872  -0.7709  -0.6797
    -0.6739  -0.6236  -0.5340  -0.5115  -0.5094  -0.4188  -0.4105  -0.3112
    -0.2779  -0.2249  -0.1949  -0.1147  -0.0844   0.0199   0.0582   0.0742
     0.2037   0.2194   0.2773   0.3442   0.4004   0.4442   0.4597   0.4946
     0.5034   0.5969   0.7043   0.7066   0.8186   0.8558   1.0125   1.0514
     1.3495   1.3599   2.0222   2.3752   2.5359   2.8341   3.0288   3.1415
     3.3519   3.3657   3.3715   3.5522   3.6003

          k = 0.0000 0.0419 0.0000 ( 17933 PWs)   bands (ev):

   -56.8949 -56.8711 -56.0077 -55.9986 -55.9827 -55.9756 -55.8577 -55.8320
   -55.6398 -55.6146 -55.5567 -55.5379 -55.5328 -55.4434 -54.9931 -54.9473
   -33.2741 -33.1699 -33.1498 -33.0630 -33.0095 -32.9986 -32.4333 -32.4241
   -32.3502 -32.2843 -32.2472 -32.2148 -32.2141 -32.2080 -32.1723 -32.1588
   -32.1538 -32.1519 -32.1469 -32.1312 -32.0675 -32.0663 -32.0587 -32.0475
   -32.0314 -31.9831 -31.9699 -31.9652 -31.9013 -31.8968 -31.8796 -31.8630
   -31.7973 -31.7787 -31.7698 -31.7605 -31.7126 -31.7014 -31.6833 -31.6709
   -31.6486 -31.6350 -31.4699 -31.2495 -31.2187 -31.1974 -31.1683 -31.0855
   -16.9407 -16.5003 -16.3141 -16.2878 -16.2015 -16.1137 -16.0751 -15.9129
   -15.9077 -15.8568 -15.8333 -15.7465 -15.7233 -15.6372 -15.5509 -15.5389
   -15.4500 -15.2882 -15.2839 -15.2569 -15.2232 -15.1297 -15.0728 -14.9855
   -14.9091 -14.8565 -14.8226 -14.6989 -14.5192 -14.0677 -13.9916 -13.0935
    -7.7984  -4.4464  -3.9406  -3.7132  -3.6419  -3.6028  -3.5340  -3.4719
    -3.4188  -3.4100  -3.3974  -3.2328  -3.1727  -3.0775  -3.0722  -3.0607
    -3.0565  -3.0330  -2.9962  -2.9639  -2.9068  -2.8861  -2.8494  -2.7997
    -2.7705  -2.7401  -2.7024  -2.6387  -2.6075  -2.5455  -2.5210  -2.4531
    -2.3241  -2.3199  -2.3055  -2.1297  -2.1002  -2.0889  -2.0351  -1.9760
    -1.8935  -1.7440  -1.6960  -1.6876  -1.6483  -1.6451  -1.4745  -1.4562
    -1.4216  -1.3501  -1.3250  -1.3146  -1.2380  -1.1756  -1.1632  -1.1198
    -1.0098  -0.9341  -0.8701  -0.8090  -0.7307  -0.7206  -0.6759  -0.6594
    -0.5995  -0.5881  -0.5461  -0.5329  -0.5163  -0.4420  -0.4085  -0.3578
    -0.3317  -0.3078  -0.1833  -0.1656  -0.0647  -0.0454  -0.0322   0.0175
     0.0809   0.1010   0.1160   0.1270   0.1392   0.3137   0.3533   0.4308
     0.5213   0.6492   0.6924   0.7622   0.7827   0.7991   0.9581   0.9650
     1.2296   1.3174   1.8972   2.6426   2.6475   2.8428   3.1856   3.2156
     3.2434   3.3248   3.3487   3.4989   3.5436

          k = 0.0000-0.0839 0.0000 ( 17884 PWs)   bands (ev):

   -56.8832 -56.8828 -55.9972 -55.9933 -55.9870 -55.9869 -55.8478 -55.8418
   -55.6298 -55.6246 -55.5448 -55.5447 -55.5363 -55.4449 -54.9894 -54.9509
   -33.1599 -33.1597 -33.1432 -33.1430 -33.0309 -33.0306 -32.3060 -32.3031
   -32.2960 -32.2916 -32.2485 -32.2480 -32.2428 -32.2415 -32.1981 -32.1940
   -32.1856 -32.1813 -32.1478 -32.1465 -32.0995 -32.0944 -32.0488 -32.0452
   -31.9814 -31.9735 -31.9109 -31.9050 -31.8880 -31.8879 -31.8746 -31.8307
   -31.8295 -31.7932 -31.7703 -31.7702 -31.7584 -31.7311 -31.7311 -31.7098
   -31.6808 -31.6503 -31.3843 -31.3041 -31.2162 -31.1862 -31.1707 -31.1316
   -16.6396 -16.6390 -16.2250 -16.2212 -16.0686 -16.0670 -16.0573 -16.0572
   -15.9301 -15.9215 -15.7384 -15.7337 -15.6218 -15.6153 -15.5082 -15.5052
   -15.4971 -15.4946 -15.4231 -15.4106 -15.1089 -15.1046 -14.9969 -14.9893
   -14.9433 -14.9386 -14.7799 -14.7713 -14.6086 -14.0543 -14.0543 -13.1024
    -7.7941  -3.9922  -3.9921  -3.5247  -3.5171  -3.5019  -3.5016  -3.3998
    -3.3985  -3.3473  -3.3387  -3.1748  -3.1508  -3.0873  -3.0604  -3.0501
    -3.0298  -3.0259  -3.0183  -3.0021  -2.9961  -2.9510  -2.9230  -2.8167
    -2.8138  -2.7509  -2.7097  -2.6019  -2.5229  -2.5113  -2.4541  -2.4164
    -2.4080  -2.2262  -2.2055  -2.1965  -2.1827  -2.1117  -2.1030  -2.0968
    -2.0027  -1.9779  -1.8604  -1.8500  -1.5904  -1.5815  -1.3979  -1.3865
    -1.3712  -1.3373  -1.3024  -1.2595  -1.1861  -1.1599  -1.0362  -1.0345
    -1.0267  -0.9838  -0.8828  -0.8468  -0.7930  -0.7895  -0.7046  -0.6971
    -0.6753  -0.6549  -0.5869  -0.4664  -0.4507  -0.4347  -0.3886  -0.3705
    -0.2605  -0.2318  -0.2211  -0.1787  -0.1517  -0.1264  -0.1103  -0.0562
     0.0198   0.0285   0.0416   0.0955   0.1024   0.1105   0.2046   0.3199
     0.4024   0.6931   0.7171   0.8246   0.8251   0.8582   0.9296   0.9382
     0.9675   1.2851   1.7679   2.8855   2.8859   3.0209   3.0212   3.0813
     3.0816   3.4514   3.4695   3.5794   3.5942

          k = 0.0380 0.0000 0.0000 ( 17913 PWs)   bands (ev):

   -56.8998 -56.8662 -56.0120 -56.0040 -55.9776 -55.9709 -55.8627 -55.8269
   -55.6448 -55.6096 -55.5617 -55.5394 -55.5278 -55.4418 -54.9963 -54.9441
   -33.3282 -33.1739 -33.1459 -33.0743 -32.9850 -32.9533 -32.4903 -32.4773
   -32.4057 -32.2792 -32.2526 -32.2265 -32.2111 -32.1802 -32.1745 -32.1524
   -32.1434 -32.1416 -32.1150 -32.1100 -32.1047 -32.0641 -32.0602 -32.0424
   -31.9989 -31.9900 -31.9874 -31.9665 -31.9535 -31.9029 -31.8745 -31.8739
   -31.7898 -31.7837 -31.7725 -31.7148 -31.7109 -31.6891 -31.6701 -31.6480
   -31.6236 -31.5781 -31.5184 -31.2395 -31.2223 -31.1938 -31.1648 -31.0469
   -16.9581 -16.5450 -16.4188 -16.3592 -16.2386 -16.0880 -15.9952 -15.9771
   -15.8951 -15.8759 -15.8226 -15.8069 -15.7683 -15.7464 -15.4493 -15.4432
   -15.4051 -15.3344 -15.3291 -15.3034 -15.2242 -15.0279 -15.0231 -15.0157
   -14.9173 -14.8495 -14.7852 -14.6764 -14.4472 -14.0578 -13.9502 -13.0828
    -7.8013  -4.3445  -3.9540  -3.8242  -3.7971  -3.7018  -3.6288  -3.4569
    -3.4484  -3.4144  -3.3850  -3.2311  -3.2184  -3.1917  -3.1050  -3.0958
    -3.0588  -3.0359  -3.0086  -2.9383  -2.9061  -2.8226  -2.7785  -2.7022
    -2.6072  -2.5509  -2.5296  -2.5188  -2.5126  -2.4112  -2.3735  -2.3198
    -2.1975  -2.1765  -2.1548  -2.0932  -2.0616  -2.0515  -2.0433  -1.9735
    -1.9527  -1.9426  -1.7996  -1.7545  -1.7118  -1.6453  -1.5820  -1.5407
    -1.4540  -1.4011  -1.3597  -1.3354  -1.2897  -1.2409  -1.2183  -1.1806
    -1.1234  -1.0377  -0.9467  -0.8790  -0.8724  -0.8366  -0.7729  -0.7137
    -0.6796  -0.6741  -0.6387  -0.5717  -0.4243  -0.3685  -0.3414  -0.3205
    -0.2908  -0.2372  -0.1430  -0.1165  -0.0899  -0.0861  -0.0627   0.0258
     0.0950   0.1465   0.1893   0.2766   0.3121   0.3680   0.4710   0.4761
     0.4973   0.5773   0.6230   0.6543   0.6737   0.7334   0.9089   0.9624
     1.2213   1.3652   1.8817   2.5195   2.5522   2.8333   2.9949   3.1076
     3.3609   3.3804   3.4465   3.4516   3.6236

          k = 0.0380 0.0419 0.0000 ( 17878 PWs)   bands (ev):

   -56.8948 -56.8711 -56.0071 -55.9991 -55.9826 -55.9757 -55.8576 -55.8320
   -55.6397 -55.6146 -55.5567 -55.5379 -55.5327 -55.4433 -54.9931 -54.9472
   -33.2747 -33.1697 -33.1499 -33.0614 -33.0095 -32.9983 -32.4375 -32.4248
   -32.3503 -32.2672 -32.2467 -32.2149 -32.2141 -32.1960 -32.1814 -32.1654
   -32.1543 -32.1533 -32.1529 -32.1309 -32.0672 -32.0644 -32.0557 -32.0487
   -32.0436 -31.9830 -31.9653 -31.9555 -31.9010 -31.8987 -31.8787 -31.8608
   -31.7971 -31.7841 -31.7700 -31.7603 -31.7125 -31.7014 -31.6834 -31.6717
   -31.6486 -31.6349 -31.4695 -31.2493 -31.2197 -31.1977 -31.1682 -31.0854
   -16.8430 -16.4277 -16.4010 -16.2808 -16.1708 -16.1640 -16.0127 -15.9838
   -15.9077 -15.7979 -15.7675 -15.7472 -15.7277 -15.7222 -15.6051 -15.4482
   -15.4020 -15.3771 -15.3630 -15.2951 -15.1639 -15.1413 -15.1035 -15.0598
   -14.8982 -14.8821 -14.7980 -14.6993 -14.5180 -14.0658 -13.9919 -13.0924
    -7.7975  -4.1668  -3.7818  -3.6798  -3.6300  -3.5517  -3.5277  -3.3296
    -3.3169  -3.2852  -3.2508  -3.2180  -3.1993  -3.1279  -3.0865  -3.0577
    -3.0358  -2.9774  -2.9589  -2.9513  -2.8964  -2.8649  -2.8442  -2.7898
    -2.7696  -2.7135  -2.6289  -2.5952  -2.5509  -2.4660  -2.4400  -2.4052
    -2.3601  -2.2798  -2.2703  -2.1742  -2.1255  -2.0961  -1.9558  -1.9233
    -1.8432  -1.7964  -1.7779  -1.7377  -1.6940  -1.6031  -1.5665  -1.5092
    -1.4794  -1.4090  -1.3703  -1.3408  -1.3351  -1.1991  -1.1797  -1.0985
    -1.0663  -1.0494  -0.9732  -0.9394  -0.8505  -0.8100  -0.7926  -0.7652
    -0.7332  -0.6903  -0.6485  -0.6309  -0.5784  -0.4994  -0.4384  -0.4014
    -0.3732  -0.2982  -0.2347  -0.2046  -0.1490  -0.1118  -0.0417  -0.0345
     0.0197   0.0780   0.0971   0.1245   0.1790   0.2932   0.3813   0.4406
     0.5781   0.6166   0.6589   0.7082   0.7423   0.8285   0.8823   0.9411
     1.1529   1.3385   1.8677   2.6353   2.7938   2.8852   3.0425   3.2289
     3.3117   3.3645   3.4538   3.5083   3.6312

          k = 0.0380-0.0839 0.0000 ( 17916 PWs)   bands (ev):

   -56.8832 -56.8828 -55.9970 -55.9929 -55.9874 -55.9873 -55.8478 -55.8419
   -55.6298 -55.6246 -55.5448 -55.5447 -55.5363 -55.4450 -54.9894 -54.9509
   -33.1600 -33.1597 -33.1438 -33.1436 -33.0302 -33.0299 -32.3117 -32.3092
   -32.2987 -32.2937 -32.2430 -32.2415 -32.2287 -32.2285 -32.1981 -32.1940
   -32.1858 -32.1814 -32.1596 -32.1584 -32.0996 -32.0945 -32.0482 -32.0454
   -31.9816 -31.9737 -31.9116 -31.9057 -31.8887 -31.8886 -31.8710 -31.8297
   -31.8285 -31.7936 -31.7703 -31.7701 -31.7598 -31.7311 -31.7311 -31.7098
   -31.6838 -31.6503 -31.3843 -31.3040 -31.2169 -31.1862 -31.1714 -31.1315
   -16.5702 -16.5693 -16.2158 -16.2128 -16.1470 -16.1451 -16.0372 -16.0361
   -15.9030 -15.8949 -15.7191 -15.7135 -15.6087 -15.6040 -15.5046 -15.4930
   -15.4714 -15.4614 -15.4428 -15.4364 -15.1871 -15.1827 -15.0914 -15.0805
   -14.9129 -14.9081 -14.7732 -14.7623 -14.6063 -14.0542 -14.0542 -13.1017
    -7.7938  -3.7809  -3.7797  -3.4250  -3.4231  -3.4103  -3.4097  -3.3619
    -3.3572  -3.2727  -3.2637  -3.0723  -3.0708  -3.0590  -3.0101  -3.0036
    -2.9925  -2.9651  -2.9523  -2.9444  -2.9332  -2.8801  -2.8339  -2.7822
    -2.7202  -2.6817  -2.6737  -2.5642  -2.4713  -2.4682  -2.4282  -2.4123
    -2.3740  -2.3373  -2.3279  -2.2234  -2.2166  -2.1518  -2.1244  -2.0835
    -1.9583  -1.9439  -1.8653  -1.8544  -1.6684  -1.6589  -1.6026  -1.5920
    -1.4567  -1.4317  -1.3962  -1.3709  -1.2849  -1.2713  -1.1744  -1.1658
    -1.0854  -1.0691  -0.9691  -0.9553  -0.9070  -0.8992  -0.8725  -0.8164
    -0.7527  -0.6866  -0.6152  -0.5494  -0.5020  -0.4845  -0.4405  -0.4268
    -0.3982  -0.3844  -0.3226  -0.2935  -0.2495  -0.2288  -0.1727  -0.1201
    -0.0502  -0.0486   0.0986   0.1849   0.1986   0.2271   0.3758   0.4618
     0.5141   0.6966   0.7191   0.8338   0.8345   0.8740   0.8911   0.9333
     0.9435   1.3111   1.8389   2.8892   2.8907   3.0517   3.0535   3.2500
     3.2506   3.4225   3.4384   3.5780   3.5914

          k = 0.0380-0.0419 0.0000 ( 17876 PWs)   bands (ev):

   -56.8948 -56.8711 -56.0071 -55.9991 -55.9825 -55.9757 -55.8576 -55.8320
   -55.6397 -55.6146 -55.5567 -55.5378 -55.5327 -55.4433 -54.9931 -54.9472
   -33.2747 -33.1697 -33.1499 -33.0614 -33.0095 -32.9983 -32.4375 -32.4248
   -32.3503 -32.2672 -32.2466 -32.2149 -32.2141 -32.1960 -32.1813 -32.1653
   -32.1544 -32.1538 -32.1525 -32.1309 -32.0672 -32.0644 -32.0556 -32.0487
   -32.0436 -31.9830 -31.9653 -31.9555 -31.9010 -31.8987 -31.8787 -31.8608
   -31.7971 -31.7841 -31.7699 -31.7603 -31.7125 -31.7014 -31.6836 -31.6716
   -31.6486 -31.6349 -31.4695 -31.2494 -31.2197 -31.1974 -31.1683 -31.0855
   -16.8428 -16.4277 -16.4018 -16.2808 -16.1703 -16.1641 -16.0124 -15.9840
   -15.9078 -15.7978 -15.7674 -15.7470 -15.7282 -15.7224 -15.6045 -15.4482
   -15.4016 -15.3775 -15.3618 -15.2956 -15.1630 -15.1449 -15.1029 -15.0582
   -14.8983 -14.8823 -14.7981 -14.6993 -14.5180 -14.0658 -13.9919 -13.0923
    -7.7975  -4.1662  -3.7805  -3.6815  -3.6309  -3.5503  -3.5277  -3.3292
    -3.3172  -3.2868  -3.2490  -3.2179  -3.1983  -3.1278  -3.1017  -3.0583
    -3.0279  -2.9757  -2.9583  -2.9519  -2.8987  -2.8621  -2.8435  -2.7846
    -2.7663  -2.7176  -2.6290  -2.5932  -2.5484  -2.4681  -2.4404  -2.4119
    -2.3563  -2.2818  -2.2717  -2.1703  -2.1226  -2.0922  -1.9615  -1.9259
    -1.8443  -1.8039  -1.7830  -1.7370  -1.6965  -1.5969  -1.5683  -1.5070
    -1.4732  -1.4095  -1.3680  -1.3416  -1.3347  -1.1970  -1.1828  -1.1031
    -1.0593  -1.0412  -0.9794  -0.9402  -0.8644  -0.8167  -0.7842  -0.7517
    -0.7171  -0.6870  -0.6434  -0.6274  -0.5827  -0.4985  -0.4374  -0.4146
    -0.3750  -0.3213  -0.2181  -0.1891  -0.1557  -0.1130  -0.0606  -0.0362
     0.0260   0.0755   0.0961   0.1334   0.1658   0.2881   0.3842   0.4451
     0.5872   0.6087   0.6596   0.7079   0.7442   0.8292   0.8820   0.9417
     1.1523   1.3386   1.8676   2.6359   2.7941   2.8853   3.0415   3.2286
     3.3125   3.3638   3.4484   3.5076   3.6295

          k =-0.0760-0.0000 0.0000 ( 17886 PWs)   bands (ev):

   -56.8997 -56.8662 -56.0112 -56.0047 -55.9775 -55.9709 -55.8626 -55.8269
   -55.6447 -55.6096 -55.5616 -55.5394 -55.5277 -55.4418 -54.9962 -54.9440
   -33.3289 -33.1738 -33.1458 -33.0723 -32.9853 -32.9532 -32.4943 -32.4777
   -32.4058 -32.2526 -32.2436 -32.2267 -32.2110 -32.2104 -32.1724 -32.1552
   -32.1433 -32.1415 -32.1110 -32.1109 -32.1085 -32.0741 -32.0562 -32.0427
   -31.9988 -31.9900 -31.9731 -31.9664 -31.9533 -31.9053 -31.8734 -31.8712
   -31.7969 -31.7843 -31.7724 -31.7146 -31.7109 -31.6890 -31.6708 -31.6479
   -31.6236 -31.5781 -31.5179 -31.2393 -31.2241 -31.1939 -31.1644 -31.0469
   -16.7956 -16.5022 -16.5018 -16.3370 -16.3112 -16.0844 -16.0454 -15.8983
   -15.8968 -15.8410 -15.8296 -15.7838 -15.7582 -15.7473 -15.5199 -15.4576
   -15.4473 -15.3856 -15.3595 -15.3367 -15.2449 -15.1126 -14.9696 -14.9404
   -14.9263 -14.8609 -14.7789 -14.6762 -14.4459 -14.0552 -13.9499 -13.0813
    -7.7999  -3.9566  -3.9532  -3.9146  -3.8084  -3.5531  -3.5397  -3.5004
    -3.3853  -3.3577  -3.2360  -3.1880  -3.1581  -3.1005  -3.0994  -3.0698
    -3.0036  -2.9947  -2.9772  -2.8561  -2.7947  -2.7478  -2.6982  -2.6683
    -2.6173  -2.6068  -2.5723  -2.5271  -2.4612  -2.4371  -2.3277  -2.3236
    -2.2843  -2.2015  -2.1860  -2.1613  -2.0550  -2.0015  -1.9987  -1.9461
    -1.9099  -1.8712  -1.8304  -1.7596  -1.7263  -1.7016  -1.6557  -1.5808
    -1.5485  -1.5094  -1.4929  -1.3929  -1.2841  -1.2652  -1.1728  -1.1281
    -1.1035  -1.0850  -1.0537  -0.9762  -0.9710  -0.9456  -0.8150  -0.8053
    -0.7590  -0.7205  -0.6365  -0.5999  -0.5759  -0.5235  -0.3960  -0.3087
    -0.2893  -0.2117  -0.2029  -0.1318  -0.0932  -0.0891  -0.0308   0.0612
     0.1079   0.1541   0.2130   0.2418   0.2522   0.3354   0.3488   0.4136
     0.4888   0.5580   0.5836   0.6281   0.6750   0.7748   0.7776   0.8969
     1.0092   1.3651   1.7613   2.5099   2.6463   2.7385   2.8324   3.1945
     3.2196   3.3920   3.5103   3.5426   3.5623

          k =-0.0760 0.0419 0.0000 ( 17914 PWs)   bands (ev):

   -56.8948 -56.8711 -56.0064 -55.9998 -55.9824 -55.9759 -55.8576 -55.8320
   -55.6398 -55.6146 -55.5567 -55.5379 -55.5328 -55.4434 -54.9931 -54.9472
   -33.2755 -33.1697 -33.1499 -33.0600 -33.0097 -32.9983 -32.4418 -32.4256
   -32.3505 -32.2472 -32.2322 -32.2163 -32.2144 -32.2141 -32.1762 -32.1681
   -32.1623 -32.1577 -32.1538 -32.1309 -32.0675 -32.0633 -32.0556 -32.0507
   -32.0480 -31.9831 -31.9653 -31.9445 -31.9008 -31.9008 -31.8780 -31.8588
   -31.7972 -31.7901 -31.7703 -31.7604 -31.7124 -31.7015 -31.6840 -31.6724
   -31.6486 -31.6350 -31.4693 -31.2493 -31.2211 -31.1977 -31.1684 -31.0855
   -16.6821 -16.4570 -16.4195 -16.2618 -16.2486 -16.1602 -15.9980 -15.9610
   -15.9062 -15.7932 -15.7502 -15.7459 -15.7251 -15.6590 -15.6153 -15.5077
   -15.4201 -15.4014 -15.3362 -15.3219 -15.2757 -15.1604 -15.1167 -15.0830
   -14.8964 -14.8724 -14.7884 -14.6999 -14.5173 -14.0640 -13.9921 -13.0913
    -7.7968  -3.7508  -3.7468  -3.6729  -3.6499  -3.4291  -3.4187  -3.3220
    -3.2997  -3.2438  -3.2232  -3.1165  -3.0786  -3.0524  -3.0450  -2.9738
    -2.9560  -2.9349  -2.9173  -2.9149  -2.8490  -2.8423  -2.8182  -2.7738
    -2.7363  -2.6572  -2.5456  -2.5326  -2.4826  -2.4625  -2.4172  -2.3735
    -2.3137  -2.2815  -2.2585  -2.1984  -2.0890  -2.0367  -2.0216  -1.9222
    -1.8895  -1.8835  -1.8610  -1.7752  -1.6975  -1.6584  -1.6135  -1.5770
    -1.5341  -1.4889  -1.4701  -1.4158  -1.3700  -1.3065  -1.2493  -1.2166
    -1.1733  -1.1155  -1.0717  -1.0413  -0.9742  -0.9351  -0.8605  -0.8393
    -0.7881  -0.7505  -0.7297  -0.7171  -0.6753  -0.6040  -0.5714  -0.4736
    -0.4707  -0.4397  -0.3436  -0.2760  -0.2202  -0.1018  -0.0932   0.0064
     0.0253   0.0694   0.0968   0.2355   0.2900   0.3884   0.4254   0.5206
     0.5566   0.5860   0.6490   0.7520   0.7550   0.8155   0.8179   0.9280
     1.0307   1.3574   1.8502   2.6477   2.8209   2.8342   2.9326   3.3357
     3.3865   3.3896   3.4344   3.5523   3.6568

          k =-0.0760-0.0839 0.0000 ( 17948 PWs)   bands (ev):

   -56.8832 -56.8828 -55.9966 -55.9923 -55.9881 -55.9877 -55.8478 -55.8419
   -55.6299 -55.6246 -55.5448 -55.5447 -55.5363 -55.4450 -54.9895 -54.9510
   -33.1600 -33.1597 -33.1444 -33.1442 -33.0294 -33.0291 -32.3159 -32.3135
   -32.3009 -32.2956 -32.2430 -32.2416 -32.1990 -32.1982 -32.1979 -32.1941
   -32.1864 -32.1839 -32.1829 -32.1809 -32.0997 -32.0946 -32.0484 -32.0446
   -31.9817 -31.9739 -31.9123 -31.9065 -31.8894 -31.8892 -31.8673 -31.8287
   -31.8274 -31.7939 -31.7703 -31.7702 -31.7611 -31.7311 -31.7311 -31.7099
   -31.6868 -31.6503 -31.3843 -31.3040 -31.2176 -31.1863 -31.1721 -31.1316
   -16.4100 -16.4080 -16.3763 -16.3760 -16.1050 -16.1014 -16.0520 -16.0499
   -15.8780 -15.8701 -15.6659 -15.6566 -15.6502 -15.6466 -15.5188 -15.5118
   -15.4479 -15.4350 -15.3462 -15.3393 -15.2787 -15.2724 -15.2356 -15.2142
   -14.8974 -14.8916 -14.7692 -14.7561 -14.6042 -14.0540 -14.0540 -13.1010
    -7.7935  -3.5089  -3.5081  -3.4418  -3.4409  -3.3158  -3.3090  -3.2405
    -3.2398  -3.1333  -3.1296  -3.0526  -3.0010  -2.9921  -2.9887  -2.9757
    -2.9660  -2.8371  -2.8340  -2.8212  -2.8061  -2.7549  -2.7524  -2.7376
    -2.6577  -2.6416  -2.6103  -2.5663  -2.4657  -2.4494  -2.4326  -2.4060
    -2.3494  -2.3371  -2.3230  -2.2776  -2.2571  -2.1554  -2.1083  -2.0639
    -1.9445  -1.9419  -1.9321  -1.9149  -1.7674  -1.7304  -1.6991  -1.6927
    -1.6835  -1.6339  -1.5426  -1.5344  -1.3997  -1.3950  -1.3229  -1.2399
    -1.2212  -1.1925  -1.0603  -1.0128  -0.9805  -0.9741  -0.9542  -0.9248
    -0.8969  -0.8693  -0.7247  -0.7058  -0.6814  -0.6438  -0.6312  -0.5773
    -0.5287  -0.4484  -0.3691  -0.3681  -0.2871  -0.2421  -0.1791  -0.0960
    -0.0848  -0.0781   0.2016   0.2791   0.3719   0.4565   0.5196   0.5827
     0.6064   0.6720   0.7041   0.8408   0.8440   0.8603   0.8605   0.9281
     0.9328   1.3315   1.9161   2.9491   2.9494   3.0168   3.0172   3.3408
     3.3462   3.4557   3.4651   3.5815   3.5835

     the Fermi energy is     2.2097 ev

!    total energy              =   -2919.13283979 Ry
     estimated scf accuracy    <       0.00000005 Ry
     smearing contrib. (-TS)   =      -0.00464729 Ry
     internal energy E=F+TS    =   -2919.12819250 Ry

     The total energy is F=E-TS. E is the sum of the following terms:
     one-electron contribution =  -24578.60643168 Ry
     hartree contribution      =   12373.48114138 Ry
     xc contribution           =    -479.89687111 Ry
     ewald contribution        =    9765.89385056 Ry
     electric field correction =       0.00011836 Ry

     convergence has been achieved in  46 iterations

     Forces acting on atoms (cartesian axes, Ry/au):

     atom    1 type  1   force =    -0.00001332   -0.00046224    0.12464083
     atom    2 type  1   force =    -0.00011980   -0.00050539   -0.16051032
     atom    3 type  2   force =     0.00015660   -0.00014165   -0.06867015
     atom    4 type  2   force =    -0.00004461   -0.00017467    0.02743221
     atom    5 type  2   force =    -0.01664860    0.00229737   -0.00877652
     atom    6 type  2   force =     0.01810489    0.00296015   -0.00972975
     atom    7 type  1   force =     0.00057718   -0.00359734    0.02220493
     atom    8 type  1   force =    -0.00014694   -0.00291948    0.11212861
     atom    9 type  2   force =     0.00047818   -0.00002692   -0.00027486
     atom   10 type  2   force =    -0.00266074    0.00369287   -0.07364635
     atom   11 type  2   force =     0.00129417   -0.00058961   -0.00042534
     atom   12 type  2   force =    -0.00056584   -0.00106160   -0.00078030
     atom   13 type  1   force =     0.00032371   -0.00067968    0.00069453
     atom   14 type  1   force =    -0.00082359   -0.00056996    0.00005437
     atom   15 type  2   force =    -0.00030297   -0.00013072    0.00003840
     atom   16 type  2   force =     0.00028198    0.00011613   -0.00056994
     atom   17 type  2   force =     0.00020950   -0.00020268   -0.00018120
     atom   18 type  2   force =    -0.00041839   -0.00036253   -0.00050045
     atom   19 type  1   force =     0.00061937   -0.00040433   -0.00009288
     atom   20 type  1   force =    -0.00013040   -0.00038086   -0.00008409
     atom   21 type  2   force =     0.00006074   -0.00006744    0.09968460
     atom   22 type  2   force =     0.00006306   -0.00038824    0.00044321
     atom   23 type  2   force =    -0.07927445   -0.00009351   -0.03248298
     atom   24 type  2   force =     0.07914482    0.00035557   -0.03250043
     atom   25 type  1   force =     0.00002530   -0.00047420    0.12412715
     atom   26 type  1   force =    -0.00015078   -0.00044463   -0.16058836
     atom   27 type  2   force =     0.00029191   -0.00031730   -0.06768501
     atom   28 type  2   force =    -0.00002427   -0.00001410    0.02719526
     atom   29 type  2   force =    -0.01711059    0.00187745   -0.00888207
     atom   30 type  2   force =     0.01844433    0.00226082   -0.00978171
     atom   31 type  1   force =     0.00059228   -0.00090276    0.02175634
     atom   32 type  1   force =    -0.00010622    0.00052103    0.11256916
     atom   33 type  2   force =     0.00026517   -0.00064041   -0.00046386
     atom   34 type  2   force =    -0.00272923    0.00316047   -0.07281591
     atom   35 type  2   force =    -0.00110955    0.00023011    0.00017095
     atom   36 type  2   force =     0.00084325    0.00008568    0.00028441
     atom   37 type  1   force =    -0.00009069   -0.00003800   -0.00017012
     atom   38 type  1   force =     0.00087904   -0.00028439   -0.00013489
     atom   39 type  2   force =    -0.00008467   -0.00051204    0.00007699
     atom   40 type  2   force =     0.00007069   -0.00012675   -0.00014964
     atom   41 type  2   force =     0.00019684   -0.00044980   -0.00011062
     atom   42 type  2   force =     0.00000140   -0.00012080   -0.00061496
     atom   43 type  1   force =     0.00015919    0.00067849    0.00069942
     atom   44 type  1   force =    -0.00056326   -0.00042196   -0.00022797
     atom   45 type  2   force =     0.00004768   -0.00007126    0.09970181
     atom   46 type  2   force =    -0.07928136   -0.00004493   -0.03247479
     atom   47 type  2   force =     0.07915005    0.00039539   -0.03249110
     atom   48 type  3   force =     0.00045682   -0.00133822    0.00209891
     atom   49 type  4   force =    -0.00156785   -0.00286685    0.00347652
     atom   50 type  5   force =     0.00044322    0.00031600   -0.00030719
     atom   51 type  5   force =     0.00157203    0.00310394   -0.00359775
     atom   52 type  5   force =    -0.00078529   -0.00022422    0.00024292

     Total force =     0.425628     Total SCF correction =     0.000436
  @ DRIVER MODE: Message from server: STATUS
  @ DRIVER MODE: Message from server: GETFORCE
  @ DRIVER MODE: Returning v,forces,stress,ensemble 

     Writing output data file ./calc.save/
  @ DRIVER MODE: Message from server: EXIT
  @ DRIVE MODE: Exiting  
 
     init_run     :      7.93s CPU      8.07s WALL (       1 calls)
     electrons    :    626.62s CPU    648.17s WALL (       1 calls)
     forces       :      2.20s CPU      2.25s WALL (       1 calls)

     Called by init_run:
     wfcinit      :      3.32s CPU      3.37s WALL (       1 calls)
     potinit      :      3.56s CPU      3.60s WALL (       1 calls)
     hinit0       :      0.36s CPU      0.36s WALL (       1 calls)

     Called by electrons:
     c_bands      :    544.15s CPU    559.41s WALL (      46 calls)
     sum_band     :     54.21s CPU     56.41s WALL (      46 calls)
     v_of_rho     :     20.26s CPU     21.33s WALL (      47 calls)
     newd         :      7.38s CPU      9.04s WALL (      47 calls)
     mix_rho      :      3.16s CPU      4.43s WALL (      46 calls)
     vdW_kernel   :      3.03s CPU      3.04s WALL (       1 calls)

     Called by c_bands:
     init_us_2    :      3.03s CPU      3.05s WALL (     940 calls)
     cegterg      :    535.66s CPU    550.70s WALL (     460 calls)

     Called by *egterg:
     cdiaghg      :    122.06s CPU    130.30s WALL (    3532 calls)
     h_psi        :    272.68s CPU    277.27s WALL (    3542 calls)
     s_psi        :     26.84s CPU     26.96s WALL (    3542 calls)
     g_psi        :      0.71s CPU      0.73s WALL (    3072 calls)

     Called by h_psi:
     h_psi:calbec :     29.99s CPU     30.28s WALL (    3542 calls)
     vloc_psi     :    214.16s CPU    218.30s WALL (    3542 calls)
     add_vuspsi   :     27.20s CPU     27.34s WALL (    3542 calls)

     General routines
     calbec       :     40.73s CPU     41.06s WALL (    4042 calls)
     fft          :     11.11s CPU     11.64s WALL (    2961 calls)
     ffts         :      0.13s CPU      0.13s WALL (      93 calls)
     fftw         :    237.98s CPU    243.17s WALL (  621970 calls)
     interpolate  :      0.28s CPU      0.30s WALL (      47 calls)
     davcio       :      0.01s CPU      0.12s WALL (      10 calls)
 
     Parallel routines
 
     PWSCF        :  10m49.61s CPU  11m11.59s WALL

 
   This run was terminated on:  17: 4:21   2Aug2021            

=------------------------------------------------------------------------------=
   JOB DONE.
=------------------------------------------------------------------------------=
