
     Program PWSCF v.6.7GPU starts on 22Sep2021 at 21:15:36 

     This program is part of the open-source Quantum ESPRESSO suite
     for quantum simulation of materials; please cite
         "P. Giannozzi et al., J. Phys.:Condens. Matter 21 395502 (2009);
         "P. Giannozzi et al., J. Phys.:Condens. Matter 29 465901 (2017);
         "P. Giannozzi et al., J. Chem. Phys. 152 154105 (2020);
          URL http://www.quantum-espresso.org", 
     in publications or presentations arising from this work. More details at
     http://www.quantum-espresso.org/quote

     Parallel version (MPI), running on    10 processors

     MPI processes distributed on     1 nodes
     R & G space division:  proc/nbgrp/npool/nimage =      10
     Reading input from /storage/home/hcoda1/3/ntian30/research/carbon/CxH_vib/CH_calc/ads_slab/CHN2OH_a/out_0032/pw.inp
Warning: card &CELL ignored
Warning: card   CELL_DYNAMICS='IPI', ignored
Warning: card / ignored

     Current dimensions of program PWSCF are:
     Max number of different atomic species (ntypx) = 10
     Max number of k-points (npk) =  40000
     Max angular momentum in pseudopotentials (lmaxx) =  3
     Presently no symmetry can be used with electric field

     Message from routine cell_base_init:
     DEPRECATED: use true lattice parameter, not A to a.u. conversion factor

     **************************************************************************
     Initializing libbeef V0.1.2 with the BEEF-vdW functional.
     Citation: Wellendorff et al., PRB 85, 235149 (2012).
     **************************************************************************


     IMPORTANT: XC functional enforced from input :
     Exchange-correlation= BEEF-VDW
                           (   1   4  43  14   2   0   0)
     Any further DFT definition will be discarded
     Please, verify this is what you really want


     Subspace diagonalization in iterative solution of the eigenvalue problem:
     one sub-group per band group will be used
     scalapack distributed-memory algorithm (size of sub-group:  3*  3 procs)

  @ DRIVER MODE: Connecting to 
 qe_1139763_2934093.sched-torque.pace.gatech.eduk36zlvga_scratch
  using UNIX socket
  @ DRIVER MODE: Message from server: STATUS
  @ DRIVER MODE: Message from server: INIT
  @ DRIVER MODE: Receiving replica           0          -1
  @ DRIVER MODE: Receiving encoded integer          25
  @ DRIVER MODE:  SCF:  T  FORCE:  T  STRESS:  F  VC:  F  ENSEMBLE:  F
  @ DRIVER MODE:  SCF:  T  FORCE:  T  STRESS:  F  VC:  F  ENSEMBLE:  F
 
     Parallelization info
     --------------------
     sticks:   dense  smooth     PW     G-vecs:    dense   smooth      PW
     Min         327     131     37                56683    14340    2191
     Max         328     133     38                56694    14346    2206
     Sum        3275    1317    379               566857   143421   21985
 
     Using Slab Decomposition
 


     bravais-lattice index     =            0
     lattice parameter (alat)  =       1.8897  a.u.
     unit-cell volume          =    6658.9804 (a.u.)^3
     number of atoms/cell      =           53
     number of atomic types    =            5
     number of electrons       =       400.00
     number of Kohn-Sham states=          210
     kinetic-energy cutoff     =      29.3995  Ry
     charge density cutoff     =     293.9946  Ry
     scf convergence threshold =      7.3E-08
     mixing beta               =       0.0500
     number of iterations used =            8  plain     mixing
     Exchange-correlation= BEEF-VDW
                           (   1   4  43  14   2   0   0)

     celldm(1)=   1.889726  celldm(2)=   0.000000  celldm(3)=   0.000000
     celldm(4)=   0.000000  celldm(5)=   0.000000  celldm(6)=   0.000000

     crystal axes: (cart. coord. in units of alat)
               a(1) = (   6.579727   0.000000   0.000000 )  
               a(2) = (  -0.000775   5.961596   0.000000 )  
               a(3) = (   0.000000   0.000000  25.155947 )  

     reciprocal axes: (cart. coord. in units 2 pi/alat)
               b(1) = (  0.151982  0.000020  0.000000 )  
               b(2) = (  0.000000  0.167740  0.000000 )  
               b(3) = (  0.000000  0.000000  0.039752 )  


     PseudoPot. # 1 for Ti read from file:
     /storage/coda1/p-amedford6/0/shared/rich_project_chbe-medford/medford-share/data/pseudos_module/espresso/nninc/pbe/van/Ti.UPF
     MD5 check sum: 8e4df49b7f0d34bbd5052bf3f5ea0213
     Pseudo is Ultrasoft, Zval = 12.0
     Generated by new atomic code, or converted to UPF format
     Using radial grid of  851 points,  6 beta functions with: 
                l(1) =   0
                l(2) =   0
                l(3) =   1
                l(4) =   1
                l(5) =   2
                l(6) =   2
     Q(r) pseudized with  8 coefficients,  rinner =    1.000   1.000   1.000
                                                       1.000   1.000

     PseudoPot. # 2 for O  read from file:
     /storage/coda1/p-amedford6/0/shared/rich_project_chbe-medford/medford-share/data/pseudos_module/espresso/nninc/pbe/van/O.UPF
     MD5 check sum: 78c19812648e8988a0fe644b0f25305e
     Pseudo is Ultrasoft, Zval =  6.0
     Generated by new atomic code, or converted to UPF format
     Using radial grid of  737 points,  4 beta functions with: 
                l(1) =   0
                l(2) =   0
                l(3) =   1
                l(4) =   1
     Q(r) pseudized with  8 coefficients,  rinner =    0.800   0.800   0.800


     PseudoPot. # 3 for N  read from file:
     /storage/coda1/p-amedford6/0/shared/rich_project_chbe-medford/medford-share/data/pseudos_module/espresso/nninc/pbe/van/N.UPF
     MD5 check sum: 90d10febe142ad51ac9d5be1deb811c4
     Pseudo is Ultrasoft, Zval =  5.0
     Generated by new atomic code, or converted to UPF format
     Using radial grid of  729 points,  4 beta functions with: 
                l(1) =   0
                l(2) =   0
                l(3) =   1
                l(4) =   1
     Q(r) pseudized with  8 coefficients,  rinner =    0.800   0.800   0.800


     PseudoPot. # 4 for C  read from file:
     /storage/coda1/p-amedford6/0/shared/rich_project_chbe-medford/medford-share/data/pseudos_module/espresso/nninc/pbe/van/C.UPF
     MD5 check sum: 1a69bf6b8db32088f5b2163dbdb77a27
     Pseudo is Ultrasoft, Zval =  4.0
     Generated by new atomic code, or converted to UPF format
     Using radial grid of  721 points,  4 beta functions with: 
                l(1) =   0
                l(2) =   0
                l(3) =   1
                l(4) =   1
     Q(r) pseudized with  8 coefficients,  rinner =    0.800   0.800   0.800


     PseudoPot. # 5 for H  read from file:
     /storage/coda1/p-amedford6/0/shared/rich_project_chbe-medford/medford-share/data/pseudos_module/espresso/nninc/pbe/van/H.UPF
     MD5 check sum: b5ee9d7bfd3a09ee7748110bda690ff7
     Pseudo is Ultrasoft, Zval =  1.0
     Generated by new atomic code, or converted to UPF format
     Using radial grid of  615 points,  1 beta functions with: 
                l(1) =   0
     Q(r) pseudized with  8 coefficients,  rinner =    0.800

     atomic species   valence    mass     pseudopotential
        Ti1           12.00    47.86700     Ti( 1.00)
        O1             6.00    15.99900     O ( 1.00)
        N1             5.00    14.00700     N ( 1.00)
        C1             4.00    12.01100     C ( 1.00)
        H1             1.00     1.00800     H ( 1.00)

     No symmetry found



   Cartesian axes

     site n.     atom                  positions (alat units)
         1           Ti1 tau(   1) = (   0.0004258   2.9801865   6.0000000  )
         2           Ti1 tau(   2) = (   3.2906075   1.4906267   6.0002472  )
         3           O1  tau(   3) = (   0.0006271   0.0005054   7.9858123  )
         4           O1  tau(   4) = (   3.2906025   0.0005020   7.3038282  )
         5           O1  tau(   5) = (   4.5942328   1.4918067   9.2879030  )
         6           O1  tau(   6) = (   1.9868534   1.4903216   9.2879459  )
         7           Ti1 tau(   7) = (   3.2907910   2.8959150   9.1758416  )
         8           Ti1 tau(   8) = (   0.0015273   1.4827037   9.2680791  )
         9           O1  tau(   9) = (   3.2947431   5.9554071  11.2675382  )
        10           O1  tau(  10) = (   0.0116148   5.9584955  10.6183126  )
        11           O1  tau(  11) = (   1.2939190   1.5012022  12.6324650  )
        12           O1  tau(  12) = (   5.3075194   1.4952059  12.6199201  )
        13           Ti1 tau(  13) = (   0.0106221   2.8553259  12.7114016  )
        14           Ti1 tau(  14) = (   3.3038960   1.3182849  12.6556579  )
        15           O1  tau(  15) = (   6.5780848   0.0092190  14.6493773  )
        16           O1  tau(  16) = (   3.3025004   0.0387551  13.8658611  )
        17           O1  tau(  17) = (   4.5583283   1.5306594  16.0644060  )
        18           O1  tau(  18) = (   2.0361898   1.5392772  16.0217891  )
        19           Ti1 tau(  19) = (   3.3091865   3.0111069  15.6373089  )
        20           Ti1 tau(  20) = (   0.0377650   1.3505479  16.0707495  )
        21           O1  tau(  21) = (   3.2904802   0.0005063   4.7018136  )
        22           O1  tau(  22) = (   0.0439016   5.9493915  17.1867805  )
        23           O1  tau(  23) = (   1.3043587   1.4918075   6.0039043  )
        24           O1  tau(  24) = (   5.2767064   1.4903225   6.0039473  )
        25           Ti1 tau(  25) = (   0.0000382   5.9609847   6.0000000  )
        26           Ti1 tau(  26) = (   3.2902200   4.4714249   6.0002472  )
        27           O1  tau(  27) = (   0.0002396   2.9813036   7.9858123  )
        28           O1  tau(  28) = (   3.2902150   2.9813002   7.3038282  )
        29           O1  tau(  29) = (   4.5938453   4.4726049   9.2879030  )
        30           O1  tau(  30) = (   1.9864658   4.4711199   9.2879459  )
        31           Ti1 tau(  31) = (   3.2891106   5.8743827   9.1763621  )
        32           Ti1 tau(  32) = (   0.0006254   4.4649316   9.2693709  )
        33           O1  tau(  33) = (   3.2958776   3.0336607  11.2353185  )
        34           O1  tau(  34) = (   0.0092240   2.9805883  10.6323155  )
        35           O1  tau(  35) = (   1.3000586   4.4853303  12.6229424  )
        36           O1  tau(  36) = (   5.2993189   4.4901910  12.6110906  )
        37           Ti1 tau(  37) = (   0.0093010   5.8444503  12.6145921  )
        38           Ti1 tau(  38) = (   3.2999333   4.4129019  12.4053696  )
        39           O1  tau(  39) = (   6.5685983   3.0141634  14.6646344  )
        40           O1  tau(  40) = (   3.3157979   2.9893391  13.8470085  )
        41           O1  tau(  41) = (   4.5469136   4.4558096  16.0384726  )
        42           O1  tau(  42) = (   2.0285042   4.4377151  15.9822253  )
        43           Ti1 tau(  43) = (   3.3362675   0.0317196  16.2890182  )
        44           Ti1 tau(  44) = (   0.0499865   4.4862307  15.8577502  )
        45           O1  tau(  45) = (   3.2900926   2.9813045   4.7018136  )
        46           O1  tau(  46) = (   1.3039711   4.4726057   6.0039043  )
        47           O1  tau(  47) = (   5.2763189   4.4711207   6.0039473  )
        48           N1  tau(  48) = (   0.0045878   3.1533891  18.5964175  )
        49           N1  tau(  49) = (   0.0147781   3.0160983  17.3860304  )
        50           C1  tau(  50) = (   0.1535999   3.3096653  19.7680592  )
        51           H1  tau(  51) = (   6.1193577   3.4501394  20.6313668  )
        52           O1  tau(  52) = (   3.1701150   5.9596689  18.1025665  )
        53           H1  tau(  53) = (   2.2967615   0.0439400  18.5018857  )

     number of k points=    10  Fermi-Dirac smearing, width (Ry)=  0.0073
                       cart. coord. in units 2pi/alat
        k(    1) = (   0.0000000   0.0000000   0.0000000), wk =   0.1250000
        k(    2) = (   0.0000000   0.0419351   0.0000000), wk =   0.2500000
        k(    3) = (   0.0000000  -0.0838702   0.0000000), wk =   0.1250000
        k(    4) = (   0.0379955   0.0000049   0.0000000), wk =   0.2500000
        k(    5) = (   0.0379955   0.0419400   0.0000000), wk =   0.2500000
        k(    6) = (   0.0379955  -0.0838652   0.0000000), wk =   0.2500000
        k(    7) = (   0.0379955  -0.0419301   0.0000000), wk =   0.2500000
        k(    8) = (  -0.0759910  -0.0000099   0.0000000), wk =   0.1250000
        k(    9) = (  -0.0759910   0.0419252   0.0000000), wk =   0.2500000
        k(   10) = (  -0.0759910  -0.0838800   0.0000000), wk =   0.1250000

     Dense  grid:   566857 G-vectors     FFT dimensions: (  72,  64, 270)

     Smooth grid:   143421 G-vectors     FFT dimensions: (  45,  40, 180)

     Estimated max dynamical RAM per process >     367.10 MB

     Estimated total dynamical RAM >       3.58 GB
     Cannot read rho : file not found

     Initial potential from superposition of free atoms

     starting charge  383.99917, renormalised to  400.00000

     negative rho (up, down):  1.461E-02 0.000E+00


     %%%%%%%%%%%%%%%%%%%%%%%%%%%%%%%%%%%%%%%%%%%%%%%%%%%%%%%%%%%%%%%%%%%%%%%%
     %                                                                      %
     % You are using vdW-DF, which was implemented by the Thonhauser group. %
     % Please cite the following two papers that made this development      %
     % possible and the two reviews that describe the various versions:     %
     %                                                                      %
     %   T. Thonhauser et al., PRL 115, 136402 (2015).                      %
     %   T. Thonhauser et al., PRB 76, 125112 (2007).                       %
     %   K. Berland et al., Rep. Prog. Phys. 78, 066501 (2015).             %
     %   D.C. Langreth et al., J. Phys.: Condens. Matter 21, 084203 (2009). %
     %                                                                      %
     %                                                                      %
     % If you are calculating the stress with vdW-DF, please also cite:     %
     %                                                                      %
     %   R. Sabatini et al., J. Phys.: Condens. Matter 24, 424209 (2012).   %
     %                                                                      %
     %%%%%%%%%%%%%%%%%%%%%%%%%%%%%%%%%%%%%%%%%%%%%%%%%%%%%%%%%%%%%%%%%%%%%%%%


 
     Adding external electric field

     Computed dipole along edir(3) : 
        Dipole              -10.4151 Ry au,        -26.4725 Debye
        Dipole field         -0.0197 Ry au, 
 
        Potential amp.        1.8220 Ry
        Total length         46.3494 bohr
 
     Starting wfcs are  302 atomic wfcs
  @ DRIVER MODE: Message from server: STATUS
  @ DRIVER MODE: Message from server: POSDATA
  @ DRIVER MODE: Reading and sharing cell 
  @ DRIVER MODE: Reading and sharing positions 
  @ DRIVER MODE: Received positions 

     total cpu time spent up to now is       16.5 secs

     Self-consistent Calculation

     iteration #  1     ecut=    29.40 Ry     beta= 0.05
     Davidson diagonalization with overlap
     c_bands:  1 eigenvalues not converged
     c_bands:  1 eigenvalues not converged
     c_bands:  1 eigenvalues not converged
     c_bands:  1 eigenvalues not converged
     c_bands:  3 eigenvalues not converged
     c_bands:  2 eigenvalues not converged
     c_bands:  3 eigenvalues not converged
     c_bands:  2 eigenvalues not converged
     c_bands:  4 eigenvalues not converged
     c_bands:  2 eigenvalues not converged
     ethr =  1.00E-05,  avg # of iterations = 20.0

     negative rho (up, down):  1.077E-02 0.000E+00
 
     Adding external electric field

     Computed dipole along edir(3) : 
        Dipole               47.5014 Ry au,        120.7365 Debye
        Dipole field          0.0896 Ry au, 
 
        Potential amp.       -8.3097 Ry
        Total length         46.3494 bohr
 

     total cpu time spent up to now is       62.8 secs

     total energy              =   -2482.21177373 Ry
     estimated scf accuracy    <    5431.03963454 Ry

     iteration #  2     ecut=    29.40 Ry     beta= 0.05
     Davidson diagonalization with overlap
     ethr =  1.00E-02,  avg # of iterations = 23.0

     negative rho (up, down):  1.797E-03 0.000E+00
 
     Adding external electric field

     Computed dipole along edir(3) : 
        Dipole               -1.8014 Ry au,         -4.5787 Debye
        Dipole field         -0.0034 Ry au, 
 
        Potential amp.        0.3151 Ry
        Total length         46.3494 bohr
 

     total cpu time spent up to now is      144.5 secs

     total energy              =   -2462.99790066 Ry
     estimated scf accuracy    <   71766.57882248 Ry

     iteration #  3     ecut=    29.40 Ry     beta= 0.05
     Davidson diagonalization with overlap
     ethr =  1.00E-02,  avg # of iterations = 15.6

     negative rho (up, down):  1.871E-03 0.000E+00
 
     Adding external electric field

     Computed dipole along edir(3) : 
        Dipole               -4.2778 Ry au,        -10.8731 Debye
        Dipole field         -0.0081 Ry au, 
 
        Potential amp.        0.7483 Ry
        Total length         46.3494 bohr
 

     total cpu time spent up to now is      195.3 secs

     total energy              =   -2955.22482725 Ry
     estimated scf accuracy    <    4968.82991462 Ry

     iteration #  4     ecut=    29.40 Ry     beta= 0.05
     Davidson diagonalization with overlap
     ethr =  1.00E-02,  avg # of iterations = 10.7

     negative rho (up, down):  1.926E-03 0.000E+00
 
     Adding external electric field

     Computed dipole along edir(3) : 
        Dipole               -6.0610 Ry au,        -15.4055 Debye
        Dipole field         -0.0114 Ry au, 
 
        Potential amp.        1.0603 Ry
        Total length         46.3494 bohr
 

     total cpu time spent up to now is      215.2 secs

     total energy              =   -2952.86977393 Ry
     estimated scf accuracy    <    2033.14072168 Ry

     iteration #  5     ecut=    29.40 Ry     beta= 0.05
     Davidson diagonalization with overlap
     ethr =  1.00E-02,  avg # of iterations = 10.7

     negative rho (up, down):  1.963E-03 0.000E+00
 
     Adding external electric field

     Computed dipole along edir(3) : 
        Dipole               -6.0313 Ry au,        -15.3301 Debye
        Dipole field         -0.0114 Ry au, 
 
        Potential amp.        1.0551 Ry
        Total length         46.3494 bohr
 

     total cpu time spent up to now is      232.5 secs

     total energy              =   -2965.56998376 Ry
     estimated scf accuracy    <     305.76651017 Ry

     iteration #  6     ecut=    29.40 Ry     beta= 0.05
     Davidson diagonalization with overlap
     ethr =  1.00E-02,  avg # of iterations =  7.0

     negative rho (up, down):  1.957E-03 0.000E+00
 
     Adding external electric field

     Computed dipole along edir(3) : 
        Dipole               -5.4101 Ry au,        -13.7512 Debye
        Dipole field         -0.0102 Ry au, 
 
        Potential amp.        0.9464 Ry
        Total length         46.3494 bohr
 

     total cpu time spent up to now is      247.4 secs

     total energy              =   -2973.72637747 Ry
     estimated scf accuracy    <      18.01666442 Ry

     iteration #  7     ecut=    29.40 Ry     beta= 0.05
     Davidson diagonalization with overlap
     ethr =  4.50E-03,  avg # of iterations =  1.9

     negative rho (up, down):  2.152E-03 0.000E+00
 
     Adding external electric field

     Computed dipole along edir(3) : 
        Dipole                1.0233 Ry au,          2.6009 Debye
        Dipole field          0.0019 Ry au, 
 
        Potential amp.       -0.1790 Ry
        Total length         46.3494 bohr
 

     total cpu time spent up to now is      262.5 secs

     total energy              =   -2970.94320848 Ry
     estimated scf accuracy    <      16.81507364 Ry

     iteration #  8     ecut=    29.40 Ry     beta= 0.05
     Davidson diagonalization with overlap
     ethr =  4.20E-03,  avg # of iterations = 17.6

     negative rho (up, down):  2.181E-03 0.000E+00
 
     Adding external electric field

     Computed dipole along edir(3) : 
        Dipole                0.5978 Ry au,          1.5195 Debye
        Dipole field          0.0011 Ry au, 
 
        Potential amp.       -0.1046 Ry
        Total length         46.3494 bohr
 

     total cpu time spent up to now is      287.0 secs

     total energy              =   -2996.58744632 Ry
     estimated scf accuracy    <    3027.17739704 Ry

     iteration #  9     ecut=    29.40 Ry     beta= 0.05
     Davidson diagonalization with overlap
     ethr =  4.20E-03,  avg # of iterations =  1.0

     negative rho (up, down):  2.264E-03 0.000E+00
 
     Adding external electric field

     Computed dipole along edir(3) : 
        Dipole                1.1395 Ry au,          2.8963 Debye
        Dipole field          0.0022 Ry au, 
 
        Potential amp.       -0.1993 Ry
        Total length         46.3494 bohr
 

     total cpu time spent up to now is      297.1 secs

     total energy              =   -3000.74002223 Ry
     estimated scf accuracy    <    2632.08054201 Ry

     iteration # 10     ecut=    29.40 Ry     beta= 0.05
     Davidson diagonalization with overlap
     ethr =  4.20E-03,  avg # of iterations =  1.1

     negative rho (up, down):  2.625E-03 0.000E+00
 
     Adding external electric field

     Computed dipole along edir(3) : 
        Dipole                0.7550 Ry au,          1.9191 Debye
        Dipole field          0.0014 Ry au, 
 
        Potential amp.       -0.1321 Ry
        Total length         46.3494 bohr
 

     total cpu time spent up to now is      307.3 secs

     total energy              =   -2984.07363364 Ry
     estimated scf accuracy    <    3104.09911203 Ry

     iteration # 11     ecut=    29.40 Ry     beta= 0.05
     Davidson diagonalization with overlap
     ethr =  4.20E-03,  avg # of iterations =  2.4

     negative rho (up, down):  2.744E-03 0.000E+00
 
     Adding external electric field

     Computed dipole along edir(3) : 
        Dipole               -1.5961 Ry au,         -4.0568 Debye
        Dipole field         -0.0030 Ry au, 
 
        Potential amp.        0.2792 Ry
        Total length         46.3494 bohr
 

     total cpu time spent up to now is      318.6 secs

     total energy              =   -2959.93860167 Ry
     estimated scf accuracy    <    2218.36392625 Ry

     iteration # 12     ecut=    29.40 Ry     beta= 0.05
     Davidson diagonalization with overlap
     ethr =  4.20E-03,  avg # of iterations = 16.7

     negative rho (up, down):  2.687E-03 0.000E+00
 
     Adding external electric field

     Computed dipole along edir(3) : 
        Dipole               -0.6835 Ry au,         -1.7373 Debye
        Dipole field         -0.0013 Ry au, 
 
        Potential amp.        0.1196 Ry
        Total length         46.3494 bohr
 

     total cpu time spent up to now is      343.9 secs

     total energy              =   -2972.17050957 Ry
     estimated scf accuracy    <      56.56723242 Ry

     iteration # 13     ecut=    29.40 Ry     beta= 0.05
     Davidson diagonalization with overlap
     c_bands:  3 eigenvalues not converged
     ethr =  4.20E-03,  avg # of iterations =  5.7

     negative rho (up, down):  2.648E-03 0.000E+00
 
     Adding external electric field

     Computed dipole along edir(3) : 
        Dipole                1.3341 Ry au,          3.3908 Debye
        Dipole field          0.0025 Ry au, 
 
        Potential amp.       -0.2334 Ry
        Total length         46.3494 bohr
 

     total cpu time spent up to now is      356.4 secs

     total energy              =   -2982.94528900 Ry
     estimated scf accuracy    <     442.94433913 Ry

     iteration # 14     ecut=    29.40 Ry     beta= 0.05
     Davidson diagonalization with overlap
     ethr =  4.20E-03,  avg # of iterations = 13.8

     negative rho (up, down):  2.623E-03 0.000E+00
 
     Adding external electric field

     Computed dipole along edir(3) : 
        Dipole               -0.3149 Ry au,         -0.8005 Debye
        Dipole field         -0.0006 Ry au, 
 
        Potential amp.        0.0551 Ry
        Total length         46.3494 bohr
 

     total cpu time spent up to now is      376.6 secs

     total energy              =   -2975.90815736 Ry
     estimated scf accuracy    <    2326.07380505 Ry

     iteration # 15     ecut=    29.40 Ry     beta= 0.05
     Davidson diagonalization with overlap
     ethr =  4.20E-03,  avg # of iterations =  1.9

     negative rho (up, down):  2.596E-03 0.000E+00
 
     Adding external electric field

     Computed dipole along edir(3) : 
        Dipole               -2.9836 Ry au,         -7.5835 Debye
        Dipole field         -0.0056 Ry au, 
 
        Potential amp.        0.5219 Ry
        Total length         46.3494 bohr
 

     total cpu time spent up to now is      387.4 secs

     total energy              =   -2956.22521234 Ry
     estimated scf accuracy    <    1600.11477400 Ry

     iteration # 16     ecut=    29.40 Ry     beta= 0.05
     Davidson diagonalization with overlap
     ethr =  4.20E-03,  avg # of iterations = 13.5

     negative rho (up, down):  2.770E-03 0.000E+00
 
     Adding external electric field

     Computed dipole along edir(3) : 
        Dipole               -2.3383 Ry au,         -5.9435 Debye
        Dipole field         -0.0044 Ry au, 
 
        Potential amp.        0.4091 Ry
        Total length         46.3494 bohr
 

     total cpu time spent up to now is      412.0 secs

     total energy              =   -2970.15356634 Ry
     estimated scf accuracy    <       3.69994474 Ry

     iteration # 17     ecut=    29.40 Ry     beta= 0.05
     Davidson diagonalization with overlap
     ethr =  9.25E-04,  avg # of iterations = 10.1

     negative rho (up, down):  3.088E-03 0.000E+00
 
     Adding external electric field

     Computed dipole along edir(3) : 
        Dipole               -1.3123 Ry au,         -3.3355 Debye
        Dipole field         -0.0025 Ry au, 
 
        Potential amp.        0.2296 Ry
        Total length         46.3494 bohr
 

     total cpu time spent up to now is      427.6 secs

     total energy              =   -2970.28025055 Ry
     estimated scf accuracy    <       1.23949087 Ry

     iteration # 18     ecut=    29.40 Ry     beta= 0.05
     Davidson diagonalization with overlap
     ethr =  3.10E-04,  avg # of iterations = 11.8

     negative rho (up, down):  2.950E-03 0.000E+00
 
     Adding external electric field

     Computed dipole along edir(3) : 
        Dipole               -1.8606 Ry au,         -4.7291 Debye
        Dipole field         -0.0035 Ry au, 
 
        Potential amp.        0.3255 Ry
        Total length         46.3494 bohr
 

     total cpu time spent up to now is      447.7 secs

     total energy              =   -2970.33270131 Ry
     estimated scf accuracy    <       4.49086116 Ry

     iteration # 19     ecut=    29.40 Ry     beta= 0.05
     Davidson diagonalization with overlap
     ethr =  3.10E-04,  avg # of iterations =  4.8

     negative rho (up, down):  2.927E-03 0.000E+00
 
     Adding external electric field

     Computed dipole along edir(3) : 
        Dipole               -1.8078 Ry au,         -4.5951 Debye
        Dipole field         -0.0034 Ry au, 
 
        Potential amp.        0.3163 Ry
        Total length         46.3494 bohr
 

     total cpu time spent up to now is      459.5 secs

     total energy              =   -2970.41806609 Ry
     estimated scf accuracy    <       1.99705813 Ry

     iteration # 20     ecut=    29.40 Ry     beta= 0.05
     Davidson diagonalization with overlap
     ethr =  3.10E-04,  avg # of iterations =  1.1

     negative rho (up, down):  2.996E-03 0.000E+00
 
     Adding external electric field

     Computed dipole along edir(3) : 
        Dipole               -1.3800 Ry au,         -3.5077 Debye
        Dipole field         -0.0026 Ry au, 
 
        Potential amp.        0.2414 Ry
        Total length         46.3494 bohr
 

     total cpu time spent up to now is      469.7 secs

     total energy              =   -2970.49989358 Ry
     estimated scf accuracy    <       1.92672332 Ry

     iteration # 21     ecut=    29.40 Ry     beta= 0.05
     Davidson diagonalization with overlap
     c_bands:  3 eigenvalues not converged
     ethr =  3.10E-04,  avg # of iterations =  6.6

     negative rho (up, down):  2.936E-03 0.000E+00
 
     Adding external electric field

     Computed dipole along edir(3) : 
        Dipole               -1.5411 Ry au,         -3.9172 Debye
        Dipole field         -0.0029 Ry au, 
 
        Potential amp.        0.2696 Ry
        Total length         46.3494 bohr
 

     total cpu time spent up to now is      482.3 secs

     total energy              =   -2970.59879510 Ry
     estimated scf accuracy    <       8.14198990 Ry

     iteration # 22     ecut=    29.40 Ry     beta= 0.05
     Davidson diagonalization with overlap
     ethr =  3.10E-04,  avg # of iterations =  1.8

     negative rho (up, down):  3.029E-03 0.000E+00
 
     Adding external electric field

     Computed dipole along edir(3) : 
        Dipole               -1.1005 Ry au,         -2.7972 Debye
        Dipole field         -0.0021 Ry au, 
 
        Potential amp.        0.1925 Ry
        Total length         46.3494 bohr
 

     total cpu time spent up to now is      492.7 secs

     total energy              =   -2970.52968798 Ry
     estimated scf accuracy    <       7.13354927 Ry

     iteration # 23     ecut=    29.40 Ry     beta= 0.05
     Davidson diagonalization with overlap
     ethr =  3.10E-04,  avg # of iterations =  1.9

     negative rho (up, down):  3.137E-03 0.000E+00
 
     Adding external electric field

     Computed dipole along edir(3) : 
        Dipole               -0.5598 Ry au,         -1.4229 Debye
        Dipole field         -0.0011 Ry au, 
 
        Potential amp.        0.0979 Ry
        Total length         46.3494 bohr
 

     total cpu time spent up to now is      504.3 secs

     total energy              =   -2970.55256534 Ry
     estimated scf accuracy    <       4.51472479 Ry

     iteration # 24     ecut=    29.40 Ry     beta= 0.05
     Davidson diagonalization with overlap
     ethr =  3.10E-04,  avg # of iterations =  5.1

     negative rho (up, down):  3.131E-03 0.000E+00
 
     Adding external electric field

     Computed dipole along edir(3) : 
        Dipole               -0.5219 Ry au,         -1.3266 Debye
        Dipole field         -0.0010 Ry au, 
 
        Potential amp.        0.0913 Ry
        Total length         46.3494 bohr
 

     total cpu time spent up to now is      516.4 secs

     total energy              =   -2970.67650913 Ry
     estimated scf accuracy    <      13.10935225 Ry

     iteration # 25     ecut=    29.40 Ry     beta= 0.05
     Davidson diagonalization with overlap
     ethr =  3.10E-04,  avg # of iterations =  1.9

     negative rho (up, down):  2.971E-03 0.000E+00
 
     Adding external electric field

     Computed dipole along edir(3) : 
        Dipole               -1.2553 Ry au,         -3.1906 Debye
        Dipole field         -0.0024 Ry au, 
 
        Potential amp.        0.2196 Ry
        Total length         46.3494 bohr
 

     total cpu time spent up to now is      526.9 secs

     total energy              =   -2970.10489147 Ry
     estimated scf accuracy    <      18.06857113 Ry

     iteration # 26     ecut=    29.40 Ry     beta= 0.05
     Davidson diagonalization with overlap
     ethr =  3.10E-04,  avg # of iterations =  4.8

     negative rho (up, down):  2.941E-03 0.000E+00
 
     Adding external electric field

     Computed dipole along edir(3) : 
        Dipole               -1.5480 Ry au,         -3.9345 Debye
        Dipole field         -0.0029 Ry au, 
 
        Potential amp.        0.2708 Ry
        Total length         46.3494 bohr
 

     total cpu time spent up to now is      539.1 secs

     total energy              =   -2970.24066679 Ry
     estimated scf accuracy    <       1.57752762 Ry

     iteration # 27     ecut=    29.40 Ry     beta= 0.05
     Davidson diagonalization with overlap
     ethr =  3.10E-04,  avg # of iterations =  6.1

     negative rho (up, down):  3.240E-03 0.000E+00
 
     Adding external electric field

     Computed dipole along edir(3) : 
        Dipole               -0.9127 Ry au,         -2.3198 Debye
        Dipole field         -0.0017 Ry au, 
 
        Potential amp.        0.1597 Ry
        Total length         46.3494 bohr
 

     total cpu time spent up to now is      552.0 secs

     total energy              =   -2970.21221476 Ry
     estimated scf accuracy    <       0.85974529 Ry

     iteration # 28     ecut=    29.40 Ry     beta= 0.05
     Davidson diagonalization with overlap
     ethr =  2.15E-04,  avg # of iterations =  6.0

     negative rho (up, down):  3.692E-03 0.000E+00
 
     Adding external electric field

     Computed dipole along edir(3) : 
        Dipole               -0.2589 Ry au,         -0.6581 Debye
        Dipole field         -0.0005 Ry au, 
 
        Potential amp.        0.0453 Ry
        Total length         46.3494 bohr
 

     total cpu time spent up to now is      566.7 secs

     total energy              =   -2970.24327710 Ry
     estimated scf accuracy    <       0.42773054 Ry

     iteration # 29     ecut=    29.40 Ry     beta= 0.05
     Davidson diagonalization with overlap
     c_bands:  1 eigenvalues not converged
     c_bands:  3 eigenvalues not converged
     ethr =  1.07E-04,  avg # of iterations = 13.3

     negative rho (up, down):  3.901E-03 0.000E+00
 
     Adding external electric field

     Computed dipole along edir(3) : 
        Dipole               -0.2445 Ry au,         -0.6214 Debye
        Dipole field         -0.0005 Ry au, 
 
        Potential amp.        0.0428 Ry
        Total length         46.3494 bohr
 

     total cpu time spent up to now is      584.2 secs

     total energy              =   -2970.24273840 Ry
     estimated scf accuracy    <       0.50338595 Ry

     iteration # 30     ecut=    29.40 Ry     beta= 0.05
     Davidson diagonalization with overlap
     c_bands:  1 eigenvalues not converged
     ethr =  1.07E-04,  avg # of iterations =  6.1

     negative rho (up, down):  4.352E-03 0.000E+00
 
     Adding external electric field

     Computed dipole along edir(3) : 
        Dipole               -0.4694 Ry au,         -1.1931 Debye
        Dipole field         -0.0009 Ry au, 
 
        Potential amp.        0.0821 Ry
        Total length         46.3494 bohr
 

     total cpu time spent up to now is      596.5 secs

     total energy              =   -2970.16530161 Ry
     estimated scf accuracy    <       0.34698773 Ry

     iteration # 31     ecut=    29.40 Ry     beta= 0.05
     Davidson diagonalization with overlap
     c_bands:  3 eigenvalues not converged
     c_bands:  1 eigenvalues not converged
     c_bands:  1 eigenvalues not converged
     c_bands:  3 eigenvalues not converged
     c_bands:  3 eigenvalues not converged
     c_bands:  1 eigenvalues not converged
     c_bands:  4 eigenvalues not converged
     c_bands:  1 eigenvalues not converged
     c_bands:  2 eigenvalues not converged
     c_bands:  1 eigenvalues not converged
     ethr =  8.67E-05,  avg # of iterations = 20.0

     negative rho (up, down):  4.338E-03 0.000E+00
 
     Adding external electric field

     Computed dipole along edir(3) : 
        Dipole               -0.5701 Ry au,         -1.4490 Debye
        Dipole field         -0.0011 Ry au, 
 
        Potential amp.        0.0997 Ry
        Total length         46.3494 bohr
 

     total cpu time spent up to now is      626.3 secs

     total energy              =   -2970.32579250 Ry
     estimated scf accuracy    <       8.26938865 Ry

     iteration # 32     ecut=    29.40 Ry     beta= 0.05
     Davidson diagonalization with overlap
     ethr =  8.67E-05,  avg # of iterations =  6.0

     negative rho (up, down):  4.353E-03 0.000E+00
 
     Adding external electric field

     Computed dipole along edir(3) : 
        Dipole               -0.4593 Ry au,         -1.1674 Debye
        Dipole field         -0.0009 Ry au, 
 
        Potential amp.        0.0803 Ry
        Total length         46.3494 bohr
 

     total cpu time spent up to now is      639.3 secs

     total energy              =   -2970.23563237 Ry
     estimated scf accuracy    <      18.88091558 Ry

     iteration # 33     ecut=    29.40 Ry     beta= 0.05
     Davidson diagonalization with overlap
     ethr =  8.67E-05,  avg # of iterations =  1.1

     negative rho (up, down):  4.298E-03 0.000E+00
 
     Adding external electric field

     Computed dipole along edir(3) : 
        Dipole               -0.3518 Ry au,         -0.8942 Debye
        Dipole field         -0.0007 Ry au, 
 
        Potential amp.        0.0615 Ry
        Total length         46.3494 bohr
 

     total cpu time spent up to now is      649.6 secs

     total energy              =   -2970.20783557 Ry
     estimated scf accuracy    <       4.58909252 Ry

     iteration # 34     ecut=    29.40 Ry     beta= 0.05
     Davidson diagonalization with overlap
     ethr =  8.67E-05,  avg # of iterations =  1.2

     negative rho (up, down):  4.367E-03 0.000E+00
 
     Adding external electric field

     Computed dipole along edir(3) : 
        Dipole               -0.2206 Ry au,         -0.5607 Debye
        Dipole field         -0.0004 Ry au, 
 
        Potential amp.        0.0386 Ry
        Total length         46.3494 bohr
 

     total cpu time spent up to now is      660.1 secs

     total energy              =   -2970.20874940 Ry
     estimated scf accuracy    <       0.41540099 Ry

     iteration # 35     ecut=    29.40 Ry     beta= 0.05
     Davidson diagonalization with overlap
     ethr =  8.67E-05,  avg # of iterations =  4.4

     negative rho (up, down):  5.008E-03 0.000E+00
 
     Adding external electric field

     Computed dipole along edir(3) : 
        Dipole               -0.1142 Ry au,         -0.2903 Debye
        Dipole field         -0.0002 Ry au, 
 
        Potential amp.        0.0200 Ry
        Total length         46.3494 bohr
 

     total cpu time spent up to now is      671.8 secs

     total energy              =   -2970.21670934 Ry
     estimated scf accuracy    <       0.07488950 Ry

     iteration # 36     ecut=    29.40 Ry     beta= 0.05
     Davidson diagonalization with overlap
     c_bands:  1 eigenvalues not converged
     c_bands:  1 eigenvalues not converged
     c_bands:  1 eigenvalues not converged
     c_bands:  1 eigenvalues not converged
     ethr =  1.87E-05,  avg # of iterations = 14.0

     negative rho (up, down):  5.348E-03 0.000E+00
 
     Adding external electric field

     Computed dipole along edir(3) : 
        Dipole               -0.1262 Ry au,         -0.3209 Debye
        Dipole field         -0.0002 Ry au, 
 
        Potential amp.        0.0221 Ry
        Total length         46.3494 bohr
 

     total cpu time spent up to now is      688.7 secs

     total energy              =   -2970.22575037 Ry
     estimated scf accuracy    <       0.12649905 Ry

     iteration # 37     ecut=    29.40 Ry     beta= 0.05
     Davidson diagonalization with overlap
     ethr =  1.87E-05,  avg # of iterations =  3.4

     negative rho (up, down):  5.742E-03 0.000E+00
 
     Adding external electric field

     Computed dipole along edir(3) : 
        Dipole               -0.0625 Ry au,         -0.1588 Debye
        Dipole field         -0.0001 Ry au, 
 
        Potential amp.        0.0109 Ry
        Total length         46.3494 bohr
 

     total cpu time spent up to now is      700.1 secs

     total energy              =   -2970.22399633 Ry
     estimated scf accuracy    <       0.80303934 Ry

     iteration # 38     ecut=    29.40 Ry     beta= 0.05
     Davidson diagonalization with overlap
     ethr =  1.87E-05,  avg # of iterations =  5.3

     negative rho (up, down):  6.276E-03 0.000E+00
 
     Adding external electric field

     Computed dipole along edir(3) : 
        Dipole               -0.0377 Ry au,         -0.0959 Debye
        Dipole field         -0.0001 Ry au, 
 
        Potential amp.        0.0066 Ry
        Total length         46.3494 bohr
 

     total cpu time spent up to now is      719.9 secs

     total energy              =   -2970.22680241 Ry
     estimated scf accuracy    <       0.37064255 Ry

     iteration # 39     ecut=    29.40 Ry     beta= 0.05
     Davidson diagonalization with overlap
     ethr =  1.87E-05,  avg # of iterations =  2.4

     negative rho (up, down):  7.768E-03 0.000E+00
 
     Adding external electric field

     Computed dipole along edir(3) : 
        Dipole               -0.0783 Ry au,         -0.1990 Debye
        Dipole field         -0.0001 Ry au, 
 
        Potential amp.        0.0137 Ry
        Total length         46.3494 bohr
 

     total cpu time spent up to now is      731.0 secs

     total energy              =   -2970.23348334 Ry
     estimated scf accuracy    <       0.25519806 Ry

     iteration # 40     ecut=    29.40 Ry     beta= 0.05
     Davidson diagonalization with overlap
     c_bands:  2 eigenvalues not converged
     c_bands:  1 eigenvalues not converged
     ethr =  1.87E-05,  avg # of iterations =  8.3

     negative rho (up, down):  8.212E-03 0.000E+00
 
     Adding external electric field

     Computed dipole along edir(3) : 
        Dipole               -0.0854 Ry au,         -0.2171 Debye
        Dipole field         -0.0002 Ry au, 
 
        Potential amp.        0.0149 Ry
        Total length         46.3494 bohr
 

     total cpu time spent up to now is      745.3 secs

     total energy              =   -2970.25063597 Ry
     estimated scf accuracy    <       1.80050154 Ry

     iteration # 41     ecut=    29.40 Ry     beta= 0.05
     Davidson diagonalization with overlap
     c_bands:  1 eigenvalues not converged
     ethr =  1.87E-05,  avg # of iterations =  5.6

     negative rho (up, down):  8.090E-03 0.000E+00
 
     Adding external electric field

     Computed dipole along edir(3) : 
        Dipole               -0.1396 Ry au,         -0.3549 Debye
        Dipole field         -0.0003 Ry au, 
 
        Potential amp.        0.0244 Ry
        Total length         46.3494 bohr
 

     total cpu time spent up to now is      759.3 secs

     total energy              =   -2970.25587686 Ry
     estimated scf accuracy    <       4.28541153 Ry

     iteration # 42     ecut=    29.40 Ry     beta= 0.05
     Davidson diagonalization with overlap
     ethr =  1.87E-05,  avg # of iterations =  4.1

     negative rho (up, down):  7.256E-03 0.000E+00
 
     Adding external electric field

     Computed dipole along edir(3) : 
        Dipole               -0.1452 Ry au,         -0.3689 Debye
        Dipole field         -0.0003 Ry au, 
 
        Potential amp.        0.0254 Ry
        Total length         46.3494 bohr
 

     total cpu time spent up to now is      770.7 secs

     total energy              =   -2970.23663311 Ry
     estimated scf accuracy    <       4.88983472 Ry

     iteration # 43     ecut=    29.40 Ry     beta= 0.05
     Davidson diagonalization with overlap
     ethr =  1.87E-05,  avg # of iterations =  2.3

     negative rho (up, down):  6.540E-03 0.000E+00
 
     Adding external electric field

     Computed dipole along edir(3) : 
        Dipole               -0.0750 Ry au,         -0.1906 Debye
        Dipole field         -0.0001 Ry au, 
 
        Potential amp.        0.0131 Ry
        Total length         46.3494 bohr
 

     total cpu time spent up to now is      781.4 secs

     total energy              =   -2970.22630661 Ry
     estimated scf accuracy    <       1.90259255 Ry

     iteration # 44     ecut=    29.40 Ry     beta= 0.05
     Davidson diagonalization with overlap
     ethr =  1.87E-05,  avg # of iterations =  1.3

     negative rho (up, down):  6.563E-03 0.000E+00
 
     Adding external electric field

     Computed dipole along edir(3) : 
        Dipole               -0.0080 Ry au,         -0.0202 Debye
        Dipole field         -0.0000 Ry au, 
 
        Potential amp.        0.0014 Ry
        Total length         46.3494 bohr
 

     total cpu time spent up to now is      791.9 secs

     total energy              =   -2970.22692652 Ry
     estimated scf accuracy    <       0.55085172 Ry

     iteration # 45     ecut=    29.40 Ry     beta= 0.05
     Davidson diagonalization with overlap
     ethr =  1.87E-05,  avg # of iterations =  2.5

     negative rho (up, down):  7.403E-03 0.000E+00
 
     Adding external electric field

     Computed dipole along edir(3) : 
        Dipole                0.0314 Ry au,          0.0799 Debye
        Dipole field          0.0001 Ry au, 
 
        Potential amp.       -0.0055 Ry
        Total length         46.3494 bohr
 

     total cpu time spent up to now is      803.2 secs

     total energy              =   -2970.22696713 Ry
     estimated scf accuracy    <       0.38945884 Ry

     iteration # 46     ecut=    29.40 Ry     beta= 0.05
     Davidson diagonalization with overlap
     ethr =  1.87E-05,  avg # of iterations =  1.0

     negative rho (up, down):  1.066E-02 0.000E+00
 
     Adding external electric field

     Computed dipole along edir(3) : 
        Dipole                0.1303 Ry au,          0.3311 Debye
        Dipole field          0.0002 Ry au, 
 
        Potential amp.       -0.0228 Ry
        Total length         46.3494 bohr
 

     total cpu time spent up to now is      814.7 secs

     total energy              =   -2970.22448442 Ry
     estimated scf accuracy    <       0.29192256 Ry

     iteration # 47     ecut=    29.40 Ry     beta= 0.05
     Davidson diagonalization with overlap
     ethr =  1.87E-05,  avg # of iterations =  2.8

     negative rho (up, down):  1.081E-02 0.000E+00
 
     Adding external electric field

     Computed dipole along edir(3) : 
        Dipole                0.1491 Ry au,          0.3789 Debye
        Dipole field          0.0003 Ry au, 
 
        Potential amp.       -0.0261 Ry
        Total length         46.3494 bohr
 

     total cpu time spent up to now is      828.0 secs

     total energy              =   -2970.22488256 Ry
     estimated scf accuracy    <       0.10545069 Ry

     iteration # 48     ecut=    29.40 Ry     beta= 0.05
     Davidson diagonalization with overlap
     ethr =  1.87E-05,  avg # of iterations =  1.0

     negative rho (up, down):  1.206E-02 0.000E+00
 
     Adding external electric field

     Computed dipole along edir(3) : 
        Dipole                0.2061 Ry au,          0.5238 Debye
        Dipole field          0.0004 Ry au, 
 
        Potential amp.       -0.0361 Ry
        Total length         46.3494 bohr
 

     total cpu time spent up to now is      838.1 secs

     total energy              =   -2970.22296460 Ry
     estimated scf accuracy    <       0.06013163 Ry

     iteration # 49     ecut=    29.40 Ry     beta= 0.05
     Davidson diagonalization with overlap
     ethr =  1.50E-05,  avg # of iterations =  3.9

     negative rho (up, down):  1.319E-02 0.000E+00
 
     Adding external electric field

     Computed dipole along edir(3) : 
        Dipole                0.2302 Ry au,          0.5851 Debye
        Dipole field          0.0004 Ry au, 
 
        Potential amp.       -0.0403 Ry
        Total length         46.3494 bohr
 

     total cpu time spent up to now is      850.8 secs

     total energy              =   -2970.22363762 Ry
     estimated scf accuracy    <       0.01613943 Ry

     iteration # 50     ecut=    29.40 Ry     beta= 0.05
     Davidson diagonalization with overlap
     c_bands:  1 eigenvalues not converged
     ethr =  4.03E-06,  avg # of iterations =  8.1

     negative rho (up, down):  1.266E-02 0.000E+00
 
     Adding external electric field

     Computed dipole along edir(3) : 
        Dipole                0.2328 Ry au,          0.5916 Debye
        Dipole field          0.0004 Ry au, 
 
        Potential amp.       -0.0407 Ry
        Total length         46.3494 bohr
 

     total cpu time spent up to now is      863.9 secs

     total energy              =   -2970.22370949 Ry
     estimated scf accuracy    <       0.01131515 Ry

     iteration # 51     ecut=    29.40 Ry     beta= 0.05
     Davidson diagonalization with overlap
     c_bands:  1 eigenvalues not converged
     ethr =  2.83E-06,  avg # of iterations =  5.5

     negative rho (up, down):  1.225E-02 0.000E+00
 
     Adding external electric field

     Computed dipole along edir(3) : 
        Dipole                0.2337 Ry au,          0.5941 Debye
        Dipole field          0.0004 Ry au, 
 
        Potential amp.       -0.0409 Ry
        Total length         46.3494 bohr
 

     total cpu time spent up to now is      875.6 secs

     total energy              =   -2970.22359350 Ry
     estimated scf accuracy    <       0.00690356 Ry

     iteration # 52     ecut=    29.40 Ry     beta= 0.05
     Davidson diagonalization with overlap
     c_bands:  1 eigenvalues not converged
     ethr =  1.73E-06,  avg # of iterations =  9.6

     negative rho (up, down):  1.298E-02 0.000E+00
 
     Adding external electric field

     Computed dipole along edir(3) : 
        Dipole                0.2728 Ry au,          0.6935 Debye
        Dipole field          0.0005 Ry au, 
 
        Potential amp.       -0.0477 Ry
        Total length         46.3494 bohr
 

     total cpu time spent up to now is      889.3 secs

     total energy              =   -2970.22352504 Ry
     estimated scf accuracy    <       0.00384470 Ry

     iteration # 53     ecut=    29.40 Ry     beta= 0.05
     Davidson diagonalization with overlap
     c_bands:  2 eigenvalues not converged
     ethr =  9.61E-07,  avg # of iterations =  5.5

     negative rho (up, down):  1.346E-02 0.000E+00
 
     Adding external electric field

     Computed dipole along edir(3) : 
        Dipole                0.2966 Ry au,          0.7539 Debye
        Dipole field          0.0006 Ry au, 
 
        Potential amp.       -0.0519 Ry
        Total length         46.3494 bohr
 

     total cpu time spent up to now is      901.4 secs

     total energy              =   -2970.22360894 Ry
     estimated scf accuracy    <       0.00099906 Ry

     iteration # 54     ecut=    29.40 Ry     beta= 0.05
     Davidson diagonalization with overlap
     ethr =  2.50E-07,  avg # of iterations =  7.3

     negative rho (up, down):  1.378E-02 0.000E+00
 
     Adding external electric field

     Computed dipole along edir(3) : 
        Dipole                0.2956 Ry au,          0.7512 Debye
        Dipole field          0.0006 Ry au, 
 
        Potential amp.       -0.0517 Ry
        Total length         46.3494 bohr
 

     total cpu time spent up to now is      915.2 secs

     total energy              =   -2970.22372330 Ry
     estimated scf accuracy    <       0.00030637 Ry

     iteration # 55     ecut=    29.40 Ry     beta= 0.05
     Davidson diagonalization with overlap
     ethr =  7.66E-08,  avg # of iterations =  5.8

     negative rho (up, down):  1.400E-02 0.000E+00
 
     Adding external electric field

     Computed dipole along edir(3) : 
        Dipole                0.2930 Ry au,          0.7448 Debye
        Dipole field          0.0006 Ry au, 
 
        Potential amp.       -0.0513 Ry
        Total length         46.3494 bohr
 

     total cpu time spent up to now is      929.1 secs

     total energy              =   -2970.22376405 Ry
     estimated scf accuracy    <       0.00024714 Ry

     iteration # 56     ecut=    29.40 Ry     beta= 0.05
     Davidson diagonalization with overlap
     ethr =  6.18E-08,  avg # of iterations =  1.9

     negative rho (up, down):  1.430E-02 0.000E+00
 
     Adding external electric field

     Computed dipole along edir(3) : 
        Dipole                0.2987 Ry au,          0.7593 Debye
        Dipole field          0.0006 Ry au, 
 
        Potential amp.       -0.0523 Ry
        Total length         46.3494 bohr
 

     total cpu time spent up to now is      939.9 secs

     total energy              =   -2970.22375879 Ry
     estimated scf accuracy    <       0.00019141 Ry

     iteration # 57     ecut=    29.40 Ry     beta= 0.05
     Davidson diagonalization with overlap
     ethr =  4.79E-08,  avg # of iterations =  6.0

     negative rho (up, down):  1.441E-02 0.000E+00
 
     Adding external electric field

     Computed dipole along edir(3) : 
        Dipole                0.3011 Ry au,          0.7653 Debye
        Dipole field          0.0006 Ry au, 
 
        Potential amp.       -0.0527 Ry
        Total length         46.3494 bohr
 

     total cpu time spent up to now is      955.2 secs

     total energy              =   -2970.22379587 Ry
     estimated scf accuracy    <       0.00010430 Ry

     iteration # 58     ecut=    29.40 Ry     beta= 0.05
     Davidson diagonalization with overlap
     ethr =  2.61E-08,  avg # of iterations =  6.0

     negative rho (up, down):  1.450E-02 0.000E+00
 
     Adding external electric field

     Computed dipole along edir(3) : 
        Dipole                0.3036 Ry au,          0.7717 Debye
        Dipole field          0.0006 Ry au, 
 
        Potential amp.       -0.0531 Ry
        Total length         46.3494 bohr
 

     total cpu time spent up to now is      967.4 secs

     total energy              =   -2970.22380807 Ry
     estimated scf accuracy    <       0.00007132 Ry

     iteration # 59     ecut=    29.40 Ry     beta= 0.05
     Davidson diagonalization with overlap
     ethr =  1.78E-08,  avg # of iterations =  5.0

     negative rho (up, down):  1.503E-02 0.000E+00
 
     Adding external electric field

     Computed dipole along edir(3) : 
        Dipole                0.3072 Ry au,          0.7807 Debye
        Dipole field          0.0006 Ry au, 
 
        Potential amp.       -0.0537 Ry
        Total length         46.3494 bohr
 

     total cpu time spent up to now is      980.2 secs

     total energy              =   -2970.22382451 Ry
     estimated scf accuracy    <       0.00005073 Ry

     iteration # 60     ecut=    29.40 Ry     beta= 0.05
     Davidson diagonalization with overlap
     ethr =  1.27E-08,  avg # of iterations =  5.0

     negative rho (up, down):  1.508E-02 0.000E+00
 
     Adding external electric field

     Computed dipole along edir(3) : 
        Dipole                0.3062 Ry au,          0.7784 Debye
        Dipole field          0.0006 Ry au, 
 
        Potential amp.       -0.0536 Ry
        Total length         46.3494 bohr
 

     total cpu time spent up to now is      995.2 secs

     total energy              =   -2970.22384070 Ry
     estimated scf accuracy    <       0.00002165 Ry

     iteration # 61     ecut=    29.40 Ry     beta= 0.05
     Davidson diagonalization with overlap
     ethr =  5.41E-09,  avg # of iterations =  2.5

     negative rho (up, down):  1.504E-02 0.000E+00
 
     Adding external electric field

     Computed dipole along edir(3) : 
        Dipole                0.3050 Ry au,          0.7753 Debye
        Dipole field          0.0006 Ry au, 
 
        Potential amp.       -0.0534 Ry
        Total length         46.3494 bohr
 

     total cpu time spent up to now is     1006.3 secs

     total energy              =   -2970.22385132 Ry
     estimated scf accuracy    <       0.00002012 Ry

     iteration # 62     ecut=    29.40 Ry     beta= 0.05
     Davidson diagonalization with overlap
     ethr =  5.03E-09,  avg # of iterations =  2.4

     negative rho (up, down):  1.520E-02 0.000E+00
 
     Adding external electric field

     Computed dipole along edir(3) : 
        Dipole                0.3077 Ry au,          0.7822 Debye
        Dipole field          0.0006 Ry au, 
 
        Potential amp.       -0.0538 Ry
        Total length         46.3494 bohr
 

     total cpu time spent up to now is     1018.4 secs

     total energy              =   -2970.22385527 Ry
     estimated scf accuracy    <       0.00003487 Ry

     iteration # 63     ecut=    29.40 Ry     beta= 0.05
     Davidson diagonalization with overlap
     ethr =  5.03E-09,  avg # of iterations =  3.6

     negative rho (up, down):  1.524E-02 0.000E+00
 
     Adding external electric field

     Computed dipole along edir(3) : 
        Dipole                0.3078 Ry au,          0.7822 Debye
        Dipole field          0.0006 Ry au, 
 
        Potential amp.       -0.0538 Ry
        Total length         46.3494 bohr
 

     total cpu time spent up to now is     1029.7 secs

     total energy              =   -2970.22385820 Ry
     estimated scf accuracy    <       0.00002134 Ry

     iteration # 64     ecut=    29.40 Ry     beta= 0.05
     Davidson diagonalization with overlap
     ethr =  5.03E-09,  avg # of iterations =  4.8

     negative rho (up, down):  1.519E-02 0.000E+00
 
     Adding external electric field

     Computed dipole along edir(3) : 
        Dipole                0.3084 Ry au,          0.7839 Debye
        Dipole field          0.0006 Ry au, 
 
        Potential amp.       -0.0540 Ry
        Total length         46.3494 bohr
 

     total cpu time spent up to now is     1043.1 secs

     total energy              =   -2970.22386393 Ry
     estimated scf accuracy    <       0.00000896 Ry

     iteration # 65     ecut=    29.40 Ry     beta= 0.05
     Davidson diagonalization with overlap
     ethr =  2.24E-09,  avg # of iterations =  4.9

     negative rho (up, down):  1.520E-02 0.000E+00
 
     Adding external electric field

     Computed dipole along edir(3) : 
        Dipole                0.3089 Ry au,          0.7851 Debye
        Dipole field          0.0006 Ry au, 
 
        Potential amp.       -0.0540 Ry
        Total length         46.3494 bohr
 

     total cpu time spent up to now is     1058.5 secs

     total energy              =   -2970.22386891 Ry
     estimated scf accuracy    <       0.00000383 Ry

     iteration # 66     ecut=    29.40 Ry     beta= 0.05
     Davidson diagonalization with overlap
     ethr =  9.59E-10,  avg # of iterations =  5.2

     negative rho (up, down):  1.520E-02 0.000E+00
 
     Adding external electric field

     Computed dipole along edir(3) : 
        Dipole                0.3086 Ry au,          0.7843 Debye
        Dipole field          0.0006 Ry au, 
 
        Potential amp.       -0.0540 Ry
        Total length         46.3494 bohr
 

     total cpu time spent up to now is     1073.3 secs

     total energy              =   -2970.22387372 Ry
     estimated scf accuracy    <       0.00000193 Ry

     iteration # 67     ecut=    29.40 Ry     beta= 0.05
     Davidson diagonalization with overlap
     ethr =  4.82E-10,  avg # of iterations =  1.9

     negative rho (up, down):  1.518E-02 0.000E+00
 
     Adding external electric field

     Computed dipole along edir(3) : 
        Dipole                0.3082 Ry au,          0.7834 Debye
        Dipole field          0.0006 Ry au, 
 
        Potential amp.       -0.0539 Ry
        Total length         46.3494 bohr
 

     total cpu time spent up to now is     1084.3 secs

     total energy              =   -2970.22387765 Ry
     estimated scf accuracy    <       0.00000168 Ry

     iteration # 68     ecut=    29.40 Ry     beta= 0.05
     Davidson diagonalization with overlap
     ethr =  4.20E-10,  avg # of iterations =  3.3

     negative rho (up, down):  1.515E-02 0.000E+00
 
     Adding external electric field

     Computed dipole along edir(3) : 
        Dipole                0.3082 Ry au,          0.7833 Debye
        Dipole field          0.0006 Ry au, 
 
        Potential amp.       -0.0539 Ry
        Total length         46.3494 bohr
 

     total cpu time spent up to now is     1096.4 secs

     total energy              =   -2970.22388106 Ry
     estimated scf accuracy    <       0.00000149 Ry

     iteration # 69     ecut=    29.40 Ry     beta= 0.05
     Davidson diagonalization with overlap
     ethr =  3.73E-10,  avg # of iterations =  5.2

     negative rho (up, down):  1.515E-02 0.000E+00
 
     Adding external electric field

     Computed dipole along edir(3) : 
        Dipole                0.3082 Ry au,          0.7833 Debye
        Dipole field          0.0006 Ry au, 
 
        Potential amp.       -0.0539 Ry
        Total length         46.3494 bohr
 

     total cpu time spent up to now is     1110.5 secs

     total energy              =   -2970.22388432 Ry
     estimated scf accuracy    <       0.00000046 Ry

     iteration # 70     ecut=    29.40 Ry     beta= 0.05
     Davidson diagonalization with overlap
     ethr =  1.16E-10,  avg # of iterations =  5.0

     negative rho (up, down):  1.516E-02 0.000E+00
 
     Adding external electric field

     Computed dipole along edir(3) : 
        Dipole                0.3082 Ry au,          0.7834 Debye
        Dipole field          0.0006 Ry au, 
 
        Potential amp.       -0.0539 Ry
        Total length         46.3494 bohr
 

     total cpu time spent up to now is     1128.8 secs

     total energy              =   -2970.22388740 Ry
     estimated scf accuracy    <       0.00000087 Ry

     iteration # 71     ecut=    29.40 Ry     beta= 0.05
     Davidson diagonalization with overlap
     ethr =  1.16E-10,  avg # of iterations =  1.0

     negative rho (up, down):  1.514E-02 0.000E+00
 
     Adding external electric field

     Computed dipole along edir(3) : 
        Dipole                0.3081 Ry au,          0.7832 Debye
        Dipole field          0.0006 Ry au, 
 
        Potential amp.       -0.0539 Ry
        Total length         46.3494 bohr
 

     total cpu time spent up to now is     1139.4 secs

     total energy              =   -2970.22388980 Ry
     estimated scf accuracy    <       0.00000085 Ry

     iteration # 72     ecut=    29.40 Ry     beta= 0.05
     Davidson diagonalization with overlap
     ethr =  1.16E-10,  avg # of iterations =  5.0

     negative rho (up, down):  1.513E-02 0.000E+00
 
     Adding external electric field

     Computed dipole along edir(3) : 
        Dipole                0.3079 Ry au,          0.7827 Debye
        Dipole field          0.0006 Ry au, 
 
        Potential amp.       -0.0539 Ry
        Total length         46.3494 bohr
 

     total cpu time spent up to now is     1154.9 secs

     total energy              =   -2970.22389212 Ry
     estimated scf accuracy    <       0.00000047 Ry

     iteration # 73     ecut=    29.40 Ry     beta= 0.05
     Davidson diagonalization with overlap
     ethr =  1.16E-10,  avg # of iterations =  2.1

     negative rho (up, down):  1.513E-02 0.000E+00
 
     Adding external electric field

     Computed dipole along edir(3) : 
        Dipole                0.3078 Ry au,          0.7824 Debye
        Dipole field          0.0006 Ry au, 
 
        Potential amp.       -0.0539 Ry
        Total length         46.3494 bohr
 

     total cpu time spent up to now is     1166.4 secs

     total energy              =   -2970.22389425 Ry
     estimated scf accuracy    <       0.00000027 Ry

     iteration # 74     ecut=    29.40 Ry     beta= 0.05
     Davidson diagonalization with overlap
     ethr =  6.85E-11,  avg # of iterations =  5.0

     negative rho (up, down):  1.513E-02 0.000E+00
 
     Adding external electric field

     Computed dipole along edir(3) : 
        Dipole                0.3078 Ry au,          0.7824 Debye
        Dipole field          0.0006 Ry au, 
 
        Potential amp.       -0.0538 Ry
        Total length         46.3494 bohr
 

     total cpu time spent up to now is     1178.9 secs

     total energy              =   -2970.22389615 Ry
     estimated scf accuracy    <       0.00000029 Ry

     iteration # 75     ecut=    29.40 Ry     beta= 0.05
     Davidson diagonalization with overlap
     ethr =  6.85E-11,  avg # of iterations =  1.8

     negative rho (up, down):  1.513E-02 0.000E+00
 
     Adding external electric field

     Computed dipole along edir(3) : 
        Dipole                0.3078 Ry au,          0.7824 Debye
        Dipole field          0.0006 Ry au, 
 
        Potential amp.       -0.0538 Ry
        Total length         46.3494 bohr
 

     total cpu time spent up to now is     1194.9 secs

     total energy              =   -2970.22389784 Ry
     estimated scf accuracy    <       0.00000020 Ry

     iteration # 76     ecut=    29.40 Ry     beta= 0.05
     Davidson diagonalization with overlap
     ethr =  5.07E-11,  avg # of iterations =  5.0

     negative rho (up, down):  1.513E-02 0.000E+00
 
     Adding external electric field

     Computed dipole along edir(3) : 
        Dipole                0.3078 Ry au,          0.7824 Debye
        Dipole field          0.0006 Ry au, 
 
        Potential amp.       -0.0538 Ry
        Total length         46.3494 bohr
 

     total cpu time spent up to now is     1208.7 secs

     total energy              =   -2970.22389939 Ry
     estimated scf accuracy    <       0.00000012 Ry

     iteration # 77     ecut=    29.40 Ry     beta= 0.05
     Davidson diagonalization with overlap
     ethr =  3.12E-11,  avg # of iterations =  2.0

     negative rho (up, down):  1.515E-02 0.000E+00
 
     Adding external electric field

     Computed dipole along edir(3) : 
        Dipole                0.3079 Ry au,          0.7825 Debye
        Dipole field          0.0006 Ry au, 
 
        Potential amp.       -0.0539 Ry
        Total length         46.3494 bohr
 

     total cpu time spent up to now is     1219.8 secs

     total energy              =   -2970.22390085 Ry
     estimated scf accuracy    <       0.00000009 Ry

     iteration # 78     ecut=    29.40 Ry     beta= 0.05
     Davidson diagonalization with overlap
     ethr =  2.23E-11,  avg # of iterations =  6.0

     negative rho (up, down):  1.514E-02 0.000E+00
 
     Adding external electric field

     Computed dipole along edir(3) : 
        Dipole                0.3079 Ry au,          0.7825 Debye
        Dipole field          0.0006 Ry au, 
 
        Potential amp.       -0.0539 Ry
        Total length         46.3494 bohr
 

     total cpu time spent up to now is     1236.2 secs

     total energy              =   -2970.22390211 Ry
     estimated scf accuracy    <       0.00000016 Ry

     iteration # 79     ecut=    29.40 Ry     beta= 0.05
     Davidson diagonalization with overlap
     ethr =  2.23E-11,  avg # of iterations =  1.0

     negative rho (up, down):  1.514E-02 0.000E+00
 
     Adding external electric field

     Computed dipole along edir(3) : 
        Dipole                0.3079 Ry au,          0.7825 Debye
        Dipole field          0.0006 Ry au, 
 
        Potential amp.       -0.0539 Ry
        Total length         46.3494 bohr
 

     total cpu time spent up to now is     1246.2 secs

     total energy              =   -2970.22390320 Ry
     estimated scf accuracy    <       0.00000014 Ry

     iteration # 80     ecut=    29.40 Ry     beta= 0.05
     Davidson diagonalization with overlap
     ethr =  2.23E-11,  avg # of iterations =  5.5

     negative rho (up, down):  1.522E-02 0.000E+00
 
     Adding external electric field

     Computed dipole along edir(3) : 
        Dipole                0.3087 Ry au,          0.7847 Debye
        Dipole field          0.0006 Ry au, 
 
        Potential amp.       -0.0540 Ry
        Total length         46.3494 bohr
 

     total cpu time spent up to now is     1260.2 secs

     End of self-consistent calculation

          k = 0.0000 0.0000 0.0000 ( 18029 PWs)   bands (ev):

   -56.8427 -56.8092 -56.0024 -55.9673 -55.7430 -55.6787 -55.4122 -55.3880
   -55.3783 -55.3757 -55.3081 -55.2561 -55.2531 -55.2444 -55.0632 -55.0546
   -33.2642 -33.1182 -33.0901 -33.0184 -32.9280 -32.8909 -32.4868 -32.2231
   -32.2210 -32.1924 -32.1434 -32.1414 -32.1127 -31.9747 -31.9626 -31.9102
   -31.8837 -31.8688 -31.8430 -31.7934 -31.7583 -31.7413 -31.7368 -31.7338
   -31.7223 -31.6581 -31.6514 -31.6225 -31.6172 -31.6100 -31.5987 -31.5366
   -31.5248 -31.5067 -31.5047 -31.4799 -31.4761 -31.4581 -31.4469 -31.4249
   -31.4186 -31.3998 -31.3237 -31.3065 -31.3053 -31.2732 -31.2722 -31.2595
   -19.0028 -16.9640 -16.4401 -16.2392 -16.1705 -16.0790 -16.0481 -16.0367
   -15.9584 -15.7616 -15.6999 -15.6284 -15.6088 -15.5124 -15.3874 -15.2908
   -15.1617 -15.0864 -15.0231 -15.0134 -15.0033 -14.9836 -14.8697 -14.8662
   -14.8613 -14.8186 -14.7720 -14.6140 -14.5270 -14.3640 -14.3320 -13.9097
   -13.8022 -13.6274  -6.2845  -5.0474  -4.5334  -3.9451  -3.9129  -3.8738
    -3.7394  -3.5769  -3.5688  -3.4406  -3.3731  -3.2501  -3.2390  -3.2230
    -3.1564  -3.1372  -2.9903  -2.9419  -2.9263  -2.8219  -2.7911  -2.6376
    -2.6115  -2.5166  -2.4673  -2.4335  -2.3773  -2.3507  -2.2759  -2.2692
    -2.2505  -2.1629  -2.1625  -2.1304  -2.0504  -2.0390  -1.9698  -1.9226
    -1.8829  -1.8244  -1.8001  -1.7257  -1.7222  -1.6000  -1.5187  -1.4776
    -1.4340  -1.4248  -1.3645  -1.3094  -1.1996  -1.1736  -1.0834  -1.0385
    -1.0258  -0.9756  -0.8867  -0.8594  -0.7902  -0.7173  -0.6987  -0.6144
    -0.5853  -0.5609  -0.4546  -0.4358  -0.3808  -0.3550  -0.3240  -0.3121
    -0.2339  -0.1175  -0.1030  -0.0389   0.0107   0.0391   0.1310   0.2236
     0.2703   0.3209   0.3501   0.3686   0.4442   0.4721   0.4945   0.5464
     0.5756   0.6095   0.6138   0.7181   0.7495   0.8127   0.8717   0.8913
     0.9999   1.0359   1.0963   1.1465   1.1874   1.5296   1.6340   1.8772
     2.4449   2.6113   2.8874   3.0198   3.3443   3.4314   3.4396   3.4456
     3.6829   3.8198

          k = 0.0000 0.0419 0.0000 ( 17933 PWs)   bands (ev):

   -56.8377 -56.8140 -55.9978 -55.9718 -55.7407 -55.6809 -55.4071 -55.3860
   -55.3831 -55.3749 -55.3099 -55.2553 -55.2524 -55.2449 -55.0638 -55.0553
   -33.2109 -33.1139 -33.0938 -33.0052 -32.9468 -32.9412 -32.4346 -32.2114
   -32.1846 -32.1779 -32.1682 -32.1484 -32.1443 -31.9717 -31.9557 -31.9076
   -31.8979 -31.8913 -31.8156 -31.7546 -31.7442 -31.7372 -31.7032 -31.7020
   -31.6831 -31.6527 -31.6395 -31.6155 -31.6089 -31.6057 -31.5959 -31.5484
   -31.5399 -31.5388 -31.5037 -31.5024 -31.4814 -31.4811 -31.4566 -31.4447
   -31.4395 -31.4190 -31.3554 -31.3357 -31.3228 -31.2868 -31.2717 -31.2590
   -19.0016 -16.8433 -16.3344 -16.2324 -16.2241 -16.1107 -16.0094 -16.0013
   -15.8503 -15.8215 -15.6612 -15.6425 -15.5079 -15.4636 -15.4017 -15.3324
   -15.1833 -15.0977 -15.0677 -15.0573 -15.0008 -14.9631 -14.9370 -14.8882
   -14.8157 -14.8075 -14.7774 -14.6735 -14.5772 -14.4460 -14.3889 -13.9181
   -13.8440 -13.6300  -6.2843  -5.0339  -4.3515  -3.9318  -3.8594  -3.7372
    -3.5988  -3.5752  -3.5149  -3.3334  -3.2921  -3.2821  -3.2798  -3.1307
    -3.0697  -3.0389  -2.9461  -2.9314  -2.8817  -2.8107  -2.7964  -2.7514
    -2.6518  -2.5658  -2.5629  -2.5342  -2.4362  -2.4079  -2.3791  -2.3340
    -2.2901  -2.2656  -2.2162  -2.0950  -2.0873  -2.0257  -1.9436  -1.9064
    -1.8944  -1.7353  -1.7254  -1.6972  -1.6096  -1.5436  -1.5206  -1.4948
    -1.3952  -1.3783  -1.2977  -1.2367  -1.1925  -1.1310  -1.0749  -1.0116
    -0.9783  -0.9319  -0.9233  -0.7937  -0.7752  -0.7237  -0.6283  -0.5615
    -0.5090  -0.5011  -0.4548  -0.4259  -0.4154  -0.3802  -0.2868  -0.2755
    -0.2460  -0.2254  -0.1628  -0.1155  -0.0334   0.0029   0.0386   0.0679
     0.1754   0.1868   0.2102   0.2766   0.2892   0.3007   0.4011   0.4367
     0.4623   0.5208   0.5857   0.6224   0.6813   0.8396   0.8552   0.9070
     0.9324   0.9916   1.0127   1.0960   1.1107   1.4302   1.5525   1.8746
     2.7087   2.7197   2.9003   3.2195   3.2736   3.3126   3.3962   3.5595
     3.7160   3.7999

          k = 0.0000-0.0839 0.0000 ( 17884 PWs)   bands (ev):

   -56.8264 -56.8253 -55.9900 -55.9795 -55.7381 -55.6834 -55.3957 -55.3945
   -55.3840 -55.3742 -55.3118 -55.2546 -55.2518 -55.2454 -55.0645 -55.0559
   -33.1044 -33.1032 -33.0808 -33.0795 -32.9736 -32.9727 -32.3109 -32.3024
   -32.1851 -32.1730 -32.1695 -32.1622 -32.0590 -32.0112 -31.9679 -31.9465
   -31.9059 -31.9012 -31.7461 -31.7453 -31.7109 -31.6619 -31.6542 -31.6535
   -31.6474 -31.6236 -31.6230 -31.6172 -31.6165 -31.6145 -31.5889 -31.5777
   -31.5769 -31.5758 -31.5577 -31.5151 -31.5074 -31.4953 -31.4850 -31.4587
   -31.4429 -31.4197 -31.4132 -31.3808 -31.3283 -31.2943 -31.2712 -31.2584
   -19.0003 -16.5449 -16.5430 -16.2274 -16.1203 -16.1098 -15.9662 -15.9662
   -15.8358 -15.8065 -15.6302 -15.5829 -15.5249 -15.4876 -15.2669 -15.2441
   -15.2246 -15.2104 -15.1887 -15.1641 -15.0330 -15.0062 -14.8636 -14.8250
   -14.8109 -14.7708 -14.7232 -14.6998 -14.6935 -14.5701 -14.4722 -13.9071
   -13.9063 -13.6327  -6.2840  -5.0203  -3.9250  -3.8975  -3.8974  -3.8447
    -3.5791  -3.3928  -3.3902  -3.3721  -3.3527  -3.2922  -3.2600  -3.0294
    -3.0054  -2.9462  -2.8806  -2.8631  -2.8343  -2.7986  -2.7531  -2.7327
    -2.6849  -2.6279  -2.5552  -2.5377  -2.5332  -2.4419  -2.3871  -2.3549
    -2.3061  -2.2321  -2.2139  -2.1371  -2.1211  -2.0789  -2.0592  -2.0205
    -2.0161  -1.7759  -1.6716  -1.5951  -1.5660  -1.4849  -1.4306  -1.3973
    -1.3185  -1.2464  -1.1696  -1.1343  -1.1101  -1.1050  -1.0858  -0.9686
    -0.9411  -0.9227  -0.8922  -0.8580  -0.8432  -0.7126  -0.6986  -0.6561
    -0.6408  -0.6197  -0.5818  -0.5129  -0.4448  -0.3987  -0.3406  -0.3188
    -0.2716  -0.2187  -0.1499  -0.1402  -0.0881   0.0047   0.0235   0.0484
     0.0881   0.1224   0.1606   0.1938   0.2092   0.2550   0.2853   0.3186
     0.3657   0.4116   0.4554   0.5614   0.5986   0.7664   0.8191   0.9372
     0.9916   1.0014   1.0256   1.0553   1.1300   1.2648   1.5009   1.8750
     2.9635   2.9653   3.0854   3.0865   3.1558   3.1565   3.4921   3.4993
     3.7189   3.7940

          k = 0.0380 0.0000 0.0000 ( 17913 PWs)   bands (ev):

   -56.8426 -56.8091 -56.0023 -55.9672 -55.7429 -55.6786 -55.4121 -55.3878
   -55.3782 -55.3756 -55.3080 -55.2560 -55.2529 -55.2444 -55.0631 -55.0545
   -33.2648 -33.1179 -33.0900 -33.0165 -32.9277 -32.8907 -32.4869 -32.2350
   -32.2229 -32.1818 -32.1430 -32.1262 -32.1124 -31.9747 -31.9729 -31.9101
   -31.8839 -31.8710 -31.8427 -31.7931 -31.7606 -31.7418 -31.7374 -31.7321
   -31.7250 -31.6537 -31.6425 -31.6218 -31.6170 -31.6086 -31.5985 -31.5364
   -31.5228 -31.5066 -31.5047 -31.4799 -31.4692 -31.4581 -31.4516 -31.4260
   -31.4247 -31.3989 -31.3235 -31.3064 -31.3052 -31.2739 -31.2731 -31.2605
   -19.0027 -16.8628 -16.3701 -16.3278 -16.2338 -16.1374 -16.0346 -15.9199
   -15.8856 -15.8423 -15.6422 -15.6246 -15.5526 -15.5518 -15.5198 -15.1743
   -15.1641 -15.1541 -15.1104 -15.0889 -14.9989 -14.9861 -14.9837 -14.8937
   -14.7752 -14.7174 -14.6949 -14.6608 -14.5894 -14.3608 -14.3298 -13.9071
   -13.8019 -13.6263  -6.2830  -5.0360  -4.2492  -3.9437  -3.8627  -3.8158
    -3.6925  -3.6037  -3.5710  -3.5303  -3.3170  -3.2511  -3.2208  -3.1398
    -3.0586  -2.9943  -2.9519  -2.9022  -2.8403  -2.7872  -2.7600  -2.7327
    -2.6353  -2.5911  -2.5424  -2.4196  -2.3834  -2.3627  -2.2519  -2.2179
    -2.1668  -2.1402  -2.1068  -2.0635  -2.0372  -1.9564  -1.9379  -1.8817
    -1.8775  -1.7653  -1.7483  -1.7288  -1.6908  -1.6667  -1.5817  -1.5215
    -1.4981  -1.3992  -1.2716  -1.2623  -1.1660  -1.1465  -1.1099  -1.0946
    -1.0034  -0.9691  -0.8958  -0.8643  -0.8261  -0.8125  -0.7925  -0.7788
    -0.6585  -0.6371  -0.5708  -0.5418  -0.5004  -0.3576  -0.3142  -0.2552
    -0.1894  -0.1436  -0.1242  -0.0648  -0.0133   0.0916   0.1431   0.1565
     0.2003   0.2301   0.2738   0.3104   0.3649   0.3958   0.4070   0.4802
     0.5468   0.5747   0.6211   0.7181   0.7627   0.7764   0.7970   0.8527
     0.9040   0.9611   0.9814   1.0447   1.0987   1.4003   1.6500   1.8179
     2.5845   2.6074   2.8866   3.0865   3.0994   3.4464   3.5243   3.5698
     3.5933   3.9069

          k = 0.0380 0.0419 0.0000 ( 17878 PWs)   bands (ev):

   -56.8377 -56.8140 -55.9977 -55.9718 -55.7406 -55.6809 -55.4071 -55.3859
   -55.3831 -55.3749 -55.3098 -55.2553 -55.2522 -55.2450 -55.0637 -55.0552
   -33.2115 -33.1137 -33.0939 -33.0036 -32.9468 -32.9409 -32.4347 -32.2112
   -32.1931 -32.1784 -32.1755 -32.1444 -32.1213 -31.9716 -31.9645 -31.9075
   -31.8969 -31.8933 -31.8179 -31.7564 -31.7440 -31.7363 -31.7041 -31.7031
   -31.6851 -31.6494 -31.6317 -31.6153 -31.6071 -31.6054 -31.5958 -31.5484
   -31.5415 -31.5350 -31.5037 -31.5024 -31.4813 -31.4754 -31.4565 -31.4495
   -31.4383 -31.4255 -31.3552 -31.3354 -31.3227 -31.2868 -31.2737 -31.2604
   -19.0015 -16.7479 -16.3085 -16.2777 -16.2291 -16.0971 -16.0767 -15.9337
   -15.8894 -15.7729 -15.6580 -15.6012 -15.5228 -15.4910 -15.4213 -15.2423
   -15.1923 -15.1636 -15.1342 -15.0694 -15.0293 -15.0067 -14.9451 -14.8602
   -14.8220 -14.7707 -14.7555 -14.7039 -14.6359 -14.4406 -14.3877 -13.9162
   -13.8442 -13.6293  -6.2833  -5.0270  -4.0715  -3.9412  -3.8389  -3.6642
    -3.5943  -3.5252  -3.4335  -3.4179  -3.2311  -3.1877  -3.1505  -3.0781
    -2.9985  -2.9818  -2.9112  -2.8933  -2.7946  -2.7813  -2.7366  -2.6933
    -2.6323  -2.5987  -2.5422  -2.4880  -2.4719  -2.4226  -2.3420  -2.3050
    -2.2809  -2.1973  -2.1528  -2.0953  -2.0737  -2.0081  -1.9446  -1.9016
    -1.8458  -1.7286  -1.7061  -1.6925  -1.6586  -1.5853  -1.5410  -1.5019
    -1.4299  -1.3863  -1.3454  -1.3128  -1.2808  -1.2032  -1.1000  -1.0386
    -0.9952  -0.9539  -0.9234  -0.8820  -0.7906  -0.7653  -0.7234  -0.6971
    -0.6387  -0.6015  -0.5846  -0.5211  -0.4985  -0.4451  -0.3847  -0.3471
    -0.2796  -0.2423  -0.2125  -0.1454  -0.0898  -0.0503  -0.0157   0.0402
     0.0854   0.1549   0.2086   0.2293   0.2626   0.3067   0.3395   0.3910
     0.4880   0.5227   0.5979   0.6609   0.7263   0.8033   0.8666   0.8921
     0.9172   0.9578   1.0204   1.0245   1.0757   1.3435   1.5721   1.8236
     2.7006   2.8474   2.9529   3.1335   3.2559   3.3766   3.4325   3.6189
     3.7315   3.8642

          k = 0.0380-0.0839 0.0000 ( 17916 PWs)   bands (ev):

   -56.8264 -56.8253 -55.9901 -55.9795 -55.7382 -55.6834 -55.3957 -55.3945
   -55.3840 -55.3742 -55.3118 -55.2546 -55.2516 -55.2457 -55.0645 -55.0559
   -33.1044 -33.1032 -33.0814 -33.0801 -32.9729 -32.9721 -32.3112 -32.3027
   -32.1851 -32.1730 -32.1695 -32.1630 -32.0524 -32.0070 -31.9680 -31.9521
   -31.9062 -31.9058 -31.7467 -31.7459 -31.7132 -31.6630 -31.6587 -31.6512
   -31.6473 -31.6289 -31.6165 -31.6153 -31.6150 -31.6105 -31.5889 -31.5782
   -31.5774 -31.5766 -31.5527 -31.5192 -31.5075 -31.4960 -31.4725 -31.4586
   -31.4483 -31.4275 -31.4124 -31.3797 -31.3283 -31.2943 -31.2737 -31.2603
   -19.0003 -16.4765 -16.4745 -16.2254 -16.1366 -16.1315 -16.0234 -16.0183
   -15.8051 -15.7762 -15.5963 -15.5588 -15.5048 -15.4440 -15.3032 -15.2730
   -15.2287 -15.2176 -15.1694 -15.1509 -15.0182 -15.0037 -14.9312 -14.8608
   -14.8297 -14.7925 -14.7758 -14.7318 -14.7063 -14.5516 -14.4686 -13.9069
   -13.9061 -13.6323  -6.2836  -5.0178  -3.9427  -3.8173  -3.6867  -3.6853
    -3.5893  -3.3732  -3.3548  -3.2926  -3.2879  -3.1070  -3.0655  -3.0056
    -2.9858  -2.9179  -2.8556  -2.8248  -2.7728  -2.7252  -2.6656  -2.6334
    -2.5647  -2.5479  -2.5107  -2.4704  -2.4232  -2.3879  -2.3413  -2.3260
    -2.3121  -2.2709  -2.2429  -2.1669  -2.1154  -2.0921  -2.0258  -1.9949
    -1.9253  -1.8272  -1.7193  -1.6807  -1.6361  -1.5386  -1.5050  -1.4184
    -1.3573  -1.3470  -1.3083  -1.2818  -1.2586  -1.2325  -1.1686  -1.1534
    -1.1302  -1.0425  -1.0344  -1.0043  -0.8982  -0.7813  -0.7519  -0.7275
    -0.7160  -0.7102  -0.5881  -0.5483  -0.5080  -0.4401  -0.4102  -0.3769
    -0.2834  -0.2684  -0.2424  -0.1979  -0.1727  -0.1018  -0.0884  -0.0715
     0.0200   0.0615   0.1124   0.2078   0.2505   0.2919   0.3431   0.3690
     0.4315   0.4634   0.5966   0.6571   0.7233   0.7532   0.8690   0.8745
     0.9901   0.9952   1.0203   1.0379   1.1286   1.1900   1.5322   1.8310
     2.9712   2.9735   3.1203   3.1222   3.3232   3.3241   3.4651   3.4711
     3.7552   3.7982

          k = 0.0380-0.0419 0.0000 ( 17876 PWs)   bands (ev):

   -56.8377 -56.8140 -55.9977 -55.9718 -55.7406 -55.6809 -55.4071 -55.3859
   -55.3831 -55.3749 -55.3098 -55.2553 -55.2522 -55.2450 -55.0637 -55.0552
   -33.2114 -33.1137 -33.0939 -33.0036 -32.9468 -32.9409 -32.4347 -32.2112
   -32.1932 -32.1784 -32.1754 -32.1444 -32.1213 -31.9716 -31.9645 -31.9075
   -31.8970 -31.8932 -31.8179 -31.7564 -31.7440 -31.7362 -31.7042 -31.7031
   -31.6854 -31.6487 -31.6318 -31.6149 -31.6079 -31.6055 -31.5959 -31.5484
   -31.5411 -31.5353 -31.5037 -31.5024 -31.4813 -31.4729 -31.4566 -31.4495
   -31.4430 -31.4230 -31.3552 -31.3355 -31.3227 -31.2867 -31.2737 -31.2603
   -19.0015 -16.7477 -16.3093 -16.2776 -16.2291 -16.0967 -16.0767 -15.9333
   -15.8896 -15.7727 -15.6582 -15.6011 -15.5231 -15.4916 -15.4198 -15.2416
   -15.1926 -15.1644 -15.1371 -15.0697 -15.0252 -15.0063 -14.9505 -14.8584
   -14.8216 -14.7697 -14.7555 -14.7034 -14.6348 -14.4418 -14.3876 -13.9162
   -13.8442 -13.6293  -6.2833  -5.0270  -4.0709  -3.9403  -3.8387  -3.6645
    -3.5953  -3.5262  -3.4335  -3.4172  -3.2311  -3.1879  -3.1499  -3.0781
    -2.9980  -2.9824  -2.9114  -2.8933  -2.7926  -2.7814  -2.7353  -2.6939
    -2.6321  -2.6014  -2.5400  -2.4871  -2.4732  -2.4251  -2.3443  -2.3084
    -2.2762  -2.1968  -2.1547  -2.1131  -2.0744  -2.0060  -1.9450  -1.9034
    -1.8461  -1.7296  -1.7075  -1.6900  -1.6644  -1.5864  -1.5381  -1.5008
    -1.4083  -1.3729  -1.3485  -1.3119  -1.2815  -1.1940  -1.0986  -1.0406
    -0.9916  -0.9544  -0.9196  -0.8701  -0.7952  -0.7612  -0.7248  -0.7059
    -0.6514  -0.6034  -0.5869  -0.5358  -0.4885  -0.4445  -0.3922  -0.3527
    -0.2841  -0.2447  -0.1876  -0.1254  -0.0921  -0.0677  -0.0007   0.0366
     0.0734   0.1673   0.2113   0.2228   0.2594   0.2908   0.3494   0.3978
     0.4738   0.5170   0.5904   0.6621   0.7319   0.8013   0.8632   0.8948
     0.9052   0.9705   1.0194   1.0244   1.0761   1.3442   1.5763   1.8278
     2.7010   2.8476   2.9530   3.1326   3.2558   3.3773   3.4321   3.6182
     3.7310   3.8635

          k =-0.0760-0.0000 0.0000 ( 17886 PWs)   bands (ev):

   -56.8426 -56.8091 -56.0022 -55.9672 -55.7429 -55.6786 -55.4120 -55.3878
   -55.3781 -55.3755 -55.3079 -55.2560 -55.2527 -55.2445 -55.0630 -55.0545
   -33.2654 -33.1178 -33.0899 -33.0147 -32.9279 -32.8906 -32.4870 -32.2459
   -32.2228 -32.1699 -32.1429 -32.1146 -32.1123 -31.9848 -31.9744 -31.9099
   -31.8846 -31.8732 -31.8427 -31.7929 -31.7628 -31.7423 -31.7382 -31.7310
   -31.7278 -31.6498 -31.6334 -31.6207 -31.6169 -31.6070 -31.5985 -31.5363
   -31.5213 -31.5066 -31.5047 -31.4804 -31.4594 -31.4578 -31.4559 -31.4391
   -31.4247 -31.3984 -31.3234 -31.3064 -31.3053 -31.2757 -31.2731 -31.2616
   -19.0026 -16.7137 -16.4107 -16.2804 -16.2782 -16.2291 -16.0324 -15.9593
   -15.7985 -15.7303 -15.6615 -15.6335 -15.6254 -15.5872 -15.3478 -15.2980
   -15.2392 -15.2334 -15.1053 -15.0602 -15.0301 -15.0119 -14.9703 -14.9397
   -14.7733 -14.7010 -14.6631 -14.6356 -14.6161 -14.3590 -14.3289 -13.9046
   -13.8015 -13.6255  -6.2817  -5.0254  -3.9426  -3.8570  -3.8530  -3.8492
    -3.8053  -3.6268  -3.4817  -3.3903  -3.3339  -3.2319  -3.1787  -3.0715
    -2.9634  -2.9110  -2.8901  -2.8394  -2.7368  -2.7227  -2.6316  -2.6035
    -2.5747  -2.5558  -2.5247  -2.4934  -2.4756  -2.4154  -2.3788  -2.1831
    -2.1475  -2.1357  -2.0881  -2.0696  -2.0349  -1.9430  -1.8791  -1.8682
    -1.8624  -1.8344  -1.8149  -1.7840  -1.7573  -1.5721  -1.5515  -1.5256
    -1.4487  -1.4382  -1.3664  -1.2046  -1.1893  -1.1616  -1.1443  -1.0518
    -1.0204  -0.9494  -0.9221  -0.9029  -0.8868  -0.8764  -0.8312  -0.7579
    -0.6957  -0.6704  -0.6556  -0.5981  -0.5932  -0.5434  -0.3959  -0.2877
    -0.2350  -0.1813  -0.1563  -0.0914  -0.0681  -0.0190   0.0865   0.1223
     0.1650   0.2069   0.2691   0.3050   0.3691   0.3749   0.4015   0.4227
     0.5824   0.5871   0.6389   0.6449   0.7473   0.7618   0.7780   0.8240
     0.8309   0.8538   0.9331   1.0286   1.0958   1.1560   1.6669   1.7786
     2.5608   2.6871   2.8328   2.8859   3.1942   3.3689   3.4584   3.6311
     3.7662   3.8290

          k =-0.0760 0.0419 0.0000 ( 17914 PWs)   bands (ev):

   -56.8377 -56.8140 -55.9977 -55.9718 -55.7406 -55.6809 -55.4071 -55.3859
   -55.3831 -55.3749 -55.3098 -55.2553 -55.2521 -55.2452 -55.0638 -55.0552
   -33.2122 -33.1137 -33.0939 -33.0024 -32.9470 -32.9409 -32.4350 -32.2112
   -32.2063 -32.1780 -32.1675 -32.1444 -32.1062 -31.9742 -31.9715 -31.9075
   -31.8961 -31.8957 -31.8203 -31.7583 -31.7438 -31.7357 -31.7055 -31.7042
   -31.6874 -31.6459 -31.6246 -31.6137 -31.6061 -31.6053 -31.5958 -31.5484
   -31.5431 -31.5321 -31.5038 -31.5024 -31.4813 -31.4652 -31.4567 -31.4549
   -31.4442 -31.4300 -31.3551 -31.3354 -31.3228 -31.2868 -31.2760 -31.2619
   -19.0014 -16.6003 -16.3643 -16.2472 -16.2261 -16.1994 -16.0922 -15.9071
   -15.8778 -15.6698 -15.6422 -15.5925 -15.5700 -15.5378 -15.3224 -15.2540
   -15.2282 -15.1949 -15.1437 -15.1322 -15.0330 -15.0285 -14.9582 -14.9311
   -14.8174 -14.7483 -14.7188 -14.7118 -14.6798 -14.4383 -14.3878 -13.9145
   -13.8445 -13.6287  -6.2824  -5.0207  -3.9469  -3.8203  -3.6625  -3.6495
    -3.6101  -3.5458  -3.3595  -3.3024  -3.2809  -3.1233  -3.1047  -3.0259
    -3.0006  -2.8949  -2.8098  -2.7787  -2.7093  -2.6564  -2.6527  -2.5929
    -2.5660  -2.4892  -2.4581  -2.4527  -2.4470  -2.4318  -2.3879  -2.3164
    -2.2383  -2.1982  -2.1736  -2.1441  -2.0633  -1.9858  -1.9520  -1.8882
    -1.8149  -1.7881  -1.7585  -1.7515  -1.7464  -1.6895  -1.5601  -1.4798
    -1.4158  -1.3724  -1.3450  -1.3160  -1.2957  -1.1897  -1.1835  -1.1373
    -1.1082  -1.0713  -0.9865  -0.9828  -0.8931  -0.8658  -0.7835  -0.7511
    -0.7038  -0.6653  -0.6544  -0.6008  -0.5808  -0.5373  -0.4936  -0.4542
    -0.4248  -0.3867  -0.2955  -0.2291  -0.1604  -0.1084  -0.0506  -0.0155
     0.0487   0.1569   0.2112   0.2381   0.2841   0.3304   0.3523   0.4490
     0.5231   0.5353   0.5906   0.7371   0.7567   0.7934   0.8743   0.8870
     0.9109   0.9555   1.0070   1.0363   1.1138   1.1412   1.5964   1.7886
     2.7156   2.8811   2.9211   2.9963   3.3543   3.4679   3.5002   3.5113
     3.8291   3.8458

          k =-0.0760-0.0839 0.0000 ( 17948 PWs)   bands (ev):

   -56.8265 -56.8253 -55.9901 -55.9795 -55.7382 -55.6835 -55.3957 -55.3945
   -55.3840 -55.3742 -55.3118 -55.2546 -55.2514 -55.2459 -55.0645 -55.0560
   -33.1045 -33.1033 -33.0819 -33.0807 -32.9722 -32.9714 -32.3115 -32.3030
   -32.1851 -32.1730 -32.1702 -32.1632 -32.0454 -32.0017 -31.9681 -31.9588
   -31.9112 -31.9060 -31.7473 -31.7465 -31.7155 -31.6641 -31.6604 -31.6523
   -31.6456 -31.6315 -31.6165 -31.6149 -31.6129 -31.6030 -31.5889 -31.5791
   -31.5775 -31.5766 -31.5476 -31.5228 -31.5076 -31.4961 -31.4610 -31.4543
   -31.4500 -31.4435 -31.4120 -31.3789 -31.3283 -31.2944 -31.2762 -31.2622
   -19.0003 -16.3301 -16.3275 -16.2721 -16.2705 -16.2236 -16.0309 -16.0253
   -15.7776 -15.7477 -15.5531 -15.5123 -15.4632 -15.4096 -15.3713 -15.3690
   -15.2308 -15.2195 -15.1153 -15.0369 -15.0161 -14.9828 -14.9715 -14.9498
   -14.9444 -14.8726 -14.7877 -14.7255 -14.7115 -14.5417 -14.4656 -13.9068
   -13.9060 -13.6318  -6.2832  -5.0154  -3.9545  -3.7957  -3.5982  -3.3953
    -3.3929  -3.3878  -3.3801  -3.1510  -3.1405  -2.9670  -2.9603  -2.9346
    -2.8736  -2.8620  -2.7556  -2.6873  -2.6817  -2.6725  -2.6478  -2.6215
    -2.6158  -2.5524  -2.4953  -2.3883  -2.3650  -2.3299  -2.3094  -2.2955
    -2.1764  -2.1495  -2.1383  -2.1091  -2.0939  -2.0815  -2.0452  -2.0201
    -1.8671  -1.8284  -1.7197  -1.7052  -1.6847  -1.6413  -1.6244  -1.6030
    -1.5770  -1.5424  -1.5378  -1.4513  -1.4277  -1.3709  -1.2875  -1.2102
    -1.1622  -1.1495  -1.0874  -1.0360  -0.9262  -0.9016  -0.8662  -0.8453
    -0.8180  -0.7600  -0.7298  -0.6256  -0.5386  -0.5084  -0.4868  -0.4819
    -0.4470  -0.4141  -0.3911  -0.2766  -0.2645  -0.2495  -0.1506  -0.0559
     0.0287   0.0885   0.1037   0.1820   0.2776   0.3226   0.3876   0.4498
     0.4923   0.5082   0.6811   0.7298   0.8536   0.8766   0.9092   0.9718
     0.9859   0.9904   1.0124   1.0213   1.0506   1.1293   1.5535   1.7925
     3.0320   3.0349   3.0911   3.0972   3.4009   3.4043   3.5097   3.5123
     3.7942   3.8057

     the Fermi energy is     2.2209 ev

!    total energy              =   -2970.22391360 Ry
     estimated scf accuracy    <       0.00000006 Ry
     smearing contrib. (-TS)   =      -0.00328252 Ry
     internal energy E=F+TS    =   -2970.22063109 Ry

     The total energy is F=E-TS. E is the sum of the following terms:
     one-electron contribution =  -23875.00007379 Ry
     hartree contribution      =   12028.67521183 Ry
     xc contribution           =    -491.46771615 Ry
     ewald contribution        =    9367.57176715 Ry
     electric field correction =       0.00017987 Ry

     convergence has been achieved in  80 iterations

     Forces acting on atoms (cartesian axes, Ry/au):

     atom    1 type  1   force =     0.00006283   -0.00042141    0.12338840
     atom    2 type  1   force =    -0.00004381    0.00024964   -0.15538307
     atom    3 type  2   force =     0.00000981   -0.00007035   -0.06316240
     atom    4 type  2   force =     0.00000890    0.00024056    0.01793960
     atom    5 type  2   force =    -0.00300313   -0.00167966   -0.01289052
     atom    6 type  2   force =     0.00468399   -0.00105841   -0.01336168
     atom    7 type  1   force =    -0.00007217   -0.00671245    0.05745705
     atom    8 type  1   force =     0.00032664    0.01202000    0.09289540
     atom    9 type  2   force =    -0.00005488   -0.00006848   -0.00011775
     atom   10 type  2   force =    -0.00146506    0.00206267   -0.05862622
     atom   11 type  2   force =    -0.00000687    0.00037378   -0.00010758
     atom   12 type  2   force =    -0.00008841    0.00059436   -0.00004632
     atom   13 type  1   force =    -0.00017915    0.00092401   -0.00018407
     atom   14 type  1   force =    -0.00007575    0.00065789   -0.00046644
     atom   15 type  2   force =     0.00001035   -0.00066895   -0.00059721
     atom   16 type  2   force =    -0.00013012    0.00007769   -0.00100264
     atom   17 type  2   force =    -0.00015053   -0.00055226   -0.00032267
     atom   18 type  2   force =     0.00004712    0.00035348   -0.00040149
     atom   19 type  1   force =     0.00039860   -0.00023050    0.00114687
     atom   20 type  1   force =    -0.00040557    0.00057951    0.00045628
     atom   21 type  2   force =     0.00003406    0.00021369    0.09797234
     atom   22 type  2   force =     0.00038190   -0.00007936    0.00069415
     atom   23 type  2   force =    -0.08221201    0.00004280   -0.03274762
     atom   24 type  2   force =     0.08209407    0.00048148   -0.03282116
     atom   25 type  1   force =     0.00009463   -0.00060084    0.12340042
     atom   26 type  1   force =    -0.00015707   -0.00150898   -0.15593994
     atom   27 type  2   force =     0.00006978   -0.00069246   -0.06138225
     atom   28 type  2   force =     0.00002037    0.00205752    0.01320101
     atom   29 type  2   force =    -0.00128635    0.00546935   -0.01606391
     atom   30 type  2   force =     0.00295506    0.00580122   -0.01651043
     atom   31 type  1   force =    -0.00011281    0.00211382    0.04128725
     atom   32 type  1   force =     0.00052917   -0.01544789    0.09257444
     atom   33 type  2   force =    -0.00021087   -0.00074271   -0.00056690
     atom   34 type  2   force =    -0.00141040    0.00203067   -0.07248873
     atom   35 type  2   force =     0.00020767   -0.00081234    0.00005116
     atom   36 type  2   force =    -0.00025032   -0.00092196    0.00010174
     atom   37 type  1   force =    -0.00023376   -0.00111460   -0.00023827
     atom   38 type  1   force =    -0.00008304   -0.00150667    0.00068223
     atom   39 type  2   force =     0.00035563   -0.00048991    0.00001186
     atom   40 type  2   force =    -0.00003449   -0.00067670   -0.00125971
     atom   41 type  2   force =     0.00023665    0.00028049    0.00012234
     atom   42 type  2   force =     0.00006992    0.00038586    0.00064659
     atom   43 type  1   force =    -0.00001827   -0.00002074    0.00072243
     atom   44 type  1   force =    -0.00027426    0.00027074   -0.00068918
     atom   45 type  2   force =     0.00002581    0.00002491    0.09774407
     atom   46 type  2   force =    -0.08227688   -0.00001180   -0.03278090
     atom   47 type  2   force =     0.08213041    0.00043851   -0.03279553
     atom   48 type  3   force =    -0.00044920   -0.00049768    0.00039841
     atom   49 type  3   force =     0.00033551    0.00054094    0.00040562
     atom   50 type  4   force =     0.00108938    0.00018239   -0.00141360
     atom   51 type  5   force =    -0.00120760   -0.00052984    0.00107248
     atom   52 type  2   force =     0.01583681   -0.00126368   -0.00779592
     atom   53 type  5   force =    -0.01612231   -0.00008737    0.00779194

     Total force =     0.413070     Total SCF correction =     0.000491
  @ DRIVER MODE: Message from server: STATUS
  @ DRIVER MODE: Message from server: GETFORCE
  @ DRIVER MODE: Returning v,forces,stress,ensemble 

     Writing output data file ./calc.save/
  @ DRIVER MODE: Message from server: EXIT
  @ DRIVE MODE: Exiting  
 
     init_run     :     13.40s CPU     13.90s WALL (       1 calls)
     electrons    :   1216.32s CPU   1243.79s WALL (       1 calls)
     forces       :      2.58s CPU      2.71s WALL (       1 calls)

     Called by init_run:
     wfcinit      :      6.87s CPU      7.11s WALL (       1 calls)
     potinit      :      5.52s CPU      5.67s WALL (       1 calls)
     hinit0       :      0.53s CPU      0.54s WALL (       1 calls)

     Called by electrons:
     c_bands      :   1014.11s CPU   1029.18s WALL (      80 calls)
     sum_band     :    137.83s CPU    143.19s WALL (      80 calls)
     v_of_rho     :     44.94s CPU     47.59s WALL (      81 calls)
     newd         :     18.79s CPU     22.87s WALL (      81 calls)
     mix_rho      :      4.80s CPU      5.04s WALL (      80 calls)
     vdW_kernel   :      4.56s CPU      4.60s WALL (       1 calls)

     Called by c_bands:
     init_us_2    :      7.36s CPU      7.45s WALL (    1620 calls)
     cegterg      :    991.23s CPU   1005.71s WALL (     810 calls)

     Called by *egterg:
     cdiaghg      :    145.12s CPU    147.40s WALL (    5545 calls)
     h_psi        :    549.63s CPU    559.23s WALL (    5555 calls)
     s_psi        :     65.64s CPU     66.01s WALL (    5555 calls)
     g_psi        :      1.83s CPU      1.85s WALL (    4735 calls)

     Called by h_psi:
     h_psi:calbec :     66.37s CPU     66.97s WALL (    5555 calls)
     vloc_psi     :    414.42s CPU    422.61s WALL (    5555 calls)
     add_vuspsi   :     65.88s CPU     66.45s WALL (    5555 calls)

     General routines
     calbec       :     90.05s CPU     90.79s WALL (    6395 calls)
     fft          :     24.86s CPU     25.21s WALL (    5103 calls)
     ffts         :      0.24s CPU      0.26s WALL (     161 calls)
     fftw         :    474.60s CPU    483.86s WALL ( 1043236 calls)
     interpolate  :      0.61s CPU      0.66s WALL (      81 calls)
     davcio       :      0.00s CPU      1.17s WALL (      10 calls)
 
     Parallel routines
 
     PWSCF        :  20m34.73s CPU  21m 5.30s WALL

 
   This run was terminated on:  21:36:41  22Sep2021            

=------------------------------------------------------------------------------=
   JOB DONE.
=------------------------------------------------------------------------------=
