
     Program PWSCF v.6.7GPU starts on 24Aug2021 at  1:38:31 

     This program is part of the open-source Quantum ESPRESSO suite
     for quantum simulation of materials; please cite
         "P. Giannozzi et al., J. Phys.:Condens. Matter 21 395502 (2009);
         "P. Giannozzi et al., J. Phys.:Condens. Matter 29 465901 (2017);
         "P. Giannozzi et al., J. Chem. Phys. 152 154105 (2020);
          URL http://www.quantum-espresso.org", 
     in publications or presentations arising from this work. More details at
     http://www.quantum-espresso.org/quote

     Parallel version (MPI), running on     6 processors

     MPI processes distributed on     1 nodes
     R & G space division:  proc/nbgrp/npool/nimage =       6
     Reading input from /storage/home/hcoda1/3/ntian30/research/carbon/CH_vib/ads_slab/CHNNHHH_a/out_0024/pw.inp
Warning: card &CELL ignored
Warning: card   CELL_DYNAMICS='IPI', ignored
Warning: card / ignored

     Current dimensions of program PWSCF are:
     Max number of different atomic species (ntypx) = 10
     Max number of k-points (npk) =  40000
     Max angular momentum in pseudopotentials (lmaxx) =  3
     Presently no symmetry can be used with electric field

     Message from routine cell_base_init:
     DEPRECATED: use true lattice parameter, not A to a.u. conversion factor

     **************************************************************************
     Initializing libbeef V0.1.2 with the BEEF-vdW functional.
     Citation: Wellendorff et al., PRB 85, 235149 (2012).
     **************************************************************************


     IMPORTANT: XC functional enforced from input :
     Exchange-correlation= BEEF-VDW
                           (   1   4  43  14   2   0   0)
     Any further DFT definition will be discarded
     Please, verify this is what you really want


     Subspace diagonalization in iterative solution of the eigenvalue problem:
     one sub-group per band group will be used
     scalapack distributed-memory algorithm (size of sub-group:  2*  2 procs)

  @ DRIVER MODE: Connecting to 
 qe_1139763_2632795.sched-torque.pace.gatech.edur74anrfq_scratch
  using UNIX socket
  @ DRIVER MODE: Message from server: STATUS
  @ DRIVER MODE: Message from server: INIT
  @ DRIVER MODE: Receiving replica           0          -1
  @ DRIVER MODE: Receiving encoded integer          25
  @ DRIVER MODE:  SCF:  T  FORCE:  T  STRESS:  F  VC:  F  ENSEMBLE:  F
  @ DRIVER MODE:  SCF:  T  FORCE:  T  STRESS:  F  VC:  F  ENSEMBLE:  F
 
     Parallelization info
     --------------------
     sticks:   dense  smooth     PW     G-vecs:    dense   smooth      PW
     Min         545     219     63                94473    23902    3663
     Max         546     222     64                94484    23905    3665
     Sum        3275    1317    379               566857   143421   21985
 
     Using Slab Decomposition
 


     bravais-lattice index     =            0
     lattice parameter (alat)  =       1.8897  a.u.
     unit-cell volume          =    6658.9804 (a.u.)^3
     number of atoms/cell      =           54
     number of atomic types    =            5
     number of electrons       =       396.00
     number of Kohn-Sham states=          208
     kinetic-energy cutoff     =      29.3995  Ry
     charge density cutoff     =     293.9946  Ry
     scf convergence threshold =      7.3E-08
     mixing beta               =       0.0500
     number of iterations used =            8  plain     mixing
     Exchange-correlation= BEEF-VDW
                           (   1   4  43  14   2   0   0)

     celldm(1)=   1.889726  celldm(2)=   0.000000  celldm(3)=   0.000000
     celldm(4)=   0.000000  celldm(5)=   0.000000  celldm(6)=   0.000000

     crystal axes: (cart. coord. in units of alat)
               a(1) = (   6.579727   0.000000   0.000000 )  
               a(2) = (  -0.000775   5.961596   0.000000 )  
               a(3) = (   0.000000   0.000000  25.155947 )  

     reciprocal axes: (cart. coord. in units 2 pi/alat)
               b(1) = (  0.151982  0.000020  0.000000 )  
               b(2) = (  0.000000  0.167740  0.000000 )  
               b(3) = (  0.000000  0.000000  0.039752 )  


     PseudoPot. # 1 for Ti read from file:
     /storage/coda1/p-amedford6/0/shared/rich_project_chbe-medford/medford-share/data/pseudos_module/espresso/nninc/pbe/van/Ti.UPF
     MD5 check sum: 8e4df49b7f0d34bbd5052bf3f5ea0213
     Pseudo is Ultrasoft, Zval = 12.0
     Generated by new atomic code, or converted to UPF format
     Using radial grid of  851 points,  6 beta functions with: 
                l(1) =   0
                l(2) =   0
                l(3) =   1
                l(4) =   1
                l(5) =   2
                l(6) =   2
     Q(r) pseudized with  8 coefficients,  rinner =    1.000   1.000   1.000
                                                       1.000   1.000

     PseudoPot. # 2 for O  read from file:
     /storage/coda1/p-amedford6/0/shared/rich_project_chbe-medford/medford-share/data/pseudos_module/espresso/nninc/pbe/van/O.UPF
     MD5 check sum: 78c19812648e8988a0fe644b0f25305e
     Pseudo is Ultrasoft, Zval =  6.0
     Generated by new atomic code, or converted to UPF format
     Using radial grid of  737 points,  4 beta functions with: 
                l(1) =   0
                l(2) =   0
                l(3) =   1
                l(4) =   1
     Q(r) pseudized with  8 coefficients,  rinner =    0.800   0.800   0.800


     PseudoPot. # 3 for N  read from file:
     /storage/coda1/p-amedford6/0/shared/rich_project_chbe-medford/medford-share/data/pseudos_module/espresso/nninc/pbe/van/N.UPF
     MD5 check sum: 90d10febe142ad51ac9d5be1deb811c4
     Pseudo is Ultrasoft, Zval =  5.0
     Generated by new atomic code, or converted to UPF format
     Using radial grid of  729 points,  4 beta functions with: 
                l(1) =   0
                l(2) =   0
                l(3) =   1
                l(4) =   1
     Q(r) pseudized with  8 coefficients,  rinner =    0.800   0.800   0.800


     PseudoPot. # 4 for C  read from file:
     /storage/coda1/p-amedford6/0/shared/rich_project_chbe-medford/medford-share/data/pseudos_module/espresso/nninc/pbe/van/C.UPF
     MD5 check sum: 1a69bf6b8db32088f5b2163dbdb77a27
     Pseudo is Ultrasoft, Zval =  4.0
     Generated by new atomic code, or converted to UPF format
     Using radial grid of  721 points,  4 beta functions with: 
                l(1) =   0
                l(2) =   0
                l(3) =   1
                l(4) =   1
     Q(r) pseudized with  8 coefficients,  rinner =    0.800   0.800   0.800


     PseudoPot. # 5 for H  read from file:
     /storage/coda1/p-amedford6/0/shared/rich_project_chbe-medford/medford-share/data/pseudos_module/espresso/nninc/pbe/van/H.UPF
     MD5 check sum: b5ee9d7bfd3a09ee7748110bda690ff7
     Pseudo is Ultrasoft, Zval =  1.0
     Generated by new atomic code, or converted to UPF format
     Using radial grid of  615 points,  1 beta functions with: 
                l(1) =   0
     Q(r) pseudized with  8 coefficients,  rinner =    0.800

     atomic species   valence    mass     pseudopotential
        Ti1           12.00    47.86700     Ti( 1.00)
        O1             6.00    15.99900     O ( 1.00)
        N1             5.00    14.00700     N ( 1.00)
        C1             4.00    12.01100     C ( 1.00)
        H1             1.00     1.00800     H ( 1.00)

     No symmetry found



   Cartesian axes

     site n.     atom                  positions (alat units)
         1           Ti1 tau(   1) = (   0.0004258   2.9801865   6.0000000  )
         2           Ti1 tau(   2) = (   3.2906075   1.4906267   6.0002472  )
         3           O1  tau(   3) = (   0.0006271   0.0005054   7.9858123  )
         4           O1  tau(   4) = (   3.2906025   0.0005020   7.3038282  )
         5           O1  tau(   5) = (   4.5942328   1.4918067   9.2879030  )
         6           O1  tau(   6) = (   1.9868534   1.4903216   9.2879459  )
         7           Ti1 tau(   7) = (   3.2907910   2.8959150   9.1758416  )
         8           Ti1 tau(   8) = (   0.0015273   1.4827037   9.2680791  )
         9           O1  tau(   9) = (   3.3116888   5.9365513  11.3741315  )
        10           O1  tau(  10) = (   0.0116148   5.9584955  10.6183126  )
        11           O1  tau(  11) = (   1.3152863   1.4773744  12.6583839  )
        12           O1  tau(  12) = (   5.3185463   1.4781915  12.6604289  )
        13           Ti1 tau(  13) = (   0.0312267   2.9553392  12.5172039  )
        14           Ti1 tau(  14) = (   3.3247105   1.4628205  12.5237724  )
        15           O1  tau(  15) = (   0.0176705   0.0150782  14.7085838  )
        16           O1  tau(  16) = (   3.3263678   5.9469243  13.9928752  )
        17           O1  tau(  17) = (   4.5829619   1.4750097  16.2211409  )
        18           O1  tau(  18) = (   2.0801478   1.4636096  16.1819230  )
        19           Ti1 tau(  19) = (   3.3264833   2.9461821  15.7545810  )
        20           Ti1 tau(  20) = (   0.0064452   1.3478264  16.0581623  )
        21           O1  tau(  21) = (   3.2904802   0.0005063   4.7018136  )
        22           O1  tau(  22) = (   0.0393124   5.8647722  17.2449945  )
        23           O1  tau(  23) = (   1.3043587   1.4918075   6.0039043  )
        24           O1  tau(  24) = (   5.2767064   1.4903225   6.0039473  )
        25           Ti1 tau(  25) = (   0.0000382   5.9609847   6.0000000  )
        26           Ti1 tau(  26) = (   3.2902200   4.4714249   6.0002472  )
        27           O1  tau(  27) = (   0.0002396   2.9813036   7.9858123  )
        28           O1  tau(  28) = (   3.2902150   2.9813002   7.3038282  )
        29           O1  tau(  29) = (   4.5938453   4.4726049   9.2879030  )
        30           O1  tau(  30) = (   1.9864658   4.4711199   9.2879459  )
        31           Ti1 tau(  31) = (   3.2891106   5.8743827   9.1763621  )
        32           Ti1 tau(  32) = (   0.0006254   4.4649316   9.2693709  )
        33           O1  tau(  33) = (   3.3126387   2.9639063  11.3704323  )
        34           O1  tau(  34) = (   0.0092240   2.9805883  10.6323155  )
        35           O1  tau(  35) = (   1.3140505   4.4512041  12.6779488  )
        36           O1  tau(  36) = (   5.3186431   4.4503656  12.6784002  )
        37           Ti1 tau(  37) = (   0.0306983   5.9434578  12.5012515  )
        38           Ti1 tau(  38) = (   3.3249252   4.4426326  12.5284913  )
        39           O1  tau(  39) = (   0.0332616   2.9308952  14.9693926  )
        40           O1  tau(  40) = (   3.3269026   2.9510973  13.9662216  )
        41           O1  tau(  41) = (   4.5816979   4.4256876  16.1885362  )
        42           O1  tau(  42) = (   2.0739833   4.4348339  16.1471384  )
        43           Ti1 tau(  43) = (   3.3139036   5.9323143  15.7909994  )
        44           Ti1 tau(  44) = (   0.0257917   4.5791344  15.8913375  )
        45           O1  tau(  45) = (   3.2900926   2.9813045   4.7018136  )
        46           O1  tau(  46) = (   1.3039711   4.4726057   6.0039043  )
        47           O1  tau(  47) = (   5.2763189   4.4711207   6.0039473  )
        48           N1  tau(  48) = (   0.2611162   2.7486399  18.0384573  )
        49           C1  tau(  49) = (   1.0666652   3.1333113  18.7681872  )
        50           H1  tau(  50) = (   1.9496291   3.4674532  19.3170853  )
        51           N1  tau(  51) = (   3.9312863   3.7371558  19.6017579  )
        52           H1  tau(  52) = (   4.2637485   4.0673035  20.4913501  )
        53           H1  tau(  53) = (   4.3024207   4.3757745  18.8906580  )
        54           H1  tau(  54) = (   4.4024832   2.8518033  19.4177320  )

     number of k points=    10  Fermi-Dirac smearing, width (Ry)=  0.0073
                       cart. coord. in units 2pi/alat
        k(    1) = (   0.0000000   0.0000000   0.0000000), wk =   0.1250000
        k(    2) = (   0.0000000   0.0419351   0.0000000), wk =   0.2500000
        k(    3) = (   0.0000000  -0.0838702   0.0000000), wk =   0.1250000
        k(    4) = (   0.0379955   0.0000049   0.0000000), wk =   0.2500000
        k(    5) = (   0.0379955   0.0419400   0.0000000), wk =   0.2500000
        k(    6) = (   0.0379955  -0.0838652   0.0000000), wk =   0.2500000
        k(    7) = (   0.0379955  -0.0419301   0.0000000), wk =   0.2500000
        k(    8) = (  -0.0759910  -0.0000099   0.0000000), wk =   0.1250000
        k(    9) = (  -0.0759910   0.0419252   0.0000000), wk =   0.2500000
        k(   10) = (  -0.0759910  -0.0838800   0.0000000), wk =   0.1250000

     Dense  grid:   566857 G-vectors     FFT dimensions: (  72,  64, 270)

     Smooth grid:   143421 G-vectors     FFT dimensions: (  45,  40, 180)

     Estimated max dynamical RAM per process >     601.53 MB

     Estimated total dynamical RAM >       3.52 GB
     Cannot read rho : file not found

     Initial potential from superposition of free atoms

     starting charge  379.99915, renormalised to  396.00000

     negative rho (up, down):  1.479E-02 0.000E+00


     %%%%%%%%%%%%%%%%%%%%%%%%%%%%%%%%%%%%%%%%%%%%%%%%%%%%%%%%%%%%%%%%%%%%%%%%
     %                                                                      %
     % You are using vdW-DF, which was implemented by the Thonhauser group. %
     % Please cite the following two papers that made this development      %
     % possible and the two reviews that describe the various versions:     %
     %                                                                      %
     %   T. Thonhauser et al., PRL 115, 136402 (2015).                      %
     %   T. Thonhauser et al., PRB 76, 125112 (2007).                       %
     %   K. Berland et al., Rep. Prog. Phys. 78, 066501 (2015).             %
     %   D.C. Langreth et al., J. Phys.: Condens. Matter 21, 084203 (2009). %
     %                                                                      %
     %                                                                      %
     % If you are calculating the stress with vdW-DF, please also cite:     %
     %                                                                      %
     %   R. Sabatini et al., J. Phys.: Condens. Matter 24, 424209 (2012).   %
     %                                                                      %
     %%%%%%%%%%%%%%%%%%%%%%%%%%%%%%%%%%%%%%%%%%%%%%%%%%%%%%%%%%%%%%%%%%%%%%%%


 
     Adding external electric field

     Computed dipole along edir(3) : 
        Dipole              -10.3211 Ry au,        -26.2336 Debye
        Dipole field         -0.0195 Ry au, 
 
        Potential amp.        1.8055 Ry
        Total length         46.3494 bohr
 
     Starting wfcs are  300 atomic wfcs
  @ DRIVER MODE: Message from server: STATUS
  @ DRIVER MODE: Message from server: POSDATA
  @ DRIVER MODE: Reading and sharing cell 
  @ DRIVER MODE: Reading and sharing positions 
  @ DRIVER MODE: Received positions 

     total cpu time spent up to now is       18.3 secs

     Self-consistent Calculation

     iteration #  1     ecut=    29.40 Ry     beta= 0.05
     Davidson diagonalization with overlap
     c_bands:  1 eigenvalues not converged
     c_bands:  2 eigenvalues not converged
     c_bands:  2 eigenvalues not converged
     c_bands:  1 eigenvalues not converged
     c_bands:  3 eigenvalues not converged
     c_bands:  2 eigenvalues not converged
     c_bands:  3 eigenvalues not converged
     c_bands:  2 eigenvalues not converged
     c_bands:  2 eigenvalues not converged
     c_bands:  2 eigenvalues not converged
     ethr =  1.00E-05,  avg # of iterations = 20.0

     negative rho (up, down):  1.191E-02 0.000E+00
 
     Adding external electric field

     Computed dipole along edir(3) : 
        Dipole               43.5561 Ry au,        110.7086 Debye
        Dipole field          0.0822 Ry au, 
 
        Potential amp.       -7.6195 Ry
        Total length         46.3494 bohr
 

     total cpu time spent up to now is       83.1 secs

     total energy              =   -2523.82570302 Ry
     estimated scf accuracy    <    4661.41892258 Ry

     iteration #  2     ecut=    29.40 Ry     beta= 0.05
     Davidson diagonalization with overlap
     ethr =  1.00E-02,  avg # of iterations = 24.2

     negative rho (up, down):  2.934E-03 0.000E+00
 
     Adding external electric field

     Computed dipole along edir(3) : 
        Dipole               -2.8295 Ry au,         -7.1918 Debye
        Dipole field         -0.0053 Ry au, 
 
        Potential amp.        0.4950 Ry
        Total length         46.3494 bohr
 

     total cpu time spent up to now is      202.7 secs

     total energy              =   -2456.97736131 Ry
     estimated scf accuracy    <   67176.32497063 Ry

     iteration #  3     ecut=    29.40 Ry     beta= 0.05
     Davidson diagonalization with overlap
     ethr =  1.00E-02,  avg # of iterations = 15.6

     negative rho (up, down):  2.993E-03 0.000E+00
 
     Adding external electric field

     Computed dipole along edir(3) : 
        Dipole               -4.8132 Ry au,        -12.2340 Debye
        Dipole field         -0.0091 Ry au, 
 
        Potential amp.        0.8420 Ry
        Total length         46.3494 bohr
 

     total cpu time spent up to now is      277.2 secs

     total energy              =   -2925.06379978 Ry
     estimated scf accuracy    <    4211.05648256 Ry

     iteration #  4     ecut=    29.40 Ry     beta= 0.05
     Davidson diagonalization with overlap
     ethr =  1.00E-02,  avg # of iterations = 16.4

     negative rho (up, down):  3.033E-03 0.000E+00
 
     Adding external electric field

     Computed dipole along edir(3) : 
        Dipole               -6.2061 Ry au,        -15.7742 Debye
        Dipole field         -0.0117 Ry au, 
 
        Potential amp.        1.0857 Ry
        Total length         46.3494 bohr
 

     total cpu time spent up to now is      309.6 secs

     total energy              =   -2930.05678955 Ry
     estimated scf accuracy    <    1224.71808257 Ry

     iteration #  5     ecut=    29.40 Ry     beta= 0.05
     Davidson diagonalization with overlap
     c_bands:  5 eigenvalues not converged
     ethr =  1.00E-02,  avg # of iterations =  8.2

     negative rho (up, down):  3.088E-03 0.000E+00
 
     Adding external electric field

     Computed dipole along edir(3) : 
        Dipole               -7.2377 Ry au,        -18.3964 Debye
        Dipole field         -0.0137 Ry au, 
 
        Potential amp.        1.2661 Ry
        Total length         46.3494 bohr
 

     total cpu time spent up to now is      330.8 secs

     total energy              =   -2926.88730974 Ry
     estimated scf accuracy    <     630.03370228 Ry

     iteration #  6     ecut=    29.40 Ry     beta= 0.05
     Davidson diagonalization with overlap
     ethr =  1.00E-02,  avg # of iterations =  9.3

     negative rho (up, down):  2.904E-03 0.000E+00
 
     Adding external electric field

     Computed dipole along edir(3) : 
        Dipole               -6.1679 Ry au,        -15.6773 Debye
        Dipole field         -0.0116 Ry au, 
 
        Potential amp.        1.0790 Ry
        Total length         46.3494 bohr
 

     total cpu time spent up to now is      359.7 secs

     total energy              =   -2943.69493342 Ry
     estimated scf accuracy    <      21.06465588 Ry

     iteration #  7     ecut=    29.40 Ry     beta= 0.05
     Davidson diagonalization with overlap
     ethr =  5.32E-03,  avg # of iterations =  1.5

     negative rho (up, down):  3.051E-03 0.000E+00
 
     Adding external electric field

     Computed dipole along edir(3) : 
        Dipole               -4.7923 Ry au,        -12.1808 Debye
        Dipole field         -0.0090 Ry au, 
 
        Potential amp.        0.8383 Ry
        Total length         46.3494 bohr
 

     total cpu time spent up to now is      376.8 secs

     total energy              =   -2943.01288493 Ry
     estimated scf accuracy    <      18.64641169 Ry

     iteration #  8     ecut=    29.40 Ry     beta= 0.05
     Davidson diagonalization with overlap
     ethr =  4.71E-03,  avg # of iterations =  2.3

     negative rho (up, down):  3.783E-03 0.000E+00
 
     Adding external electric field

     Computed dipole along edir(3) : 
        Dipole                0.1947 Ry au,          0.4950 Debye
        Dipole field          0.0004 Ry au, 
 
        Potential amp.       -0.0341 Ry
        Total length         46.3494 bohr
 

     total cpu time spent up to now is      394.1 secs

     total energy              =   -2941.47396247 Ry
     estimated scf accuracy    <      16.49890954 Ry

     iteration #  9     ecut=    29.40 Ry     beta= 0.05
     Davidson diagonalization with overlap
     ethr =  4.17E-03,  avg # of iterations = 16.1

     negative rho (up, down):  3.577E-03 0.000E+00
 
     Adding external electric field

     Computed dipole along edir(3) : 
        Dipole               -0.8976 Ry au,         -2.2815 Debye
        Dipole field         -0.0017 Ry au, 
 
        Potential amp.        0.1570 Ry
        Total length         46.3494 bohr
 

     total cpu time spent up to now is      426.1 secs

     total energy              =   -2952.75292586 Ry
     estimated scf accuracy    <    1762.08772254 Ry

     iteration # 10     ecut=    29.40 Ry     beta= 0.05
     Davidson diagonalization with overlap
     ethr =  4.17E-03,  avg # of iterations =  1.3

     negative rho (up, down):  4.770E-03 0.000E+00
 
     Adding external electric field

     Computed dipole along edir(3) : 
        Dipole                3.1554 Ry au,          8.0201 Debye
        Dipole field          0.0060 Ry au, 
 
        Potential amp.       -0.5520 Ry
        Total length         46.3494 bohr
 

     total cpu time spent up to now is      442.9 secs

     total energy              =   -2976.03922858 Ry
     estimated scf accuracy    <    1618.70712930 Ry

     iteration # 11     ecut=    29.40 Ry     beta= 0.05
     Davidson diagonalization with overlap
     ethr =  4.17E-03,  avg # of iterations =  7.5

     negative rho (up, down):  3.519E-03 0.000E+00
 
     Adding external electric field

     Computed dipole along edir(3) : 
        Dipole               -3.0936 Ry au,         -7.8632 Debye
        Dipole field         -0.0058 Ry au, 
 
        Potential amp.        0.5412 Ry
        Total length         46.3494 bohr
 

     total cpu time spent up to now is      463.0 secs

     total energy              =   -2909.55481188 Ry
     estimated scf accuracy    <    2796.55777047 Ry

     iteration # 12     ecut=    29.40 Ry     beta= 0.05
     Davidson diagonalization with overlap
     c_bands:  2 eigenvalues not converged
     ethr =  4.17E-03,  avg # of iterations = 17.7

     negative rho (up, down):  3.985E-03 0.000E+00
 
     Adding external electric field

     Computed dipole along edir(3) : 
        Dipole               -0.4501 Ry au,         -1.1440 Debye
        Dipole field         -0.0008 Ry au, 
 
        Potential amp.        0.0787 Ry
        Total length         46.3494 bohr
 

     total cpu time spent up to now is      510.0 secs

     total energy              =   -2940.28839844 Ry
     estimated scf accuracy    <       5.79662033 Ry

     iteration # 13     ecut=    29.40 Ry     beta= 0.05
     Davidson diagonalization with overlap
     c_bands:  1 eigenvalues not converged
     c_bands:  1 eigenvalues not converged
     ethr =  1.46E-03,  avg # of iterations = 18.9

     negative rho (up, down):  3.865E-03 0.000E+00
 
     Adding external electric field

     Computed dipole along edir(3) : 
        Dipole               -0.9122 Ry au,         -2.3185 Debye
        Dipole field         -0.0017 Ry au, 
 
        Potential amp.        0.1596 Ry
        Total length         46.3494 bohr
 

     total cpu time spent up to now is      540.2 secs

     total energy              =   -2942.16088010 Ry
     estimated scf accuracy    <     229.53621381 Ry

     iteration # 14     ecut=    29.40 Ry     beta= 0.05
     Davidson diagonalization with overlap
     ethr =  1.46E-03,  avg # of iterations =  1.8

     negative rho (up, down):  3.734E-03 0.000E+00
 
     Adding external electric field

     Computed dipole along edir(3) : 
        Dipole               -1.7956 Ry au,         -4.5640 Debye
        Dipole field         -0.0034 Ry au, 
 
        Potential amp.        0.3141 Ry
        Total length         46.3494 bohr
 

     total cpu time spent up to now is      557.6 secs

     total energy              =   -2939.99369990 Ry
     estimated scf accuracy    <     206.89746873 Ry

     iteration # 15     ecut=    29.40 Ry     beta= 0.05
     Davidson diagonalization with overlap
     ethr =  1.46E-03,  avg # of iterations = 10.3

     negative rho (up, down):  3.642E-03 0.000E+00
 
     Adding external electric field

     Computed dipole along edir(3) : 
        Dipole               -2.2870 Ry au,         -5.8130 Debye
        Dipole field         -0.0043 Ry au, 
 
        Potential amp.        0.4001 Ry
        Total length         46.3494 bohr
 

     total cpu time spent up to now is      579.4 secs

     total energy              =   -2939.75694626 Ry
     estimated scf accuracy    <      74.24565950 Ry

     iteration # 16     ecut=    29.40 Ry     beta= 0.05
     Davidson diagonalization with overlap
     c_bands:  1 eigenvalues not converged
     c_bands:  1 eigenvalues not converged
     ethr =  1.46E-03,  avg # of iterations =  9.0

     negative rho (up, down):  3.659E-03 0.000E+00
 
     Adding external electric field

     Computed dipole along edir(3) : 
        Dipole               -2.2809 Ry au,         -5.7974 Debye
        Dipole field         -0.0043 Ry au, 
 
        Potential amp.        0.3990 Ry
        Total length         46.3494 bohr
 

     total cpu time spent up to now is      600.3 secs

     total energy              =   -2940.18094535 Ry
     estimated scf accuracy    <      17.97904826 Ry

     iteration # 17     ecut=    29.40 Ry     beta= 0.05
     Davidson diagonalization with overlap
     ethr =  1.46E-03,  avg # of iterations =  2.4

     negative rho (up, down):  3.724E-03 0.000E+00
 
     Adding external electric field

     Computed dipole along edir(3) : 
        Dipole               -2.0977 Ry au,         -5.3318 Debye
        Dipole field         -0.0040 Ry au, 
 
        Potential amp.        0.3670 Ry
        Total length         46.3494 bohr
 

     total cpu time spent up to now is      617.4 secs

     total energy              =   -2940.04838627 Ry
     estimated scf accuracy    <       8.20010058 Ry

     iteration # 18     ecut=    29.40 Ry     beta= 0.05
     Davidson diagonalization with overlap
     c_bands:  1 eigenvalues not converged
     ethr =  1.46E-03,  avg # of iterations =  6.5

     negative rho (up, down):  3.911E-03 0.000E+00
 
     Adding external electric field

     Computed dipole along edir(3) : 
        Dipole               -1.9186 Ry au,         -4.8767 Debye
        Dipole field         -0.0036 Ry au, 
 
        Potential amp.        0.3356 Ry
        Total length         46.3494 bohr
 

     total cpu time spent up to now is      637.0 secs

     total energy              =   -2940.21987829 Ry
     estimated scf accuracy    <       1.33618852 Ry

     iteration # 19     ecut=    29.40 Ry     beta= 0.05
     Davidson diagonalization with overlap
     c_bands:  1 eigenvalues not converged
     c_bands:  1 eigenvalues not converged
     c_bands:  4 eigenvalues not converged
     c_bands:  2 eigenvalues not converged
     c_bands:  1 eigenvalues not converged
     c_bands:  3 eigenvalues not converged
     c_bands:  4 eigenvalues not converged
     ethr =  3.37E-04,  avg # of iterations = 19.3

     negative rho (up, down):  4.008E-03 0.000E+00
 
     Adding external electric field

     Computed dipole along edir(3) : 
        Dipole               -2.0753 Ry au,         -5.2748 Debye
        Dipole field         -0.0039 Ry au, 
 
        Potential amp.        0.3630 Ry
        Total length         46.3494 bohr
 

     total cpu time spent up to now is      671.5 secs

     total energy              =   -2940.94882210 Ry
     estimated scf accuracy    <       4.83174971 Ry

     iteration # 20     ecut=    29.40 Ry     beta= 0.05
     Davidson diagonalization with overlap
     c_bands:  1 eigenvalues not converged
     ethr =  3.37E-04,  avg # of iterations =  6.3

     negative rho (up, down):  3.988E-03 0.000E+00
 
     Adding external electric field

     Computed dipole along edir(3) : 
        Dipole               -2.4534 Ry au,         -6.2360 Debye
        Dipole field         -0.0046 Ry au, 
 
        Potential amp.        0.4292 Ry
        Total length         46.3494 bohr
 

     total cpu time spent up to now is      691.1 secs

     total energy              =   -2941.20621390 Ry
     estimated scf accuracy    <       5.83825758 Ry

     iteration # 21     ecut=    29.40 Ry     beta= 0.05
     Davidson diagonalization with overlap
     c_bands:  2 eigenvalues not converged
     ethr =  3.37E-04,  avg # of iterations = 11.7

     negative rho (up, down):  3.940E-03 0.000E+00
 
     Adding external electric field

     Computed dipole along edir(3) : 
        Dipole               -2.6895 Ry au,         -6.8361 Debye
        Dipole field         -0.0051 Ry au, 
 
        Potential amp.        0.4705 Ry
        Total length         46.3494 bohr
 

     total cpu time spent up to now is      713.6 secs

     total energy              =   -2941.35346176 Ry
     estimated scf accuracy    <       7.57035360 Ry

     iteration # 22     ecut=    29.40 Ry     beta= 0.05
     Davidson diagonalization with overlap
     ethr =  3.37E-04,  avg # of iterations =  4.6

     negative rho (up, down):  3.948E-03 0.000E+00
 
     Adding external electric field

     Computed dipole along edir(3) : 
        Dipole               -2.3201 Ry au,         -5.8971 Debye
        Dipole field         -0.0044 Ry au, 
 
        Potential amp.        0.4059 Ry
        Total length         46.3494 bohr
 

     total cpu time spent up to now is      731.9 secs

     total energy              =   -2941.03591054 Ry
     estimated scf accuracy    <      10.43057412 Ry

     iteration # 23     ecut=    29.40 Ry     beta= 0.05
     Davidson diagonalization with overlap
     ethr =  3.37E-04,  avg # of iterations =  2.4

     negative rho (up, down):  4.132E-03 0.000E+00
 
     Adding external electric field

     Computed dipole along edir(3) : 
        Dipole               -1.5404 Ry au,         -3.9153 Debye
        Dipole field         -0.0029 Ry au, 
 
        Potential amp.        0.2695 Ry
        Total length         46.3494 bohr
 

     total cpu time spent up to now is      749.5 secs

     total energy              =   -2940.66928676 Ry
     estimated scf accuracy    <       6.97725074 Ry

     iteration # 24     ecut=    29.40 Ry     beta= 0.05
     Davidson diagonalization with overlap
     c_bands:  1 eigenvalues not converged
     ethr =  3.37E-04,  avg # of iterations = 11.0

     negative rho (up, down):  4.101E-03 0.000E+00
 
     Adding external electric field

     Computed dipole along edir(3) : 
        Dipole               -1.6297 Ry au,         -4.1423 Debye
        Dipole field         -0.0031 Ry au, 
 
        Potential amp.        0.2851 Ry
        Total length         46.3494 bohr
 

     total cpu time spent up to now is      771.1 secs

     total energy              =   -2940.75678885 Ry
     estimated scf accuracy    <       3.08221343 Ry

     iteration # 25     ecut=    29.40 Ry     beta= 0.05
     Davidson diagonalization with overlap
     ethr =  3.37E-04,  avg # of iterations =  3.0

     negative rho (up, down):  4.320E-03 0.000E+00
 
     Adding external electric field

     Computed dipole along edir(3) : 
        Dipole               -1.1943 Ry au,         -3.0356 Debye
        Dipole field         -0.0023 Ry au, 
 
        Potential amp.        0.2089 Ry
        Total length         46.3494 bohr
 

     total cpu time spent up to now is      788.5 secs

     total energy              =   -2940.78771947 Ry
     estimated scf accuracy    <       3.56896568 Ry

     iteration # 26     ecut=    29.40 Ry     beta= 0.05
     Davidson diagonalization with overlap
     c_bands:  3 eigenvalues not converged
     ethr =  3.37E-04,  avg # of iterations =  6.9

     negative rho (up, down):  4.080E-03 0.000E+00
 
     Adding external electric field

     Computed dipole along edir(3) : 
        Dipole               -2.0857 Ry au,         -5.3014 Debye
        Dipole field         -0.0039 Ry au, 
 
        Potential amp.        0.3649 Ry
        Total length         46.3494 bohr
 

     total cpu time spent up to now is      808.0 secs

     total energy              =   -2940.92984355 Ry
     estimated scf accuracy    <       2.74224616 Ry

     iteration # 27     ecut=    29.40 Ry     beta= 0.05
     Davidson diagonalization with overlap
     ethr =  3.37E-04,  avg # of iterations =  5.0

     negative rho (up, down):  4.584E-03 0.000E+00
 
     Adding external electric field

     Computed dipole along edir(3) : 
        Dipole                0.1048 Ry au,          0.2663 Debye
        Dipole field          0.0002 Ry au, 
 
        Potential amp.       -0.0183 Ry
        Total length         46.3494 bohr
 

     total cpu time spent up to now is      827.1 secs

     total energy              =   -2940.04188509 Ry
     estimated scf accuracy    <       6.44313391 Ry

     iteration # 28     ecut=    29.40 Ry     beta= 0.05
     Davidson diagonalization with overlap
     c_bands:  1 eigenvalues not converged
     c_bands:  4 eigenvalues not converged
     c_bands:  2 eigenvalues not converged
     c_bands:  3 eigenvalues not converged
     c_bands:  1 eigenvalues not converged
     c_bands:  1 eigenvalues not converged
     c_bands:  1 eigenvalues not converged
     c_bands:  2 eigenvalues not converged
     ethr =  3.37E-04,  avg # of iterations = 19.6

     negative rho (up, down):  4.488E-03 0.000E+00
 
     Adding external electric field

     Computed dipole along edir(3) : 
        Dipole               -0.0578 Ry au,         -0.1470 Debye
        Dipole field         -0.0001 Ry au, 
 
        Potential amp.        0.0101 Ry
        Total length         46.3494 bohr
 

     total cpu time spent up to now is      860.9 secs

     total energy              =   -2940.51658799 Ry
     estimated scf accuracy    <       2.13572453 Ry

     iteration # 29     ecut=    29.40 Ry     beta= 0.05
     Davidson diagonalization with overlap
     ethr =  3.37E-04,  avg # of iterations =  1.6

     negative rho (up, down):  4.357E-03 0.000E+00
 
     Adding external electric field

     Computed dipole along edir(3) : 
        Dipole               -0.2166 Ry au,         -0.5505 Debye
        Dipole field         -0.0004 Ry au, 
 
        Potential amp.        0.0379 Ry
        Total length         46.3494 bohr
 

     total cpu time spent up to now is      878.1 secs

     total energy              =   -2940.44984734 Ry
     estimated scf accuracy    <       1.59068102 Ry

     iteration # 30     ecut=    29.40 Ry     beta= 0.05
     Davidson diagonalization with overlap
     ethr =  3.37E-04,  avg # of iterations =  9.8

     negative rho (up, down):  4.267E-03 0.000E+00
 
     Adding external electric field

     Computed dipole along edir(3) : 
        Dipole               -0.1852 Ry au,         -0.4706 Debye
        Dipole field         -0.0003 Ry au, 
 
        Potential amp.        0.0324 Ry
        Total length         46.3494 bohr
 

     total cpu time spent up to now is      898.9 secs

     total energy              =   -2940.36844999 Ry
     estimated scf accuracy    <       1.02815724 Ry

     iteration # 31     ecut=    29.40 Ry     beta= 0.05
     Davidson diagonalization with overlap
     c_bands:  2 eigenvalues not converged
     c_bands:  1 eigenvalues not converged
     c_bands:  1 eigenvalues not converged
     c_bands:  1 eigenvalues not converged
     c_bands:  1 eigenvalues not converged
     c_bands:  2 eigenvalues not converged
     ethr =  2.60E-04,  avg # of iterations = 18.9

     negative rho (up, down):  4.482E-03 0.000E+00
 
     Adding external electric field

     Computed dipole along edir(3) : 
        Dipole                0.1924 Ry au,          0.4889 Debye
        Dipole field          0.0004 Ry au, 
 
        Potential amp.       -0.0337 Ry
        Total length         46.3494 bohr
 

     total cpu time spent up to now is      928.2 secs

     total energy              =   -2940.40920900 Ry
     estimated scf accuracy    <       0.67098454 Ry

     iteration # 32     ecut=    29.40 Ry     beta= 0.05
     Davidson diagonalization with overlap
     ethr =  1.69E-04,  avg # of iterations =  4.5

     negative rho (up, down):  4.437E-03 0.000E+00
 
     Adding external electric field

     Computed dipole along edir(3) : 
        Dipole                0.1383 Ry au,          0.3514 Debye
        Dipole field          0.0003 Ry au, 
 
        Potential amp.       -0.0242 Ry
        Total length         46.3494 bohr
 

     total cpu time spent up to now is      946.7 secs

     total energy              =   -2940.44463875 Ry
     estimated scf accuracy    <       1.05699494 Ry

     iteration # 33     ecut=    29.40 Ry     beta= 0.05
     Davidson diagonalization with overlap
     ethr =  1.69E-04,  avg # of iterations =  1.7

     negative rho (up, down):  4.393E-03 0.000E+00
 
     Adding external electric field

     Computed dipole along edir(3) : 
        Dipole                0.0738 Ry au,          0.1875 Debye
        Dipole field          0.0001 Ry au, 
 
        Potential amp.       -0.0129 Ry
        Total length         46.3494 bohr
 

     total cpu time spent up to now is      963.6 secs

     total energy              =   -2940.44025399 Ry
     estimated scf accuracy    <       0.83921054 Ry

     iteration # 34     ecut=    29.40 Ry     beta= 0.05
     Davidson diagonalization with overlap
     ethr =  1.69E-04,  avg # of iterations =  8.7

     negative rho (up, down):  4.529E-03 0.000E+00
 
     Adding external electric field

     Computed dipole along edir(3) : 
        Dipole                0.1771 Ry au,          0.4502 Debye
        Dipole field          0.0003 Ry au, 
 
        Potential amp.       -0.0310 Ry
        Total length         46.3494 bohr
 

     total cpu time spent up to now is      984.0 secs

     total energy              =   -2940.43095080 Ry
     estimated scf accuracy    <       0.40593360 Ry

     iteration # 35     ecut=    29.40 Ry     beta= 0.05
     Davidson diagonalization with overlap
     c_bands:  1 eigenvalues not converged
     c_bands:  1 eigenvalues not converged
     c_bands:  2 eigenvalues not converged
     c_bands:  2 eigenvalues not converged
     ethr =  1.03E-04,  avg # of iterations = 14.4

     negative rho (up, down):  4.581E-03 0.000E+00
 
     Adding external electric field

     Computed dipole along edir(3) : 
        Dipole                0.0920 Ry au,          0.2339 Debye
        Dipole field          0.0002 Ry au, 
 
        Potential amp.       -0.0161 Ry
        Total length         46.3494 bohr
 

     total cpu time spent up to now is     1007.6 secs

     total energy              =   -2940.42927241 Ry
     estimated scf accuracy    <       0.50060171 Ry

     iteration # 36     ecut=    29.40 Ry     beta= 0.05
     Davidson diagonalization with overlap
     c_bands:  3 eigenvalues not converged
     ethr =  1.03E-04,  avg # of iterations = 12.8

     negative rho (up, down):  4.578E-03 0.000E+00
 
     Adding external electric field

     Computed dipole along edir(3) : 
        Dipole                0.1273 Ry au,          0.3237 Debye
        Dipole field          0.0002 Ry au, 
 
        Potential amp.       -0.0223 Ry
        Total length         46.3494 bohr
 

     total cpu time spent up to now is     1030.1 secs

     total energy              =   -2940.44368293 Ry
     estimated scf accuracy    <       0.69297374 Ry

     iteration # 37     ecut=    29.40 Ry     beta= 0.05
     Davidson diagonalization with overlap
     ethr =  1.03E-04,  avg # of iterations =  3.1

     negative rho (up, down):  4.846E-03 0.000E+00
 
     Adding external electric field

     Computed dipole along edir(3) : 
        Dipole                0.5364 Ry au,          1.3634 Debye
        Dipole field          0.0010 Ry au, 
 
        Potential amp.       -0.0938 Ry
        Total length         46.3494 bohr
 

     total cpu time spent up to now is     1047.4 secs

     total energy              =   -2940.45211720 Ry
     estimated scf accuracy    <       0.85571596 Ry

     iteration # 38     ecut=    29.40 Ry     beta= 0.05
     Davidson diagonalization with overlap
     c_bands:  3 eigenvalues not converged
     ethr =  1.03E-04,  avg # of iterations = 11.9

     negative rho (up, down):  4.865E-03 0.000E+00
 
     Adding external electric field

     Computed dipole along edir(3) : 
        Dipole                0.7791 Ry au,          1.9803 Debye
        Dipole field          0.0015 Ry au, 
 
        Potential amp.       -0.1363 Ry
        Total length         46.3494 bohr
 

     total cpu time spent up to now is     1070.4 secs

     total energy              =   -2940.45775022 Ry
     estimated scf accuracy    <       1.11068823 Ry

     iteration # 39     ecut=    29.40 Ry     beta= 0.05
     Davidson diagonalization with overlap
     ethr =  1.03E-04,  avg # of iterations =  1.5

     negative rho (up, down):  4.807E-03 0.000E+00
 
     Adding external electric field

     Computed dipole along edir(3) : 
        Dipole                0.7694 Ry au,          1.9557 Debye
        Dipole field          0.0015 Ry au, 
 
        Potential amp.       -0.1346 Ry
        Total length         46.3494 bohr
 

     total cpu time spent up to now is     1087.5 secs

     total energy              =   -2940.46748225 Ry
     estimated scf accuracy    <       1.26672423 Ry

     iteration # 40     ecut=    29.40 Ry     beta= 0.05
     Davidson diagonalization with overlap
     ethr =  1.03E-04,  avg # of iterations =  5.0

     negative rho (up, down):  4.680E-03 0.000E+00
 
     Adding external electric field

     Computed dipole along edir(3) : 
        Dipole                0.5879 Ry au,          1.4942 Debye
        Dipole field          0.0011 Ry au, 
 
        Potential amp.       -0.1028 Ry
        Total length         46.3494 bohr
 

     total cpu time spent up to now is     1106.2 secs

     total energy              =   -2940.39127814 Ry
     estimated scf accuracy    <       1.58049061 Ry

     iteration # 41     ecut=    29.40 Ry     beta= 0.05
     Davidson diagonalization with overlap
     c_bands:  1 eigenvalues not converged
     c_bands:  3 eigenvalues not converged
     c_bands:  3 eigenvalues not converged
     c_bands:  2 eigenvalues not converged
     c_bands:  2 eigenvalues not converged
     c_bands:  1 eigenvalues not converged
     c_bands:  2 eigenvalues not converged
     c_bands:  2 eigenvalues not converged
     c_bands:  2 eigenvalues not converged
     c_bands:  4 eigenvalues not converged
     ethr =  1.03E-04,  avg # of iterations = 20.0

     negative rho (up, down):  4.780E-03 0.000E+00
 
     Adding external electric field

     Computed dipole along edir(3) : 
        Dipole                0.6383 Ry au,          1.6223 Debye
        Dipole field          0.0012 Ry au, 
 
        Potential amp.       -0.1117 Ry
        Total length         46.3494 bohr
 

     total cpu time spent up to now is     1137.5 secs

     total energy              =   -2940.43165941 Ry
     estimated scf accuracy    <       0.54112761 Ry

     iteration # 42     ecut=    29.40 Ry     beta= 0.05
     Davidson diagonalization with overlap
     ethr =  1.03E-04,  avg # of iterations =  1.9

     negative rho (up, down):  5.042E-03 0.000E+00
 
     Adding external electric field

     Computed dipole along edir(3) : 
        Dipole                0.6468 Ry au,          1.6440 Debye
        Dipole field          0.0012 Ry au, 
 
        Potential amp.       -0.1132 Ry
        Total length         46.3494 bohr
 

     total cpu time spent up to now is     1154.9 secs

     total energy              =   -2940.39052048 Ry
     estimated scf accuracy    <       0.38296241 Ry

     iteration # 43     ecut=    29.40 Ry     beta= 0.05
     Davidson diagonalization with overlap
     ethr =  9.67E-05,  avg # of iterations = 12.0

     negative rho (up, down):  5.306E-03 0.000E+00
 
     Adding external electric field

     Computed dipole along edir(3) : 
        Dipole                0.9242 Ry au,          2.3490 Debye
        Dipole field          0.0017 Ry au, 
 
        Potential amp.       -0.1617 Ry
        Total length         46.3494 bohr
 

     total cpu time spent up to now is     1177.7 secs

     total energy              =   -2940.34474484 Ry
     estimated scf accuracy    <       0.64783871 Ry

     iteration # 44     ecut=    29.40 Ry     beta= 0.05
     Davidson diagonalization with overlap
     c_bands:  1 eigenvalues not converged
     c_bands:  2 eigenvalues not converged
     c_bands:  2 eigenvalues not converged
     c_bands:  1 eigenvalues not converged
     c_bands:  4 eigenvalues not converged
     c_bands:  2 eigenvalues not converged
     c_bands:  1 eigenvalues not converged
     ethr =  9.67E-05,  avg # of iterations = 19.1

     negative rho (up, down):  5.660E-03 0.000E+00
 
     Adding external electric field

     Computed dipole along edir(3) : 
        Dipole                0.6841 Ry au,          1.7387 Debye
        Dipole field          0.0013 Ry au, 
 
        Potential amp.       -0.1197 Ry
        Total length         46.3494 bohr
 

     total cpu time spent up to now is     1208.1 secs

     total energy              =   -2940.36367627 Ry
     estimated scf accuracy    <       1.02605956 Ry

     iteration # 45     ecut=    29.40 Ry     beta= 0.05
     Davidson diagonalization with overlap
     c_bands:  3 eigenvalues not converged
     c_bands:  1 eigenvalues not converged
     c_bands:  4 eigenvalues not converged
     c_bands:  2 eigenvalues not converged
     c_bands:  4 eigenvalues not converged
     c_bands:  1 eigenvalues not converged
     c_bands:  3 eigenvalues not converged
     ethr =  9.67E-05,  avg # of iterations = 18.6

     negative rho (up, down):  5.586E-03 0.000E+00
 
     Adding external electric field

     Computed dipole along edir(3) : 
        Dipole                0.8487 Ry au,          2.1572 Debye
        Dipole field          0.0016 Ry au, 
 
        Potential amp.       -0.1485 Ry
        Total length         46.3494 bohr
 

     total cpu time spent up to now is     1238.0 secs

     total energy              =   -2940.41273334 Ry
     estimated scf accuracy    <       1.31256196 Ry

     iteration # 46     ecut=    29.40 Ry     beta= 0.05
     Davidson diagonalization with overlap
     ethr =  9.67E-05,  avg # of iterations =  2.2

     negative rho (up, down):  5.634E-03 0.000E+00
 
     Adding external electric field

     Computed dipole along edir(3) : 
        Dipole                0.8491 Ry au,          2.1582 Debye
        Dipole field          0.0016 Ry au, 
 
        Potential amp.       -0.1485 Ry
        Total length         46.3494 bohr
 

     total cpu time spent up to now is     1255.5 secs

     total energy              =   -2940.42073928 Ry
     estimated scf accuracy    <       0.55882712 Ry

     iteration # 47     ecut=    29.40 Ry     beta= 0.05
     Davidson diagonalization with overlap
     ethr =  9.67E-05,  avg # of iterations =  1.9

     negative rho (up, down):  5.833E-03 0.000E+00
 
     Adding external electric field

     Computed dipole along edir(3) : 
        Dipole                1.1626 Ry au,          2.9550 Debye
        Dipole field          0.0022 Ry au, 
 
        Potential amp.       -0.2034 Ry
        Total length         46.3494 bohr
 

     total cpu time spent up to now is     1272.6 secs

     total energy              =   -2940.40349674 Ry
     estimated scf accuracy    <       0.58350491 Ry

     iteration # 48     ecut=    29.40 Ry     beta= 0.05
     Davidson diagonalization with overlap
     c_bands:  1 eigenvalues not converged
     ethr =  9.67E-05,  avg # of iterations = 13.4

     negative rho (up, down):  6.066E-03 0.000E+00
 
     Adding external electric field

     Computed dipole along edir(3) : 
        Dipole                1.3710 Ry au,          3.4847 Debye
        Dipole field          0.0026 Ry au, 
 
        Potential amp.       -0.2398 Ry
        Total length         46.3494 bohr
 

     total cpu time spent up to now is     1296.0 secs

     total energy              =   -2940.40181475 Ry
     estimated scf accuracy    <       0.58237499 Ry

     iteration # 49     ecut=    29.40 Ry     beta= 0.05
     Davidson diagonalization with overlap
     c_bands:  1 eigenvalues not converged
     ethr =  9.67E-05,  avg # of iterations =  8.0

     negative rho (up, down):  7.461E-03 0.000E+00
 
     Adding external electric field

     Computed dipole along edir(3) : 
        Dipole                1.2839 Ry au,          3.2632 Debye
        Dipole field          0.0024 Ry au, 
 
        Potential amp.       -0.2246 Ry
        Total length         46.3494 bohr
 

     total cpu time spent up to now is     1315.7 secs

     total energy              =   -2940.40057635 Ry
     estimated scf accuracy    <       0.20193881 Ry

     iteration # 50     ecut=    29.40 Ry     beta= 0.05
     Davidson diagonalization with overlap
     c_bands:  4 eigenvalues not converged
     ethr =  5.10E-05,  avg # of iterations =  6.1

     negative rho (up, down):  8.565E-03 0.000E+00
 
     Adding external electric field

     Computed dipole along edir(3) : 
        Dipole                1.0977 Ry au,          2.7902 Debye
        Dipole field          0.0021 Ry au, 
 
        Potential amp.       -0.1920 Ry
        Total length         46.3494 bohr
 

     total cpu time spent up to now is     1335.5 secs

     total energy              =   -2940.40799664 Ry
     estimated scf accuracy    <       0.33681124 Ry

     iteration # 51     ecut=    29.40 Ry     beta= 0.05
     Davidson diagonalization with overlap
     c_bands:  2 eigenvalues not converged
     c_bands:  1 eigenvalues not converged
     c_bands:  2 eigenvalues not converged
     ethr =  5.10E-05,  avg # of iterations = 16.7

     negative rho (up, down):  9.158E-03 0.000E+00
 
     Adding external electric field

     Computed dipole along edir(3) : 
        Dipole                1.2220 Ry au,          3.1059 Debye
        Dipole field          0.0023 Ry au, 
 
        Potential amp.       -0.2138 Ry
        Total length         46.3494 bohr
 

     total cpu time spent up to now is     1362.6 secs

     total energy              =   -2940.40846836 Ry
     estimated scf accuracy    <       0.23332456 Ry

     iteration # 52     ecut=    29.40 Ry     beta= 0.05
     Davidson diagonalization with overlap
     ethr =  5.10E-05,  avg # of iterations =  9.5

     negative rho (up, down):  9.822E-03 0.000E+00
 
     Adding external electric field

     Computed dipole along edir(3) : 
        Dipole                1.4723 Ry au,          3.7423 Debye
        Dipole field          0.0028 Ry au, 
 
        Potential amp.       -0.2576 Ry
        Total length         46.3494 bohr
 

     total cpu time spent up to now is     1383.3 secs

     total energy              =   -2940.39962898 Ry
     estimated scf accuracy    <       0.50072119 Ry

     iteration # 53     ecut=    29.40 Ry     beta= 0.05
     Davidson diagonalization with overlap
     c_bands:  1 eigenvalues not converged
     ethr =  5.10E-05,  avg # of iterations = 12.7

     negative rho (up, down):  9.694E-03 0.000E+00
 
     Adding external electric field

     Computed dipole along edir(3) : 
        Dipole                1.4456 Ry au,          3.6744 Debye
        Dipole field          0.0027 Ry au, 
 
        Potential amp.       -0.2529 Ry
        Total length         46.3494 bohr
 

     total cpu time spent up to now is     1406.5 secs

     total energy              =   -2940.41215403 Ry
     estimated scf accuracy    <       0.02714633 Ry

     iteration # 54     ecut=    29.40 Ry     beta= 0.05
     Davidson diagonalization with overlap
     c_bands:  2 eigenvalues not converged
     c_bands:  3 eigenvalues not converged
     c_bands:  1 eigenvalues not converged
     ethr =  6.86E-06,  avg # of iterations = 16.1

     negative rho (up, down):  9.975E-03 0.000E+00
 
     Adding external electric field

     Computed dipole along edir(3) : 
        Dipole                1.4844 Ry au,          3.7729 Debye
        Dipole field          0.0028 Ry au, 
 
        Potential amp.       -0.2597 Ry
        Total length         46.3494 bohr
 

     total cpu time spent up to now is     1431.9 secs

     total energy              =   -2940.41405491 Ry
     estimated scf accuracy    <       0.01856799 Ry

     iteration # 55     ecut=    29.40 Ry     beta= 0.05
     Davidson diagonalization with overlap
     ethr =  4.69E-06,  avg # of iterations =  7.6

     negative rho (up, down):  9.931E-03 0.000E+00
 
     Adding external electric field

     Computed dipole along edir(3) : 
        Dipole                1.4834 Ry au,          3.7703 Debye
        Dipole field          0.0028 Ry au, 
 
        Potential amp.       -0.2595 Ry
        Total length         46.3494 bohr
 

     total cpu time spent up to now is     1451.7 secs

     total energy              =   -2940.41367572 Ry
     estimated scf accuracy    <       0.02311238 Ry

     iteration # 56     ecut=    29.40 Ry     beta= 0.05
     Davidson diagonalization with overlap
     c_bands:  3 eigenvalues not converged
     c_bands:  1 eigenvalues not converged
     ethr =  4.69E-06,  avg # of iterations = 12.7

     negative rho (up, down):  1.069E-02 0.000E+00
 
     Adding external electric field

     Computed dipole along edir(3) : 
        Dipole                1.4466 Ry au,          3.6769 Debye
        Dipole field          0.0027 Ry au, 
 
        Potential amp.       -0.2531 Ry
        Total length         46.3494 bohr
 

     total cpu time spent up to now is     1473.9 secs

     total energy              =   -2940.41214194 Ry
     estimated scf accuracy    <       0.01726094 Ry

     iteration # 57     ecut=    29.40 Ry     beta= 0.05
     Davidson diagonalization with overlap
     ethr =  4.36E-06,  avg # of iterations =  8.0

     negative rho (up, down):  1.118E-02 0.000E+00
 
     Adding external electric field

     Computed dipole along edir(3) : 
        Dipole                1.4510 Ry au,          3.6881 Debye
        Dipole field          0.0027 Ry au, 
 
        Potential amp.       -0.2538 Ry
        Total length         46.3494 bohr
 

     total cpu time spent up to now is     1494.3 secs

     total energy              =   -2940.41324285 Ry
     estimated scf accuracy    <       0.00706856 Ry

     iteration # 58     ecut=    29.40 Ry     beta= 0.05
     Davidson diagonalization with overlap
     c_bands:  1 eigenvalues not converged
     c_bands:  2 eigenvalues not converged
     c_bands:  1 eigenvalues not converged
     c_bands:  1 eigenvalues not converged
     ethr =  1.78E-06,  avg # of iterations = 17.8

     negative rho (up, down):  1.027E-02 0.000E+00
 
     Adding external electric field

     Computed dipole along edir(3) : 
        Dipole                1.4268 Ry au,          3.6265 Debye
        Dipole field          0.0027 Ry au, 
 
        Potential amp.       -0.2496 Ry
        Total length         46.3494 bohr
 

     total cpu time spent up to now is     1522.5 secs

     total energy              =   -2940.41309679 Ry
     estimated scf accuracy    <       0.05134325 Ry

     iteration # 59     ecut=    29.40 Ry     beta= 0.05
     Davidson diagonalization with overlap
     c_bands:  2 eigenvalues not converged
     c_bands:  1 eigenvalues not converged
     ethr =  1.78E-06,  avg # of iterations =  5.8

     negative rho (up, down):  1.063E-02 0.000E+00
 
     Adding external electric field

     Computed dipole along edir(3) : 
        Dipole                1.4283 Ry au,          3.6303 Debye
        Dipole field          0.0027 Ry au, 
 
        Potential amp.       -0.2499 Ry
        Total length         46.3494 bohr
 

     total cpu time spent up to now is     1541.0 secs

     total energy              =   -2940.41357064 Ry
     estimated scf accuracy    <       0.02787757 Ry

     iteration # 60     ecut=    29.40 Ry     beta= 0.05
     Davidson diagonalization with overlap
     c_bands:  2 eigenvalues not converged
     ethr =  1.78E-06,  avg # of iterations =  3.1

     negative rho (up, down):  1.022E-02 0.000E+00
 
     Adding external electric field

     Computed dipole along edir(3) : 
        Dipole                1.3883 Ry au,          3.5286 Debye
        Dipole field          0.0026 Ry au, 
 
        Potential amp.       -0.2429 Ry
        Total length         46.3494 bohr
 

     total cpu time spent up to now is     1558.5 secs

     total energy              =   -2940.41288595 Ry
     estimated scf accuracy    <       0.02789131 Ry

     iteration # 61     ecut=    29.40 Ry     beta= 0.05
     Davidson diagonalization with overlap
     c_bands:  1 eigenvalues not converged
     ethr =  1.78E-06,  avg # of iterations = 10.9

     negative rho (up, down):  1.018E-02 0.000E+00
 
     Adding external electric field

     Computed dipole along edir(3) : 
        Dipole                1.3805 Ry au,          3.5088 Debye
        Dipole field          0.0026 Ry au, 
 
        Potential amp.       -0.2415 Ry
        Total length         46.3494 bohr
 

     total cpu time spent up to now is     1580.1 secs

     total energy              =   -2940.41237400 Ry
     estimated scf accuracy    <       0.00751262 Ry

     iteration # 62     ecut=    29.40 Ry     beta= 0.05
     Davidson diagonalization with overlap
     ethr =  1.78E-06,  avg # of iterations = 11.2

     negative rho (up, down):  1.112E-02 0.000E+00
 
     Adding external electric field

     Computed dipole along edir(3) : 
        Dipole                1.4534 Ry au,          3.6942 Debye
        Dipole field          0.0027 Ry au, 
 
        Potential amp.       -0.2543 Ry
        Total length         46.3494 bohr
 

     total cpu time spent up to now is     1602.0 secs

     total energy              =   -2940.41149053 Ry
     estimated scf accuracy    <       0.00824190 Ry

     iteration # 63     ecut=    29.40 Ry     beta= 0.05
     Davidson diagonalization with overlap
     ethr =  1.78E-06,  avg # of iterations =  6.6

     negative rho (up, down):  1.391E-02 0.000E+00
 
     Adding external electric field

     Computed dipole along edir(3) : 
        Dipole                1.4642 Ry au,          3.7216 Debye
        Dipole field          0.0028 Ry au, 
 
        Potential amp.       -0.2561 Ry
        Total length         46.3494 bohr
 

     total cpu time spent up to now is     1623.4 secs

     total energy              =   -2940.41215252 Ry
     estimated scf accuracy    <       0.00594382 Ry

     iteration # 64     ecut=    29.40 Ry     beta= 0.05
     Davidson diagonalization with overlap
     ethr =  1.50E-06,  avg # of iterations =  6.6

     negative rho (up, down):  1.408E-02 0.000E+00
 
     Adding external electric field

     Computed dipole along edir(3) : 
        Dipole                1.4877 Ry au,          3.7814 Debye
        Dipole field          0.0028 Ry au, 
 
        Potential amp.       -0.2603 Ry
        Total length         46.3494 bohr
 

     total cpu time spent up to now is     1643.9 secs

     total energy              =   -2940.41264702 Ry
     estimated scf accuracy    <       0.00145190 Ry

     iteration # 65     ecut=    29.40 Ry     beta= 0.05
     Davidson diagonalization with overlap
     ethr =  3.67E-07,  avg # of iterations = 12.4

     negative rho (up, down):  1.410E-02 0.000E+00
 
     Adding external electric field

     Computed dipole along edir(3) : 
        Dipole                1.4841 Ry au,          3.7721 Debye
        Dipole field          0.0028 Ry au, 
 
        Potential amp.       -0.2596 Ry
        Total length         46.3494 bohr
 

     total cpu time spent up to now is     1668.6 secs

     total energy              =   -2940.41285826 Ry
     estimated scf accuracy    <       0.00104003 Ry

     iteration # 66     ecut=    29.40 Ry     beta= 0.05
     Davidson diagonalization with overlap
     ethr =  2.63E-07,  avg # of iterations =  1.2

     negative rho (up, down):  1.405E-02 0.000E+00
 
     Adding external electric field

     Computed dipole along edir(3) : 
        Dipole                1.4565 Ry au,          3.7021 Debye
        Dipole field          0.0027 Ry au, 
 
        Potential amp.       -0.2548 Ry
        Total length         46.3494 bohr
 

     total cpu time spent up to now is     1685.2 secs

     total energy              =   -2940.41266558 Ry
     estimated scf accuracy    <       0.00087995 Ry

     iteration # 67     ecut=    29.40 Ry     beta= 0.05
     Davidson diagonalization with overlap
     ethr =  2.22E-07,  avg # of iterations =  9.0

     negative rho (up, down):  1.485E-02 0.000E+00
 
     Adding external electric field

     Computed dipole along edir(3) : 
        Dipole                1.4761 Ry au,          3.7519 Debye
        Dipole field          0.0028 Ry au, 
 
        Potential amp.       -0.2582 Ry
        Total length         46.3494 bohr
 

     total cpu time spent up to now is     1707.7 secs

     total energy              =   -2940.41279349 Ry
     estimated scf accuracy    <       0.00048900 Ry

     iteration # 68     ecut=    29.40 Ry     beta= 0.05
     Davidson diagonalization with overlap
     c_bands:  2 eigenvalues not converged
     ethr =  1.23E-07,  avg # of iterations = 13.8

     negative rho (up, down):  1.501E-02 0.000E+00
 
     Adding external electric field

     Computed dipole along edir(3) : 
        Dipole                1.4837 Ry au,          3.7712 Debye
        Dipole field          0.0028 Ry au, 
 
        Potential amp.       -0.2596 Ry
        Total length         46.3494 bohr
 

     total cpu time spent up to now is     1735.8 secs

     total energy              =   -2940.41283224 Ry
     estimated scf accuracy    <       0.00022634 Ry

     iteration # 69     ecut=    29.40 Ry     beta= 0.05
     Davidson diagonalization with overlap
     ethr =  5.72E-08,  avg # of iterations =  7.3

     negative rho (up, down):  1.517E-02 0.000E+00
 
     Adding external electric field

     Computed dipole along edir(3) : 
        Dipole                1.4826 Ry au,          3.7685 Debye
        Dipole field          0.0028 Ry au, 
 
        Potential amp.       -0.2594 Ry
        Total length         46.3494 bohr
 

     total cpu time spent up to now is     1756.7 secs

     total energy              =   -2940.41285002 Ry
     estimated scf accuracy    <       0.00011995 Ry

     iteration # 70     ecut=    29.40 Ry     beta= 0.05
     Davidson diagonalization with overlap
     ethr =  3.03E-08,  avg # of iterations = 14.2

     negative rho (up, down):  1.523E-02 0.000E+00
 
     Adding external electric field

     Computed dipole along edir(3) : 
        Dipole                1.4797 Ry au,          3.7611 Debye
        Dipole field          0.0028 Ry au, 
 
        Potential amp.       -0.2589 Ry
        Total length         46.3494 bohr
 

     total cpu time spent up to now is     1781.0 secs

     total energy              =   -2940.41285648 Ry
     estimated scf accuracy    <       0.00006081 Ry

     iteration # 71     ecut=    29.40 Ry     beta= 0.05
     Davidson diagonalization with overlap
     ethr =  1.54E-08,  avg # of iterations =  6.9

     negative rho (up, down):  1.542E-02 0.000E+00
 
     Adding external electric field

     Computed dipole along edir(3) : 
        Dipole                1.4802 Ry au,          3.7622 Debye
        Dipole field          0.0028 Ry au, 
 
        Potential amp.       -0.2589 Ry
        Total length         46.3494 bohr
 

     total cpu time spent up to now is     1801.3 secs

     total energy              =   -2940.41286563 Ry
     estimated scf accuracy    <       0.00002841 Ry

     iteration # 72     ecut=    29.40 Ry     beta= 0.05
     Davidson diagonalization with overlap
     ethr =  7.18E-09,  avg # of iterations = 13.1

     negative rho (up, down):  1.557E-02 0.000E+00
 
     Adding external electric field

     Computed dipole along edir(3) : 
        Dipole                1.4797 Ry au,          3.7611 Debye
        Dipole field          0.0028 Ry au, 
 
        Potential amp.       -0.2589 Ry
        Total length         46.3494 bohr
 

     total cpu time spent up to now is     1827.4 secs

     total energy              =   -2940.41287370 Ry
     estimated scf accuracy    <       0.00001661 Ry

     iteration # 73     ecut=    29.40 Ry     beta= 0.05
     Davidson diagonalization with overlap
     ethr =  4.20E-09,  avg # of iterations =  9.0

     negative rho (up, down):  1.579E-02 0.000E+00
 
     Adding external electric field

     Computed dipole along edir(3) : 
        Dipole                1.4834 Ry au,          3.7705 Debye
        Dipole field          0.0028 Ry au, 
 
        Potential amp.       -0.2595 Ry
        Total length         46.3494 bohr
 

     total cpu time spent up to now is     1848.3 secs

     total energy              =   -2940.41287535 Ry
     estimated scf accuracy    <       0.00001648 Ry

     iteration # 74     ecut=    29.40 Ry     beta= 0.05
     Davidson diagonalization with overlap
     ethr =  4.16E-09,  avg # of iterations =  9.9

     negative rho (up, down):  1.583E-02 0.000E+00
 
     Adding external electric field

     Computed dipole along edir(3) : 
        Dipole                1.4833 Ry au,          3.7702 Debye
        Dipole field          0.0028 Ry au, 
 
        Potential amp.       -0.2595 Ry
        Total length         46.3494 bohr
 

     total cpu time spent up to now is     1870.8 secs

     total energy              =   -2940.41287923 Ry
     estimated scf accuracy    <       0.00000682 Ry

     iteration # 75     ecut=    29.40 Ry     beta= 0.05
     Davidson diagonalization with overlap
     ethr =  1.72E-09,  avg # of iterations = 11.6

     negative rho (up, down):  1.585E-02 0.000E+00
 
     Adding external electric field

     Computed dipole along edir(3) : 
        Dipole                1.4822 Ry au,          3.7674 Debye
        Dipole field          0.0028 Ry au, 
 
        Potential amp.       -0.2593 Ry
        Total length         46.3494 bohr
 

     total cpu time spent up to now is     1892.2 secs

     total energy              =   -2940.41288027 Ry
     estimated scf accuracy    <       0.00000483 Ry

     iteration # 76     ecut=    29.40 Ry     beta= 0.05
     Davidson diagonalization with overlap
     ethr =  1.22E-09,  avg # of iterations =  6.9

     negative rho (up, down):  1.588E-02 0.000E+00
 
     Adding external electric field

     Computed dipole along edir(3) : 
        Dipole                1.4835 Ry au,          3.7707 Debye
        Dipole field          0.0028 Ry au, 
 
        Potential amp.       -0.2595 Ry
        Total length         46.3494 bohr
 

     total cpu time spent up to now is     1913.3 secs

     total energy              =   -2940.41288153 Ry
     estimated scf accuracy    <       0.00000386 Ry

     iteration # 77     ecut=    29.40 Ry     beta= 0.05
     Davidson diagonalization with overlap
     ethr =  9.75E-10,  avg # of iterations = 13.6

     negative rho (up, down):  1.585E-02 0.000E+00
 
     Adding external electric field

     Computed dipole along edir(3) : 
        Dipole                1.4834 Ry au,          3.7705 Debye
        Dipole field          0.0028 Ry au, 
 
        Potential amp.       -0.2595 Ry
        Total length         46.3494 bohr
 

     total cpu time spent up to now is     1943.5 secs

     total energy              =   -2940.41288302 Ry
     estimated scf accuracy    <       0.00000298 Ry

     iteration # 78     ecut=    29.40 Ry     beta= 0.05
     Davidson diagonalization with overlap
     ethr =  7.53E-10,  avg # of iterations =  6.8

     negative rho (up, down):  1.581E-02 0.000E+00
 
     Adding external electric field

     Computed dipole along edir(3) : 
        Dipole                1.4830 Ry au,          3.7695 Debye
        Dipole field          0.0028 Ry au, 
 
        Potential amp.       -0.2594 Ry
        Total length         46.3494 bohr
 

     total cpu time spent up to now is     1963.5 secs

     total energy              =   -2940.41288375 Ry
     estimated scf accuracy    <       0.00000143 Ry

     iteration # 79     ecut=    29.40 Ry     beta= 0.05
     Davidson diagonalization with overlap
     c_bands:  3 eigenvalues not converged
     ethr =  3.60E-10,  avg # of iterations = 12.5

     negative rho (up, down):  1.585E-02 0.000E+00
 
     Adding external electric field

     Computed dipole along edir(3) : 
        Dipole                1.4834 Ry au,          3.7705 Debye
        Dipole field          0.0028 Ry au, 
 
        Potential amp.       -0.2595 Ry
        Total length         46.3494 bohr
 

     total cpu time spent up to now is     1994.0 secs

     total energy              =   -2940.41288463 Ry
     estimated scf accuracy    <       0.00000166 Ry

     iteration # 80     ecut=    29.40 Ry     beta= 0.05
     Davidson diagonalization with overlap
     ethr =  3.60E-10,  avg # of iterations =  7.8

     negative rho (up, down):  1.583E-02 0.000E+00
 
     Adding external electric field

     Computed dipole along edir(3) : 
        Dipole                1.4830 Ry au,          3.7695 Debye
        Dipole field          0.0028 Ry au, 
 
        Potential amp.       -0.2594 Ry
        Total length         46.3494 bohr
 

     total cpu time spent up to now is     2021.8 secs

     total energy              =   -2940.41288574 Ry
     estimated scf accuracy    <       0.00000111 Ry

     iteration # 81     ecut=    29.40 Ry     beta= 0.05
     Davidson diagonalization with overlap
     ethr =  2.81E-10,  avg # of iterations =  4.7

     negative rho (up, down):  1.579E-02 0.000E+00
 
     Adding external electric field

     Computed dipole along edir(3) : 
        Dipole                1.4824 Ry au,          3.7679 Debye
        Dipole field          0.0028 Ry au, 
 
        Potential amp.       -0.2593 Ry
        Total length         46.3494 bohr
 

     total cpu time spent up to now is     2040.5 secs

     total energy              =   -2940.41288631 Ry
     estimated scf accuracy    <       0.00000058 Ry

     iteration # 82     ecut=    29.40 Ry     beta= 0.05
     Davidson diagonalization with overlap
     ethr =  1.45E-10,  avg # of iterations =  8.0

     negative rho (up, down):  1.578E-02 0.000E+00
 
     Adding external electric field

     Computed dipole along edir(3) : 
        Dipole                1.4826 Ry au,          3.7684 Debye
        Dipole field          0.0028 Ry au, 
 
        Potential amp.       -0.2594 Ry
        Total length         46.3494 bohr
 

     total cpu time spent up to now is     2068.7 secs

     total energy              =   -2940.41288706 Ry
     estimated scf accuracy    <       0.00000051 Ry

     iteration # 83     ecut=    29.40 Ry     beta= 0.05
     Davidson diagonalization with overlap
     ethr =  1.28E-10,  avg # of iterations =  5.0

     negative rho (up, down):  1.578E-02 0.000E+00
 
     Adding external electric field

     Computed dipole along edir(3) : 
        Dipole                1.4826 Ry au,          3.7683 Debye
        Dipole field          0.0028 Ry au, 
 
        Potential amp.       -0.2594 Ry
        Total length         46.3494 bohr
 

     total cpu time spent up to now is     2087.8 secs

     total energy              =   -2940.41288761 Ry
     estimated scf accuracy    <       0.00000026 Ry

     iteration # 84     ecut=    29.40 Ry     beta= 0.05
     Davidson diagonalization with overlap
     ethr =  6.66E-11,  avg # of iterations =  2.7

     negative rho (up, down):  1.578E-02 0.000E+00
 
     Adding external electric field

     Computed dipole along edir(3) : 
        Dipole                1.4824 Ry au,          3.7679 Debye
        Dipole field          0.0028 Ry au, 
 
        Potential amp.       -0.2593 Ry
        Total length         46.3494 bohr
 

     total cpu time spent up to now is     2105.6 secs

     total energy              =   -2940.41288806 Ry
     estimated scf accuracy    <       0.00000021 Ry

     iteration # 85     ecut=    29.40 Ry     beta= 0.05
     Davidson diagonalization with overlap
     ethr =  5.30E-11,  avg # of iterations =  3.2

     negative rho (up, down):  1.578E-02 0.000E+00
 
     Adding external electric field

     Computed dipole along edir(3) : 
        Dipole                1.4822 Ry au,          3.7674 Debye
        Dipole field          0.0028 Ry au, 
 
        Potential amp.       -0.2593 Ry
        Total length         46.3494 bohr
 

     total cpu time spent up to now is     2123.7 secs

     total energy              =   -2940.41288850 Ry
     estimated scf accuracy    <       0.00000013 Ry

     iteration # 86     ecut=    29.40 Ry     beta= 0.05
     Davidson diagonalization with overlap
     ethr =  3.22E-11,  avg # of iterations = 13.2

     negative rho (up, down):  1.581E-02 0.000E+00
 
     Adding external electric field

     Computed dipole along edir(3) : 
        Dipole                1.4819 Ry au,          3.7667 Debye
        Dipole field          0.0028 Ry au, 
 
        Potential amp.       -0.2592 Ry
        Total length         46.3494 bohr
 

     total cpu time spent up to now is     2153.4 secs

     End of self-consistent calculation

          k = 0.0000 0.0000 0.0000 ( 18029 PWs)   bands (ev):

   -55.2582 -55.2223 -55.2096 -55.1755 -55.1353 -55.1272 -55.1033 -55.1001
   -55.0759 -55.0564 -55.0416 -55.0386 -55.0050 -54.9881 -54.2377 -54.2037
   -31.8268 -31.7064 -31.7019 -31.6232 -31.5675 -31.5655 -31.5568 -31.5440
   -31.4986 -31.4859 -31.4670 -31.4636 -31.4542 -31.4294 -31.4134 -31.4088
   -31.3946 -31.3830 -31.3740 -31.3727 -31.3621 -31.3497 -31.3233 -31.3210
   -31.3132 -31.3065 -31.2784 -31.2767 -31.2668 -31.2656 -31.2570 -31.2381
   -31.2371 -31.2289 -31.2252 -31.2235 -31.1898 -31.1896 -31.1719 -31.1666
   -31.1497 -31.0980 -30.6470 -30.5530 -30.5309 -30.4634 -30.3766 -30.2657
   -16.7756 -16.0832 -15.8134 -15.6711 -15.5651 -15.4538 -15.3389 -15.3186
   -15.1817 -15.1465 -15.0931 -14.9744 -14.9235 -14.9053 -14.8907 -14.8768
   -14.8703 -14.7989 -14.7938 -14.7706 -14.7501 -14.7374 -14.6945 -14.6927
   -14.6521 -14.6313 -14.5852 -14.4960 -14.4131 -14.3437 -14.0212 -12.7403
   -12.6229  -7.9765  -5.3063  -4.9734  -4.0153  -3.4221  -3.2717  -3.1757
    -3.1494  -3.1335  -3.0041  -2.8567  -2.8466  -2.7511  -2.6424  -2.5911
    -2.5085  -2.4600  -2.4477  -2.4294  -2.2462  -2.2293  -2.1762  -2.1282
    -2.0983  -2.0624  -2.0420  -2.0229  -2.0057  -1.9963  -1.9322  -1.8185
    -1.7829  -1.7309  -1.6793  -1.6541  -1.6000  -1.5794  -1.5434  -1.5374
    -1.5369  -1.4887  -1.4628  -1.4394  -1.3624  -1.2763  -1.1620  -1.1105
    -0.9557  -0.8932  -0.8369  -0.8247  -0.7612  -0.7413  -0.7115  -0.6351
    -0.6272  -0.5945  -0.4758  -0.3810  -0.3418  -0.3267  -0.2749  -0.2385
    -0.2113  -0.1641  -0.0681  -0.0360  -0.0191  -0.0147   0.1353   0.1493
     0.2182   0.2656   0.2874   0.2880   0.4012   0.4176   0.4899   0.5269
     0.5630   0.6363   0.6762   0.6921   0.6948   0.7283   0.7322   0.8233
     0.8454   0.8538   0.9259   1.0754   1.3021   1.3499   1.3577   1.6914
     1.6931   1.7850   1.9688   2.3609   2.4091   3.8404   3.9120   3.9862
     3.9927   4.0184   4.0786   4.3201   4.3304   4.3430   4.3462   4.3875

          k = 0.0000 0.0419 0.0000 ( 17933 PWs)   bands (ev):

   -55.2529 -55.2275 -55.2046 -55.1804 -55.1304 -55.1250 -55.1049 -55.1018
   -55.0708 -55.0585 -55.0465 -55.0336 -55.0098 -54.9894 -54.2327 -54.2086
   -31.7696 -31.6705 -31.6479 -31.5684 -31.5545 -31.5125 -31.5072 -31.5019
   -31.4982 -31.4936 -31.4858 -31.4557 -31.4489 -31.4472 -31.4308 -31.4043
   -31.4003 -31.3800 -31.3725 -31.3666 -31.3581 -31.3528 -31.3481 -31.3287
   -31.3071 -31.3023 -31.2953 -31.2833 -31.2819 -31.2811 -31.2789 -31.2729
   -31.2458 -31.2375 -31.2286 -31.2268 -31.2223 -31.2184 -31.2036 -31.1845
   -31.1771 -31.1408 -30.5928 -30.5496 -30.5339 -30.4508 -30.3892 -30.3229
   -16.7722 -15.9545 -15.6999 -15.5895 -15.4887 -15.3466 -15.2951 -15.2759
   -15.1683 -15.1465 -15.1143 -15.0601 -14.9865 -14.9374 -14.9302 -14.8496
   -14.8372 -14.8218 -14.7703 -14.7610 -14.7562 -14.7376 -14.7330 -14.7067
   -14.6909 -14.6288 -14.6240 -14.5521 -14.4684 -14.4035 -14.1535 -12.7439
   -12.6622  -7.9760  -5.3067  -4.9800  -4.0024  -3.2332  -3.1042  -3.0205
    -2.9980  -2.9726  -2.8598  -2.7813  -2.7445  -2.6209  -2.5878  -2.5090
    -2.4835  -2.4142  -2.3886  -2.3584  -2.3208  -2.2697  -2.2451  -2.2296
    -2.1976  -2.1879  -2.1344  -2.1121  -2.0521  -2.0199  -1.9937  -1.9707
    -1.8629  -1.8242  -1.8073  -1.7915  -1.7267  -1.6831  -1.6640  -1.5733
    -1.5568  -1.4961  -1.4076  -1.2658  -1.2180  -1.1771  -1.0500  -1.0348
    -0.9985  -0.9306  -0.8098  -0.6928  -0.6267  -0.5987  -0.5763  -0.5611
    -0.4721  -0.4496  -0.4170  -0.4061  -0.3441  -0.2783  -0.2529  -0.2411
    -0.1881  -0.1635  -0.0806  -0.0776  -0.0589  -0.0324   0.0499   0.1227
     0.1502   0.1598   0.2378   0.2572   0.3023   0.3444   0.3996   0.4831
     0.4909   0.4996   0.5526   0.5707   0.5967   0.6893   0.7076   0.7850
     0.8195   0.8601   0.9418   1.0412   1.0528   1.1354   1.2382   1.3932
     1.5680   1.9687   2.0451   2.3158   2.3195   4.0374   4.0511   4.0749
     4.1351   4.2185   4.2194   4.2516   4.2745   4.3037   4.3202   4.4046

          k = 0.0000-0.0839 0.0000 ( 17884 PWs)   bands (ev):

   -55.2403 -55.2400 -55.1925 -55.1925 -55.1227 -55.1216 -55.1137 -55.1004
   -55.0607 -55.0599 -55.0574 -55.0221 -55.0213 -54.9908 -54.2206 -54.2205
   -31.6301 -31.6296 -31.6290 -31.5289 -31.5161 -31.5155 -31.5154 -31.4838
   -31.4837 -31.4523 -31.4467 -31.4385 -31.4314 -31.4304 -31.4270 -31.3903
   -31.3898 -31.3878 -31.3808 -31.3774 -31.3585 -31.3528 -31.3403 -31.3349
   -31.3281 -31.3272 -31.3222 -31.3201 -31.3144 -31.3143 -31.2944 -31.2940
   -31.2929 -31.2902 -31.2868 -31.2427 -31.2186 -31.2171 -31.2028 -31.2024
   -31.1929 -31.1808 -30.5415 -30.5415 -30.4597 -30.4595 -30.4200 -30.4200
   -16.7690 -15.7042 -15.5921 -15.4661 -15.3962 -15.3541 -15.2532 -15.2505
   -15.1504 -15.1404 -15.1201 -15.1062 -15.0858 -15.0349 -15.0071 -14.8650
   -14.8539 -14.8506 -14.8379 -14.7485 -14.7271 -14.6958 -14.6793 -14.6619
   -14.6606 -14.6063 -14.5989 -14.5488 -14.5458 -14.5394 -14.4068 -12.7248
   -12.7248  -7.9756  -5.3071  -4.9865  -3.9909  -2.8217  -2.8057  -2.7813
    -2.7608  -2.7230  -2.7041  -2.6855  -2.6736  -2.6268  -2.5791  -2.5439
    -2.5308  -2.5288  -2.4474  -2.4296  -2.4045  -2.3989  -2.3710  -2.3074
    -2.2541  -2.2232  -2.1930  -2.1351  -2.1167  -2.0982  -2.0868  -2.0721
    -1.9161  -1.8865  -1.8445  -1.8356  -1.7428  -1.6906  -1.6182  -1.5790
    -1.3960  -1.3583  -1.3063  -1.1551  -1.1327  -1.0403  -1.0223  -1.0126
    -0.9325  -0.7630  -0.7582  -0.7481  -0.7233  -0.7108  -0.6521  -0.6440
    -0.6396  -0.6253  -0.4833  -0.4725  -0.4226  -0.3202  -0.2911  -0.2859
    -0.0866  -0.0586   0.0014   0.0083   0.0467   0.1160   0.1246   0.1355
     0.1487   0.1948   0.2518   0.2646   0.2732   0.3319   0.3340   0.3738
[...]
    -0.1932  -0.1464  -0.1306  -0.1112  -0.0813   0.0619   0.0871   0.1337
     0.1525   0.1778   0.2421   0.2737   0.3027   0.3892   0.4081   0.4405
     0.4839   0.4993   0.5127   0.5672   0.6032   0.6945   0.7066   0.7552
     0.7737   0.8046   0.8913   0.9432   1.0585   1.1855   1.4080   1.5529
     1.6971   1.7969   1.9376   2.2483   2.3263   3.8568   3.9443   4.1062
     4.1509   4.1627   4.2348   4.2822   4.2930   4.3279   4.3311   4.3535

          k = 0.0380 0.0419 0.0000 ( 17878 PWs)   bands (ev):

   -55.2528 -55.2275 -55.2045 -55.1804 -55.1304 -55.1248 -55.1049 -55.1019
   -55.0706 -55.0585 -55.0464 -55.0337 -55.0099 -54.9894 -54.2326 -54.2085
   -31.7697 -31.6706 -31.6488 -31.5748 -31.5544 -31.5167 -31.5104 -31.5022
   -31.4982 -31.4934 -31.4860 -31.4492 -31.4478 -31.4414 -31.4309 -31.4002
   -31.3946 -31.3801 -31.3667 -31.3579 -31.3529 -31.3463 -31.3400 -31.3286
   -31.3235 -31.3019 -31.2927 -31.2880 -31.2825 -31.2800 -31.2753 -31.2670
   -31.2552 -31.2393 -31.2312 -31.2278 -31.2255 -31.2247 -31.2034 -31.1895
   -31.1772 -31.1404 -30.5924 -30.5523 -30.5329 -30.4506 -30.3893 -30.3227
   -16.7707 -15.8840 -15.6268 -15.6001 -15.4227 -15.3006 -15.2834 -15.2439
   -15.1747 -15.1486 -15.1319 -15.0561 -15.0117 -14.9959 -14.9368 -14.9239
   -14.9031 -14.8657 -14.8221 -14.8066 -14.7789 -14.7263 -14.6990 -14.6714
   -14.6280 -14.6194 -14.5794 -14.5467 -14.5357 -14.4843 -14.1529 -12.7416
   -12.6625  -7.9749  -5.3037  -4.9785  -3.9959  -3.1385  -2.9753  -2.8964
    -2.8701  -2.7682  -2.7425  -2.6927  -2.6824  -2.6245  -2.5983  -2.5211
    -2.5004  -2.4348  -2.3487  -2.3253  -2.2946  -2.2530  -2.2320  -2.1876
    -2.1542  -2.1117  -2.0745  -2.0518  -2.0178  -2.0009  -1.9526  -1.9495
    -1.8840  -1.8461  -1.8024  -1.7658  -1.6916  -1.6636  -1.6350  -1.5567
    -1.4812  -1.4399  -1.3198  -1.2630  -1.2424  -1.1364  -1.0758  -1.0357
    -0.9658  -0.8698  -0.8020  -0.7414  -0.7094  -0.6735  -0.6318  -0.6042
    -0.5980  -0.5390  -0.5069  -0.4368  -0.3872  -0.3458  -0.3242  -0.3124
    -0.2287  -0.2006  -0.1819  -0.1423  -0.0586  -0.0292  -0.0174   0.0386
     0.0479   0.1030   0.1221   0.1309   0.1709   0.2168   0.2976   0.3161
     0.3876   0.4034   0.4708   0.4919   0.5682   0.6563   0.7141   0.7725
     0.8414   0.8830   0.9026   0.9905   1.0432   1.1638   1.1773   1.3393
     1.5221   1.9796   2.0485   2.2380   2.3012   4.0165   4.0433   4.0652
     4.1837   4.1990   4.2526   4.2733   4.3499   4.3744   4.4115   4.4318

          k = 0.0380-0.0839 0.0000 ( 17916 PWs)   bands (ev):

   -55.2403 -55.2400 -55.1925 -55.1925 -55.1226 -55.1216 -55.1137 -55.1005
   -55.0607 -55.0598 -55.0574 -55.0222 -55.0214 -54.9909 -54.2206 -54.2206
   -31.6303 -31.6298 -31.6293 -31.5290 -31.5163 -31.5162 -31.5162 -31.4839
   -31.4837 -31.4575 -31.4525 -31.4506 -31.4475 -31.4033 -31.3996 -31.3942
   -31.3903 -31.3887 -31.3860 -31.3840 -31.3551 -31.3524 -31.3393 -31.3321
   -31.3299 -31.3289 -31.3136 -31.3135 -31.3036 -31.3017 -31.2994 -31.2951
   -31.2928 -31.2901 -31.2876 -31.2468 -31.2304 -31.2288 -31.2028 -31.2024
   -31.1935 -31.1861 -30.5426 -30.5425 -30.4596 -30.4594 -30.4200 -30.4200
   -16.7679 -15.6656 -15.5500 -15.4482 -15.3489 -15.3380 -15.2080 -15.1992
   -15.1465 -15.1265 -15.1162 -15.1082 -15.0699 -14.9921 -14.9653 -14.8816
   -14.8769 -14.8435 -14.8296 -14.8272 -14.8042 -14.7482 -14.7309 -14.6901
   -14.6861 -14.6268 -14.6196 -14.5993 -14.5983 -14.5225 -14.3960 -12.7246
   -12.7246  -7.9745  -5.3042  -4.9852  -3.9961  -2.8062  -2.7783  -2.7442
    -2.7195  -2.7094  -2.5395  -2.5191  -2.5080  -2.4669  -2.4351  -2.4152
    -2.3608  -2.3510  -2.3347  -2.3323  -2.3202  -2.3033  -2.2910  -2.2395
    -2.2281  -2.1834  -2.1537  -2.1371  -2.1050  -2.0872  -2.0144  -1.9801
    -1.9307  -1.9235  -1.8599  -1.8368  -1.7517  -1.6776  -1.5101  -1.4594
    -1.3978  -1.3435  -1.2573  -1.2200  -1.1916  -1.1756  -1.1155  -1.1114
    -0.9976  -0.9929  -0.9374  -0.9347  -0.8946  -0.8189  -0.7764  -0.7112
    -0.6580  -0.6014  -0.5732  -0.5192  -0.4934  -0.3301  -0.3161  -0.2784
    -0.2441  -0.2166  -0.1747  -0.1116  -0.0720  -0.0548  -0.0486  -0.0228
     0.0465   0.1000   0.1087   0.1245   0.1887   0.2141   0.2423   0.2649
     0.2947   0.4551   0.4776   0.4931   0.5420   0.6332   0.6909   0.8083
     0.8127   0.8645   0.8816   0.9813   0.9872   1.0710   1.1141   1.2977
     1.3077   2.1243   2.1246   2.2419   2.2426   4.0141   4.0881   4.1268
     4.1582   4.2245   4.2594   4.3001   4.3147   4.4278   4.4491   4.4912

          k = 0.0380-0.0419 0.0000 ( 17876 PWs)   bands (ev):

   -55.2528 -55.2274 -55.2045 -55.1804 -55.1304 -55.1248 -55.1049 -55.1019
   -55.0706 -55.0585 -55.0464 -55.0337 -55.0098 -54.9894 -54.2326 -54.2085
   -31.7697 -31.6706 -31.6487 -31.5748 -31.5544 -31.5167 -31.5104 -31.5022
   -31.4982 -31.4934 -31.4860 -31.4491 -31.4478 -31.4415 -31.4309 -31.4002
   -31.3946 -31.3801 -31.3667 -31.3582 -31.3530 -31.3463 -31.3399 -31.3286
   -31.3234 -31.3019 -31.2928 -31.2871 -31.2825 -31.2800 -31.2753 -31.2670
   -31.2554 -31.2404 -31.2310 -31.2279 -31.2257 -31.2247 -31.2034 -31.1887
   -31.1772 -31.1407 -30.5924 -30.5523 -30.5329 -30.4506 -30.3893 -30.3227
   -16.7707 -15.8837 -15.6260 -15.6006 -15.4234 -15.3011 -15.2836 -15.2436
   -15.1744 -15.1481 -15.1326 -15.0569 -15.0090 -14.9955 -14.9365 -14.9235
   -14.9035 -14.8698 -14.8215 -14.8067 -14.7789 -14.7263 -14.6988 -14.6717
   -14.6280 -14.6179 -14.5786 -14.5465 -14.5360 -14.4846 -14.1532 -12.7416
   -12.6625  -7.9748  -5.3037  -4.9784  -3.9955  -3.1386  -2.9741  -2.8985
    -2.8696  -2.7880  -2.7420  -2.6898  -2.6790  -2.6138  -2.5886  -2.5225
    -2.4991  -2.4374  -2.3502  -2.3305  -2.2940  -2.2539  -2.2273  -2.1852
    -2.1555  -2.1113  -2.0744  -2.0487  -2.0224  -2.0079  -1.9537  -1.9489
    -1.8855  -1.8453  -1.7979  -1.7660  -1.6787  -1.6536  -1.6382  -1.5573
    -1.4871  -1.4435  -1.3195  -1.2627  -1.2450  -1.1379  -1.0703  -1.0373
    -0.9680  -0.8705  -0.7991  -0.7430  -0.7204  -0.6668  -0.6330  -0.6055
    -0.5968  -0.5402  -0.5051  -0.4367  -0.3885  -0.3506  -0.3318  -0.3146
    -0.2272  -0.1973  -0.1851  -0.1399  -0.0616  -0.0334  -0.0201   0.0362
     0.0531   0.0991   0.1213   0.1366   0.1725   0.2189   0.3003   0.3137
     0.3822   0.4031   0.4726   0.4938   0.5684   0.6579   0.7150   0.7778
     0.8392   0.8854   0.9001   0.9944   1.0498   1.1635   1.1780   1.3398
     1.5221   1.9796   2.0485   2.2378   2.3018   4.0254   4.0403   4.0714
     4.1824   4.1991   4.2512   4.2734   4.3460   4.3678   4.4121   4.4295

          k =-0.0760-0.0000 0.0000 ( 17886 PWs)   bands (ev):

   -55.2580 -55.2222 -55.2095 -55.1754 -55.1353 -55.1268 -55.1034 -55.1000
   -55.0754 -55.0563 -55.0415 -55.0388 -55.0049 -54.9880 -54.2376 -54.2035
   -31.8271 -31.7067 -31.7038 -31.6337 -31.5735 -31.5677 -31.5626 -31.5446
   -31.4982 -31.4858 -31.4637 -31.4542 -31.4293 -31.4252 -31.4129 -31.4081
   -31.3826 -31.3738 -31.3565 -31.3561 -31.3496 -31.3432 -31.3230 -31.3207
   -31.3182 -31.3066 -31.3018 -31.2797 -31.2784 -31.2668 -31.2647 -31.2413
   -31.2381 -31.2371 -31.2286 -31.2280 -31.1961 -31.1876 -31.1714 -31.1664
   -31.1508 -31.0982 -30.6461 -30.5600 -30.5275 -30.4632 -30.3764 -30.2655
   -16.7719 -15.8800 -15.7538 -15.5826 -15.4591 -15.3306 -15.3063 -15.2940
   -15.1604 -15.1500 -15.1102 -15.1080 -15.0649 -15.0434 -15.0315 -15.0096
   -14.9744 -14.9652 -14.8772 -14.7380 -14.7139 -14.6796 -14.6628 -14.6596
   -14.6240 -14.5840 -14.5324 -14.5014 -14.4200 -14.3900 -14.0198 -12.7339
   -12.6223  -7.9743  -5.3005  -4.9704  -3.9815  -3.2829  -3.1044  -2.9637
    -2.8978  -2.8582  -2.8019  -2.7537  -2.7402  -2.7256  -2.6467  -2.6327
    -2.5654  -2.5030  -2.4868  -2.3577  -2.3223  -2.1908  -2.1244  -2.0966
    -2.0009  -1.9442  -1.8938  -1.8645  -1.8113  -1.8036  -1.7972  -1.7508
    -1.7381  -1.6778  -1.6237  -1.6069  -1.5826  -1.5776  -1.5606  -1.5419
    -1.5408  -1.4610  -1.3525  -1.3327  -1.2243  -1.1185  -1.0691  -0.9514
    -0.9443  -0.8960  -0.8863  -0.8666  -0.8364  -0.8218  -0.7808  -0.7574
    -0.6966  -0.6744  -0.5922  -0.5640  -0.5458  -0.5287  -0.4531  -0.3258
    -0.2099  -0.2071  -0.1891  -0.1509  -0.1121  -0.0115   0.0355   0.0761
     0.1010   0.1483   0.1896   0.2374   0.2473   0.2829   0.3271   0.3481
     0.4042   0.4302   0.4919   0.5284   0.5456   0.5905   0.6205   0.7103
     0.7384   0.7636   0.8726   1.0050   1.0179   1.2318   1.2763   1.4330
     1.7018   1.8183   1.9126   2.1181   2.2713   3.8571   3.9015   3.9836
     4.1179   4.1551   4.2255   4.2872   4.2905   4.3295   4.3597   4.4185

          k =-0.0760 0.0419 0.0000 ( 17914 PWs)   bands (ev):

   -55.2527 -55.2275 -55.2045 -55.1804 -55.1304 -55.1247 -55.1049 -55.1020
   -55.0705 -55.0585 -55.0464 -55.0338 -55.0099 -54.9894 -54.2326 -54.2086
   -31.7701 -31.6709 -31.6498 -31.5809 -31.5545 -31.5210 -31.5138 -31.5028
   -31.4983 -31.4935 -31.4861 -31.4493 -31.4475 -31.4311 -31.4244 -31.3999
   -31.3854 -31.3804 -31.3668 -31.3530 -31.3437 -31.3430 -31.3361 -31.3278
   -31.3063 -31.3036 -31.3026 -31.2920 -31.2864 -31.2828 -31.2796 -31.2780
   -31.2451 -31.2416 -31.2374 -31.2327 -31.2286 -31.2267 -31.2040 -31.1939
   -31.1772 -31.1405 -30.5921 -30.5553 -30.5322 -30.4506 -30.3893 -30.3228
   -16.7693 -15.7632 -15.6816 -15.5012 -15.3689 -15.2910 -15.2264 -15.2127
   -15.1748 -15.1478 -15.0816 -15.0472 -15.0457 -15.0282 -14.9874 -14.9862
   -14.9581 -14.9466 -14.8733 -14.8081 -14.7981 -14.7182 -14.7131 -14.6821
   -14.6457 -14.6316 -14.6117 -14.5451 -14.5079 -14.4970 -14.1528 -12.7394
   -12.6628  -7.9738  -5.3009  -4.9771  -3.9924  -3.1166  -2.9547  -2.8621
    -2.7745  -2.6567  -2.6356  -2.5528  -2.5375  -2.5204  -2.4625  -2.4498
    -2.4030  -2.3853  -2.3014  -2.2868  -2.2695  -2.2055  -2.1919  -2.1793
    -2.1259  -2.0747  -2.0439  -1.9782  -1.9490  -1.9339  -1.8543  -1.8237
    -1.8103  -1.8093  -1.8001  -1.7514  -1.7307  -1.7107  -1.5486  -1.4732
    -1.4347  -1.4268  -1.3886  -1.3210  -1.2222  -1.0393  -1.0240  -0.9933
    -0.9894  -0.8884  -0.8661  -0.8405  -0.8247  -0.7558  -0.6781  -0.6627
    -0.6411  -0.6149  -0.5676  -0.5240  -0.5202  -0.5002  -0.4640  -0.4373
    -0.4016  -0.3450  -0.3245  -0.3098  -0.2371  -0.1947  -0.1356  -0.0620
    -0.0484  -0.0227   0.0047   0.0469   0.0724   0.1949   0.2397   0.2728
     0.3096   0.4462   0.4727   0.5021   0.5638   0.6549   0.7206   0.7724
     0.8424   0.9551   0.9756   1.0174   1.0997   1.1616   1.2410   1.2593
     1.4002   1.9948   2.0506   2.1601   2.2903   4.0176   4.0377   4.0622
     4.0701   4.1517   4.1996   4.2443   4.2959   4.3640   4.4121   4.4682

          k =-0.0760-0.0839 0.0000 ( 17948 PWs)   bands (ev):

   -55.2403 -55.2400 -55.1925 -55.1925 -55.1225 -55.1216 -55.1138 -55.1006
   -55.0608 -55.0597 -55.0573 -55.0223 -55.0216 -54.9909 -54.2207 -54.2206
   -31.6306 -31.6301 -31.6296 -31.5292 -31.5170 -31.5170 -31.5165 -31.4840
   -31.4838 -31.4655 -31.4583 -31.4527 -31.4482 -31.3975 -31.3928 -31.3907
   -31.3894 -31.3893 -31.3839 -31.3782 -31.3542 -31.3507 -31.3402 -31.3311
   -31.3301 -31.3240 -31.3153 -31.3122 -31.3122 -31.3059 -31.2929 -31.2902
   -31.2853 -31.2728 -31.2702 -31.2535 -31.2520 -31.2480 -31.2028 -31.2025
   -31.1967 -31.1902 -30.5436 -30.5435 -30.4595 -30.4594 -30.4200 -30.4200
   -16.7669 -15.6157 -15.4992 -15.4580 -15.2703 -15.2619 -15.2312 -15.2189
   -15.1527 -15.0678 -15.0413 -15.0311 -15.0175 -14.9660 -14.9596 -14.9545
   -14.9328 -14.8617 -14.8533 -14.8514 -14.8343 -14.7681 -14.7633 -14.7590
   -14.7481 -14.7051 -14.7021 -14.6078 -14.6057 -14.5119 -14.3877 -12.7244
   -12.7244  -7.9735  -5.3014  -4.9838  -4.0020  -2.8002  -2.7732  -2.7262
    -2.7174  -2.7010  -2.4818  -2.4590  -2.4220  -2.3721  -2.3106  -2.2593
    -2.2510  -2.2344  -2.1673  -2.1285  -2.1120  -2.0984  -2.0801  -2.0645
    -2.0501  -2.0246  -1.9821  -1.9746  -1.9535  -1.9331  -1.9032  -1.8948
    -1.8636  -1.8427  -1.8275  -1.8101  -1.6954  -1.6717  -1.6132  -1.5740
    -1.5327  -1.4603  -1.4551  -1.3580  -1.3505  -1.2963  -1.2846  -1.2585
    -1.1655  -1.0665  -1.0044  -0.9977  -0.9914  -0.8651  -0.8270  -0.8026
    -0.7659  -0.7378  -0.6783  -0.6004  -0.5789  -0.5443  -0.4601  -0.4519
    -0.3951  -0.3120  -0.2803  -0.2500  -0.2206  -0.2129  -0.2033  -0.1498
    -0.1433  -0.0723  -0.0222   0.0112   0.0223   0.0563   0.2610   0.2777
     0.3307   0.4289   0.5019   0.6220   0.6796   0.7008   0.7721   0.8124
     0.8562   0.9187   1.0213   1.0515   1.0545   1.1291   1.1608   1.2028
     1.2069   2.1420   2.1424   2.2290   2.2292   3.9845   4.0784   4.1005
     4.1486   4.2399   4.2753   4.3581   4.3762   4.4258   4.4279   4.4955

     the Fermi energy is     3.9035 ev

!    total energy              =   -2940.41289245 Ry
     estimated scf accuracy    <       0.00000004 Ry
     smearing contrib. (-TS)   =      -0.03731453 Ry
     internal energy E=F+TS    =   -2940.37557792 Ry

     The total energy is F=E-TS. E is the sum of the following terms:
     one-electron contribution =  -23551.10095657 Ry
     hartree contribution      =   11868.20509368 Ry
     xc contribution           =    -485.96868118 Ry
     ewald contribution        =    9228.48482177 Ry
     electric field correction =       0.00414439 Ry

     convergence has been achieved in  86 iterations

     Forces acting on atoms (cartesian axes, Ry/au):

     atom    1 type  1   force =    -0.00002527   -0.00018714    0.09328637
     atom    2 type  1   force =    -0.00015408   -0.00022781   -0.17811360
     atom    3 type  2   force =     0.00006515   -0.00020481   -0.02048672
     atom    4 type  2   force =     0.00000460   -0.00195001    0.05847123
     atom    5 type  2   force =    -0.01028538   -0.00134761    0.00735067
     atom    6 type  2   force =     0.01228242   -0.00075048    0.00784483
     atom    7 type  1   force =     0.00036381    0.00277523   -0.01406595
     atom    8 type  1   force =    -0.00056309    0.00107711   -0.00337402
     atom    9 type  2   force =     0.00004057    0.00049222   -0.00008192
     atom   10 type  2   force =    -0.00055158   -0.00103540   -0.00005280
     atom   11 type  2   force =     0.00007109    0.00012067    0.00004364
     atom   12 type  2   force =    -0.00023851    0.00016791   -0.00007169
     atom   13 type  1   force =    -0.00001047    0.00090099   -0.00029475
     atom   14 type  1   force =     0.00009600    0.00025603   -0.00019342
     atom   15 type  2   force =    -0.00013603    0.00010517    0.00095227
     atom   16 type  2   force =     0.00004746    0.00010336   -0.00004272
     atom   17 type  2   force =     0.00026662   -0.00028876    0.00003644
     atom   18 type  2   force =    -0.00021355   -0.00045217   -0.00047401
     atom   19 type  1   force =    -0.00065681   -0.00024516    0.00002336
     atom   20 type  1   force =    -0.00022429    0.00069527    0.00011232
     atom   21 type  2   force =    -0.00001962    0.00000482    0.10388828
     atom   22 type  2   force =    -0.00028435   -0.00067033   -0.00109197
     atom   23 type  2   force =    -0.07045124   -0.00007515   -0.02688143
     atom   24 type  2   force =     0.07028895    0.00035819   -0.02693668
     atom   25 type  1   force =     0.00004210   -0.00005495    0.09291621
     atom   26 type  1   force =    -0.00016338   -0.00018150   -0.17813773
     atom   27 type  2   force =     0.00012500   -0.00033449   -0.01950260
     atom   28 type  2   force =     0.00003126   -0.00168093    0.05804281
     atom   29 type  2   force =    -0.01039937   -0.00124807    0.00692238
     atom   30 type  2   force =     0.01228464   -0.00092138    0.00743347
     atom   31 type  1   force =     0.00033976    0.00516716   -0.01508959
     atom   32 type  1   force =    -0.00045862   -0.00162742   -0.00358566
     atom   33 type  2   force =    -0.00019489   -0.00021144   -0.00020087
     atom   34 type  2   force =     0.00029297   -0.00052634    0.00105927
     atom   35 type  2   force =    -0.00041588    0.00004517    0.00023140
     atom   36 type  2   force =     0.00034957   -0.00003898    0.00029403
     atom   37 type  1   force =    -0.00011648   -0.00043817   -0.00005379
     atom   38 type  1   force =     0.00012374    0.00033549   -0.00030251
     atom   39 type  2   force =    -0.00034789   -0.00042170    0.00114250
     atom   40 type  2   force =     0.00007030    0.00007718   -0.00017563
     atom   41 type  2   force =    -0.00002489    0.00021107   -0.00024400
     atom   42 type  2   force =    -0.00013247   -0.00000767   -0.00037533
     atom   43 type  1   force =    -0.00080675   -0.00014573    0.00014393
     atom   44 type  1   force =     0.00011200    0.00052233    0.00006757
     atom   45 type  2   force =    -0.00001004    0.00000890    0.10387535
     atom   46 type  2   force =    -0.07047615   -0.00005024   -0.02688635
     atom   47 type  2   force =     0.07029953    0.00039375   -0.02695772
     atom   48 type  3   force =     0.00001442   -0.00077524    0.00023069
     atom   49 type  4   force =    -0.00059873    0.00055904   -0.00078542
     atom   50 type  5   force =     0.00008768   -0.00004153    0.00105469
     atom   51 type  3   force =     0.00013128   -0.00166830   -0.02483544
     atom   52 type  5   force =     0.00628139    0.00495280    0.01380970
     atom   53 type  5   force =    -0.00421757   -0.00492853    0.00756340
     atom   54 type  5   force =    -0.00193493    0.00340757    0.00249750

     Total force =     0.367315     Total SCF correction =     0.000655
  @ DRIVER MODE: Message from server: STATUS
  @ DRIVER MODE: Message from server: GETFORCE
  @ DRIVER MODE: Returning v,forces,stress,ensemble 

     Writing output data file ./calc.save/
  @ DRIVER MODE: Message from server: EXIT
  @ DRIVE MODE: Exiting  
 
     init_run     :     17.60s CPU     17.94s WALL (       1 calls)
     electrons    :   2090.08s CPU   2135.13s WALL (       1 calls)
     forces       :      3.69s CPU      3.83s WALL (       1 calls)

     Called by init_run:
     wfcinit      :      7.73s CPU      7.83s WALL (       1 calls)
     potinit      :      8.88s CPU      8.98s WALL (       1 calls)
     hinit0       :      0.48s CPU      0.49s WALL (       1 calls)

     Called by electrons:
     c_bands      :   1746.45s CPU   1768.92s WALL (      86 calls)
     sum_band     :    233.41s CPU    244.22s WALL (      86 calls)
     v_of_rho     :     81.52s CPU     84.48s WALL (      87 calls)
     newd         :     33.29s CPU     42.16s WALL (      87 calls)
     mix_rho      :      3.09s CPU      3.13s WALL (      86 calls)
     vdW_kernel   :      7.57s CPU      7.59s WALL (       1 calls)

     Called by c_bands:
     init_us_2    :     12.06s CPU     12.11s WALL (    1740 calls)
     cegterg      :   1710.02s CPU   1731.85s WALL (     870 calls)

     Called by *egterg:
     cdiaghg      :    219.27s CPU    220.14s WALL (    9010 calls)
     h_psi        :    975.46s CPU    989.50s WALL (    9020 calls)
     s_psi        :    129.63s CPU    130.01s WALL (    9020 calls)
     g_psi        :      3.40s CPU      3.42s WALL (    8140 calls)

     Called by h_psi:
     h_psi:calbec :    120.08s CPU    121.49s WALL (    9020 calls)
     vloc_psi     :    720.98s CPU    727.24s WALL (    9020 calls)
     add_vuspsi   :    130.00s CPU    132.63s WALL (    9020 calls)

     General routines
     calbec       :    159.31s CPU    160.84s WALL (    9920 calls)
     fft          :     43.76s CPU     43.95s WALL (    5481 calls)
     ffts         :      0.26s CPU      0.27s WALL (     173 calls)
     fftw         :    805.34s CPU    812.20s WALL ( 1123064 calls)
     interpolate  :      0.84s CPU      0.84s WALL (      87 calls)
     davcio       :      0.00s CPU      0.16s WALL (      10 calls)
 
     Parallel routines
 
     PWSCF        :  35m11.62s CPU  35m57.55s WALL

 
   This run was terminated on:   2:14:28  24Aug2021            

=------------------------------------------------------------------------------=
   JOB DONE.
=------------------------------------------------------------------------------=
