
     Program PWSCF v.6.7GPU starts on 15Sep2021 at 17: 5:23 

     This program is part of the open-source Quantum ESPRESSO suite
     for quantum simulation of materials; please cite
         "P. Giannozzi et al., J. Phys.:Condens. Matter 21 395502 (2009);
         "P. Giannozzi et al., J. Phys.:Condens. Matter 29 465901 (2017);
         "P. Giannozzi et al., J. Chem. Phys. 152 154105 (2020);
          URL http://www.quantum-espresso.org", 
     in publications or presentations arising from this work. More details at
     http://www.quantum-espresso.org/quote

     Parallel version (MPI), running on    10 processors

     MPI processes distributed on     1 nodes
     R & G space division:  proc/nbgrp/npool/nimage =      10
     Reading input from /storage/home/hcoda1/3/ntian30/research/carbon/CxH_vib/H2O_calc/ads_slab/CH2N2H2O_b/out_0005/pw.inp
Warning: card &CELL ignored
Warning: card   CELL_DYNAMICS='IPI', ignored
Warning: card / ignored

     Current dimensions of program PWSCF are:
     Max number of different atomic species (ntypx) = 10
     Max number of k-points (npk) =  40000
     Max angular momentum in pseudopotentials (lmaxx) =  3
     Presently no symmetry can be used with electric field

     Message from routine cell_base_init:
     DEPRECATED: use true lattice parameter, not A to a.u. conversion factor

     **************************************************************************
     Initializing libbeef V0.1.2 with the BEEF-vdW functional.
     Citation: Wellendorff et al., PRB 85, 235149 (2012).
     **************************************************************************


     IMPORTANT: XC functional enforced from input :
     Exchange-correlation= BEEF-VDW
                           (   1   4  43  14   2   0   0)
     Any further DFT definition will be discarded
     Please, verify this is what you really want


     Subspace diagonalization in iterative solution of the eigenvalue problem:
     one sub-group per band group will be used
     scalapack distributed-memory algorithm (size of sub-group:  3*  3 procs)

  @ DRIVER MODE: Connecting to 
 qe_1139763_2852605.sched-torque.pace.gatech.eduk1wkchm9_scratch
  using UNIX socket
  @ DRIVER MODE: Message from server: STATUS
  @ DRIVER MODE: Message from server: INIT
  @ DRIVER MODE: Receiving replica           0          -1
  @ DRIVER MODE: Receiving encoded integer          25
  @ DRIVER MODE:  SCF:  T  FORCE:  T  STRESS:  F  VC:  F  ENSEMBLE:  F
  @ DRIVER MODE:  SCF:  T  FORCE:  T  STRESS:  F  VC:  F  ENSEMBLE:  F
 
     Parallelization info
     --------------------
     sticks:   dense  smooth     PW     G-vecs:    dense   smooth      PW
     Min         327     131     37                56683    14340    2191
     Max         328     133     38                56694    14346    2206
     Sum        3275    1317    379               566857   143421   21985
 
     Using Slab Decomposition
 


     bravais-lattice index     =            0
     lattice parameter (alat)  =       1.8897  a.u.
     unit-cell volume          =    6658.9804 (a.u.)^3
     number of atoms/cell      =           55
     number of atomic types    =            5
     number of electrons       =       402.00
     number of Kohn-Sham states=          211
     kinetic-energy cutoff     =      29.3995  Ry
     charge density cutoff     =     293.9946  Ry
     scf convergence threshold =      7.3E-08
     mixing beta               =       0.0500
     number of iterations used =            8  plain     mixing
     Exchange-correlation= BEEF-VDW
                           (   1   4  43  14   2   0   0)

     celldm(1)=   1.889726  celldm(2)=   0.000000  celldm(3)=   0.000000
     celldm(4)=   0.000000  celldm(5)=   0.000000  celldm(6)=   0.000000

     crystal axes: (cart. coord. in units of alat)
               a(1) = (   6.579727   0.000000   0.000000 )  
               a(2) = (  -0.000775   5.961596   0.000000 )  
               a(3) = (   0.000000   0.000000  25.155947 )  

     reciprocal axes: (cart. coord. in units 2 pi/alat)
               b(1) = (  0.151982  0.000020  0.000000 )  
               b(2) = (  0.000000  0.167740  0.000000 )  
               b(3) = (  0.000000  0.000000  0.039752 )  


     PseudoPot. # 1 for Ti read from file:
     /storage/coda1/p-amedford6/0/shared/rich_project_chbe-medford/medford-share/data/pseudos_module/espresso/nninc/pbe/van/Ti.UPF
     MD5 check sum: 8e4df49b7f0d34bbd5052bf3f5ea0213
     Pseudo is Ultrasoft, Zval = 12.0
     Generated by new atomic code, or converted to UPF format
     Using radial grid of  851 points,  6 beta functions with: 
                l(1) =   0
                l(2) =   0
                l(3) =   1
                l(4) =   1
                l(5) =   2
                l(6) =   2
     Q(r) pseudized with  8 coefficients,  rinner =    1.000   1.000   1.000
                                                       1.000   1.000

     PseudoPot. # 2 for O  read from file:
     /storage/coda1/p-amedford6/0/shared/rich_project_chbe-medford/medford-share/data/pseudos_module/espresso/nninc/pbe/van/O.UPF
     MD5 check sum: 78c19812648e8988a0fe644b0f25305e
     Pseudo is Ultrasoft, Zval =  6.0
     Generated by new atomic code, or converted to UPF format
     Using radial grid of  737 points,  4 beta functions with: 
                l(1) =   0
                l(2) =   0
                l(3) =   1
                l(4) =   1
     Q(r) pseudized with  8 coefficients,  rinner =    0.800   0.800   0.800


     PseudoPot. # 3 for N  read from file:
     /storage/coda1/p-amedford6/0/shared/rich_project_chbe-medford/medford-share/data/pseudos_module/espresso/nninc/pbe/van/N.UPF
     MD5 check sum: 90d10febe142ad51ac9d5be1deb811c4
     Pseudo is Ultrasoft, Zval =  5.0
     Generated by new atomic code, or converted to UPF format
     Using radial grid of  729 points,  4 beta functions with: 
                l(1) =   0
                l(2) =   0
                l(3) =   1
                l(4) =   1
     Q(r) pseudized with  8 coefficients,  rinner =    0.800   0.800   0.800


     PseudoPot. # 4 for C  read from file:
     /storage/coda1/p-amedford6/0/shared/rich_project_chbe-medford/medford-share/data/pseudos_module/espresso/nninc/pbe/van/C.UPF
     MD5 check sum: 1a69bf6b8db32088f5b2163dbdb77a27
     Pseudo is Ultrasoft, Zval =  4.0
     Generated by new atomic code, or converted to UPF format
     Using radial grid of  721 points,  4 beta functions with: 
                l(1) =   0
                l(2) =   0
                l(3) =   1
                l(4) =   1
     Q(r) pseudized with  8 coefficients,  rinner =    0.800   0.800   0.800


     PseudoPot. # 5 for H  read from file:
     /storage/coda1/p-amedford6/0/shared/rich_project_chbe-medford/medford-share/data/pseudos_module/espresso/nninc/pbe/van/H.UPF
     MD5 check sum: b5ee9d7bfd3a09ee7748110bda690ff7
     Pseudo is Ultrasoft, Zval =  1.0
     Generated by new atomic code, or converted to UPF format
     Using radial grid of  615 points,  1 beta functions with: 
                l(1) =   0
     Q(r) pseudized with  8 coefficients,  rinner =    0.800

     atomic species   valence    mass     pseudopotential
        Ti1           12.00    47.86700     Ti( 1.00)
        O1             6.00    15.99900     O ( 1.00)
        N1             5.00    14.00700     N ( 1.00)
        C1             4.00    12.01100     C ( 1.00)
        H1             1.00     1.00800     H ( 1.00)

     No symmetry found



   Cartesian axes

     site n.     atom                  positions (alat units)
         1           Ti1 tau(   1) = (   0.0004258   2.9801865   6.0000000  )
         2           Ti1 tau(   2) = (   3.2906075   1.4906267   6.0002472  )
         3           O1  tau(   3) = (   0.0006271   0.0005054   7.9858123  )
         4           O1  tau(   4) = (   3.2906025   0.0005020   7.3038282  )
         5           O1  tau(   5) = (   4.5942328   1.4918067   9.2879030  )
         6           O1  tau(   6) = (   1.9868534   1.4903216   9.2879459  )
         7           Ti1 tau(   7) = (   3.2907910   2.8959150   9.1758416  )
         8           Ti1 tau(   8) = (   0.0015273   1.4827037   9.2680791  )
         9           O1  tau(   9) = (   3.2934429   5.9466490  11.3040654  )
        10           O1  tau(  10) = (   0.0116148   5.9584955  10.6183126  )
        11           O1  tau(  11) = (   1.2867109   1.4782735  12.6190062  )
        12           O1  tau(  12) = (   5.2776945   1.4764076  12.5976694  )
        13           Ti1 tau(  13) = (   0.0846880   2.9559742  12.7004455  )
        14           Ti1 tau(  14) = (   3.4192946   1.4610250  12.4797112  )
        15           O1  tau(  15) = (   0.0040618   5.9510889  14.6015872  )
        16           O1  tau(  16) = (   3.2972055   5.9566395  13.8969661  )
        17           O1  tau(  17) = (   4.5327346   1.5242580  16.0225792  )
        18           O1  tau(  18) = (   2.0474321   1.5095568  15.9818283  )
        19           Ti1 tau(  19) = (   3.2830006   2.9631064  15.6531525  )
        20           Ti1 tau(  20) = (   6.5418150   1.5417905  15.9635021  )
        21           O1  tau(  21) = (   3.2904802   0.0005063   4.7018136  )
        22           O1  tau(  22) = (   0.0063621   0.0138944  17.1794403  )
        23           O1  tau(  23) = (   1.3043587   1.4918075   6.0039043  )
        24           O1  tau(  24) = (   5.2767064   1.4903225   6.0039473  )
        25           Ti1 tau(  25) = (   0.0000382   5.9609847   6.0000000  )
        26           Ti1 tau(  26) = (   3.2902200   4.4714249   6.0002472  )
        27           O1  tau(  27) = (   0.0002396   2.9813036   7.9858123  )
        28           O1  tau(  28) = (   3.2902150   2.9813002   7.3038282  )
        29           O1  tau(  29) = (   4.5938453   4.4726049   9.2879030  )
        30           O1  tau(  30) = (   1.9864658   4.4711199   9.2879459  )
        31           Ti1 tau(  31) = (   3.2891106   5.8743827   9.1763621  )
        32           Ti1 tau(  32) = (   0.0006254   4.4649316   9.2693709  )
        33           O1  tau(  33) = (   3.2987291   2.9703105  11.3060640  )
        34           O1  tau(  34) = (   0.0092240   2.9805883  10.6323155  )
        35           O1  tau(  35) = (   1.2872851   4.4534926  12.6272766  )
        36           O1  tau(  36) = (   5.2800973   4.4624318  12.6062822  )
        37           Ti1 tau(  37) = (   0.1009857   5.9355968  12.6779778  )
        38           Ti1 tau(  38) = (   3.4194502   4.4581092  12.4739500  )
        39           O1  tau(  39) = (   6.5579784   2.9468049  14.6267102  )
        40           O1  tau(  40) = (   3.2950467   2.9662764  13.8528306  )
        41           O1  tau(  41) = (   4.5369278   4.4531499  15.9976687  )
        42           O1  tau(  42) = (   2.0426393   4.4597293  15.9709435  )
        43           Ti1 tau(  43) = (   3.2485613   5.9322867  15.7552632  )
        44           Ti1 tau(  44) = (   6.5504849   4.5932964  16.0494500  )
        45           O1  tau(  45) = (   3.2900926   2.9813045   4.7018136  )
        46           O1  tau(  46) = (   1.3039711   4.4726057   6.0039043  )
        47           O1  tau(  47) = (   5.2763189   4.4711207   6.0039473  )
        48           N1  tau(  48) = (   0.6156314   2.9572148  18.5016157  )
        49           N1  tau(  49) = (   0.0870375   2.9660652  17.3203775  )
        50           C1  tau(  50) = (   6.5561155   3.1780822  19.6039678  )
        51           H1  tau(  51) = (   5.4868456   3.3930584  19.6151425  )
        52           H1  tau(  52) = (   0.5344647   3.1546629  20.5288580  )
        53           O1  tau(  53) = (   3.2552377   5.9566958  18.1335742  )
        54           H1  tau(  54) = (   4.0211122   0.5273114  18.4085372  )
        55           H1  tau(  55) = (   2.4596908   0.4732500  18.4230009  )

     number of k points=    10  Fermi-Dirac smearing, width (Ry)=  0.0073
                       cart. coord. in units 2pi/alat
        k(    1) = (   0.0000000   0.0000000   0.0000000), wk =   0.1250000
        k(    2) = (   0.0000000   0.0419351   0.0000000), wk =   0.2500000
        k(    3) = (   0.0000000  -0.0838702   0.0000000), wk =   0.1250000
        k(    4) = (   0.0379955   0.0000049   0.0000000), wk =   0.2500000
        k(    5) = (   0.0379955   0.0419400   0.0000000), wk =   0.2500000
        k(    6) = (   0.0379955  -0.0838652   0.0000000), wk =   0.2500000
        k(    7) = (   0.0379955  -0.0419301   0.0000000), wk =   0.2500000
        k(    8) = (  -0.0759910  -0.0000099   0.0000000), wk =   0.1250000
        k(    9) = (  -0.0759910   0.0419252   0.0000000), wk =   0.2500000
        k(   10) = (  -0.0759910  -0.0838800   0.0000000), wk =   0.1250000

     Dense  grid:   566857 G-vectors     FFT dimensions: (  72,  64, 270)

     Smooth grid:   143421 G-vectors     FFT dimensions: (  45,  40, 180)

     Estimated max dynamical RAM per process >     367.45 MB

     Estimated total dynamical RAM >       3.59 GB
     Cannot read rho : file not found

     Initial potential from superposition of free atoms

     starting charge  385.99915, renormalised to  402.00000

     negative rho (up, down):  1.463E-02 0.000E+00


     %%%%%%%%%%%%%%%%%%%%%%%%%%%%%%%%%%%%%%%%%%%%%%%%%%%%%%%%%%%%%%%%%%%%%%%%
     %                                                                      %
     % You are using vdW-DF, which was implemented by the Thonhauser group. %
     % Please cite the following two papers that made this development      %
     % possible and the two reviews that describe the various versions:     %
     %                                                                      %
     %   T. Thonhauser et al., PRL 115, 136402 (2015).                      %
     %   T. Thonhauser et al., PRB 76, 125112 (2007).                       %
     %   K. Berland et al., Rep. Prog. Phys. 78, 066501 (2015).             %
     %   D.C. Langreth et al., J. Phys.: Condens. Matter 21, 084203 (2009). %
     %                                                                      %
     %                                                                      %
     % If you are calculating the stress with vdW-DF, please also cite:     %
     %                                                                      %
     %   R. Sabatini et al., J. Phys.: Condens. Matter 24, 424209 (2012).   %
     %                                                                      %
     %%%%%%%%%%%%%%%%%%%%%%%%%%%%%%%%%%%%%%%%%%%%%%%%%%%%%%%%%%%%%%%%%%%%%%%%


 
     Adding external electric field

     Computed dipole along edir(3) : 
        Dipole              -11.9569 Ry au,        -30.3914 Debye
        Dipole field         -0.0226 Ry au, 
 
        Potential amp.        2.0917 Ry
        Total length         46.3494 bohr
 
     Starting wfcs are  304 atomic wfcs
  @ DRIVER MODE: Message from server: STATUS
  @ DRIVER MODE: Message from server: POSDATA
  @ DRIVER MODE: Reading and sharing cell 
  @ DRIVER MODE: Reading and sharing positions 
  @ DRIVER MODE: Received positions 

     total cpu time spent up to now is       11.9 secs

     Self-consistent Calculation

     iteration #  1     ecut=    29.40 Ry     beta= 0.05
     Davidson diagonalization with overlap
     c_bands:  3 eigenvalues not converged
     c_bands:  3 eigenvalues not converged
     c_bands:  5 eigenvalues not converged
     c_bands:  3 eigenvalues not converged
     c_bands:  3 eigenvalues not converged
     c_bands:  2 eigenvalues not converged
     c_bands:  4 eigenvalues not converged
     c_bands:  4 eigenvalues not converged
     c_bands:  3 eigenvalues not converged
     ethr =  1.00E-05,  avg # of iterations = 21.6

     negative rho (up, down):  9.693E-03 0.000E+00
 
     Adding external electric field

     Computed dipole along edir(3) : 
        Dipole               50.6958 Ry au,        128.8558 Debye
        Dipole field          0.0957 Ry au, 
 
        Potential amp.       -8.8685 Ry
        Total length         46.3494 bohr
 

     total cpu time spent up to now is       55.1 secs

     total energy              =   -2415.35867024 Ry
     estimated scf accuracy    <    6283.80421569 Ry

     iteration #  2     ecut=    29.40 Ry     beta= 0.05
     Davidson diagonalization with overlap
     ethr =  1.00E-02,  avg # of iterations = 23.5

     negative rho (up, down):  1.018E-03 0.000E+00
 
     Adding external electric field

     Computed dipole along edir(3) : 
        Dipole               -1.4722 Ry au,         -3.7418 Debye
        Dipole field         -0.0028 Ry au, 
 
        Potential amp.        0.2575 Ry
        Total length         46.3494 bohr
 

     total cpu time spent up to now is      133.5 secs

     total energy              =   -2464.81455622 Ry
     estimated scf accuracy    <   71537.95126575 Ry

     iteration #  3     ecut=    29.40 Ry     beta= 0.05
     Davidson diagonalization with overlap
     ethr =  1.00E-02,  avg # of iterations = 16.0

     negative rho (up, down):  1.084E-03 0.000E+00
 
     Adding external electric field

     Computed dipole along edir(3) : 
        Dipole               -4.1501 Ry au,        -10.5484 Debye
        Dipole field         -0.0078 Ry au, 
 
        Potential amp.        0.7260 Ry
        Total length         46.3494 bohr
 

     total cpu time spent up to now is      184.1 secs

     total energy              =   -2960.85608405 Ry
     estimated scf accuracy    <    5380.62542721 Ry

     iteration #  4     ecut=    29.40 Ry     beta= 0.05
     Davidson diagonalization with overlap
     ethr =  1.00E-02,  avg # of iterations = 11.6

     negative rho (up, down):  1.122E-03 0.000E+00
 
     Adding external electric field

     Computed dipole along edir(3) : 
        Dipole               -5.8993 Ry au,        -14.9944 Debye
        Dipole field         -0.0111 Ry au, 
 
        Potential amp.        1.0320 Ry
        Total length         46.3494 bohr
 

     total cpu time spent up to now is      204.3 secs

     total energy              =   -2959.24192597 Ry
     estimated scf accuracy    <    2014.05572354 Ry

     iteration #  5     ecut=    29.40 Ry     beta= 0.05
     Davidson diagonalization with overlap
     c_bands:  2 eigenvalues not converged
     ethr =  1.00E-02,  avg # of iterations =  8.3

     negative rho (up, down):  1.201E-03 0.000E+00
 
     Adding external electric field

     Computed dipole along edir(3) : 
        Dipole               -7.3508 Ry au,        -18.6839 Debye
        Dipole field         -0.0139 Ry au, 
 
        Potential amp.        1.2859 Ry
        Total length         46.3494 bohr
 

     total cpu time spent up to now is      218.4 secs

     total energy              =   -2952.50016600 Ry
     estimated scf accuracy    <    1095.91945449 Ry

     iteration #  6     ecut=    29.40 Ry     beta= 0.05
     Davidson diagonalization with overlap
     ethr =  1.00E-02,  avg # of iterations =  9.9

     negative rho (up, down):  1.159E-03 0.000E+00
 
     Adding external electric field

     Computed dipole along edir(3) : 
        Dipole               -6.4247 Ry au,        -16.3300 Debye
        Dipole field         -0.0121 Ry au, 
 
        Potential amp.        1.1239 Ry
        Total length         46.3494 bohr
 

     total cpu time spent up to now is      238.8 secs

     total energy              =   -2976.55260521 Ry
     estimated scf accuracy    <      38.07206283 Ry

     iteration #  7     ecut=    29.40 Ry     beta= 0.05
     Davidson diagonalization with overlap
     ethr =  9.47E-03,  avg # of iterations =  1.1

     negative rho (up, down):  1.205E-03 0.000E+00
 
     Adding external electric field

     Computed dipole along edir(3) : 
        Dipole               -5.4835 Ry au,        -13.9376 Debye
        Dipole field         -0.0103 Ry au, 
 
        Potential amp.        0.9593 Ry
        Total length         46.3494 bohr
 

     total cpu time spent up to now is      249.3 secs

     total energy              =   -2975.71465200 Ry
     estimated scf accuracy    <      22.08968896 Ry

     iteration #  8     ecut=    29.40 Ry     beta= 0.05
     Davidson diagonalization with overlap
     ethr =  5.49E-03,  avg # of iterations =  1.0

     negative rho (up, down):  1.247E-03 0.000E+00
 
     Adding external electric field

     Computed dipole along edir(3) : 
        Dipole               -4.5594 Ry au,        -11.5887 Debye
        Dipole field         -0.0086 Ry au, 
 
        Potential amp.        0.7976 Ry
        Total length         46.3494 bohr
 

     total cpu time spent up to now is      259.3 secs

     total energy              =   -2975.29336273 Ry
     estimated scf accuracy    <      17.11241003 Ry

     iteration #  9     ecut=    29.40 Ry     beta= 0.05
     Davidson diagonalization with overlap
     ethr =  4.26E-03,  avg # of iterations =  1.1

     negative rho (up, down):  2.267E-03 0.000E+00
 
     Adding external electric field

     Computed dipole along edir(3) : 
        Dipole                3.1008 Ry au,          7.8815 Debye
        Dipole field          0.0059 Ry au, 
 
        Potential amp.       -0.5424 Ry
        Total length         46.3494 bohr
 

     total cpu time spent up to now is      269.4 secs

     total energy              =   -2973.44705933 Ry
     estimated scf accuracy    <      14.67430624 Ry

     iteration # 10     ecut=    29.40 Ry     beta= 0.05
     Davidson diagonalization with overlap
     ethr =  3.65E-03,  avg # of iterations = 11.9

     negative rho (up, down):  6.265E-03 0.000E+00
 
     Adding external electric field

     Computed dipole along edir(3) : 
        Dipole                6.1340 Ry au,         15.5912 Debye
        Dipole field          0.0116 Ry au, 
 
        Potential amp.       -1.0731 Ry
        Total length         46.3494 bohr
 

     total cpu time spent up to now is      292.9 secs

     total energy              =   -3059.79543538 Ry
     estimated scf accuracy    <    4783.39997957 Ry

     iteration # 11     ecut=    29.40 Ry     beta= 0.05
     Davidson diagonalization with overlap
     ethr =  3.65E-03,  avg # of iterations =  7.3

     negative rho (up, down):  4.365E-03 0.000E+00
 
     Adding external electric field

     Computed dipole along edir(3) : 
        Dipole                4.1688 Ry au,         10.5959 Debye
        Dipole field          0.0079 Ry au, 
 
        Potential amp.       -0.7293 Ry
        Total length         46.3494 bohr
 

     total cpu time spent up to now is      305.4 secs

     total energy              =   -3023.01073548 Ry
     estimated scf accuracy    <    5884.24963772 Ry

     iteration # 12     ecut=    29.40 Ry     beta= 0.05
     Davidson diagonalization with overlap
     ethr =  3.65E-03,  avg # of iterations =  3.3

     negative rho (up, down):  4.763E-03 0.000E+00
 
     Adding external electric field

     Computed dipole along edir(3) : 
        Dipole                4.4327 Ry au,         11.2668 Debye
        Dipole field          0.0084 Ry au, 
 
        Potential amp.       -0.7754 Ry
        Total length         46.3494 bohr
 

     total cpu time spent up to now is      316.5 secs

     total energy              =   -3026.90500552 Ry
     estimated scf accuracy    <    4546.77212865 Ry

     iteration # 13     ecut=    29.40 Ry     beta= 0.05
     Davidson diagonalization with overlap
     ethr =  3.65E-03,  avg # of iterations =  1.6

     negative rho (up, down):  3.790E-03 0.000E+00
 
     Adding external electric field

     Computed dipole along edir(3) : 
        Dipole                2.1258 Ry au,          5.4033 Debye
        Dipole field          0.0040 Ry au, 
 
        Potential amp.       -0.3719 Ry
        Total length         46.3494 bohr
 

     total cpu time spent up to now is      326.8 secs

     total energy              =   -2985.94258534 Ry
     estimated scf accuracy    <    4705.89853483 Ry

     iteration # 14     ecut=    29.40 Ry     beta= 0.05
     Davidson diagonalization with overlap
     ethr =  3.65E-03,  avg # of iterations = 12.0

     negative rho (up, down):  3.049E-03 0.000E+00
 
     Adding external electric field

     Computed dipole along edir(3) : 
        Dipole                0.5973 Ry au,          1.5181 Debye
        Dipole field          0.0011 Ry au, 
 
        Potential amp.       -0.1045 Ry
        Total length         46.3494 bohr
 

     total cpu time spent up to now is      345.4 secs

     total energy              =   -2975.22163189 Ry
     estimated scf accuracy    <    2385.39502222 Ry

     iteration # 15     ecut=    29.40 Ry     beta= 0.05
     Davidson diagonalization with overlap
     c_bands:  2 eigenvalues not converged
     c_bands:  1 eigenvalues not converged
     ethr =  3.65E-03,  avg # of iterations = 20.1

     negative rho (up, down):  2.556E-03 0.000E+00
 
     Adding external electric field

     Computed dipole along edir(3) : 
        Dipole               -0.6873 Ry au,         -1.7469 Debye
        Dipole field         -0.0013 Ry au, 
 
        Potential amp.        0.1202 Ry
        Total length         46.3494 bohr
 

     total cpu time spent up to now is      367.9 secs

     total energy              =   -2971.87527185 Ry
     estimated scf accuracy    <     762.85146900 Ry

     iteration # 16     ecut=    29.40 Ry     beta= 0.05
     Davidson diagonalization with overlap
     ethr =  3.65E-03,  avg # of iterations =  9.8

     negative rho (up, down):  2.155E-03 0.000E+00
 
     Adding external electric field

     Computed dipole along edir(3) : 
        Dipole               -0.8822 Ry au,         -2.2423 Debye
        Dipole field         -0.0017 Ry au, 
 
        Potential amp.        0.1543 Ry
        Total length         46.3494 bohr
 

     total cpu time spent up to now is      381.9 secs

     total energy              =   -2972.98490728 Ry
     estimated scf accuracy    <     279.01639994 Ry

     iteration # 17     ecut=    29.40 Ry     beta= 0.05
     Davidson diagonalization with overlap
     ethr =  3.65E-03,  avg # of iterations =  3.1

     negative rho (up, down):  2.021E-03 0.000E+00
 
     Adding external electric field

     Computed dipole along edir(3) : 
        Dipole               -2.0619 Ry au,         -5.2409 Debye
        Dipole field         -0.0039 Ry au, 
 
        Potential amp.        0.3607 Ry
        Total length         46.3494 bohr
 

     total cpu time spent up to now is      393.2 secs

     total energy              =   -2969.01091760 Ry
     estimated scf accuracy    <     315.20465977 Ry

     iteration # 18     ecut=    29.40 Ry     beta= 0.05
     Davidson diagonalization with overlap
     c_bands:  4 eigenvalues not converged
     c_bands:  2 eigenvalues not converged
     c_bands:  4 eigenvalues not converged
     ethr =  3.65E-03,  avg # of iterations = 17.3

     negative rho (up, down):  1.903E-03 0.000E+00
 
     Adding external electric field

     Computed dipole along edir(3) : 
        Dipole               -2.5283 Ry au,         -6.4263 Debye
        Dipole field         -0.0048 Ry au, 
 
        Potential amp.        0.4423 Ry
        Total length         46.3494 bohr
 

     total cpu time spent up to now is      411.7 secs

     total energy              =   -2972.36624350 Ry
     estimated scf accuracy    <      11.97112346 Ry

     iteration # 19     ecut=    29.40 Ry     beta= 0.05
     Davidson diagonalization with overlap
     ethr =  2.98E-03,  avg # of iterations =  3.8

     negative rho (up, down):  1.953E-03 0.000E+00
 
     Adding external electric field

     Computed dipole along edir(3) : 
        Dipole               -2.6246 Ry au,         -6.6710 Debye
        Dipole field         -0.0050 Ry au, 
 
        Potential amp.        0.4591 Ry
        Total length         46.3494 bohr
 

     total cpu time spent up to now is      423.8 secs

     total energy              =   -2972.90350100 Ry
     estimated scf accuracy    <       4.52650871 Ry

     iteration # 20     ecut=    29.40 Ry     beta= 0.05
     Davidson diagonalization with overlap
     ethr =  1.13E-03,  avg # of iterations =  9.6

     negative rho (up, down):  1.974E-03 0.000E+00
 
     Adding external electric field

     Computed dipole along edir(3) : 
        Dipole               -2.5261 Ry au,         -6.4207 Debye
        Dipole field         -0.0048 Ry au, 
 
        Potential amp.        0.4419 Ry
        Total length         46.3494 bohr
 

     total cpu time spent up to now is      437.7 secs

     total energy              =   -2973.08902523 Ry
     estimated scf accuracy    <       9.27485775 Ry

     iteration # 21     ecut=    29.40 Ry     beta= 0.05
     Davidson diagonalization with overlap
     ethr =  1.13E-03,  avg # of iterations =  1.4

     negative rho (up, down):  2.124E-03 0.000E+00
 
     Adding external electric field

     Computed dipole along edir(3) : 
        Dipole               -2.3467 Ry au,         -5.9648 Debye
        Dipole field         -0.0044 Ry au, 
 
        Potential amp.        0.4105 Ry
        Total length         46.3494 bohr
 

     total cpu time spent up to now is      448.0 secs

     total energy              =   -2973.09742851 Ry
     estimated scf accuracy    <       5.62182013 Ry

     iteration # 22     ecut=    29.40 Ry     beta= 0.05
     Davidson diagonalization with overlap
     ethr =  1.13E-03,  avg # of iterations =  1.7

     negative rho (up, down):  3.083E-03 0.000E+00
 
     Adding external electric field

     Computed dipole along edir(3) : 
        Dipole               -1.3186 Ry au,         -3.3517 Debye
        Dipole field         -0.0025 Ry au, 
 
        Potential amp.        0.2307 Ry
        Total length         46.3494 bohr
 

     total cpu time spent up to now is      459.1 secs

     total energy              =   -2972.94423460 Ry
     estimated scf accuracy    <       7.86161356 Ry

     iteration # 23     ecut=    29.40 Ry     beta= 0.05
     Davidson diagonalization with overlap
     ethr =  1.13E-03,  avg # of iterations = 10.1

     negative rho (up, down):  3.177E-03 0.000E+00
 
     Adding external electric field

     Computed dipole along edir(3) : 
        Dipole               -1.2383 Ry au,         -3.1473 Debye
        Dipole field         -0.0023 Ry au, 
 
        Potential amp.        0.2166 Ry
        Total length         46.3494 bohr
 

     total cpu time spent up to now is      472.1 secs

     total energy              =   -2973.18696632 Ry
     estimated scf accuracy    <      21.58841168 Ry

     iteration # 24     ecut=    29.40 Ry     beta= 0.05
     Davidson diagonalization with overlap
     ethr =  1.13E-03,  avg # of iterations =  1.5

     negative rho (up, down):  3.203E-03 0.000E+00
 
     Adding external electric field

     Computed dipole along edir(3) : 
        Dipole               -1.3216 Ry au,         -3.3592 Debye
        Dipole field         -0.0025 Ry au, 
 
        Potential amp.        0.2312 Ry
        Total length         46.3494 bohr
 

     total cpu time spent up to now is      482.6 secs

     total energy              =   -2973.21236314 Ry
     estimated scf accuracy    <      31.01539545 Ry

     iteration # 25     ecut=    29.40 Ry     beta= 0.05
     Davidson diagonalization with overlap
     ethr =  1.13E-03,  avg # of iterations =  3.0

     negative rho (up, down):  2.851E-03 0.000E+00
 
     Adding external electric field

     Computed dipole along edir(3) : 
        Dipole               -1.4368 Ry au,         -3.6519 Debye
        Dipole field         -0.0027 Ry au, 
 
        Potential amp.        0.2513 Ry
        Total length         46.3494 bohr
 

     total cpu time spent up to now is      493.6 secs

     total energy              =   -2972.97534491 Ry
     estimated scf accuracy    <      34.69691590 Ry

     iteration # 26     ecut=    29.40 Ry     beta= 0.05
     Davidson diagonalization with overlap
     ethr =  1.13E-03,  avg # of iterations =  1.2

     negative rho (up, down):  3.078E-03 0.000E+00
 
     Adding external electric field

     Computed dipole along edir(3) : 
        Dipole               -1.0950 Ry au,         -2.7832 Debye
        Dipole field         -0.0021 Ry au, 
 
        Potential amp.        0.1916 Ry
        Total length         46.3494 bohr
 

     total cpu time spent up to now is      503.8 secs

     total energy              =   -2972.85504796 Ry
     estimated scf accuracy    <       6.59000620 Ry

     iteration # 27     ecut=    29.40 Ry     beta= 0.05
     Davidson diagonalization with overlap
     ethr =  1.13E-03,  avg # of iterations =  1.0

     negative rho (up, down):  3.452E-03 0.000E+00
 
     Adding external electric field

     Computed dipole along edir(3) : 
        Dipole               -0.4401 Ry au,         -1.1187 Debye
        Dipole field         -0.0008 Ry au, 
 
        Potential amp.        0.0770 Ry
        Total length         46.3494 bohr
 

     total cpu time spent up to now is      514.3 secs

     total energy              =   -2972.70581967 Ry
     estimated scf accuracy    <       6.50514058 Ry

     iteration # 28     ecut=    29.40 Ry     beta= 0.05
     Davidson diagonalization with overlap
     ethr =  1.13E-03,  avg # of iterations =  3.5

     negative rho (up, down):  3.235E-03 0.000E+00
 
     Adding external electric field

     Computed dipole along edir(3) : 
        Dipole               -0.7493 Ry au,         -1.9045 Debye
        Dipole field         -0.0014 Ry au, 
 
        Potential amp.        0.1311 Ry
        Total length         46.3494 bohr
 

     total cpu time spent up to now is      525.7 secs

     total energy              =   -2972.76930300 Ry
     estimated scf accuracy    <       2.24494954 Ry

     iteration # 29     ecut=    29.40 Ry     beta= 0.05
     Davidson diagonalization with overlap
     ethr =  5.58E-04,  avg # of iterations =  1.7

     negative rho (up, down):  3.543E-03 0.000E+00
 
     Adding external electric field

     Computed dipole along edir(3) : 
        Dipole               -0.5364 Ry au,         -1.3633 Debye
        Dipole field         -0.0010 Ry au, 
 
        Potential amp.        0.0938 Ry
        Total length         46.3494 bohr
 

     total cpu time spent up to now is      536.4 secs

     total energy              =   -2972.80282088 Ry
     estimated scf accuracy    <       1.47296330 Ry

     iteration # 30     ecut=    29.40 Ry     beta= 0.05
     Davidson diagonalization with overlap
     ethr =  3.66E-04,  avg # of iterations =  1.0

     negative rho (up, down):  3.912E-03 0.000E+00
 
     Adding external electric field

     Computed dipole along edir(3) : 
        Dipole               -0.3008 Ry au,         -0.7646 Debye
        Dipole field         -0.0006 Ry au, 
 
        Potential amp.        0.0526 Ry
        Total length         46.3494 bohr
 

     total cpu time spent up to now is      546.7 secs

     total energy              =   -2972.79276640 Ry
     estimated scf accuracy    <       1.93553435 Ry

     iteration # 31     ecut=    29.40 Ry     beta= 0.05
     Davidson diagonalization with overlap
     ethr =  3.66E-04,  avg # of iterations =  1.1

     negative rho (up, down):  4.936E-03 0.000E+00
 
     Adding external electric field

     Computed dipole along edir(3) : 
        Dipole                0.1293 Ry au,          0.3287 Debye
        Dipole field          0.0002 Ry au, 
 
        Potential amp.       -0.0226 Ry
        Total length         46.3494 bohr
 

     total cpu time spent up to now is      556.7 secs

     total energy              =   -2972.78265193 Ry
     estimated scf accuracy    <       1.08701745 Ry

     iteration # 32     ecut=    29.40 Ry     beta= 0.05
     Davidson diagonalization with overlap
     ethr =  2.70E-04,  avg # of iterations = 10.2

     negative rho (up, down):  5.044E-03 0.000E+00
 
     Adding external electric field

     Computed dipole along edir(3) : 
        Dipole                0.0269 Ry au,          0.0683 Debye
        Dipole field          0.0001 Ry au, 
 
        Potential amp.       -0.0047 Ry
        Total length         46.3494 bohr
 

     total cpu time spent up to now is      570.3 secs

     total energy              =   -2972.75190950 Ry
     estimated scf accuracy    <       2.11648965 Ry

     iteration # 33     ecut=    29.40 Ry     beta= 0.05
     Davidson diagonalization with overlap
     ethr =  2.70E-04,  avg # of iterations =  1.4

     negative rho (up, down):  4.733E-03 0.000E+00
 
     Adding external electric field

     Computed dipole along edir(3) : 
        Dipole               -0.1291 Ry au,         -0.3282 Debye
        Dipole field         -0.0002 Ry au, 
 
        Potential amp.        0.0226 Ry
        Total length         46.3494 bohr
 

     total cpu time spent up to now is      580.6 secs

     total energy              =   -2972.75702522 Ry
     estimated scf accuracy    <       0.83184302 Ry

     iteration # 34     ecut=    29.40 Ry     beta= 0.05
     Davidson diagonalization with overlap
     ethr =  2.07E-04,  avg # of iterations =  3.5

     negative rho (up, down):  4.984E-03 0.000E+00
 
     Adding external electric field

     Computed dipole along edir(3) : 
        Dipole                0.0541 Ry au,          0.1376 Debye
        Dipole field          0.0001 Ry au, 
 
        Potential amp.       -0.0095 Ry
        Total length         46.3494 bohr
 

     total cpu time spent up to now is      591.7 secs

     total energy              =   -2972.75202160 Ry
     estimated scf accuracy    <       0.64013213 Ry

     iteration # 35     ecut=    29.40 Ry     beta= 0.05
     Davidson diagonalization with overlap
     ethr =  1.59E-04,  avg # of iterations =  2.8

     negative rho (up, down):  4.907E-03 0.000E+00
 
     Adding external electric field

     Computed dipole along edir(3) : 
        Dipole                0.0665 Ry au,          0.1690 Debye
        Dipole field          0.0001 Ry au, 
 
        Potential amp.       -0.0116 Ry
        Total length         46.3494 bohr
 

     total cpu time spent up to now is      602.7 secs

     total energy              =   -2972.72882819 Ry
     estimated scf accuracy    <       1.00959004 Ry

     iteration # 36     ecut=    29.40 Ry     beta= 0.05
     Davidson diagonalization with overlap
     ethr =  1.59E-04,  avg # of iterations =  6.0

     negative rho (up, down):  5.109E-03 0.000E+00
 
     Adding external electric field

     Computed dipole along edir(3) : 
        Dipole                0.1996 Ry au,          0.5074 Debye
        Dipole field          0.0004 Ry au, 
 
        Potential amp.       -0.0349 Ry
        Total length         46.3494 bohr
 

     total cpu time spent up to now is      614.8 secs

     total energy              =   -2972.71664188 Ry
     estimated scf accuracy    <       0.12972757 Ry

     iteration # 37     ecut=    29.40 Ry     beta= 0.05
     Davidson diagonalization with overlap
     c_bands:  3 eigenvalues not converged
     c_bands:  3 eigenvalues not converged
     c_bands:  2 eigenvalues not converged
     c_bands:  1 eigenvalues not converged
     c_bands:  2 eigenvalues not converged
     c_bands:  3 eigenvalues not converged
     c_bands:  2 eigenvalues not converged
     c_bands:  1 eigenvalues not converged
     ethr =  3.23E-05,  avg # of iterations = 22.1

     negative rho (up, down):  5.704E-03 0.000E+00
 
     Adding external electric field

     Computed dipole along edir(3) : 
        Dipole                0.3370 Ry au,          0.8564 Debye
        Dipole field          0.0006 Ry au, 
 
        Potential amp.       -0.0589 Ry
        Total length         46.3494 bohr
 

     total cpu time spent up to now is      640.5 secs

     total energy              =   -2972.73273516 Ry
     estimated scf accuracy    <       0.08973322 Ry

     iteration # 38     ecut=    29.40 Ry     beta= 0.05
     Davidson diagonalization with overlap
     c_bands:  1 eigenvalues not converged
     c_bands:  1 eigenvalues not converged
     c_bands:  1 eigenvalues not converged
     c_bands:  1 eigenvalues not converged
     ethr =  2.23E-05,  avg # of iterations = 16.1

     negative rho (up, down):  7.074E-03 0.000E+00
 
     Adding external electric field

     Computed dipole along edir(3) : 
        Dipole                0.4786 Ry au,          1.2165 Debye
        Dipole field          0.0009 Ry au, 
 
        Potential amp.       -0.0837 Ry
        Total length         46.3494 bohr
 

     total cpu time spent up to now is      656.5 secs

     total energy              =   -2972.73312152 Ry
     estimated scf accuracy    <       0.04235959 Ry

     iteration # 39     ecut=    29.40 Ry     beta= 0.05
     Davidson diagonalization with overlap
     c_bands:  2 eigenvalues not converged
     c_bands:  1 eigenvalues not converged
     c_bands:  1 eigenvalues not converged
     c_bands:  1 eigenvalues not converged
     c_bands:  4 eigenvalues not converged
     c_bands:  2 eigenvalues not converged
     ethr =  1.05E-05,  avg # of iterations = 16.5

     negative rho (up, down):  6.909E-03 0.000E+00
 
     Adding external electric field

     Computed dipole along edir(3) : 
        Dipole                0.4614 Ry au,          1.1727 Debye
        Dipole field          0.0009 Ry au, 
 
        Potential amp.       -0.0807 Ry
        Total length         46.3494 bohr
 

     total cpu time spent up to now is      677.6 secs

     total energy              =   -2972.73503694 Ry
     estimated scf accuracy    <       0.06783203 Ry

     iteration # 40     ecut=    29.40 Ry     beta= 0.05
     Davidson diagonalization with overlap
     ethr =  1.05E-05,  avg # of iterations = 12.7

     negative rho (up, down):  8.398E-03 0.000E+00
 
     Adding external electric field

     Computed dipole along edir(3) : 
        Dipole                0.5324 Ry au,          1.3533 Debye
        Dipole field          0.0010 Ry au, 
 
        Potential amp.       -0.0931 Ry
        Total length         46.3494 bohr
 

     total cpu time spent up to now is      692.0 secs

     total energy              =   -2972.73288167 Ry
     estimated scf accuracy    <       0.02743855 Ry

     iteration # 41     ecut=    29.40 Ry     beta= 0.05
     Davidson diagonalization with overlap
     c_bands:  4 eigenvalues not converged
     c_bands:  1 eigenvalues not converged
     c_bands:  2 eigenvalues not converged
     c_bands:  1 eigenvalues not converged
     c_bands:  3 eigenvalues not converged
     ethr =  6.83E-06,  avg # of iterations = 17.7

     negative rho (up, down):  1.040E-02 0.000E+00
 
     Adding external electric field

     Computed dipole along edir(3) : 
        Dipole                0.6137 Ry au,          1.5599 Debye
        Dipole field          0.0012 Ry au, 
 
        Potential amp.       -0.1074 Ry
        Total length         46.3494 bohr
 

     total cpu time spent up to now is      714.0 secs

     total energy              =   -2972.73826929 Ry
     estimated scf accuracy    <       0.01547576 Ry

     iteration # 42     ecut=    29.40 Ry     beta= 0.05
     Davidson diagonalization with overlap
     c_bands:  1 eigenvalues not converged
     c_bands:  1 eigenvalues not converged
     ethr =  3.85E-06,  avg # of iterations =  9.4

     negative rho (up, down):  1.306E-02 0.000E+00
 
     Adding external electric field

     Computed dipole along edir(3) : 
        Dipole                0.6820 Ry au,          1.7335 Debye
        Dipole field          0.0013 Ry au, 
 
        Potential amp.       -0.1193 Ry
        Total length         46.3494 bohr
 

     total cpu time spent up to now is      726.6 secs

     total energy              =   -2972.73780108 Ry
     estimated scf accuracy    <       0.00945776 Ry

     iteration # 43     ecut=    29.40 Ry     beta= 0.05
     Davidson diagonalization with overlap
     ethr =  2.35E-06,  avg # of iterations =  7.3

     negative rho (up, down):  1.240E-02 0.000E+00
 
     Adding external electric field

     Computed dipole along edir(3) : 
        Dipole                0.6619 Ry au,          1.6823 Debye
        Dipole field          0.0012 Ry au, 
 
        Potential amp.       -0.1158 Ry
        Total length         46.3494 bohr
 

     total cpu time spent up to now is      738.9 secs

     total energy              =   -2972.73819287 Ry
     estimated scf accuracy    <       0.00679313 Ry

     iteration # 44     ecut=    29.40 Ry     beta= 0.05
     Davidson diagonalization with overlap
     ethr =  1.69E-06,  avg # of iterations =  1.1

     negative rho (up, down):  1.103E-02 0.000E+00
 
     Adding external electric field

     Computed dipole along edir(3) : 
        Dipole                0.6204 Ry au,          1.5769 Debye
        Dipole field          0.0012 Ry au, 
 
        Potential amp.       -0.1085 Ry
        Total length         46.3494 bohr
 

     total cpu time spent up to now is      748.9 secs

     total energy              =   -2972.73722596 Ry
     estimated scf accuracy    <       0.00611879 Ry

     iteration # 45     ecut=    29.40 Ry     beta= 0.05
     Davidson diagonalization with overlap
     ethr =  1.52E-06,  avg # of iterations =  5.3

     negative rho (up, down):  1.219E-02 0.000E+00
 
     Adding external electric field

     Computed dipole along edir(3) : 
        Dipole                0.6459 Ry au,          1.6418 Debye
        Dipole field          0.0012 Ry au, 
 
        Potential amp.       -0.1130 Ry
        Total length         46.3494 bohr
 

     total cpu time spent up to now is      760.7 secs

     total energy              =   -2972.73732048 Ry
     estimated scf accuracy    <       0.00245994 Ry

     iteration # 46     ecut=    29.40 Ry     beta= 0.05
     Davidson diagonalization with overlap
     c_bands:  4 eigenvalues not converged
     c_bands:  1 eigenvalues not converged
     c_bands:  1 eigenvalues not converged
     c_bands:  1 eigenvalues not converged
     c_bands:  1 eigenvalues not converged
     ethr =  6.12E-07,  avg # of iterations = 14.5

     negative rho (up, down):  1.337E-02 0.000E+00
 
     Adding external electric field

     Computed dipole along edir(3) : 
        Dipole                0.6497 Ry au,          1.6515 Debye
        Dipole field          0.0012 Ry au, 
 
        Potential amp.       -0.1137 Ry
        Total length         46.3494 bohr
 

     total cpu time spent up to now is      781.0 secs

     total energy              =   -2972.73752237 Ry
     estimated scf accuracy    <       0.00172901 Ry

     iteration # 47     ecut=    29.40 Ry     beta= 0.05
     Davidson diagonalization with overlap
     c_bands:  1 eigenvalues not converged
     ethr =  4.30E-07,  avg # of iterations =  9.0

     negative rho (up, down):  1.451E-02 0.000E+00
 
     Adding external electric field

     Computed dipole along edir(3) : 
        Dipole                0.6656 Ry au,          1.6917 Debye
        Dipole field          0.0013 Ry au, 
 
        Potential amp.       -0.1164 Ry
        Total length         46.3494 bohr
 

     total cpu time spent up to now is      794.5 secs

     total energy              =   -2972.73769213 Ry
     estimated scf accuracy    <       0.00046275 Ry

     iteration # 48     ecut=    29.40 Ry     beta= 0.05
     Davidson diagonalization with overlap
     ethr =  1.15E-07,  avg # of iterations =  6.1

     negative rho (up, down):  1.471E-02 0.000E+00
 
     Adding external electric field

     Computed dipole along edir(3) : 
        Dipole                0.6699 Ry au,          1.7028 Debye
        Dipole field          0.0013 Ry au, 
 
        Potential amp.       -0.1172 Ry
        Total length         46.3494 bohr
 

     total cpu time spent up to now is      809.6 secs

     total energy              =   -2972.73783042 Ry
     estimated scf accuracy    <       0.00031063 Ry

     iteration # 49     ecut=    29.40 Ry     beta= 0.05
     Davidson diagonalization with overlap
     ethr =  7.73E-08,  avg # of iterations =  5.7

     negative rho (up, down):  1.444E-02 0.000E+00
 
     Adding external electric field

     Computed dipole along edir(3) : 
        Dipole                0.6609 Ry au,          1.6799 Debye
        Dipole field          0.0012 Ry au, 
 
        Potential amp.       -0.1156 Ry
        Total length         46.3494 bohr
 

     total cpu time spent up to now is      821.9 secs

     total energy              =   -2972.73781982 Ry
     estimated scf accuracy    <       0.00047911 Ry

     iteration # 50     ecut=    29.40 Ry     beta= 0.05
     Davidson diagonalization with overlap
     ethr =  7.73E-08,  avg # of iterations =  2.8

     negative rho (up, down):  1.442E-02 0.000E+00
 
     Adding external electric field

     Computed dipole along edir(3) : 
        Dipole                0.6604 Ry au,          1.6786 Debye
        Dipole field          0.0012 Ry au, 
 
        Potential amp.       -0.1155 Ry
        Total length         46.3494 bohr
 

     total cpu time spent up to now is      833.1 secs

     total energy              =   -2972.73784144 Ry
     estimated scf accuracy    <       0.00037277 Ry

     iteration # 51     ecut=    29.40 Ry     beta= 0.05
     Davidson diagonalization with overlap
     ethr =  7.73E-08,  avg # of iterations =  1.3

     negative rho (up, down):  1.410E-02 0.000E+00
 
     Adding external electric field

     Computed dipole along edir(3) : 
        Dipole                0.6540 Ry au,          1.6622 Debye
        Dipole field          0.0012 Ry au, 
 
        Potential amp.       -0.1144 Ry
        Total length         46.3494 bohr
 

     total cpu time spent up to now is      843.4 secs

     total energy              =   -2972.73785151 Ry
     estimated scf accuracy    <       0.00034330 Ry

     iteration # 52     ecut=    29.40 Ry     beta= 0.05
     Davidson diagonalization with overlap
     ethr =  7.73E-08,  avg # of iterations =  2.8

     negative rho (up, down):  1.469E-02 0.000E+00
 
     Adding external electric field

     Computed dipole along edir(3) : 
        Dipole                0.6656 Ry au,          1.6919 Debye
        Dipole field          0.0013 Ry au, 
 
        Potential amp.       -0.1164 Ry
        Total length         46.3494 bohr
 

     total cpu time spent up to now is      854.4 secs

     total energy              =   -2972.73790252 Ry
     estimated scf accuracy    <       0.00036074 Ry

     iteration # 53     ecut=    29.40 Ry     beta= 0.05
     Davidson diagonalization with overlap
     ethr =  7.73E-08,  avg # of iterations =  6.0

     negative rho (up, down):  1.415E-02 0.000E+00
 
     Adding external electric field

     Computed dipole along edir(3) : 
        Dipole                0.6557 Ry au,          1.6667 Debye
        Dipole field          0.0012 Ry au, 
 
        Potential amp.       -0.1147 Ry
        Total length         46.3494 bohr
 

     total cpu time spent up to now is      866.3 secs

     total energy              =   -2972.73783415 Ry
     estimated scf accuracy    <       0.00044516 Ry

     iteration # 54     ecut=    29.40 Ry     beta= 0.05
     Davidson diagonalization with overlap
     ethr =  7.73E-08,  avg # of iterations =  6.0

     negative rho (up, down):  1.443E-02 0.000E+00
 
     Adding external electric field

     Computed dipole along edir(3) : 
        Dipole                0.6602 Ry au,          1.6780 Debye
        Dipole field          0.0012 Ry au, 
 
        Potential amp.       -0.1155 Ry
        Total length         46.3494 bohr
 

     total cpu time spent up to now is      879.0 secs

     total energy              =   -2972.73794099 Ry
     estimated scf accuracy    <       0.00027259 Ry

     iteration # 55     ecut=    29.40 Ry     beta= 0.05
     Davidson diagonalization with overlap
     ethr =  6.78E-08,  avg # of iterations =  6.8

     negative rho (up, down):  1.443E-02 0.000E+00
 
     Adding external electric field

     Computed dipole along edir(3) : 
        Dipole                0.6650 Ry au,          1.6902 Debye
        Dipole field          0.0013 Ry au, 
 
        Potential amp.       -0.1163 Ry
        Total length         46.3494 bohr
 

     total cpu time spent up to now is      893.9 secs

     total energy              =   -2972.73776968 Ry
     estimated scf accuracy    <       0.00062006 Ry

     iteration # 56     ecut=    29.40 Ry     beta= 0.05
     Davidson diagonalization with overlap
     ethr =  6.78E-08,  avg # of iterations =  9.2

     negative rho (up, down):  1.476E-02 0.000E+00
 
     Adding external electric field

     Computed dipole along edir(3) : 
        Dipole                0.6702 Ry au,          1.7034 Debye
        Dipole field          0.0013 Ry au, 
 
        Potential amp.       -0.1172 Ry
        Total length         46.3494 bohr
 

     total cpu time spent up to now is      913.2 secs

     total energy              =   -2972.73787743 Ry
     estimated scf accuracy    <       0.00023278 Ry

     iteration # 57     ecut=    29.40 Ry     beta= 0.05
     Davidson diagonalization with overlap
     ethr =  5.79E-08,  avg # of iterations =  5.1

     negative rho (up, down):  1.493E-02 0.000E+00
 
     Adding external electric field

     Computed dipole along edir(3) : 
        Dipole                0.6689 Ry au,          1.7003 Debye
        Dipole field          0.0013 Ry au, 
 
        Potential amp.       -0.1170 Ry
        Total length         46.3494 bohr
 

     total cpu time spent up to now is      924.8 secs

     total energy              =   -2972.73788712 Ry
     estimated scf accuracy    <       0.00011866 Ry

     iteration # 58     ecut=    29.40 Ry     beta= 0.05
     Davidson diagonalization with overlap
     ethr =  2.95E-08,  avg # of iterations =  5.9

     negative rho (up, down):  1.485E-02 0.000E+00
 
     Adding external electric field

     Computed dipole along edir(3) : 
        Dipole                0.6686 Ry au,          1.6994 Debye
        Dipole field          0.0013 Ry au, 
 
        Potential amp.       -0.1170 Ry
        Total length         46.3494 bohr
 

     total cpu time spent up to now is      939.2 secs

     total energy              =   -2972.73790588 Ry
     estimated scf accuracy    <       0.00004665 Ry

     iteration # 59     ecut=    29.40 Ry     beta= 0.05
     Davidson diagonalization with overlap
     ethr =  1.16E-08,  avg # of iterations =  2.4

     negative rho (up, down):  1.481E-02 0.000E+00
 
     Adding external electric field

     Computed dipole along edir(3) : 
        Dipole                0.6685 Ry au,          1.6992 Debye
        Dipole field          0.0013 Ry au, 
 
        Potential amp.       -0.1169 Ry
        Total length         46.3494 bohr
 

     total cpu time spent up to now is      950.4 secs

     total energy              =   -2972.73791135 Ry
     estimated scf accuracy    <       0.00003344 Ry

     iteration # 60     ecut=    29.40 Ry     beta= 0.05
     Davidson diagonalization with overlap
     ethr =  8.32E-09,  avg # of iterations =  6.2

     negative rho (up, down):  1.518E-02 0.000E+00
 
     Adding external electric field

     Computed dipole along edir(3) : 
        Dipole                0.6732 Ry au,          1.7110 Debye
        Dipole field          0.0013 Ry au, 
 
        Potential amp.       -0.1178 Ry
        Total length         46.3494 bohr
 

     total cpu time spent up to now is      964.6 secs

     total energy              =   -2972.73792747 Ry
     estimated scf accuracy    <       0.00002394 Ry

     iteration # 61     ecut=    29.40 Ry     beta= 0.05
     Davidson diagonalization with overlap
     ethr =  5.95E-09,  avg # of iterations =  6.0

     negative rho (up, down):  1.519E-02 0.000E+00
 
     Adding external electric field

     Computed dipole along edir(3) : 
        Dipole                0.6728 Ry au,          1.7102 Debye
        Dipole field          0.0013 Ry au, 
 
        Potential amp.       -0.1177 Ry
        Total length         46.3494 bohr
 

     total cpu time spent up to now is      978.7 secs

     total energy              =   -2972.73793599 Ry
     estimated scf accuracy    <       0.00001131 Ry

     iteration # 62     ecut=    29.40 Ry     beta= 0.05
     Davidson diagonalization with overlap
     ethr =  2.81E-09,  avg # of iterations =  5.1

     negative rho (up, down):  1.511E-02 0.000E+00
 
     Adding external electric field

     Computed dipole along edir(3) : 
        Dipole                0.6712 Ry au,          1.7060 Debye
        Dipole field          0.0013 Ry au, 
 
        Potential amp.       -0.1174 Ry
        Total length         46.3494 bohr
 

     total cpu time spent up to now is      990.6 secs

     total energy              =   -2972.73794013 Ry
     estimated scf accuracy    <       0.00000806 Ry

     iteration # 63     ecut=    29.40 Ry     beta= 0.05
     Davidson diagonalization with overlap
     ethr =  2.01E-09,  avg # of iterations =  6.5

     negative rho (up, down):  1.519E-02 0.000E+00
 
     Adding external electric field

     Computed dipole along edir(3) : 
        Dipole                0.6729 Ry au,          1.7102 Debye
        Dipole field          0.0013 Ry au, 
 
        Potential amp.       -0.1177 Ry
        Total length         46.3494 bohr
 

     total cpu time spent up to now is     1006.3 secs

     total energy              =   -2972.73794582 Ry
     estimated scf accuracy    <       0.00000947 Ry

     iteration # 64     ecut=    29.40 Ry     beta= 0.05
     Davidson diagonalization with overlap
     ethr =  2.01E-09,  avg # of iterations =  5.0

     negative rho (up, down):  1.524E-02 0.000E+00
 
     Adding external electric field

     Computed dipole along edir(3) : 
        Dipole                0.6736 Ry au,          1.7122 Debye
        Dipole field          0.0013 Ry au, 
 
        Potential amp.       -0.1178 Ry
        Total length         46.3494 bohr
 

     total cpu time spent up to now is     1018.2 secs

     total energy              =   -2972.73795092 Ry
     estimated scf accuracy    <       0.00000458 Ry

     iteration # 65     ecut=    29.40 Ry     beta= 0.05
     Davidson diagonalization with overlap
     ethr =  1.14E-09,  avg # of iterations =  6.3

     negative rho (up, down):  1.527E-02 0.000E+00
 
     Adding external electric field

     Computed dipole along edir(3) : 
        Dipole                0.6739 Ry au,          1.7129 Debye
        Dipole field          0.0013 Ry au, 
 
        Potential amp.       -0.1179 Ry
        Total length         46.3494 bohr
 

     total cpu time spent up to now is     1032.8 secs

     total energy              =   -2972.73795489 Ry
     estimated scf accuracy    <       0.00000345 Ry

     iteration # 66     ecut=    29.40 Ry     beta= 0.05
     Davidson diagonalization with overlap
     ethr =  8.59E-10,  avg # of iterations =  6.0

     negative rho (up, down):  1.525E-02 0.000E+00
 
     Adding external electric field

     Computed dipole along edir(3) : 
        Dipole                0.6732 Ry au,          1.7112 Debye
        Dipole field          0.0013 Ry au, 
 
        Potential amp.       -0.1178 Ry
        Total length         46.3494 bohr
 

     total cpu time spent up to now is     1045.4 secs

     total energy              =   -2972.73795852 Ry
     estimated scf accuracy    <       0.00000148 Ry

     iteration # 67     ecut=    29.40 Ry     beta= 0.05
     Davidson diagonalization with overlap
     ethr =  3.68E-10,  avg # of iterations =  6.0

     negative rho (up, down):  1.528E-02 0.000E+00
 
     Adding external electric field

     Computed dipole along edir(3) : 
        Dipole                0.6738 Ry au,          1.7126 Debye
        Dipole field          0.0013 Ry au, 
 
        Potential amp.       -0.1179 Ry
        Total length         46.3494 bohr
 

     total cpu time spent up to now is     1060.6 secs

     total energy              =   -2972.73796193 Ry
     estimated scf accuracy    <       0.00000094 Ry

     iteration # 68     ecut=    29.40 Ry     beta= 0.05
     Davidson diagonalization with overlap
     ethr =  2.34E-10,  avg # of iterations =  5.9

     negative rho (up, down):  1.525E-02 0.000E+00
 
     Adding external electric field

     Computed dipole along edir(3) : 
        Dipole                0.6734 Ry au,          1.7115 Debye
        Dipole field          0.0013 Ry au, 
 
        Potential amp.       -0.1178 Ry
        Total length         46.3494 bohr
 

     total cpu time spent up to now is     1073.6 secs

     total energy              =   -2972.73796492 Ry
     estimated scf accuracy    <       0.00000038 Ry

     iteration # 69     ecut=    29.40 Ry     beta= 0.05
     Davidson diagonalization with overlap
     ethr =  9.49E-11,  avg # of iterations =  6.0

     negative rho (up, down):  1.526E-02 0.000E+00
 
     Adding external electric field

     Computed dipole along edir(3) : 
        Dipole                0.6734 Ry au,          1.7117 Debye
        Dipole field          0.0013 Ry au, 
 
        Potential amp.       -0.1178 Ry
        Total length         46.3494 bohr
 

     total cpu time spent up to now is     1088.0 secs

     total energy              =   -2972.73796758 Ry
     estimated scf accuracy    <       0.00000035 Ry

     iteration # 70     ecut=    29.40 Ry     beta= 0.05
     Davidson diagonalization with overlap
     ethr =  8.60E-11,  avg # of iterations =  5.2

     negative rho (up, down):  1.527E-02 0.000E+00
 
     Adding external electric field

     Computed dipole along edir(3) : 
        Dipole                0.6733 Ry au,          1.7115 Debye
        Dipole field          0.0013 Ry au, 
 
        Potential amp.       -0.1178 Ry
        Total length         46.3494 bohr
 

     total cpu time spent up to now is     1099.9 secs

     total energy              =   -2972.73796993 Ry
     estimated scf accuracy    <       0.00000028 Ry

     iteration # 71     ecut=    29.40 Ry     beta= 0.05
     Davidson diagonalization with overlap
     ethr =  6.89E-11,  avg # of iterations =  3.7

     negative rho (up, down):  1.527E-02 0.000E+00
 
     Adding external electric field

     Computed dipole along edir(3) : 
        Dipole                0.6733 Ry au,          1.7114 Debye
        Dipole field          0.0013 Ry au, 
 
        Potential amp.       -0.1178 Ry
        Total length         46.3494 bohr
 

     total cpu time spent up to now is     1111.4 secs

     total energy              =   -2972.73797205 Ry
     estimated scf accuracy    <       0.00000015 Ry

     iteration # 72     ecut=    29.40 Ry     beta= 0.05
     Davidson diagonalization with overlap
     ethr =  3.70E-11,  avg # of iterations =  5.9

     negative rho (up, down):  1.526E-02 0.000E+00
 
     Adding external electric field

     Computed dipole along edir(3) : 
        Dipole                0.6731 Ry au,          1.7108 Debye
        Dipole field          0.0013 Ry au, 
 
        Potential amp.       -0.1177 Ry
        Total length         46.3494 bohr
 

     total cpu time spent up to now is     1126.0 secs

     total energy              =   -2972.73797399 Ry
     estimated scf accuracy    <       0.00000011 Ry

     iteration # 73     ecut=    29.40 Ry     beta= 0.05
     Davidson diagonalization with overlap
     ethr =  2.70E-11,  avg # of iterations =  3.2

     negative rho (up, down):  1.528E-02 0.000E+00
 
     Adding external electric field

     Computed dipole along edir(3) : 
        Dipole                0.6727 Ry au,          1.7099 Debye
        Dipole field          0.0013 Ry au, 
 
        Potential amp.       -0.1177 Ry
        Total length         46.3494 bohr
 

     total cpu time spent up to now is     1137.3 secs

     End of self-consistent calculation

          k = 0.0000 0.0000 0.0000 ( 18029 PWs)   bands (ev):

   -56.1144 -56.0805 -55.6546 -55.6207 -55.5625 -55.5430 -55.5281 -55.5075
   -55.4268 -55.3738 -55.3333 -55.2684 -54.9324 -54.8985 -54.8691 -54.8304
   -32.5664 -32.4056 -32.3780 -32.2744 -32.1903 -32.1815 -32.1219 -32.0758
   -32.0488 -31.8979 -31.8802 -31.8706 -31.8483 -31.8416 -31.8191 -31.7851
   -31.7773 -31.7768 -31.7586 -31.7568 -31.7517 -31.7225 -31.7156 -31.7134
   -31.6807 -31.6744 -31.6632 -31.6568 -31.6365 -31.6016 -31.5440 -31.5417
   -31.5124 -31.4855 -31.4612 -31.4289 -31.4005 -31.3325 -31.2615 -31.2381
   -31.1501 -31.1172 -31.0832 -31.0655 -31.0648 -31.0425 -30.9564 -30.9535
   -18.6884 -17.5708 -16.4373 -16.2225 -15.9856 -15.7478 -15.7019 -15.5772
   -15.5621 -15.5606 -15.4413 -15.4300 -15.3686 -15.2656 -15.1936 -15.1548
   -15.1072 -15.0954 -15.0767 -14.9864 -14.9731 -14.9529 -14.9433 -14.8713
   -14.8182 -14.8047 -14.6960 -14.6253 -14.5683 -14.5321 -14.2443 -13.4325
   -13.3192 -11.6461  -6.5512  -6.4491  -4.4120  -3.9501  -3.9361  -3.7205
    -3.5617  -3.4599  -3.3329  -3.3159  -3.1852  -3.0811  -2.9459  -2.9044
    -2.8829  -2.8029  -2.7946  -2.7745  -2.6390  -2.5995  -2.5584  -2.5357
    -2.5068  -2.4311  -2.4127  -2.3548  -2.3249  -2.2922  -2.1824  -2.1414
    -2.1052  -2.0913  -2.0631  -2.0199  -1.9799  -1.9569  -1.9533  -1.9379
    -1.9041  -1.8130  -1.7587  -1.6583  -1.6047  -1.4969  -1.4605  -1.4358
    -1.3790  -1.2875  -1.1622  -1.1560  -1.0846  -1.0458  -0.9917  -0.9667
    -0.9059  -0.8906  -0.8179  -0.7848  -0.6987  -0.6527  -0.6213  -0.5913
    -0.5705  -0.4785  -0.4289  -0.3535  -0.2922  -0.2341  -0.2188  -0.1187
    -0.0901  -0.0571  -0.0372   0.0206   0.0675   0.0823   0.1018   0.1285
     0.1593   0.1813   0.3036   0.3590   0.3713   0.4038   0.4255   0.5366
     0.5984   0.6761   0.7351   0.7749   0.8799   0.8945   0.9388   1.0645
     1.0786   1.0899   1.1422   1.3075   1.6164   1.6481   1.6892   1.7911
     2.9563   3.1136   3.2299   3.4497   3.5500   3.5827   3.8422   3.9445
     3.9929   4.0045   4.0143

          k = 0.0000 0.0419 0.0000 ( 17933 PWs)   bands (ev):

   -56.1093 -56.0854 -55.6497 -55.6255 -55.5576 -55.5378 -55.5329 -55.5126
   -55.4258 -55.3696 -55.3373 -55.2693 -54.9274 -54.9034 -54.8648 -54.8345
   -32.5127 -32.4012 -32.3813 -32.2609 -32.2466 -32.1951 -32.0703 -32.0196
   -31.9954 -31.8859 -31.8587 -31.8300 -31.8296 -31.8256 -31.8117 -31.7978
   -31.7961 -31.7737 -31.7677 -31.7638 -31.7468 -31.7436 -31.7295 -31.7233
   -31.7210 -31.7176 -31.6741 -31.6509 -31.6339 -31.5970 -31.5505 -31.5422
   -31.5379 -31.5139 -31.4841 -31.4661 -31.3555 -31.2787 -31.2579 -31.2413
   -31.1376 -31.1173 -31.0953 -31.0771 -31.0630 -31.0461 -31.0105 -30.9923
   -18.6880 -17.5681 -16.3120 -16.0936 -15.8781 -15.6864 -15.6630 -15.5894
   -15.5025 -15.4999 -15.4938 -15.4321 -15.3343 -15.3178 -15.2144 -15.1900
   -15.1573 -15.1368 -15.0821 -15.0211 -15.0017 -14.9794 -14.9135 -14.8938
   -14.8727 -14.7819 -14.7507 -14.6412 -14.6265 -14.5541 -14.3189 -13.4381
   -13.3595 -11.6486  -6.5445  -6.4541  -4.3852  -3.9454  -3.7547  -3.5397
    -3.3941  -3.3065  -3.1872  -3.1587  -3.0731  -3.0188  -2.8796  -2.8353
    -2.8329  -2.8230  -2.7676  -2.6955  -2.6618  -2.6320  -2.5764  -2.5513
    -2.5126  -2.4878  -2.4505  -2.4244  -2.3946  -2.3728  -2.3511  -2.3042
    -2.2803  -2.2575  -2.1787  -2.1057  -2.0957  -2.0772  -2.0384  -1.9691
    -1.9520  -1.7484  -1.7075  -1.6015  -1.5654  -1.4278  -1.4076  -1.3232
    -1.2958  -1.2302  -1.0614  -1.0379  -0.9684  -0.9524  -0.9017  -0.8586
    -0.7955  -0.7823  -0.7563  -0.7388  -0.7179  -0.6146  -0.5980  -0.5567
    -0.5373  -0.4430  -0.4340  -0.3759  -0.3550  -0.3261  -0.2856  -0.2225
    -0.2103  -0.1199  -0.0913  -0.0434   0.0184   0.0496   0.0761   0.1257
     0.2010   0.2073   0.2611   0.2771   0.3208   0.3374   0.3895   0.4331
     0.4919   0.5164   0.6085   0.6351   0.7103   0.7334   0.7729   0.8530
     1.0260   1.0961   1.2969   1.3989   1.4787   1.5992   1.6180   1.7387
     2.8703   3.3428   3.3869   3.5192   3.7149   3.7815   3.8312   3.8594
     3.9049   3.9620   3.9638

          k = 0.0000-0.0839 0.0000 ( 17884 PWs)   bands (ev):

   -56.0974 -56.0973 -55.6398 -55.6353 -55.5483 -55.5422 -55.5267 -55.5236
   -55.4248 -55.3639 -55.3430 -55.2702 -54.9155 -54.9152 -54.8588 -54.8405
   -32.3912 -32.3908 -32.3810 -32.3809 -32.2281 -32.2279 -31.9457 -31.9404
   -31.8945 -31.8719 -31.8671 -31.8616 -31.8583 -31.8565 -31.8303 -31.8255
   -31.7921 -31.7876 -31.7576 -31.7509 -31.7448 -31.7435 -31.7363 -31.7321
   -31.7163 -31.6969 -31.6793 -31.6733 -31.6443 -31.6293 -31.5774 -31.5704
   -31.5629 -31.5329 -31.5181 -31.4733 -31.2817 -31.2494 -31.2493 -31.1681
   -31.1465 -31.1463 -31.1075 -31.1074 -31.0761 -31.0614 -31.0515 -31.0347
   -18.6877 -17.5655 -16.0043 -16.0004 -15.7852 -15.7556 -15.6502 -15.6105
   -15.5068 -15.4916 -15.3585 -15.3583 -15.3255 -15.3172 -15.2753 -15.2592
   -15.2307 -15.2057 -15.1393 -15.1085 -15.0114 -14.9986 -14.8919 -14.8795
   -14.8233 -14.7873 -14.7558 -14.7512 -14.6531 -14.5711 -14.4265 -13.4222
   -13.4222 -11.6513  -6.5369  -6.4601  -4.3588  -3.9404  -3.3060  -3.3059
    -3.1458  -3.1135  -3.0977  -3.0014  -2.9393  -2.9329  -2.9118  -2.8749
    -2.8669  -2.8655  -2.8599  -2.8182  -2.7120  -2.6982  -2.6745  -2.6670
    -2.6546  -2.6273  -2.5533  -2.5228  -2.4488  -2.4209  -2.3582  -2.3210
    -2.2243  -2.1988  -2.1333  -2.0831  -2.0759  -2.0368  -2.0033  -1.8523
    -1.7800  -1.7502  -1.6223  -1.6048  -1.5610  -1.5502  -1.3739  -1.3491
    -1.2987  -1.1679  -1.1240  -1.0882  -1.0829  -1.0628  -0.9943  -0.9240
    -0.8608  -0.8424  -0.8062  -0.6874  -0.6176  -0.5453  -0.5135  -0.4604
    -0.4341  -0.4170  -0.3928  -0.3380  -0.3311  -0.3065  -0.2328  -0.1863
    -0.1789  -0.1361  -0.0979  -0.0219  -0.0045   0.0168   0.0629   0.0850
     0.1211   0.1494   0.1702   0.1954   0.2258   0.2309   0.3314   0.3374
     0.3649   0.4022   0.4408   0.5006   0.5430   0.5515   0.6006   1.0111
     1.0383   1.1595   1.2506   1.4396   1.4407   1.5436   1.5444   1.6967
     2.7796   3.5700   3.5713   3.7251   3.7263   3.8246   3.8250   3.9355
     3.9433   3.9782   3.9930

          k = 0.0380 0.0000 0.0000 ( 17913 PWs)   bands (ev):

   -56.1143 -56.0804 -55.6544 -55.6206 -55.5625 -55.5429 -55.5280 -55.5074
   -55.4267 -55.3737 -55.3332 -55.2683 -54.9323 -54.8984 -54.8690 -54.8303
   -32.5672 -32.4054 -32.3779 -32.2720 -32.1900 -32.1812 -32.1221 -32.0759
   -32.0543 -31.8873 -31.8789 -31.8702 -31.8494 -31.8415 -31.8118 -31.7850
   -31.7769 -31.7715 -31.7634 -31.7585 -31.7561 -31.7220 -31.7155 -31.7057
   -31.6805 -31.6742 -31.6629 -31.6542 -31.6364 -31.6155 -31.5436 -31.5412
   -31.5124 -31.4854 -31.4611 -31.4287 -31.3985 -31.3320 -31.2643 -31.2362
   -31.1499 -31.1170 -31.0830 -31.0692 -31.0646 -31.0407 -30.9561 -30.9533
   -18.6880 -17.5704 -16.3388 -16.1455 -15.9030 -15.7845 -15.7198 -15.6208
   -15.5848 -15.5724 -15.4477 -15.4150 -15.3639 -15.2692 -15.2678 -15.2275
   -15.1926 -15.1055 -15.0956 -15.0380 -14.9498 -14.9231 -14.9185 -14.8094
   -14.7966 -14.7687 -14.7567 -14.6386 -14.5846 -14.5308 -14.2432 -13.4295
   -13.3188 -11.6453  -6.5439  -6.4501  -4.4022  -3.9621  -3.6577  -3.5796
    -3.4133  -3.3070  -3.2286  -3.1616  -3.1331  -3.1037  -3.0619  -3.0128
    -2.9624  -2.8946  -2.8820  -2.7617  -2.7124  -2.5726  -2.5562  -2.5056
    -2.4287  -2.3832  -2.3159  -2.2971  -2.2763  -2.2613  -2.2190  -2.2056
    -2.1530  -2.0716  -1.9967  -1.9782  -1.9381  -1.9187  -1.8950  -1.7810
    -1.7642  -1.6735  -1.5865  -1.5700  -1.5390  -1.5029  -1.4917  -1.4480
    -1.4111  -1.3751  -1.2284  -1.1954  -1.1675  -1.0981  -1.0588  -0.9940
    -0.9687  -0.9597  -0.8738  -0.8546  -0.8203  -0.7610  -0.6325  -0.5893
    -0.5368  -0.5045  -0.4424  -0.3953  -0.3310  -0.2759  -0.2129  -0.1817
    -0.1437  -0.1211  -0.0780  -0.0285   0.0110   0.0581   0.0932   0.1179
     0.1820   0.2140   0.2392   0.2548   0.3538   0.3835   0.3922   0.4386
     0.4486   0.6098   0.6640   0.7219   0.7795   0.8525   0.8827   0.9096
     1.0323   1.0975   1.1018   1.2782   1.4858   1.5396   1.6062   1.7941
     2.8889   3.2129   3.2517   3.5492   3.5758   3.6683   3.7874   3.8635
     3.9564   4.0216   4.0931

          k = 0.0380 0.0419 0.0000 ( 17878 PWs)   bands (ev):

   -56.1093 -56.0854 -55.6495 -55.6255 -55.5576 -55.5377 -55.5329 -55.5126
   -55.4257 -55.3695 -55.3373 -55.2692 -54.9273 -54.9033 -54.8647 -54.8345
   -32.5134 -32.4010 -32.3814 -32.2589 -32.2465 -32.1947 -32.0706 -32.0198
   -32.0017 -31.8703 -31.8584 -31.8347 -31.8293 -31.8191 -31.8116 -31.7989
   -31.7965 -31.7737 -31.7659 -31.7638 -31.7568 -31.7433 -31.7269 -31.7246
   -31.7184 -31.7103 -31.6740 -31.6488 -31.6339 -31.6087 -31.5521 -31.5414
   -31.5378 -31.5140 -31.4846 -31.4647 -31.3547 -31.2784 -31.2601 -31.2403
   -31.1375 -31.1172 -31.0952 -31.0772 -31.0655 -31.0455 -31.0103 -30.9922
   -18.6878 -17.5679 -16.2200 -16.0228 -15.8080 -15.7192 -15.6973 -15.6057
   -15.5137 -15.5069 -15.4395 -15.3888 -15.3501 -15.3441 -15.3038 -15.2250
   -15.2092 -15.1195 -15.0810 -15.0194 -14.9879 -14.9731 -14.9544 -14.9373
   -14.8461 -14.8212 -14.7548 -14.6786 -14.6132 -14.5517 -14.3183 -13.4360
   -13.3597 -11.6481  -6.5421  -6.4516  -4.3816  -3.9510  -3.4808  -3.4077
    -3.2585  -3.1506  -3.0919  -3.0603  -2.9867  -2.9741  -2.9395  -2.8554
    -2.8189  -2.7873  -2.7074  -2.6993  -2.6702  -2.6186  -2.5876  -2.5662
    -2.4815  -2.4589  -2.4260  -2.3807  -2.3606  -2.3306  -2.3139  -2.2841
    -2.2581  -2.2265  -2.1496  -2.1149  -2.0419  -2.0215  -1.9816  -1.9333
    -1.8777  -1.7897  -1.6004  -1.5790  -1.5113  -1.4691  -1.4191  -1.3215
    -1.2659  -1.2053  -1.1743  -1.1114  -1.0764  -1.0154  -0.9381  -0.9152
    -0.8892  -0.8510  -0.8113  -0.7583  -0.7528  -0.7196  -0.6926  -0.6454
    -0.5822  -0.5220  -0.5069  -0.4758  -0.4457  -0.4021  -0.3663  -0.3263
    -0.2667  -0.2629  -0.1690  -0.1377  -0.0743  -0.0442  -0.0111   0.0396
     0.0928   0.1413   0.1759   0.2311   0.3081   0.3344   0.3675   0.4712
     0.5159   0.5368   0.6300   0.6601   0.6875   0.7408   0.8246   0.8452
     0.9549   1.0544   1.3088   1.3861   1.4369   1.5227   1.5828   1.7496
     2.8673   3.3322   3.4730   3.6107   3.7255   3.7723   3.8421   3.8863
     3.9556   3.9989   4.0438

          k = 0.0380-0.0839 0.0000 ( 17916 PWs)   bands (ev):

   -56.0974 -56.0973 -55.6398 -55.6353 -55.5483 -55.5423 -55.5267 -55.5237
   -55.4248 -55.3639 -55.3430 -55.2702 -54.9155 -54.9153 -54.8588 -54.8405
   -32.3912 -32.3909 -32.3817 -32.3816 -32.2271 -32.2270 -31.9462 -31.9409
   -31.8948 -31.8843 -31.8808 -31.8719 -31.8303 -31.8294 -31.8288 -31.8254
   -31.7923 -31.7879 -31.7577 -31.7511 -31.7501 -31.7464 -31.7459 -31.7420
   -31.7173 -31.6857 -31.6732 -31.6715 -31.6430 -31.6293 -31.5833 -31.5715
   -31.5690 -31.5329 -31.5182 -31.4714 -31.2817 -31.2502 -31.2501 -31.1679
   -31.1465 -31.1462 -31.1075 -31.1074 -31.0761 -31.0619 -31.0526 -31.0352
   -18.6876 -17.5654 -15.9395 -15.9353 -15.7433 -15.7010 -15.6332 -15.6269
   -15.5353 -15.4801 -15.4002 -15.3988 -15.2876 -15.2743 -15.2565 -15.2461
   -15.2171 -15.1984 -15.1438 -15.1223 -15.0563 -15.0426 -14.9611 -14.9481
   -14.8764 -14.8556 -14.7748 -14.7214 -14.6427 -14.5654 -14.4229 -13.4220
   -13.4220 -11.6510  -6.5369  -6.4565  -4.3613  -3.9427  -3.1412  -3.1005
    -3.0962  -3.0130  -2.9353  -2.9270  -2.9001  -2.8556  -2.8337  -2.7948
    -2.7625  -2.7601  -2.7274  -2.7227  -2.6449  -2.6150  -2.5561  -2.5530
    -2.5413  -2.5207  -2.5093  -2.4817  -2.4570  -2.4470  -2.3677  -2.3432
    -2.2420  -2.1728  -2.1232  -2.1075  -2.0640  -1.9388  -1.8492  -1.8177
    -1.7763  -1.7571  -1.7507  -1.7310  -1.5350  -1.5181  -1.4446  -1.4149
    -1.3536  -1.3320  -1.3210  -1.2982  -1.2124  -1.1803  -1.0695  -1.0337
    -0.9348  -0.8324  -0.7656  -0.7634  -0.7277  -0.7004  -0.6064  -0.5743
    -0.5437  -0.5246  -0.4906  -0.4782  -0.4425  -0.4296  -0.3875  -0.3506
    -0.2855  -0.2653  -0.2235  -0.1604  -0.1268  -0.0658  -0.0409   0.0049
     0.0273   0.0560   0.1403   0.1899   0.2105   0.2240   0.2952   0.3327
     0.4370   0.4984   0.5627   0.6073   0.6780   0.7196   0.7479   0.9830
     1.0152   1.1742   1.2008   1.4518   1.4530   1.5280   1.5290   1.7180
     2.8391   3.5710   3.5718   3.7518   3.7538   3.9042   3.9256   3.9605
     3.9773   4.0072   4.0098

          k = 0.0380-0.0419 0.0000 ( 17876 PWs)   bands (ev):

   -56.1093 -56.0854 -55.6495 -55.6255 -55.5576 -55.5377 -55.5329 -55.5126
   -55.4257 -55.3695 -55.3373 -55.2692 -54.9273 -54.9033 -54.8647 -54.8345
   -32.5134 -32.4010 -32.3814 -32.2589 -32.2466 -32.1947 -32.0706 -32.0197
   -32.0017 -31.8703 -31.8584 -31.8347 -31.8293 -31.8190 -31.8116 -31.7988
   -31.7965 -31.7737 -31.7661 -31.7638 -31.7570 -31.7431 -31.7267 -31.7246
   -31.7183 -31.7103 -31.6740 -31.6488 -31.6339 -31.6087 -31.5520 -31.5414
   -31.5378 -31.5140 -31.4841 -31.4652 -31.3546 -31.2784 -31.2601 -31.2403
   -31.1375 -31.1171 -31.0951 -31.0772 -31.0659 -31.0454 -31.0103 -30.9921
   -18.6878 -17.5679 -16.2199 -16.0229 -15.8078 -15.7200 -15.6973 -15.6055
   -15.5141 -15.5065 -15.4395 -15.3888 -15.3494 -15.3431 -15.3039 -15.2250
   -15.2088 -15.1189 -15.0870 -15.0203 -14.9877 -14.9724 -14.9503 -14.9391
   -14.8441 -14.8203 -14.7565 -14.6758 -14.6153 -14.5514 -14.3188 -13.4360
   -13.3597 -11.6481  -6.5390  -6.4548  -4.3817  -3.9542  -3.4803  -3.4076
    -3.2573  -3.1521  -3.0940  -3.0620  -2.9871  -2.9722  -2.9167  -2.8631
    -2.8283  -2.7795  -2.7143  -2.6977  -2.6580  -2.6188  -2.5886  -2.5733
    -2.4837  -2.4538  -2.4261  -2.3880  -2.3605  -2.3322  -2.3133  -2.2899
    -2.2681  -2.2250  -2.1615  -2.1126  -2.0349  -2.0188  -1.9783  -1.9381
    -1.8794  -1.7906  -1.6218  -1.5728  -1.5275  -1.4397  -1.4063  -1.3130
    -1.2669  -1.2089  -1.1746  -1.1137  -1.0761  -1.0130  -0.9479  -0.9113
    -0.8767  -0.8479  -0.8108  -0.7726  -0.7498  -0.7150  -0.6959  -0.6318
    -0.5726  -0.5419  -0.4930  -0.4446  -0.4236  -0.3805  -0.3742  -0.3358
    -0.2692  -0.2568  -0.1695  -0.1510  -0.1162  -0.0657  -0.0080   0.0410
     0.1188   0.1383   0.1803   0.2093   0.3079   0.3312   0.3697   0.4618
     0.4966   0.5228   0.6316   0.6640   0.7069   0.7425   0.8232   0.8509
     0.9472   1.0551   1.3091   1.3844   1.4407   1.5225   1.5835   1.7520
     2.8731   3.3321   3.4731   3.6105   3.7256   3.7722   3.8453   3.8920
     3.9514   4.0128   4.0281

          k =-0.0760-0.0000 0.0000 ( 17886 PWs)   bands (ev):

   -56.1142 -56.0804 -55.6543 -55.6206 -55.5625 -55.5428 -55.5280 -55.5074
   -55.4267 -55.3737 -55.3332 -55.2683 -54.9323 -54.8984 -54.8690 -54.8303
   -32.5680 -32.4052 -32.3778 -32.2697 -32.1899 -32.1815 -32.1224 -32.0761
   -32.0594 -31.8938 -31.8700 -31.8505 -31.8472 -31.8404 -31.8054 -31.8047
   -31.7849 -31.7766 -31.7584 -31.7559 -31.7465 -31.7217 -31.7160 -31.6989
   -31.6804 -31.6743 -31.6628 -31.6518 -31.6363 -31.6328 -31.5435 -31.5412
   -31.5124 -31.4855 -31.4613 -31.4287 -31.3968 -31.3317 -31.2671 -31.2350
   -31.1498 -31.1169 -31.0832 -31.0728 -31.0645 -31.0395 -30.9561 -30.9534
   -18.6877 -17.5701 -16.1655 -16.0982 -15.8204 -15.8146 -15.8030 -15.6117
   -15.5699 -15.5548 -15.4888 -15.4429 -15.4381 -15.3064 -15.2697 -15.2047
   -15.1836 -15.1596 -15.1434 -15.0984 -15.0374 -14.9478 -14.8551 -14.8320
   -14.8100 -14.7119 -14.6975 -14.6572 -14.5851 -14.5305 -14.2426 -13.4267
   -13.3185 -11.6445  -6.5364  -6.4517  -4.3944  -3.9728  -3.5548  -3.3831
    -3.2717  -3.2635  -3.1521  -3.1372  -3.0924  -3.0316  -3.0151  -2.9593
    -2.9131  -2.8970  -2.7750  -2.7195  -2.6632  -2.6311  -2.5070  -2.4088
    -2.3574  -2.3174  -2.2745  -2.2650  -2.2292  -2.2059  -2.1880  -2.1726
    -2.1049  -2.0842  -2.0045  -1.9842  -1.9351  -1.9110  -1.8607  -1.7927
    -1.7537  -1.7050  -1.6540  -1.6240  -1.5980  -1.4843  -1.4717  -1.4272
    -1.3994  -1.3461  -1.3103  -1.2801  -1.2308  -1.1484  -1.0992  -1.0849
    -0.9951  -0.9646  -0.8815  -0.8451  -0.8083  -0.7946  -0.7700  -0.7077
    -0.5953  -0.5194  -0.4705  -0.4492  -0.4072  -0.2982  -0.2929  -0.2383
    -0.2365  -0.2135  -0.2097  -0.1209  -0.0442   0.0157   0.0469   0.0929
     0.1411   0.1595   0.1889   0.2042   0.3340   0.3408   0.4607   0.4899
     0.5281   0.5688   0.6103   0.7440   0.7760   0.7857   0.7962   0.8790
     1.0807   1.1005   1.1223   1.2444   1.2681   1.4126   1.5460   1.7951
     2.8399   3.2034   3.2968   3.4250   3.5492   3.6116   3.7061   3.8549
     3.9139   3.9680   4.0509

          k =-0.0760 0.0419 0.0000 ( 17914 PWs)   bands (ev):

   -56.1093 -56.0854 -55.6495 -55.6255 -55.5577 -55.5377 -55.5329 -55.5126
   -55.4258 -55.3696 -55.3373 -55.2693 -54.9273 -54.9034 -54.8648 -54.8345
   -32.5143 -32.4010 -32.3814 -32.2572 -32.2469 -32.1947 -32.0710 -32.0201
   -32.0078 -31.8583 -31.8467 -31.8428 -31.8290 -31.8139 -31.8082 -31.8001
   -31.7968 -31.7893 -31.7736 -31.7639 -31.7464 -31.7415 -31.7290 -31.7259
   -31.7181 -31.7001 -31.6741 -31.6470 -31.6340 -31.6222 -31.5540 -31.5410
   -31.5378 -31.5140 -31.4848 -31.4641 -31.3539 -31.2782 -31.2625 -31.2396
   -31.1375 -31.1171 -31.0952 -31.0772 -31.0688 -31.0450 -31.0104 -30.9921
   -18.6875 -17.5676 -16.0569 -15.9827 -15.7619 -15.7485 -15.7181 -15.6218
   -15.5147 -15.5087 -15.4471 -15.3785 -15.3769 -15.3542 -15.2854 -15.2314
   -15.2110 -15.1293 -15.1216 -15.0948 -15.0773 -15.0012 -14.9252 -14.9228
   -14.9063 -14.8041 -14.7307 -14.6915 -14.6102 -14.5499 -14.3187 -13.4340
   -13.3600 -11.6477  -6.5368  -6.4523  -4.3792  -3.9588  -3.3922  -3.2298
    -3.0861  -3.0592  -2.9708  -2.9260  -2.8975  -2.8502  -2.8359  -2.8028
    -2.7809  -2.7157  -2.7004  -2.6632  -2.6163  -2.5795  -2.5482  -2.5070
    -2.4775  -2.4515  -2.4116  -2.4066  -2.3706  -2.3285  -2.2596  -2.2475
    -2.2380  -2.2109  -2.1627  -2.0758  -1.9368  -1.8894  -1.8499  -1.8179
    -1.7990  -1.7718  -1.7348  -1.6606  -1.5673  -1.4562  -1.4247  -1.3101
    -1.2764  -1.2465  -1.2263  -1.1924  -1.0964  -1.0808  -1.0560  -1.0466
    -1.0081  -0.9898  -0.9416  -0.8652  -0.8288  -0.7843  -0.7634  -0.7146
    -0.6908  -0.6546  -0.6358  -0.5712  -0.5438  -0.4978  -0.4708  -0.4265
    -0.3817  -0.3332  -0.2797  -0.2180  -0.1819  -0.1567  -0.0733  -0.0576
    -0.0034   0.0584   0.0882   0.1466   0.3138   0.4002   0.4913   0.5125
     0.5868   0.6087   0.6508   0.6729   0.7688   0.8337   0.8405   0.8969
     0.9408   1.0362   1.2420   1.3232   1.4248   1.4507   1.5700   1.7636
     2.8796   3.3292   3.4872   3.5011   3.6393   3.7732   3.8835   3.8954
     3.9276   4.0525   4.0688

          k =-0.0760-0.0839 0.0000 ( 17948 PWs)   bands (ev):

   -56.0974 -56.0973 -55.6398 -55.6353 -55.5483 -55.5423 -55.5267 -55.5237
   -55.4248 -55.3640 -55.3430 -55.2703 -54.9155 -54.9153 -54.8588 -54.8405
   -32.3912 -32.3909 -32.3824 -32.3822 -32.2262 -32.2260 -31.9466 -31.9413
   -31.8951 -31.8919 -31.8882 -31.8722 -31.8302 -31.8254 -31.8068 -31.8056
   -31.7923 -31.7880 -31.7632 -31.7578 -31.7574 -31.7536 -31.7513 -31.7473
   -31.7183 -31.6756 -31.6722 -31.6627 -31.6415 -31.6292 -31.5902 -31.5761
   -31.5727 -31.5330 -31.5182 -31.4694 -31.2816 -31.2510 -31.2508 -31.1677
   -31.1465 -31.1462 -31.1076 -31.1075 -31.0762 -31.0625 -31.0538 -31.0357
   -18.6874 -17.5652 -15.8120 -15.8066 -15.7426 -15.7370 -15.6709 -15.6074
   -15.5038 -15.5000 -15.4603 -15.3743 -15.2968 -15.2771 -15.2072 -15.2002
   -15.1986 -15.1896 -15.1198 -15.1096 -15.0811 -15.0576 -15.0329 -15.0269
   -15.0018 -14.9775 -14.7633 -14.7066 -14.6377 -14.5616 -14.4200 -13.4219
   -13.4218 -11.6508  -6.5370  -6.4529  -4.3639  -3.9451  -3.1382  -3.0202
    -2.9343  -2.9216  -2.8986  -2.8230  -2.8021  -2.7387  -2.7099  -2.6890
    -2.6138  -2.6008  -2.5487  -2.5430  -2.5121  -2.4935  -2.4413  -2.4326
    -2.4212  -2.4170  -2.3676  -2.3338  -2.3303  -2.3199  -2.3020  -2.2337
    -2.1710  -2.1350  -2.0954  -2.0696  -2.0669  -2.0185  -1.9926  -1.9606
    -1.9004  -1.8971  -1.8656  -1.8142  -1.6875  -1.6772  -1.5487  -1.4691
    -1.4512  -1.3821  -1.3240  -1.2905  -1.2230  -1.1643  -1.1368  -1.0345
    -1.0101  -0.9847  -0.9673  -0.9236  -0.9213  -0.8851  -0.7790  -0.7615
    -0.7195  -0.7159  -0.6405  -0.6077  -0.5513  -0.5292  -0.5231  -0.4779
    -0.4620  -0.3796  -0.3537  -0.2993  -0.2416  -0.1997  -0.1470  -0.0979
    -0.0261   0.0511   0.1051   0.1969   0.2026   0.2154   0.4225   0.4282
     0.5228   0.6057   0.7305   0.7566   0.7715   0.8743   0.9140   0.9380
     0.9639   1.1315   1.1738   1.4737   1.4753   1.5055   1.5059   1.7375
     2.8979   3.6469   3.6471   3.6827   3.6840   3.9115   3.9179   3.9641
     3.9693   4.0244   4.0479

     the Fermi energy is     3.0558 ev

!    total energy              =   -2972.73799169 Ry
     estimated scf accuracy    <       0.00000007 Ry
     smearing contrib. (-TS)   =      -0.01275481 Ry
     internal energy E=F+TS    =   -2972.72523688 Ry

     The total energy is F=E-TS. E is the sum of the following terms:
     one-electron contribution =  -24073.76986717 Ry
     hartree contribution      =   12130.45985339 Ry
     xc contribution           =    -493.17780914 Ry
     ewald contribution        =    9463.76173204 Ry
     electric field correction =       0.00085400 Ry

     convergence has been achieved in  73 iterations

     Forces acting on atoms (cartesian axes, Ry/au):

     atom    1 type  1   force =     0.00013107   -0.00030183    0.10866746
     atom    2 type  1   force =    -0.00011390   -0.00040835   -0.16780144
     atom    3 type  2   force =    -0.00015640   -0.00000859   -0.04369033
     atom    4 type  2   force =     0.00005065   -0.00075761    0.03946767
     atom    5 type  2   force =    -0.01330745    0.00016177   -0.00451081
     atom    6 type  2   force =     0.01490608    0.00103450   -0.00533738
     atom    7 type  1   force =    -0.00093724   -0.00251078    0.01143157
     atom    8 type  1   force =     0.00124602    0.00154312    0.07720411
     atom    9 type  2   force =    -0.00004760   -0.00014680   -0.00005607
     atom   10 type  2   force =    -0.00114031    0.00038600   -0.05086535
     atom   11 type  2   force =    -0.00007650    0.00035091    0.00018583
     atom   12 type  2   force =     0.00000300    0.00024306    0.00013707
     atom   13 type  1   force =     0.00046148    0.00002404   -0.00043661
     atom   14 type  1   force =    -0.00023894   -0.00007629   -0.00012597
     atom   15 type  2   force =    -0.00023774   -0.00012982    0.00098739
     atom   16 type  2   force =     0.00011782    0.00001286    0.00022125
     atom   17 type  2   force =    -0.00065430    0.00040942   -0.00004086
     atom   18 type  2   force =     0.00014527    0.00040497    0.00006468
     atom   19 type  1   force =     0.00043638   -0.00016357   -0.00019250
     atom   20 type  1   force =    -0.00043190   -0.00045133   -0.00177469
     atom   21 type  2   force =     0.00007927    0.00005770    0.10125554
     atom   22 type  2   force =    -0.00004124    0.00004224    0.00018762
     atom   23 type  2   force =    -0.07503123   -0.00002563   -0.03014403
     atom   24 type  2   force =     0.07500437    0.00043130   -0.03014236
     atom   25 type  1   force =     0.00020774   -0.00028732    0.10833682
     atom   26 type  1   force =    -0.00010226   -0.00046163   -0.16780887
     atom   27 type  2   force =    -0.00001897   -0.00025158   -0.04269600
     atom   28 type  2   force =     0.00011521   -0.00047817    0.03882873
     atom   29 type  2   force =    -0.01362582    0.00093998   -0.00474178
     atom   30 type  2   force =     0.01515969    0.00120143   -0.00562074
     atom   31 type  1   force =    -0.00125681    0.00052344    0.00712420
     atom   32 type  1   force =     0.00132708   -0.00408486    0.07764733
     atom   33 type  2   force =    -0.00004857    0.00012680   -0.00007656
     atom   34 type  2   force =    -0.00137259    0.00034495   -0.05693261
     atom   35 type  2   force =    -0.00000982   -0.00049254    0.00003765
     atom   36 type  2   force =    -0.00033782   -0.00021740   -0.00005819
     atom   37 type  1   force =    -0.00006792   -0.00002928   -0.00081918
     atom   38 type  1   force =    -0.00021192    0.00020193   -0.00039450
     atom   39 type  2   force =    -0.00003352   -0.00003781   -0.00013056
     atom   40 type  2   force =    -0.00002353    0.00028768    0.00048848
     atom   41 type  2   force =     0.00005558   -0.00016982    0.00012563
     atom   42 type  2   force =    -0.00051759   -0.00006400    0.00011068
     atom   43 type  1   force =     0.00035821    0.00080932    0.00000640
     atom   44 type  1   force =    -0.00021430    0.00077274   -0.00128431
     atom   45 type  2   force =     0.00006944    0.00003550    0.10121834
     atom   46 type  2   force =    -0.07501725    0.00003864   -0.03010694
     atom   47 type  2   force =     0.07499473    0.00047537   -0.03011726
     atom   48 type  3   force =    -0.00399688    0.00280814    0.02637092
     atom   49 type  3   force =    -0.00337370    0.00039232   -0.00955923
     atom   50 type  4   force =     0.00685893   -0.00228070   -0.01281122
     atom   51 type  5   force =     0.00066413    0.00027549   -0.00054679
     atom   52 type  5   force =     0.00050144   -0.00036581   -0.00127373
     atom   53 type  2   force =     0.00041734    0.00058531    0.00028891
     atom   54 type  5   force =    -0.00082365   -0.00091004   -0.00011969
     atom   55 type  5   force =     0.00015672    0.00019059   -0.00017769

     Total force =     0.391546     Total SCF correction =     0.000604
  @ DRIVER MODE: Message from server: STATUS
  @ DRIVER MODE: Message from server: GETFORCE
  @ DRIVER MODE: Returning v,forces,stress,ensemble 

     Writing output data file ./calc.save/
  @ DRIVER MODE: Message from server: EXIT
  @ DRIVE MODE: Exiting  
 
     init_run     :     10.94s CPU     11.15s WALL (       1 calls)
     electrons    :   1106.91s CPU   1125.43s WALL (       1 calls)
     forces       :      2.34s CPU      2.43s WALL (       1 calls)

     Called by init_run:
     wfcinit      :      4.86s CPU      4.92s WALL (       1 calls)
     potinit      :      5.38s CPU      5.44s WALL (       1 calls)
     hinit0       :      0.35s CPU      0.36s WALL (       1 calls)

     Called by electrons:
     c_bands      :    933.97s CPU    942.55s WALL (      73 calls)
     sum_band     :    118.10s CPU    122.16s WALL (      73 calls)
     v_of_rho     :     40.86s CPU     42.91s WALL (      74 calls)
     newd         :     16.53s CPU     20.20s WALL (      74 calls)
     mix_rho      :      1.92s CPU      1.99s WALL (      73 calls)
     vdW_kernel   :      4.55s CPU      4.56s WALL (       1 calls)

     Called by c_bands:
     init_us_2    :      6.34s CPU      6.38s WALL (    1480 calls)
     cegterg      :    914.40s CPU    922.57s WALL (     745 calls)

     Called by *egterg:
     cdiaghg      :    132.60s CPU    133.31s WALL (    5882 calls)
     h_psi        :    504.42s CPU    510.31s WALL (    5893 calls)
     s_psi        :     61.93s CPU     62.13s WALL (    5893 calls)
     g_psi        :      1.76s CPU      1.77s WALL (    5138 calls)

     Called by h_psi:
     h_psi:calbec :     62.10s CPU     62.45s WALL (    5893 calls)
     vloc_psi     :    376.57s CPU    381.56s WALL (    5893 calls)
     add_vuspsi   :     62.92s CPU     63.23s WALL (    5893 calls)

     General routines
     calbec       :     83.27s CPU     83.70s WALL (    6663 calls)
     fft          :     22.04s CPU     22.22s WALL (    4662 calls)
     ffts         :      0.17s CPU      0.17s WALL (     147 calls)
     fftw         :    424.80s CPU    430.40s WALL (  989782 calls)
     interpolate  :      0.46s CPU      0.47s WALL (      74 calls)
     davcio       :      0.00s CPU      0.09s WALL (      10 calls)
 
     Parallel routines
 
     PWSCF        :  18m40.93s CPU  19m 0.03s WALL

 
   This run was terminated on:  17:24:23  15Sep2021            

=------------------------------------------------------------------------------=
   JOB DONE.
=------------------------------------------------------------------------------=
