
     Program PWSCF v.6.7GPU starts on 16Sep2021 at  0:49: 3 

     This program is part of the open-source Quantum ESPRESSO suite
     for quantum simulation of materials; please cite
         "P. Giannozzi et al., J. Phys.:Condens. Matter 21 395502 (2009);
         "P. Giannozzi et al., J. Phys.:Condens. Matter 29 465901 (2017);
         "P. Giannozzi et al., J. Chem. Phys. 152 154105 (2020);
          URL http://www.quantum-espresso.org", 
     in publications or presentations arising from this work. More details at
     http://www.quantum-espresso.org/quote

     Parallel version (MPI), running on    10 processors

     MPI processes distributed on     1 nodes
     R & G space division:  proc/nbgrp/npool/nimage =      10
     Reading input from /storage/home/hcoda1/3/ntian30/research/carbon/CxH_vib/H2O_calc/ads_slab/CHN2HH2O_a/out_0030/pw.inp
Warning: card &CELL ignored
Warning: card   CELL_DYNAMICS='IPI', ignored
Warning: card / ignored

     Current dimensions of program PWSCF are:
     Max number of different atomic species (ntypx) = 10
     Max number of k-points (npk) =  40000
     Max angular momentum in pseudopotentials (lmaxx) =  3
     Presently no symmetry can be used with electric field

     Message from routine cell_base_init:
     DEPRECATED: use true lattice parameter, not A to a.u. conversion factor

     **************************************************************************
     Initializing libbeef V0.1.2 with the BEEF-vdW functional.
     Citation: Wellendorff et al., PRB 85, 235149 (2012).
     **************************************************************************


     IMPORTANT: XC functional enforced from input :
     Exchange-correlation= BEEF-VDW
                           (   1   4  43  14   2   0   0)
     Any further DFT definition will be discarded
     Please, verify this is what you really want


     Subspace diagonalization in iterative solution of the eigenvalue problem:
     one sub-group per band group will be used
     scalapack distributed-memory algorithm (size of sub-group:  3*  3 procs)

  @ DRIVER MODE: Connecting to 
 qe_1139763_2852626.sched-torque.pace.gatech.edugl7_g97r_scratch
  using UNIX socket
  @ DRIVER MODE: Message from server: STATUS
  @ DRIVER MODE: Message from server: INIT
  @ DRIVER MODE: Receiving replica           0          -1
  @ DRIVER MODE: Receiving encoded integer          25
  @ DRIVER MODE:  SCF:  T  FORCE:  T  STRESS:  F  VC:  F  ENSEMBLE:  F
  @ DRIVER MODE:  SCF:  T  FORCE:  T  STRESS:  F  VC:  F  ENSEMBLE:  F
 
     Parallelization info
     --------------------
     sticks:   dense  smooth     PW     G-vecs:    dense   smooth      PW
     Min         327     131     37                56683    14340    2191
     Max         328     133     38                56694    14346    2206
     Sum        3275    1317    379               566857   143421   21985
 
     Using Slab Decomposition
 


     bravais-lattice index     =            0
     lattice parameter (alat)  =       1.8897  a.u.
     unit-cell volume          =    6658.9804 (a.u.)^3
     number of atoms/cell      =           55
     number of atomic types    =            5
     number of electrons       =       402.00
     number of Kohn-Sham states=          211
     kinetic-energy cutoff     =      29.3995  Ry
     charge density cutoff     =     293.9946  Ry
     scf convergence threshold =      7.3E-08
     mixing beta               =       0.0500
     number of iterations used =            8  plain     mixing
     Exchange-correlation= BEEF-VDW
                           (   1   4  43  14   2   0   0)

     celldm(1)=   1.889726  celldm(2)=   0.000000  celldm(3)=   0.000000
     celldm(4)=   0.000000  celldm(5)=   0.000000  celldm(6)=   0.000000

     crystal axes: (cart. coord. in units of alat)
               a(1) = (   6.579727   0.000000   0.000000 )  
               a(2) = (  -0.000775   5.961596   0.000000 )  
               a(3) = (   0.000000   0.000000  25.155947 )  

     reciprocal axes: (cart. coord. in units 2 pi/alat)
               b(1) = (  0.151982  0.000020  0.000000 )  
               b(2) = (  0.000000  0.167740  0.000000 )  
               b(3) = (  0.000000  0.000000  0.039752 )  


     PseudoPot. # 1 for Ti read from file:
     /storage/coda1/p-amedford6/0/shared/rich_project_chbe-medford/medford-share/data/pseudos_module/espresso/nninc/pbe/van/Ti.UPF
     MD5 check sum: 8e4df49b7f0d34bbd5052bf3f5ea0213
     Pseudo is Ultrasoft, Zval = 12.0
     Generated by new atomic code, or converted to UPF format
     Using radial grid of  851 points,  6 beta functions with: 
                l(1) =   0
                l(2) =   0
                l(3) =   1
                l(4) =   1
                l(5) =   2
                l(6) =   2
     Q(r) pseudized with  8 coefficients,  rinner =    1.000   1.000   1.000
                                                       1.000   1.000

     PseudoPot. # 2 for O  read from file:
     /storage/coda1/p-amedford6/0/shared/rich_project_chbe-medford/medford-share/data/pseudos_module/espresso/nninc/pbe/van/O.UPF
     MD5 check sum: 78c19812648e8988a0fe644b0f25305e
     Pseudo is Ultrasoft, Zval =  6.0
     Generated by new atomic code, or converted to UPF format
     Using radial grid of  737 points,  4 beta functions with: 
                l(1) =   0
                l(2) =   0
                l(3) =   1
                l(4) =   1
     Q(r) pseudized with  8 coefficients,  rinner =    0.800   0.800   0.800


     PseudoPot. # 3 for N  read from file:
     /storage/coda1/p-amedford6/0/shared/rich_project_chbe-medford/medford-share/data/pseudos_module/espresso/nninc/pbe/van/N.UPF
     MD5 check sum: 90d10febe142ad51ac9d5be1deb811c4
     Pseudo is Ultrasoft, Zval =  5.0
     Generated by new atomic code, or converted to UPF format
     Using radial grid of  729 points,  4 beta functions with: 
                l(1) =   0
                l(2) =   0
                l(3) =   1
                l(4) =   1
     Q(r) pseudized with  8 coefficients,  rinner =    0.800   0.800   0.800


     PseudoPot. # 4 for C  read from file:
     /storage/coda1/p-amedford6/0/shared/rich_project_chbe-medford/medford-share/data/pseudos_module/espresso/nninc/pbe/van/C.UPF
     MD5 check sum: 1a69bf6b8db32088f5b2163dbdb77a27
     Pseudo is Ultrasoft, Zval =  4.0
     Generated by new atomic code, or converted to UPF format
     Using radial grid of  721 points,  4 beta functions with: 
                l(1) =   0
                l(2) =   0
                l(3) =   1
                l(4) =   1
     Q(r) pseudized with  8 coefficients,  rinner =    0.800   0.800   0.800


     PseudoPot. # 5 for H  read from file:
     /storage/coda1/p-amedford6/0/shared/rich_project_chbe-medford/medford-share/data/pseudos_module/espresso/nninc/pbe/van/H.UPF
     MD5 check sum: b5ee9d7bfd3a09ee7748110bda690ff7
     Pseudo is Ultrasoft, Zval =  1.0
     Generated by new atomic code, or converted to UPF format
     Using radial grid of  615 points,  1 beta functions with: 
                l(1) =   0
     Q(r) pseudized with  8 coefficients,  rinner =    0.800

     atomic species   valence    mass     pseudopotential
        Ti1           12.00    47.86700     Ti( 1.00)
        O1             6.00    15.99900     O ( 1.00)
        N1             5.00    14.00700     N ( 1.00)
        C1             4.00    12.01100     C ( 1.00)
        H1             1.00     1.00800     H ( 1.00)

     No symmetry found



   Cartesian axes

     site n.     atom                  positions (alat units)
         1           Ti1 tau(   1) = (   0.0004258   2.9801865   6.0000000  )
         2           Ti1 tau(   2) = (   3.2906075   1.4906267   6.0002472  )
         3           O1  tau(   3) = (   0.0006271   0.0005054   7.9858123  )
         4           O1  tau(   4) = (   3.2906025   0.0005020   7.3038282  )
         5           O1  tau(   5) = (   4.5942328   1.4918067   9.2879030  )
         6           O1  tau(   6) = (   1.9868534   1.4903216   9.2879459  )
         7           Ti1 tau(   7) = (   3.2907910   2.8959150   9.1758416  )
         8           Ti1 tau(   8) = (   0.0015273   1.4827037   9.2680791  )
         9           O1  tau(   9) = (   3.2768631   0.0039008  11.3091060  )
        10           O1  tau(  10) = (   0.0116148   5.9584955  10.6183126  )
        11           O1  tau(  11) = (   1.2710838   1.4709840  12.6395574  )
        12           O1  tau(  12) = (   5.2772223   1.5075092  12.6020671  )
        13           Ti1 tau(  13) = (   0.0276258   2.9086511  12.7028215  )
        14           Ti1 tau(  14) = (   3.3492493   1.4375301  12.4845766  )
        15           O1  tau(  15) = (   6.5006329   5.9509897  14.6081112  )
        16           O1  tau(  16) = (   3.3450391   0.0041935  13.9069437  )
        17           O1  tau(  17) = (   4.5555219   1.5659029  16.0522165  )
        18           O1  tau(  18) = (   1.9836904   1.4119734  15.8927236  )
        19           Ti1 tau(  19) = (   3.2827818   2.9316656  15.8555152  )
        20           Ti1 tau(  20) = (   6.5629331   1.3437128  15.9803530  )
        21           O1  tau(  21) = (   3.2904802   0.0005063   4.7018136  )
        22           O1  tau(  22) = (   6.5074089   5.9525318  17.1494500  )
        23           O1  tau(  23) = (   1.3043587   1.4918075   6.0039043  )
        24           O1  tau(  24) = (   5.2767064   1.4903225   6.0039473  )
        25           Ti1 tau(  25) = (   0.0000382   5.9609847   6.0000000  )
        26           Ti1 tau(  26) = (   3.2902200   4.4714249   6.0002472  )
        27           O1  tau(  27) = (   0.0002396   2.9813036   7.9858123  )
        28           O1  tau(  28) = (   3.2902150   2.9813002   7.3038282  )
        29           O1  tau(  29) = (   4.5938453   4.4726049   9.2879030  )
        30           O1  tau(  30) = (   1.9864658   4.4711199   9.2879459  )
        31           Ti1 tau(  31) = (   3.2891106   5.8743827   9.1763621  )
        32           Ti1 tau(  32) = (   0.0006254   4.4649316   9.2693709  )
        33           O1  tau(  33) = (   3.2854303   2.9668816  11.2996989  )
        34           O1  tau(  34) = (   0.0092240   2.9805883  10.6323155  )
        35           O1  tau(  35) = (   1.2743094   4.4851408  12.6236879  )
        36           O1  tau(  36) = (   5.2782958   4.4707264  12.5946799  )
        37           Ti1 tau(  37) = (   0.0481499   5.8920156  12.5607908  )
        38           Ti1 tau(  38) = (   3.3544845   4.3749597  12.5572158  )
        39           O1  tau(  39) = (   6.5410016   3.0017514  14.6365314  )
        40           O1  tau(  40) = (   3.2441134   3.0029108  13.8718978  )
        41           O1  tau(  41) = (   4.5385932   4.4028810  16.0550583  )
        42           O1  tau(  42) = (   1.9619458   4.5383001  15.8611175  )
        43           Ti1 tau(  43) = (   3.2178196   5.9097812  15.7399460  )
        44           Ti1 tau(  44) = (   6.5330930   4.4908980  15.8705378  )
        45           O1  tau(  45) = (   3.2900926   2.9813045   4.7018136  )
        46           O1  tau(  46) = (   1.3039711   4.4726057   6.0039043  )
        47           O1  tau(  47) = (   5.2763189   4.4711207   6.0039473  )
        48           N1  tau(  48) = (   1.2867840   3.0293760  18.3347772  )
        49           C1  tau(  49) = (   2.5003166   3.0326976  17.9707196  )
        50           H1  tau(  50) = (   3.2053588   3.1791635  18.8000936  )
        51           N1  tau(  51) = (   0.2138509   2.9871109  17.4421441  )
        52           H1  tau(  52) = (   5.9621615   2.9869774  18.0411354  )
        53           O1  tau(  53) = (   3.4290693   5.9360351  18.0748810  )
        54           H1  tau(  54) = (   4.3780305   0.1327944  18.2306609  )
        55           H1  tau(  55) = (   2.9458904   0.7245148  18.4607207  )

     number of k points=    10  Fermi-Dirac smearing, width (Ry)=  0.0073
                       cart. coord. in units 2pi/alat
        k(    1) = (   0.0000000   0.0000000   0.0000000), wk =   0.1250000
        k(    2) = (   0.0000000   0.0419351   0.0000000), wk =   0.2500000
        k(    3) = (   0.0000000  -0.0838702   0.0000000), wk =   0.1250000
        k(    4) = (   0.0379955   0.0000049   0.0000000), wk =   0.2500000
        k(    5) = (   0.0379955   0.0419400   0.0000000), wk =   0.2500000
        k(    6) = (   0.0379955  -0.0838652   0.0000000), wk =   0.2500000
        k(    7) = (   0.0379955  -0.0419301   0.0000000), wk =   0.2500000
        k(    8) = (  -0.0759910  -0.0000099   0.0000000), wk =   0.1250000
        k(    9) = (  -0.0759910   0.0419252   0.0000000), wk =   0.2500000
        k(   10) = (  -0.0759910  -0.0838800   0.0000000), wk =   0.1250000

     Dense  grid:   566857 G-vectors     FFT dimensions: (  72,  64, 270)

     Smooth grid:   143421 G-vectors     FFT dimensions: (  45,  40, 180)

     Estimated max dynamical RAM per process >     367.45 MB

     Estimated total dynamical RAM >       3.59 GB
     Cannot read rho : file not found

     Initial potential from superposition of free atoms

     starting charge  385.99915, renormalised to  402.00000

     negative rho (up, down):  1.830E-02 0.000E+00


     %%%%%%%%%%%%%%%%%%%%%%%%%%%%%%%%%%%%%%%%%%%%%%%%%%%%%%%%%%%%%%%%%%%%%%%%
     %                                                                      %
     % You are using vdW-DF, which was implemented by the Thonhauser group. %
     % Please cite the following two papers that made this development      %
     % possible and the two reviews that describe the various versions:     %
     %                                                                      %
     %   T. Thonhauser et al., PRL 115, 136402 (2015).                      %
     %   T. Thonhauser et al., PRB 76, 125112 (2007).                       %
     %   K. Berland et al., Rep. Prog. Phys. 78, 066501 (2015).             %
     %   D.C. Langreth et al., J. Phys.: Condens. Matter 21, 084203 (2009). %
     %                                                                      %
     %                                                                      %
     % If you are calculating the stress with vdW-DF, please also cite:     %
     %                                                                      %
     %   R. Sabatini et al., J. Phys.: Condens. Matter 24, 424209 (2012).   %
     %                                                                      %
     %%%%%%%%%%%%%%%%%%%%%%%%%%%%%%%%%%%%%%%%%%%%%%%%%%%%%%%%%%%%%%%%%%%%%%%%


 
     Adding external electric field

     Computed dipole along edir(3) : 
        Dipole              -11.0907 Ry au,        -28.1897 Debye
        Dipole field         -0.0209 Ry au, 
 
        Potential amp.        1.9401 Ry
        Total length         46.3494 bohr
 
     Starting wfcs are  304 atomic wfcs
  @ DRIVER MODE: Message from server: STATUS
  @ DRIVER MODE: Message from server: POSDATA
  @ DRIVER MODE: Reading and sharing cell 
  @ DRIVER MODE: Reading and sharing positions 
  @ DRIVER MODE: Received positions 

     total cpu time spent up to now is       11.3 secs

     Self-consistent Calculation

     iteration #  1     ecut=    29.40 Ry     beta= 0.05
     Davidson diagonalization with overlap
     c_bands:  5 eigenvalues not converged
     c_bands:  1 eigenvalues not converged
     c_bands:  3 eigenvalues not converged
     c_bands:  5 eigenvalues not converged
     c_bands:  1 eigenvalues not converged
     c_bands:  1 eigenvalues not converged
     c_bands:  1 eigenvalues not converged
     c_bands:  2 eigenvalues not converged
     c_bands:  2 eigenvalues not converged
     ethr =  1.00E-05,  avg # of iterations = 29.7

     negative rho (up, down):  1.066E-02 0.000E+00
 
     Adding external electric field

     Computed dipole along edir(3) : 
        Dipole               51.3649 Ry au,        130.5564 Debye
        Dipole field          0.0969 Ry au, 
 
        Potential amp.       -8.9855 Ry
        Total length         46.3494 bohr
 

     total cpu time spent up to now is       59.8 secs

     total energy              =   -2403.83421161 Ry
     estimated scf accuracy    <    6374.31051046 Ry

     iteration #  2     ecut=    29.40 Ry     beta= 0.05
     Davidson diagonalization with overlap
     ethr =  1.00E-02,  avg # of iterations = 26.0

     negative rho (up, down):  9.042E-04 0.000E+00
 
     Adding external electric field

     Computed dipole along edir(3) : 
        Dipole                0.0408 Ry au,          0.1038 Debye
        Dipole field          0.0001 Ry au, 
 
        Potential amp.       -0.0071 Ry
        Total length         46.3494 bohr
 

     total cpu time spent up to now is      136.9 secs

     total energy              =   -2482.50232351 Ry
     estimated scf accuracy    <   69792.50979598 Ry

     iteration #  3     ecut=    29.40 Ry     beta= 0.05
     Davidson diagonalization with overlap
     ethr =  1.00E-02,  avg # of iterations = 15.5

     negative rho (up, down):  9.761E-04 0.000E+00
 
     Adding external electric field

     Computed dipole along edir(3) : 
        Dipole               -3.1960 Ry au,         -8.1235 Debye
        Dipole field         -0.0060 Ry au, 
 
        Potential amp.        0.5591 Ry
        Total length         46.3494 bohr
 

     total cpu time spent up to now is      185.1 secs

     total energy              =   -2959.12480227 Ry
     estimated scf accuracy    <    5627.40012665 Ry

     iteration #  4     ecut=    29.40 Ry     beta= 0.05
     Davidson diagonalization with overlap
     ethr =  1.00E-02,  avg # of iterations = 12.4

     negative rho (up, down):  1.014E-03 0.000E+00
 
     Adding external electric field

     Computed dipole along edir(3) : 
        Dipole               -5.0493 Ry au,        -12.8339 Debye
        Dipole field         -0.0095 Ry au, 
 
        Potential amp.        0.8833 Ry
        Total length         46.3494 bohr
 

     total cpu time spent up to now is      205.4 secs

     total energy              =   -2958.77169140 Ry
     estimated scf accuracy    <    2045.55199798 Ry

     iteration #  5     ecut=    29.40 Ry     beta= 0.05
     Davidson diagonalization with overlap
     ethr =  1.00E-02,  avg # of iterations =  5.4

     negative rho (up, down):  1.096E-03 0.000E+00
 
     Adding external electric field

     Computed dipole along edir(3) : 
        Dipole               -6.9569 Ry au,        -17.6827 Debye
        Dipole field         -0.0131 Ry au, 
 
        Potential amp.        1.2170 Ry
        Total length         46.3494 bohr
 

     total cpu time spent up to now is      217.4 secs

     total energy              =   -2944.52503465 Ry
     estimated scf accuracy    <    1530.95626199 Ry

     iteration #  6     ecut=    29.40 Ry     beta= 0.05
     Davidson diagonalization with overlap
     ethr =  1.00E-02,  avg # of iterations = 10.9

     negative rho (up, down):  1.078E-03 0.000E+00
 
     Adding external electric field

     Computed dipole along edir(3) : 
        Dipole               -5.9555 Ry au,        -15.1373 Debye
        Dipole field         -0.0112 Ry au, 
 
        Potential amp.        1.0418 Ry
        Total length         46.3494 bohr
 

     total cpu time spent up to now is      240.1 secs

     total energy              =   -2976.57481703 Ry
     estimated scf accuracy    <      26.33108724 Ry

     iteration #  7     ecut=    29.40 Ry     beta= 0.05
     Davidson diagonalization with overlap
     ethr =  6.55E-03,  avg # of iterations =  1.5

     negative rho (up, down):  1.108E-03 0.000E+00
 
     Adding external electric field

     Computed dipole along edir(3) : 
        Dipole               -2.5884 Ry au,         -6.5791 Debye
        Dipole field         -0.0049 Ry au, 
 
        Potential amp.        0.4528 Ry
        Total length         46.3494 bohr
 

     total cpu time spent up to now is      250.4 secs

     total energy              =   -2973.18997848 Ry
     estimated scf accuracy    <      20.70878582 Ry

     iteration #  8     ecut=    29.40 Ry     beta= 0.05
     Davidson diagonalization with overlap
     ethr =  5.15E-03,  avg # of iterations =  5.6

     negative rho (up, down):  1.104E-03 0.000E+00
 
     Adding external electric field

     Computed dipole along edir(3) : 
        Dipole               -2.6239 Ry au,         -6.6692 Debye
        Dipole field         -0.0050 Ry au, 
 
        Potential amp.        0.4590 Ry
        Total length         46.3494 bohr
 

     total cpu time spent up to now is      262.3 secs

     total energy              =   -2974.88919622 Ry
     estimated scf accuracy    <     113.60263824 Ry

     iteration #  9     ecut=    29.40 Ry     beta= 0.05
     Davidson diagonalization with overlap
     ethr =  5.15E-03,  avg # of iterations =  1.5

     negative rho (up, down):  1.135E-03 0.000E+00
 
     Adding external electric field

     Computed dipole along edir(3) : 
        Dipole               -2.1178 Ry au,         -5.3829 Debye
        Dipole field         -0.0040 Ry au, 
 
        Potential amp.        0.3705 Ry
        Total length         46.3494 bohr
 

     total cpu time spent up to now is      272.3 secs

     total energy              =   -2975.32468498 Ry
     estimated scf accuracy    <     102.75768997 Ry

     iteration # 10     ecut=    29.40 Ry     beta= 0.05
     Davidson diagonalization with overlap
     ethr =  5.15E-03,  avg # of iterations =  2.5

     negative rho (up, down):  1.387E-03 0.000E+00
 
     Adding external electric field

     Computed dipole along edir(3) : 
        Dipole               -2.3827 Ry au,         -6.0561 Debye
        Dipole field         -0.0045 Ry au, 
 
        Potential amp.        0.4168 Ry
        Total length         46.3494 bohr
 

     total cpu time spent up to now is      282.8 secs

     total energy              =   -2970.85342164 Ry
     estimated scf accuracy    <     265.12667494 Ry

     iteration # 11     ecut=    29.40 Ry     beta= 0.05
     Davidson diagonalization with overlap
     ethr =  5.15E-03,  avg # of iterations =  2.4

     negative rho (up, down):  1.538E-03 0.000E+00
 
     Adding external electric field

     Computed dipole along edir(3) : 
        Dipole               -3.6645 Ry au,         -9.3143 Debye
        Dipole field         -0.0069 Ry au, 
 
        Potential amp.        0.6411 Ry
        Total length         46.3494 bohr
 

     total cpu time spent up to now is      294.0 secs

     total energy              =   -2970.47177926 Ry
     estimated scf accuracy    <     128.74168792 Ry

     iteration # 12     ecut=    29.40 Ry     beta= 0.05
     Davidson diagonalization with overlap
     ethr =  5.15E-03,  avg # of iterations =  3.6

     negative rho (up, down):  1.637E-03 0.000E+00
 
     Adding external electric field

     Computed dipole along edir(3) : 
        Dipole               -3.0848 Ry au,         -7.8408 Debye
        Dipole field         -0.0058 Ry au, 
 
        Potential amp.        0.5396 Ry
        Total length         46.3494 bohr
 

     total cpu time spent up to now is      305.0 secs

     total energy              =   -2973.24343688 Ry
     estimated scf accuracy    <       5.29362197 Ry

     iteration # 13     ecut=    29.40 Ry     beta= 0.05
     Davidson diagonalization with overlap
     ethr =  1.32E-03,  avg # of iterations =  8.0

     negative rho (up, down):  1.661E-03 0.000E+00
 
     Adding external electric field

     Computed dipole along edir(3) : 
        Dipole               -3.7760 Ry au,         -9.5976 Debye
        Dipole field         -0.0071 Ry au, 
 
        Potential amp.        0.6606 Ry
        Total length         46.3494 bohr
 

     total cpu time spent up to now is      318.2 secs

     total energy              =   -2973.93196451 Ry
     estimated scf accuracy    <      10.71595544 Ry

     iteration # 14     ecut=    29.40 Ry     beta= 0.05
     Davidson diagonalization with overlap
     ethr =  1.32E-03,  avg # of iterations = 16.2

     negative rho (up, down):  1.611E-03 0.000E+00
 
     Adding external electric field

     Computed dipole along edir(3) : 
        Dipole               -5.2034 Ry au,        -13.2258 Debye
        Dipole field         -0.0098 Ry au, 
 
        Potential amp.        0.9103 Ry
        Total length         46.3494 bohr
 

     total cpu time spent up to now is      336.2 secs

     total energy              =   -2976.43853227 Ry
     estimated scf accuracy    <      35.71681944 Ry

     iteration # 15     ecut=    29.40 Ry     beta= 0.05
     Davidson diagonalization with overlap
     c_bands:  1 eigenvalues not converged
     ethr =  1.32E-03,  avg # of iterations = 14.1

     negative rho (up, down):  1.605E-03 0.000E+00
 
     Adding external electric field

     Computed dipole along edir(3) : 
        Dipole               -4.0761 Ry au,        -10.3605 Debye
        Dipole field         -0.0077 Ry au, 
 
        Potential amp.        0.7131 Ry
        Total length         46.3494 bohr
 

     total cpu time spent up to now is      356.5 secs

     total energy              =   -2974.44323818 Ry
     estimated scf accuracy    <     481.52448761 Ry

     iteration # 16     ecut=    29.40 Ry     beta= 0.05
     Davidson diagonalization with overlap
     ethr =  1.32E-03,  avg # of iterations =  8.8

     negative rho (up, down):  1.636E-03 0.000E+00
 
     Adding external electric field

     Computed dipole along edir(3) : 
        Dipole               -4.1350 Ry au,        -10.5102 Debye
        Dipole field         -0.0078 Ry au, 
 
        Potential amp.        0.7234 Ry
        Total length         46.3494 bohr
 

     total cpu time spent up to now is      369.2 secs

     total energy              =   -2974.18120128 Ry
     estimated scf accuracy    <     143.89278281 Ry

     iteration # 17     ecut=    29.40 Ry     beta= 0.05
     Davidson diagonalization with overlap
     ethr =  1.32E-03,  avg # of iterations =  2.9

     negative rho (up, down):  1.690E-03 0.000E+00
 
     Adding external electric field

     Computed dipole along edir(3) : 
        Dipole               -3.4869 Ry au,         -8.8627 Debye
        Dipole field         -0.0066 Ry au, 
 
        Potential amp.        0.6100 Ry
        Total length         46.3494 bohr
 

     total cpu time spent up to now is      380.0 secs

     total energy              =   -2972.10206729 Ry
     estimated scf accuracy    <      92.43053238 Ry

     iteration # 18     ecut=    29.40 Ry     beta= 0.05
     Davidson diagonalization with overlap
     ethr =  1.32E-03,  avg # of iterations = 12.8

     negative rho (up, down):  1.689E-03 0.000E+00
 
     Adding external electric field

     Computed dipole along edir(3) : 
        Dipole               -2.7321 Ry au,         -6.9442 Debye
        Dipole field         -0.0052 Ry au, 
 
        Potential amp.        0.4779 Ry
        Total length         46.3494 bohr
 

     total cpu time spent up to now is      395.9 secs

     total energy              =   -2972.79568873 Ry
     estimated scf accuracy    <       9.36882209 Ry

     iteration # 19     ecut=    29.40 Ry     beta= 0.05
     Davidson diagonalization with overlap
     ethr =  1.32E-03,  avg # of iterations =  5.8

     negative rho (up, down):  1.846E-03 0.000E+00
 
     Adding external electric field

     Computed dipole along edir(3) : 
        Dipole               -1.8544 Ry au,         -4.7133 Debye
        Dipole field         -0.0035 Ry au, 
 
        Potential amp.        0.3244 Ry
        Total length         46.3494 bohr
 

     total cpu time spent up to now is      407.4 secs

     total energy              =   -2972.49376524 Ry
     estimated scf accuracy    <       2.94689810 Ry

     iteration # 20     ecut=    29.40 Ry     beta= 0.05
     Davidson diagonalization with overlap
     c_bands:  2 eigenvalues not converged
     c_bands:  3 eigenvalues not converged
     c_bands:  1 eigenvalues not converged
     ethr =  7.33E-04,  avg # of iterations = 15.4

     negative rho (up, down):  2.490E-03 0.000E+00
 
     Adding external electric field

     Computed dipole along edir(3) : 
        Dipole               -0.4825 Ry au,         -1.2263 Debye
        Dipole field         -0.0009 Ry au, 
 
        Potential amp.        0.0844 Ry
        Total length         46.3494 bohr
 

     total cpu time spent up to now is      425.8 secs

     total energy              =   -2972.91579005 Ry
     estimated scf accuracy    <       1.54869620 Ry

     iteration # 21     ecut=    29.40 Ry     beta= 0.05
     Davidson diagonalization with overlap
     c_bands:  1 eigenvalues not converged
     ethr =  3.85E-04,  avg # of iterations = 17.4

     negative rho (up, down):  1.859E-03 0.000E+00
 
     Adding external electric field

     Computed dipole along edir(3) : 
        Dipole               -1.8485 Ry au,         -4.6984 Debye
        Dipole field         -0.0035 Ry au, 
 
        Potential amp.        0.3234 Ry
        Total length         46.3494 bohr
 

     total cpu time spent up to now is      446.7 secs

     total energy              =   -2971.35273954 Ry
     estimated scf accuracy    <      27.73396987 Ry

     iteration # 22     ecut=    29.40 Ry     beta= 0.05
     Davidson diagonalization with overlap
     c_bands:  1 eigenvalues not converged
     ethr =  3.85E-04,  avg # of iterations = 15.2

     negative rho (up, down):  1.870E-03 0.000E+00
 
     Adding external electric field

     Computed dipole along edir(3) : 
        Dipole               -1.8519 Ry au,         -4.7070 Debye
        Dipole field         -0.0035 Ry au, 
 
        Potential amp.        0.3240 Ry
        Total length         46.3494 bohr
 

     total cpu time spent up to now is      467.0 secs

     total energy              =   -2972.86315562 Ry
     estimated scf accuracy    <       1.59064119 Ry

     iteration # 23     ecut=    29.40 Ry     beta= 0.05
     Davidson diagonalization with overlap
     ethr =  3.85E-04,  avg # of iterations =  1.1

     negative rho (up, down):  2.330E-03 0.000E+00
 
     Adding external electric field

     Computed dipole along edir(3) : 
        Dipole               -1.1511 Ry au,         -2.9257 Debye
        Dipole field         -0.0022 Ry au, 
 
        Potential amp.        0.2014 Ry
        Total length         46.3494 bohr
 

     total cpu time spent up to now is      477.0 secs

     total energy              =   -2972.66717698 Ry
     estimated scf accuracy    <       1.36415938 Ry

     iteration # 24     ecut=    29.40 Ry     beta= 0.05
     Davidson diagonalization with overlap
     ethr =  3.39E-04,  avg # of iterations =  5.6

     negative rho (up, down):  2.841E-03 0.000E+00
 
     Adding external electric field

     Computed dipole along edir(3) : 
        Dipole               -0.4585 Ry au,         -1.1653 Debye
        Dipole field         -0.0009 Ry au, 
 
        Potential amp.        0.0802 Ry
        Total length         46.3494 bohr
 

     total cpu time spent up to now is      490.3 secs

     total energy              =   -2972.66805540 Ry
     estimated scf accuracy    <       0.76825516 Ry

     iteration # 25     ecut=    29.40 Ry     beta= 0.05
     Davidson diagonalization with overlap
     ethr =  1.91E-04,  avg # of iterations =  7.8

     negative rho (up, down):  3.218E-03 0.000E+00
 
     Adding external electric field

     Computed dipole along edir(3) : 
        Dipole               -0.2356 Ry au,         -0.5989 Debye
        Dipole field         -0.0004 Ry au, 
 
        Potential amp.        0.0412 Ry
        Total length         46.3494 bohr
 

     total cpu time spent up to now is      502.9 secs

     total energy              =   -2972.68551550 Ry
     estimated scf accuracy    <       0.39219933 Ry

     iteration # 26     ecut=    29.40 Ry     beta= 0.05
     Davidson diagonalization with overlap
     ethr =  9.76E-05,  avg # of iterations = 11.8

     negative rho (up, down):  3.538E-03 0.000E+00
 
     Adding external electric field

     Computed dipole along edir(3) : 
        Dipole               -0.3609 Ry au,         -0.9174 Debye
        Dipole field         -0.0007 Ry au, 
 
        Potential amp.        0.0631 Ry
        Total length         46.3494 bohr
 

     total cpu time spent up to now is      517.8 secs

     total energy              =   -2972.69913906 Ry
     estimated scf accuracy    <       0.34063746 Ry

     iteration # 27     ecut=    29.40 Ry     beta= 0.05
     Davidson diagonalization with overlap
     ethr =  8.47E-05,  avg # of iterations =  1.5

     negative rho (up, down):  7.173E-03 0.000E+00
 
     Adding external electric field

     Computed dipole along edir(3) : 
        Dipole               -0.2859 Ry au,         -0.7266 Debye
        Dipole field         -0.0005 Ry au, 
 
        Potential amp.        0.0500 Ry
        Total length         46.3494 bohr
 

     total cpu time spent up to now is      528.1 secs

     total energy              =   -2972.66465002 Ry
     estimated scf accuracy    <       0.26180809 Ry

     iteration # 28     ecut=    29.40 Ry     beta= 0.05
     Davidson diagonalization with overlap
     c_bands:  2 eigenvalues not converged
     c_bands:  5 eigenvalues not converged
     c_bands:  1 eigenvalues not converged
     c_bands:  1 eigenvalues not converged
     c_bands:  3 eigenvalues not converged
     c_bands:  1 eigenvalues not converged
     c_bands:  1 eigenvalues not converged
     ethr =  6.51E-05,  avg # of iterations = 19.2

     negative rho (up, down):  6.106E-03 0.000E+00
 
     Adding external electric field

     Computed dipole along edir(3) : 
        Dipole                0.0616 Ry au,          0.1565 Debye
        Dipole field          0.0001 Ry au, 
 
        Potential amp.       -0.0108 Ry
        Total length         46.3494 bohr
 

     total cpu time spent up to now is      548.1 secs

     total energy              =   -2972.67414885 Ry
     estimated scf accuracy    <       0.92795410 Ry

     iteration # 29     ecut=    29.40 Ry     beta= 0.05
     Davidson diagonalization with overlap
     ethr =  6.51E-05,  avg # of iterations =  5.4

     negative rho (up, down):  6.135E-03 0.000E+00
 
     Adding external electric field

     Computed dipole along edir(3) : 
        Dipole                0.4711 Ry au,          1.1975 Debye
        Dipole field          0.0009 Ry au, 
 
        Potential amp.       -0.0824 Ry
        Total length         46.3494 bohr
 

     total cpu time spent up to now is      559.8 secs

     total energy              =   -2972.69571223 Ry
     estimated scf accuracy    <       0.10425477 Ry

     iteration # 30     ecut=    29.40 Ry     beta= 0.05
     Davidson diagonalization with overlap
     c_bands:  2 eigenvalues not converged
     c_bands:  2 eigenvalues not converged
     c_bands:  2 eigenvalues not converged
     c_bands:  5 eigenvalues not converged
     c_bands:  4 eigenvalues not converged
     c_bands:  2 eigenvalues not converged
     c_bands:  1 eigenvalues not converged
     c_bands:  1 eigenvalues not converged
     ethr =  2.59E-05,  avg # of iterations = 19.0

     negative rho (up, down):  7.452E-03 0.000E+00
 
     Adding external electric field

     Computed dipole along edir(3) : 
        Dipole               -0.0731 Ry au,         -0.1859 Debye
        Dipole field         -0.0001 Ry au, 
 
        Potential amp.        0.0128 Ry
        Total length         46.3494 bohr
 

     total cpu time spent up to now is      580.0 secs

     total energy              =   -2972.65653426 Ry
     estimated scf accuracy    <       0.26879749 Ry

     iteration # 31     ecut=    29.40 Ry     beta= 0.05
     Davidson diagonalization with overlap
     c_bands:  1 eigenvalues not converged
     c_bands:  2 eigenvalues not converged
     c_bands:  1 eigenvalues not converged
     c_bands:  2 eigenvalues not converged
     c_bands:  3 eigenvalues not converged
     c_bands:  1 eigenvalues not converged
     ethr =  2.59E-05,  avg # of iterations = 17.4

     negative rho (up, down):  6.918E-03 0.000E+00
 
     Adding external electric field

     Computed dipole along edir(3) : 
        Dipole                0.1388 Ry au,          0.3528 Debye
        Dipole field          0.0003 Ry au, 
 
        Potential amp.       -0.0243 Ry
        Total length         46.3494 bohr
 

     total cpu time spent up to now is      600.7 secs

     total energy              =   -2972.68008795 Ry
     estimated scf accuracy    <       0.09819964 Ry

     iteration # 32     ecut=    29.40 Ry     beta= 0.05
     Davidson diagonalization with overlap
     ethr =  2.44E-05,  avg # of iterations =  7.3

     negative rho (up, down):  7.840E-03 0.000E+00
 
     Adding external electric field

     Computed dipole along edir(3) : 
        Dipole                0.1927 Ry au,          0.4898 Debye
        Dipole field          0.0004 Ry au, 
 
        Potential amp.       -0.0337 Ry
        Total length         46.3494 bohr
 

     total cpu time spent up to now is      613.1 secs

     total energy              =   -2972.68666552 Ry
     estimated scf accuracy    <       0.07416822 Ry

     iteration # 33     ecut=    29.40 Ry     beta= 0.05
     Davidson diagonalization with overlap
     ethr =  1.84E-05,  avg # of iterations =  2.0

     negative rho (up, down):  1.002E-02 0.000E+00
 
     Adding external electric field

     Computed dipole along edir(3) : 
        Dipole                0.2212 Ry au,          0.5622 Debye
        Dipole field          0.0004 Ry au, 
 
        Potential amp.       -0.0387 Ry
        Total length         46.3494 bohr
 

     total cpu time spent up to now is      624.0 secs

     total energy              =   -2972.68690609 Ry
     estimated scf accuracy    <       0.01823325 Ry

     iteration # 34     ecut=    29.40 Ry     beta= 0.05
     Davidson diagonalization with overlap
     c_bands:  2 eigenvalues not converged
     c_bands:  3 eigenvalues not converged
     c_bands:  1 eigenvalues not converged
     c_bands:  1 eigenvalues not converged
     c_bands:  2 eigenvalues not converged
     c_bands:  1 eigenvalues not converged
     c_bands:  3 eigenvalues not converged
     ethr =  4.54E-06,  avg # of iterations = 19.0

     negative rho (up, down):  1.046E-02 0.000E+00
 
     Adding external electric field

     Computed dipole along edir(3) : 
        Dipole                0.3261 Ry au,          0.8288 Debye
        Dipole field          0.0006 Ry au, 
 
        Potential amp.       -0.0570 Ry
        Total length         46.3494 bohr
 

     total cpu time spent up to now is      646.3 secs

     total energy              =   -2972.68526878 Ry
     estimated scf accuracy    <       0.26609806 Ry

     iteration # 35     ecut=    29.40 Ry     beta= 0.05
     Davidson diagonalization with overlap
     c_bands:  1 eigenvalues not converged
     c_bands:  1 eigenvalues not converged
     c_bands:  1 eigenvalues not converged
     ethr =  4.54E-06,  avg # of iterations = 14.7

     negative rho (up, down):  1.248E-02 0.000E+00
 
     Adding external electric field

     Computed dipole along edir(3) : 
        Dipole                0.2951 Ry au,          0.7501 Debye
        Dipole field          0.0006 Ry au, 
 
        Potential amp.       -0.0516 Ry
        Total length         46.3494 bohr
 

     total cpu time spent up to now is      661.8 secs

     total energy              =   -2972.68968966 Ry
     estimated scf accuracy    <       0.00580348 Ry

     iteration # 36     ecut=    29.40 Ry     beta= 0.05
     Davidson diagonalization with overlap
     c_bands:  1 eigenvalues not converged
     c_bands:  1 eigenvalues not converged
     c_bands:  1 eigenvalues not converged
     c_bands:  2 eigenvalues not converged
     c_bands:  1 eigenvalues not converged
     ethr =  1.44E-06,  avg # of iterations = 15.5

     negative rho (up, down):  1.433E-02 0.000E+00
 
     Adding external electric field

     Computed dipole along edir(3) : 
        Dipole                0.3408 Ry au,          0.8663 Debye
        Dipole field          0.0006 Ry au, 
 
        Potential amp.       -0.0596 Ry
        Total length         46.3494 bohr
 

     total cpu time spent up to now is      677.7 secs

     total energy              =   -2972.69052578 Ry
     estimated scf accuracy    <       0.02002102 Ry

     iteration # 37     ecut=    29.40 Ry     beta= 0.05
     Davidson diagonalization with overlap
     c_bands:  1 eigenvalues not converged
     ethr =  1.44E-06,  avg # of iterations =  4.9

     negative rho (up, down):  1.729E-02 0.000E+00
 
     Adding external electric field

     Computed dipole along edir(3) : 
        Dipole                0.4158 Ry au,          1.0570 Debye
        Dipole field          0.0008 Ry au, 
 
        Potential amp.       -0.0727 Ry
        Total length         46.3494 bohr
 

     total cpu time spent up to now is      688.9 secs

     total energy              =   -2972.69040428 Ry
     estimated scf accuracy    <       0.01088121 Ry

     iteration # 38     ecut=    29.40 Ry     beta= 0.05
     Davidson diagonalization with overlap
     c_bands:  1 eigenvalues not converged
     c_bands:  1 eigenvalues not converged
     c_bands:  1 eigenvalues not converged
     ethr =  1.44E-06,  avg # of iterations = 11.0

     negative rho (up, down):  1.727E-02 0.000E+00
 
     Adding external electric field

     Computed dipole along edir(3) : 
        Dipole                0.3639 Ry au,          0.9250 Debye
        Dipole field          0.0007 Ry au, 
 
        Potential amp.       -0.0637 Ry
        Total length         46.3494 bohr
 

     total cpu time spent up to now is      702.3 secs

     total energy              =   -2972.69028457 Ry
     estimated scf accuracy    <       0.00330059 Ry

     iteration # 39     ecut=    29.40 Ry     beta= 0.05
     Davidson diagonalization with overlap
     c_bands:  2 eigenvalues not converged
     c_bands:  1 eigenvalues not converged
     c_bands:  1 eigenvalues not converged
     c_bands:  3 eigenvalues not converged
     ethr =  8.21E-07,  avg # of iterations = 12.8

     negative rho (up, down):  1.735E-02 0.000E+00
 
     Adding external electric field

     Computed dipole along edir(3) : 
        Dipole                0.3617 Ry au,          0.9195 Debye
        Dipole field          0.0007 Ry au, 
 
        Potential amp.       -0.0633 Ry
        Total length         46.3494 bohr
 

     total cpu time spent up to now is      718.4 secs

     total energy              =   -2972.69067554 Ry
     estimated scf accuracy    <       0.00069643 Ry

     iteration # 40     ecut=    29.40 Ry     beta= 0.05
     Davidson diagonalization with overlap
     ethr =  1.73E-07,  avg # of iterations =  7.3

     negative rho (up, down):  1.733E-02 0.000E+00
 
     Adding external electric field

     Computed dipole along edir(3) : 
        Dipole                0.3618 Ry au,          0.9197 Debye
        Dipole field          0.0007 Ry au, 
 
        Potential amp.       -0.0633 Ry
        Total length         46.3494 bohr
 

     total cpu time spent up to now is      731.3 secs

     total energy              =   -2972.69076566 Ry
     estimated scf accuracy    <       0.00045675 Ry

     iteration # 41     ecut=    29.40 Ry     beta= 0.05
     Davidson diagonalization with overlap
     ethr =  1.14E-07,  avg # of iterations =  2.3

     negative rho (up, down):  1.742E-02 0.000E+00
 
     Adding external electric field

     Computed dipole along edir(3) : 
        Dipole                0.3664 Ry au,          0.9313 Debye
        Dipole field          0.0007 Ry au, 
 
        Potential amp.       -0.0641 Ry
        Total length         46.3494 bohr
 

     total cpu time spent up to now is      741.7 secs

     total energy              =   -2972.69079343 Ry
     estimated scf accuracy    <       0.00042350 Ry

     iteration # 42     ecut=    29.40 Ry     beta= 0.05
     Davidson diagonalization with overlap
     ethr =  1.05E-07,  avg # of iterations =  3.4

     negative rho (up, down):  1.871E-02 0.000E+00
 
     Adding external electric field

     Computed dipole along edir(3) : 
        Dipole                0.3855 Ry au,          0.9799 Debye
        Dipole field          0.0007 Ry au, 
 
        Potential amp.       -0.0674 Ry
        Total length         46.3494 bohr
 

     total cpu time spent up to now is      752.7 secs

     total energy              =   -2972.69082302 Ry
     estimated scf accuracy    <       0.00034859 Ry

     iteration # 43     ecut=    29.40 Ry     beta= 0.05
     Davidson diagonalization with overlap
     ethr =  8.67E-08,  avg # of iterations =  5.9

     negative rho (up, down):  1.887E-02 0.000E+00
 
     Adding external electric field

     Computed dipole along edir(3) : 
        Dipole                0.3799 Ry au,          0.9656 Debye
        Dipole field          0.0007 Ry au, 
 
        Potential amp.       -0.0665 Ry
        Total length         46.3494 bohr
 

     total cpu time spent up to now is      766.5 secs

     total energy              =   -2972.69087869 Ry
     estimated scf accuracy    <       0.00017757 Ry

     iteration # 44     ecut=    29.40 Ry     beta= 0.05
     Davidson diagonalization with overlap
     ethr =  4.42E-08,  avg # of iterations =  5.1

     negative rho (up, down):  1.833E-02 0.000E+00
 
     Adding external electric field

     Computed dipole along edir(3) : 
        Dipole                0.3681 Ry au,          0.9356 Debye
        Dipole field          0.0007 Ry au, 
 
        Potential amp.       -0.0644 Ry
        Total length         46.3494 bohr
 

     total cpu time spent up to now is      778.4 secs

     total energy              =   -2972.69088359 Ry
     estimated scf accuracy    <       0.00012116 Ry

     iteration # 45     ecut=    29.40 Ry     beta= 0.05
     Davidson diagonalization with overlap
     ethr =  3.01E-08,  avg # of iterations =  6.3

     negative rho (up, down):  1.846E-02 0.000E+00
 
     Adding external electric field

     Computed dipole along edir(3) : 
        Dipole                0.3670 Ry au,          0.9328 Debye
        Dipole field          0.0007 Ry au, 
 
        Potential amp.       -0.0642 Ry
        Total length         46.3494 bohr
 

     total cpu time spent up to now is      794.4 secs

     total energy              =   -2972.69094223 Ry
     estimated scf accuracy    <       0.00023709 Ry

     iteration # 46     ecut=    29.40 Ry     beta= 0.05
     Davidson diagonalization with overlap
     ethr =  3.01E-08,  avg # of iterations =  1.1

     negative rho (up, down):  1.865E-02 0.000E+00
 
     Adding external electric field

     Computed dipole along edir(3) : 
        Dipole                0.3810 Ry au,          0.9685 Debye
        Dipole field          0.0007 Ry au, 
 
        Potential amp.       -0.0667 Ry
        Total length         46.3494 bohr
 

     total cpu time spent up to now is      804.3 secs

     total energy              =   -2972.69085473 Ry
     estimated scf accuracy    <       0.00023071 Ry

     iteration # 47     ecut=    29.40 Ry     beta= 0.05
     Davidson diagonalization with overlap
     ethr =  3.01E-08,  avg # of iterations =  7.8

     negative rho (up, down):  1.829E-02 0.000E+00
 
     Adding external electric field

     Computed dipole along edir(3) : 
        Dipole                0.3731 Ry au,          0.9483 Debye
        Dipole field          0.0007 Ry au, 
 
        Potential amp.       -0.0653 Ry
        Total length         46.3494 bohr
 

     total cpu time spent up to now is      826.2 secs

     total energy              =   -2972.69097526 Ry
     estimated scf accuracy    <       0.00042210 Ry

     iteration # 48     ecut=    29.40 Ry     beta= 0.05
     Davidson diagonalization with overlap
     ethr =  3.01E-08,  avg # of iterations =  2.1

     negative rho (up, down):  1.827E-02 0.000E+00
 
     Adding external electric field

     Computed dipole along edir(3) : 
        Dipole                0.3727 Ry au,          0.9473 Debye
        Dipole field          0.0007 Ry au, 
 
        Potential amp.       -0.0652 Ry
        Total length         46.3494 bohr
 

     total cpu time spent up to now is      836.9 secs

     total energy              =   -2972.69099160 Ry
     estimated scf accuracy    <       0.00028955 Ry

     iteration # 49     ecut=    29.40 Ry     beta= 0.05
     Davidson diagonalization with overlap
     ethr =  3.01E-08,  avg # of iterations =  1.0

     negative rho (up, down):  1.825E-02 0.000E+00
 
     Adding external electric field

     Computed dipole along edir(3) : 
        Dipole                0.3723 Ry au,          0.9464 Debye
        Dipole field          0.0007 Ry au, 
 
        Potential amp.       -0.0651 Ry
        Total length         46.3494 bohr
 

     total cpu time spent up to now is      846.8 secs

     total energy              =   -2972.69100011 Ry
     estimated scf accuracy    <       0.00026897 Ry

     iteration # 50     ecut=    29.40 Ry     beta= 0.05
     Davidson diagonalization with overlap
     ethr =  3.01E-08,  avg # of iterations =  1.2

     negative rho (up, down):  1.832E-02 0.000E+00
 
     Adding external electric field

     Computed dipole along edir(3) : 
        Dipole                0.3683 Ry au,          0.9361 Debye
        Dipole field          0.0007 Ry au, 
 
        Potential amp.       -0.0644 Ry
        Total length         46.3494 bohr
 

     total cpu time spent up to now is      856.8 secs

     total energy              =   -2972.69095993 Ry
     estimated scf accuracy    <       0.00022288 Ry

     iteration # 51     ecut=    29.40 Ry     beta= 0.05
     Davidson diagonalization with overlap
     ethr =  3.01E-08,  avg # of iterations =  6.0

     negative rho (up, down):  1.816E-02 0.000E+00
 
     Adding external electric field

     Computed dipole along edir(3) : 
        Dipole                0.3655 Ry au,          0.9289 Debye
        Dipole field          0.0007 Ry au, 
 
        Potential amp.       -0.0639 Ry
        Total length         46.3494 bohr
 

     total cpu time spent up to now is      872.7 secs

     total energy              =   -2972.69100766 Ry
     estimated scf accuracy    <       0.00001798 Ry

     iteration # 52     ecut=    29.40 Ry     beta= 0.05
     Davidson diagonalization with overlap
     ethr =  4.47E-09,  avg # of iterations =  5.8

     negative rho (up, down):  1.819E-02 0.000E+00
 
     Adding external electric field

     Computed dipole along edir(3) : 
        Dipole                0.3690 Ry au,          0.9379 Debye
        Dipole field          0.0007 Ry au, 
 
        Potential amp.       -0.0645 Ry
        Total length         46.3494 bohr
 

     total cpu time spent up to now is      886.3 secs

     total energy              =   -2972.69101952 Ry
     estimated scf accuracy    <       0.00001084 Ry

     iteration # 53     ecut=    29.40 Ry     beta= 0.05
     Davidson diagonalization with overlap
     ethr =  2.70E-09,  avg # of iterations =  6.2

     negative rho (up, down):  1.817E-02 0.000E+00
 
     Adding external electric field

     Computed dipole along edir(3) : 
        Dipole                0.3661 Ry au,          0.9306 Debye
        Dipole field          0.0007 Ry au, 
 
        Potential amp.       -0.0640 Ry
        Total length         46.3494 bohr
 

     total cpu time spent up to now is      902.2 secs

     total energy              =   -2972.69102643 Ry
     estimated scf accuracy    <       0.00002437 Ry

     iteration # 54     ecut=    29.40 Ry     beta= 0.05
     Davidson diagonalization with overlap
     ethr =  2.70E-09,  avg # of iterations =  6.1

     negative rho (up, down):  1.812E-02 0.000E+00
 
     Adding external electric field

     Computed dipole along edir(3) : 
        Dipole                0.3656 Ry au,          0.9293 Debye
        Dipole field          0.0007 Ry au, 
 
        Potential amp.       -0.0640 Ry
        Total length         46.3494 bohr
 

     total cpu time spent up to now is      919.0 secs

     total energy              =   -2972.69103944 Ry
     estimated scf accuracy    <       0.00000538 Ry

     iteration # 55     ecut=    29.40 Ry     beta= 0.05
     Davidson diagonalization with overlap
     ethr =  1.34E-09,  avg # of iterations =  3.8

     negative rho (up, down):  1.805E-02 0.000E+00
 
     Adding external electric field

     Computed dipole along edir(3) : 
        Dipole                0.3661 Ry au,          0.9306 Debye
        Dipole field          0.0007 Ry au, 
 
        Potential amp.       -0.0640 Ry
        Total length         46.3494 bohr
 

     total cpu time spent up to now is      930.2 secs

     total energy              =   -2972.69104684 Ry
     estimated scf accuracy    <       0.00000503 Ry

     iteration # 56     ecut=    29.40 Ry     beta= 0.05
     Davidson diagonalization with overlap
     ethr =  1.25E-09,  avg # of iterations =  6.0

     negative rho (up, down):  1.795E-02 0.000E+00
 
     Adding external electric field

     Computed dipole along edir(3) : 
        Dipole                0.3657 Ry au,          0.9295 Debye
        Dipole field          0.0007 Ry au, 
 
        Potential amp.       -0.0640 Ry
        Total length         46.3494 bohr
 

     total cpu time spent up to now is      944.1 secs

     total energy              =   -2972.69105421 Ry
     estimated scf accuracy    <       0.00000304 Ry

     iteration # 57     ecut=    29.40 Ry     beta= 0.05
     Davidson diagonalization with overlap
     ethr =  7.56E-10,  avg # of iterations =  6.1

     negative rho (up, down):  1.793E-02 0.000E+00
 
     Adding external electric field

     Computed dipole along edir(3) : 
        Dipole                0.3649 Ry au,          0.9274 Debye
        Dipole field          0.0007 Ry au, 
 
        Potential amp.       -0.0638 Ry
        Total length         46.3494 bohr
 

     total cpu time spent up to now is      959.4 secs

     total energy              =   -2972.69106141 Ry
     estimated scf accuracy    <       0.00000194 Ry

     iteration # 58     ecut=    29.40 Ry     beta= 0.05
     Davidson diagonalization with overlap
     ethr =  4.81E-10,  avg # of iterations =  2.6

     negative rho (up, down):  1.791E-02 0.000E+00
 
     Adding external electric field

     Computed dipole along edir(3) : 
        Dipole                0.3639 Ry au,          0.9250 Debye
        Dipole field          0.0007 Ry au, 
 
        Potential amp.       -0.0637 Ry
        Total length         46.3494 bohr
 

     total cpu time spent up to now is      970.4 secs

     total energy              =   -2972.69106723 Ry
     estimated scf accuracy    <       0.00000112 Ry

     iteration # 59     ecut=    29.40 Ry     beta= 0.05
     Davidson diagonalization with overlap
     ethr =  2.79E-10,  avg # of iterations =  6.3

     negative rho (up, down):  1.791E-02 0.000E+00
 
     Adding external electric field

     Computed dipole along edir(3) : 
        Dipole                0.3648 Ry au,          0.9273 Debye
        Dipole field          0.0007 Ry au, 
 
        Potential amp.       -0.0638 Ry
        Total length         46.3494 bohr
 

     total cpu time spent up to now is      985.6 secs

     total energy              =   -2972.69107287 Ry
     estimated scf accuracy    <       0.00000078 Ry

     iteration # 60     ecut=    29.40 Ry     beta= 0.05
     Davidson diagonalization with overlap
     ethr =  1.94E-10,  avg # of iterations =  6.0

     negative rho (up, down):  1.788E-02 0.000E+00
 
     Adding external electric field

     Computed dipole along edir(3) : 
        Dipole                0.3643 Ry au,          0.9260 Debye
        Dipole field          0.0007 Ry au, 
 
        Potential amp.       -0.0637 Ry
        Total length         46.3494 bohr
 

     total cpu time spent up to now is     1000.3 secs

     total energy              =   -2972.69107799 Ry
     estimated scf accuracy    <       0.00000049 Ry

     iteration # 61     ecut=    29.40 Ry     beta= 0.05
     Davidson diagonalization with overlap
     ethr =  1.21E-10,  avg # of iterations =  5.8

     negative rho (up, down):  1.787E-02 0.000E+00
 
     Adding external electric field

     Computed dipole along edir(3) : 
        Dipole                0.3641 Ry au,          0.9255 Debye
        Dipole field          0.0007 Ry au, 
 
        Potential amp.       -0.0637 Ry
        Total length         46.3494 bohr
 

     total cpu time spent up to now is     1012.9 secs

     total energy              =   -2972.69108254 Ry
     estimated scf accuracy    <       0.00000016 Ry

     iteration # 62     ecut=    29.40 Ry     beta= 0.05
     Davidson diagonalization with overlap
     ethr =  3.97E-11,  avg # of iterations =  5.1

     negative rho (up, down):  1.786E-02 0.000E+00
 
     Adding external electric field

     Computed dipole along edir(3) : 
        Dipole                0.3641 Ry au,          0.9254 Debye
        Dipole field          0.0007 Ry au, 
 
        Potential amp.       -0.0637 Ry
        Total length         46.3494 bohr
 

     total cpu time spent up to now is     1026.2 secs

     total energy              =   -2972.69108656 Ry
     estimated scf accuracy    <       0.00000009 Ry

     iteration # 63     ecut=    29.40 Ry     beta= 0.05
     Davidson diagonalization with overlap
     ethr =  2.30E-11,  avg # of iterations =  5.4

     negative rho (up, down):  1.793E-02 0.000E+00
 
     Adding external electric field

     Computed dipole along edir(3) : 
        Dipole                0.3643 Ry au,          0.9259 Debye
        Dipole field          0.0007 Ry au, 
 
        Potential amp.       -0.0637 Ry
        Total length         46.3494 bohr
 

     total cpu time spent up to now is     1038.5 secs

     End of self-consistent calculation

          k = 0.0000 0.0000 0.0000 ( 18029 PWs)   bands (ev):

   -56.3420 -56.3082 -55.9400 -55.9063 -55.7518 -55.7153 -55.5600 -55.5551
   -55.5471 -55.5234 -55.5138 -55.4514 -55.2530 -55.2385 -55.1458 -55.1118
   -32.7955 -32.6346 -32.6077 -32.5002 -32.4193 -32.4151 -32.4073 -32.2407
   -32.1575 -32.1532 -32.0948 -32.0820 -32.0677 -32.0431 -32.0376 -31.9775
   -31.9745 -31.9662 -31.9329 -31.9091 -31.9091 -31.8657 -31.8509 -31.8422
   -31.8175 -31.7797 -31.7589 -31.7314 -31.7283 -31.7094 -31.7077 -31.7047
   -31.6893 -31.6692 -31.6525 -31.6388 -31.5501 -31.5444 -31.5112 -31.4977
   -31.4764 -31.4696 -31.4529 -31.4408 -31.3625 -31.3320 -31.2775 -31.1659
   -18.7451 -16.9355 -16.6590 -16.3470 -16.1450 -15.9618 -15.8983 -15.8397
   -15.7873 -15.6665 -15.6045 -15.5762 -15.5042 -15.3991 -15.3797 -15.3526
   -15.3014 -15.2842 -15.2673 -15.2384 -15.1845 -15.1498 -15.1327 -15.0568
   -15.0355 -15.0237 -14.8985 -14.8315 -14.8074 -14.7724 -14.5203 -13.6444
   -13.5314 -12.2623  -6.7061  -6.5229  -4.1608  -4.0856  -3.9056  -3.7672
    -3.6664  -3.6179  -3.4570  -3.4092  -3.3645  -3.2644  -3.1193  -3.0875
    -3.0149  -2.9645  -2.9215  -2.8634  -2.8039  -2.7591  -2.7169  -2.6341
    -2.6290  -2.6167  -2.5987  -2.5802  -2.5628  -2.4469  -2.3553  -2.3372
    -2.3142  -2.2712  -2.2521  -2.2398  -2.1897  -2.1601  -2.0767  -2.0674
    -2.0207  -1.9623  -1.9151  -1.8078  -1.7958  -1.7203  -1.7023  -1.6606
    -1.5289  -1.4050  -1.3744  -1.3219  -1.3093  -1.2244  -1.2040  -1.1761
    -1.0786  -1.0663  -1.0222  -1.0006  -0.8762  -0.8503  -0.8025  -0.7948
    -0.7654  -0.6687  -0.6310  -0.5194  -0.4752  -0.4301  -0.4204  -0.3458
    -0.3171  -0.2729  -0.2224  -0.1694  -0.1674  -0.1393  -0.0567  -0.0154
     0.0306   0.0793   0.1150   0.2030   0.2566   0.2930   0.3079   0.3960
     0.4388   0.4541   0.5191   0.5879   0.6392   0.7058   0.7491   0.8632
     0.8780   0.8952   0.9774   1.1000   1.4095   1.4311   1.4714   1.6628
     2.6487   2.8811   3.0021   3.1662   3.3114   3.3609   3.6308   3.6856
     3.7285   3.7616   3.8410

          k = 0.0000 0.0419 0.0000 ( 17933 PWs)   bands (ev):

   -56.3370 -56.3131 -55.9350 -55.9110 -55.7473 -55.7197 -55.5562 -55.5533
   -55.5423 -55.5284 -55.5185 -55.4506 -55.2537 -55.2388 -55.1407 -55.1167
   -32.7418 -32.6302 -32.6106 -32.4867 -32.4756 -32.4209 -32.3640 -32.1873
   -32.1454 -32.1440 -32.1132 -32.1025 -32.0765 -32.0165 -31.9856 -31.9689
   -31.9586 -31.9367 -31.9349 -31.9216 -31.9177 -31.8712 -31.8367 -31.8343
   -31.8105 -31.7830 -31.7568 -31.7541 -31.7391 -31.7240 -31.7141 -31.7055
   -31.7023 -31.6982 -31.6911 -31.6363 -31.5589 -31.5500 -31.4980 -31.4908
   -31.4859 -31.4728 -31.4670 -31.4561 -31.3502 -31.3320 -31.2899 -31.2228
   -18.7441 -16.9268 -16.5351 -16.2252 -16.0351 -15.9251 -15.8820 -15.7898
   -15.7341 -15.7276 -15.5856 -15.5312 -15.5042 -15.4402 -15.4394 -15.3732
   -15.3436 -15.2604 -15.2409 -15.2114 -15.2002 -15.1780 -15.1251 -15.1008
   -15.0783 -15.0605 -14.9502 -14.8933 -14.8358 -14.8197 -14.6048 -13.6502
   -13.5719 -12.2673  -6.7429  -6.4946  -4.0298  -3.9788  -3.7438  -3.7141
    -3.5097  -3.4600  -3.3949  -3.2765  -3.2472  -3.1317  -3.0676  -3.0457
    -3.0369  -2.9225  -2.8506  -2.8189  -2.7695  -2.7508  -2.7371  -2.6973
    -2.6839  -2.6531  -2.6167  -2.6084  -2.5738  -2.5485  -2.5150  -2.5015
    -2.4723  -2.4112  -2.3753  -2.3374  -2.2625  -2.2045  -2.1568  -2.1353
    -2.0483  -1.9547  -1.8435  -1.8050  -1.7568  -1.7103  -1.6049  -1.5175
    -1.4320  -1.4026  -1.2879  -1.2583  -1.1959  -1.1668  -1.0940  -1.0195
    -0.9875  -0.9601  -0.9403  -0.9000  -0.8639  -0.8169  -0.7861  -0.7428
    -0.7195  -0.6744  -0.6448  -0.5865  -0.5371  -0.5059  -0.4808  -0.4194
    -0.3608  -0.3410  -0.2694  -0.2565  -0.2185  -0.1400  -0.0843  -0.0645
    -0.0513   0.0207   0.0753   0.1301   0.1477   0.2073   0.2268   0.2467
     0.2790   0.3474   0.4303   0.5164   0.5388   0.5779   0.5885   0.6260
     0.7943   0.8607   1.0866   1.2011   1.2814   1.3839   1.4058   1.5828
     2.6466   3.1076   3.1539   3.2687   3.4570   3.5636   3.6061   3.6977
     3.7301   3.7693   3.8109

          k = 0.0000-0.0839 0.0000 ( 17884 PWs)   bands (ev):

   -56.3256 -56.3244 -55.9248 -55.9212 -55.7403 -55.7266 -55.5548 -55.5445
   -55.5384 -55.5318 -55.5286 -55.4498 -55.2543 -55.2392 -55.1287 -55.1286
   -32.6206 -32.6194 -32.6103 -32.6097 -32.4544 -32.4531 -32.2398 -32.2357
   -32.1235 -32.1217 -32.1172 -32.1100 -32.0625 -32.0498 -31.9683 -31.9467
   -31.9433 -31.9340 -31.8964 -31.8821 -31.8595 -31.8542 -31.8510 -31.8240
   -31.8142 -31.7993 -31.7990 -31.7959 -31.7723 -31.7483 -31.7446 -31.7149
   -31.7004 -31.6978 -31.6937 -31.6346 -31.6088 -31.5608 -31.5330 -31.4979
   -31.4717 -31.4643 -31.4642 -31.3587 -31.3585 -31.3322 -31.3202 -31.3200
   -18.7432 -16.9187 -16.2310 -16.2269 -15.9406 -15.9179 -15.8098 -15.7702
   -15.7061 -15.6646 -15.5836 -15.5834 -15.5397 -15.5096 -15.4560 -15.4447
   -15.3929 -15.2556 -15.2162 -15.2065 -15.1947 -15.1811 -15.0968 -15.0893
   -15.0612 -15.0495 -14.9872 -14.9843 -14.9706 -14.8195 -14.7446 -13.6348
   -13.6344 -12.2723  -6.7728  -6.4732  -3.9790  -3.7242  -3.5318  -3.5317
    -3.3094  -3.2974  -3.1914  -3.1789  -3.1317  -3.0922  -3.0883  -3.0657
    -3.0372  -3.0122  -2.9707  -2.9210  -2.9168  -2.8308  -2.8273  -2.8110
    -2.7886  -2.7228  -2.6838  -2.6289  -2.5935  -2.5589  -2.5125  -2.5041
    -2.4160  -2.3736  -2.3418  -2.3006  -2.2707  -2.1519  -2.0668  -2.0322
    -1.9793  -1.8198  -1.7923  -1.7499  -1.7120  -1.7016  -1.5678  -1.5367
    -1.4827  -1.3912  -1.3385  -1.2997  -1.2773  -1.2233  -1.1819  -1.1286
    -1.0642  -1.0404  -1.0284  -0.9699  -0.8012  -0.7810  -0.6972  -0.6631
    -0.6613  -0.6429  -0.5740  -0.5561  -0.4709  -0.4599  -0.4122  -0.4061
    -0.3585  -0.3530  -0.3194  -0.2818  -0.2068  -0.1933  -0.1588  -0.1300
    -0.1167  -0.0706  -0.0523   0.0263   0.0656   0.1032   0.1616   0.2010
     0.2057   0.2388   0.2581   0.3038   0.3484   0.3956   0.4287   0.7531
     0.7931   1.0039   1.0745   1.2312   1.2337   1.3239   1.3289   1.5457
     2.6356   3.3413   3.3431   3.4862   3.4881   3.5973   3.5987   3.6794
     3.7326   3.7395   3.7497

          k = 0.0380 0.0000 0.0000 ( 17913 PWs)   bands (ev):

   -56.3419 -56.3081 -55.9398 -55.9061 -55.7518 -55.7152 -55.5595 -55.5549
   -55.5475 -55.5233 -55.5137 -55.4513 -55.2528 -55.2384 -55.1456 -55.1117
   -32.7962 -32.6344 -32.6076 -32.4978 -32.4190 -32.4152 -32.4071 -32.2491
   -32.1572 -32.1394 -32.0849 -32.0820 -32.0679 -32.0448 -32.0394 -31.9807
   -31.9806 -31.9742 -31.9328 -31.9096 -31.9088 -31.8655 -31.8421 -31.8321
   -31.8069 -31.7789 -31.7590 -31.7283 -31.7280 -31.7240 -31.7082 -31.7064
   -31.6935 -31.6674 -31.6538 -31.6387 -31.5454 -31.5439 -31.5146 -31.4992
   -31.4792 -31.4698 -31.4511 -31.4409 -31.3623 -31.3323 -31.2774 -31.1657
   -18.7446 -16.9300 -16.5624 -16.2499 -16.0697 -15.9993 -15.9451 -15.8386
   -15.8081 -15.6772 -15.6238 -15.5728 -15.5101 -15.4927 -15.4177 -15.4107
   -15.3600 -15.3344 -15.2864 -15.2660 -15.1609 -15.1271 -15.0936 -15.0512
   -15.0012 -14.9481 -14.8963 -14.8533 -14.8261 -14.7930 -14.5202 -13.6415
   -13.5311 -12.2685  -6.6762  -6.4971  -4.0681  -3.8789  -3.7531  -3.6917
    -3.5806  -3.4691  -3.3631  -3.3535  -3.3302  -3.3047  -3.2584  -3.2026
    -3.1241  -2.9701  -2.9186  -2.8803  -2.8160  -2.7913  -2.7371  -2.6644
    -2.6229  -2.5850  -2.5498  -2.5413  -2.4743  -2.4015  -2.3532  -2.3190
    -2.3087  -2.2660  -2.2499  -2.1444  -2.1074  -2.0537  -2.0317  -1.9536
    -1.9414  -1.8541  -1.7898  -1.7524  -1.7376  -1.6975  -1.6838  -1.6769
    -1.6053  -1.5412  -1.4933  -1.3860  -1.3334  -1.2807  -1.2460  -1.1785
    -1.1623  -1.0921  -1.0316  -1.0165  -1.0079  -0.9396  -0.8493  -0.8164
    -0.7983  -0.7185  -0.6570  -0.6253  -0.4942  -0.4585  -0.4173  -0.3840
    -0.3577  -0.3142  -0.2850  -0.1756  -0.1200  -0.0813  -0.0623  -0.0263
     0.0102   0.0460   0.0767   0.1113   0.1691   0.2046   0.2379   0.2691
     0.3034   0.3966   0.4846   0.5547   0.5901   0.6760   0.7034   0.7389
     0.8535   0.8899   0.9125   1.0707   1.2901   1.3236   1.3901   1.6706
     2.6624   2.9772   2.9966   3.3008   3.3130   3.4414   3.5759   3.6288
     3.7498   3.8037   3.8625

          k = 0.0380 0.0419 0.0000 ( 17878 PWs)   bands (ev):

   -56.3369 -56.3130 -55.9349 -55.9110 -55.7472 -55.7197 -55.5560 -55.5529
   -55.5426 -55.5283 -55.5186 -55.4506 -55.2535 -55.2389 -55.1406 -55.1167
   -32.7425 -32.6300 -32.6107 -32.4848 -32.4756 -32.4206 -32.3642 -32.1989
   -32.1451 -32.1333 -32.1130 -32.0881 -32.0765 -32.0167 -31.9898 -31.9715
   -31.9683 -31.9400 -31.9351 -31.9203 -31.9194 -31.8720 -31.8344 -31.8195
   -31.8006 -31.7823 -31.7549 -31.7462 -31.7390 -31.7330 -31.7169 -31.7102
   -31.7047 -31.7008 -31.6946 -31.6362 -31.5630 -31.5427 -31.5020 -31.4905
   -31.4856 -31.4750 -31.4677 -31.4552 -31.3500 -31.3325 -31.2900 -31.2227
   -18.7437 -16.9230 -16.4452 -16.1346 -15.9765 -15.9479 -15.9050 -15.8525
   -15.7057 -15.6282 -15.5967 -15.5738 -15.5502 -15.5007 -15.4443 -15.4368
   -15.3604 -15.2887 -15.2659 -15.2417 -15.1907 -15.1765 -15.1315 -15.0987
   -15.0803 -15.0064 -14.9551 -14.9087 -14.8871 -14.8073 -14.6055 -13.6481
   -13.5721 -12.2733  -6.6992  -6.4839  -4.0230  -3.7435  -3.7012  -3.5529
    -3.4285  -3.3396  -3.2207  -3.2149  -3.1850  -3.1505  -3.1100  -3.0188
    -2.9469  -2.9062  -2.8635  -2.8254  -2.7952  -2.7668  -2.7353  -2.6970
    -2.6818  -2.6218  -2.6052  -2.5617  -2.5340  -2.5231  -2.5055  -2.4768
    -2.4010  -2.3832  -2.2886  -2.2750  -2.2150  -2.1924  -2.1456  -2.1033
    -2.0303  -1.9756  -1.8166  -1.7669  -1.7279  -1.6836  -1.5803  -1.5172
    -1.4852  -1.4651  -1.3743  -1.3434  -1.2773  -1.1906  -1.1628  -1.0961
    -1.0759  -1.0180  -0.9979  -0.9468  -0.9343  -0.8989  -0.8442  -0.8030
    -0.7654  -0.7410  -0.6805  -0.6668  -0.6178  -0.5861  -0.5328  -0.5138
    -0.4831  -0.4341  -0.4103  -0.3722  -0.2826  -0.2158  -0.1713  -0.1267
    -0.0634  -0.0380  -0.0023   0.0528   0.1405   0.1761   0.2151   0.2617
     0.2970   0.3312   0.4583   0.4915   0.5183   0.5800   0.6508   0.6746
     0.7399   0.8584   1.0971   1.1900   1.2396   1.3078   1.3649   1.6090
     2.6557   3.0955   3.2144   3.3806   3.5053   3.5105   3.6098   3.6859
     3.7499   3.8201   3.8531

          k = 0.0380-0.0839 0.0000 ( 17916 PWs)   bands (ev):

   -56.3256 -56.3245 -55.9248 -55.9212 -55.7404 -55.7267 -55.5548 -55.5443
   -55.5380 -55.5322 -55.5288 -55.4499 -55.2543 -55.2393 -55.1287 -55.1286
   -32.6206 -32.6194 -32.6110 -32.6104 -32.4535 -32.4522 -32.2401 -32.2360
   -32.1268 -32.1246 -32.1172 -32.1100 -32.0518 -32.0408 -31.9684 -31.9502
   -31.9468 -31.9407 -31.8970 -31.8848 -31.8625 -31.8603 -31.8553 -31.8265
   -31.8120 -31.7912 -31.7824 -31.7792 -31.7713 -31.7478 -31.7451 -31.7154
   -31.7110 -31.7080 -31.6982 -31.6349 -31.6094 -31.5570 -31.5304 -31.5026
   -31.4731 -31.4651 -31.4650 -31.3587 -31.3585 -31.3328 -31.3202 -31.3200
   -18.7430 -16.9164 -16.1688 -16.1635 -15.8986 -15.8791 -15.7931 -15.7866
   -15.7046 -15.6444 -15.6154 -15.5967 -15.5053 -15.4689 -15.4556 -15.4390
   -15.4120 -15.3183 -15.2789 -15.2437 -15.1986 -15.1754 -15.1626 -15.1295
   -15.0815 -15.0581 -15.0103 -15.0061 -14.9585 -14.8138 -14.7411 -13.6346
   -13.6342 -12.2779  -6.7334  -6.4567  -3.9887  -3.7651  -3.3258  -3.3246
    -3.2226  -3.1803  -3.1532  -3.0749  -3.0613  -2.9897  -2.9833  -2.9430
    -2.9211  -2.8912  -2.8547  -2.8363  -2.7888  -2.7814  -2.7655  -2.7225
    -2.7054  -2.6866  -2.6557  -2.6335  -2.6145  -2.5639  -2.5176  -2.5006
    -2.4311  -2.3939  -2.3675  -2.2241  -2.1248  -2.0707  -2.0379  -2.0043
    -1.9638  -1.9418  -1.8793  -1.8521  -1.7016  -1.6635  -1.6456  -1.6204
    -1.5628  -1.5331  -1.5067  -1.4831  -1.4158  -1.3728  -1.3538  -1.2680
    -1.1247  -1.0727  -1.0344  -0.9964  -0.9554  -0.8644  -0.8198  -0.8122
    -0.7416  -0.7065  -0.6626  -0.6367  -0.5986  -0.5809  -0.5558  -0.5228
    -0.5029  -0.4719  -0.4090  -0.3755  -0.3495  -0.2967  -0.2352  -0.1315
    -0.1184  -0.0707  -0.0308  -0.0109   0.0067   0.0998   0.1233   0.1668
     0.2682   0.3230   0.3414   0.4212   0.4488   0.5493   0.5717   0.7135
     0.7690   0.9667   1.0612   1.2425   1.2452   1.3105   1.3135   1.5806
     2.6302   3.3430   3.3453   3.5163   3.5187   3.6827   3.7041   3.7177
     3.7511   3.7837   3.7964

          k = 0.0380-0.0419 0.0000 ( 17876 PWs)   bands (ev):

   -56.3369 -56.3130 -55.9349 -55.9110 -55.7472 -55.7197 -55.5560 -55.5530
   -55.5426 -55.5283 -55.5186 -55.4505 -55.2535 -55.2389 -55.1406 -55.1167
   -32.7425 -32.6300 -32.6107 -32.4847 -32.4756 -32.4206 -32.3642 -32.1989
   -32.1451 -32.1332 -32.1131 -32.0881 -32.0765 -32.0168 -31.9897 -31.9716
   -31.9683 -31.9395 -31.9350 -31.9201 -31.9196 -31.8722 -31.8343 -31.8195
   -31.8014 -31.7822 -31.7549 -31.7454 -31.7387 -31.7332 -31.7189 -31.7101
   -31.7062 -31.6985 -31.6945 -31.6362 -31.5569 -31.5475 -31.5031 -31.4905
   -31.4859 -31.4750 -31.4671 -31.4552 -31.3500 -31.3325 -31.2900 -31.2227
   -18.7437 -16.9231 -16.4451 -16.1347 -15.9768 -15.9486 -15.9054 -15.8524
   -15.7072 -15.6276 -15.5966 -15.5733 -15.5504 -15.5006 -15.4403 -15.4361
   -15.3548 -15.3000 -15.2649 -15.2413 -15.1899 -15.1752 -15.1353 -15.0961
   -15.0766 -15.0075 -14.9596 -14.9078 -14.8853 -14.8072 -14.6058 -13.6481
   -13.5721 -12.2732  -6.7150  -6.4653  -4.0267  -3.7595  -3.7005  -3.5530
    -3.4235  -3.3207  -3.2158  -3.2066  -3.1866  -3.1695  -3.1192  -3.0205
    -2.9461  -2.9054  -2.8586  -2.8258  -2.7959  -2.7770  -2.7343  -2.7023
    -2.6810  -2.6221  -2.5996  -2.5589  -2.5479  -2.5130  -2.5021  -2.4670
    -2.4191  -2.3826  -2.3010  -2.2635  -2.2229  -2.2008  -2.1448  -2.0986
    -2.0194  -1.9692  -1.8593  -1.7638  -1.7254  -1.6771  -1.5684  -1.5132
    -1.4820  -1.4319  -1.3686  -1.3448  -1.2737  -1.1981  -1.1260  -1.0904
    -1.0739  -1.0242  -1.0007  -0.9417  -0.9316  -0.9094  -0.8470  -0.8228
    -0.7571  -0.7075  -0.7016  -0.6603  -0.6373  -0.5853  -0.5443  -0.5019
    -0.4582  -0.4280  -0.4010  -0.3768  -0.2583  -0.2423  -0.1982  -0.1258
    -0.0890  -0.0271   0.0177   0.0849   0.1398   0.1640   0.2159   0.2540
     0.2860   0.3203   0.4351   0.4752   0.5123   0.5767   0.6623   0.6893
     0.7317   0.8415   1.0972   1.1902   1.2419   1.3075   1.3655   1.6048
     2.6427   3.0962   3.2146   3.3804   3.5048   3.5114   3.6134   3.6897
     3.7543   3.8158   3.8527

          k =-0.0760-0.0000 0.0000 ( 17886 PWs)   bands (ev):

   -56.3419 -56.3081 -55.9397 -55.9061 -55.7517 -55.7152 -55.5591 -55.5547
   -55.5479 -55.5233 -55.5137 -55.4512 -55.2528 -55.2385 -55.1456 -55.1117
   -32.7970 -32.6342 -32.6075 -32.4955 -32.4190 -32.4154 -32.4074 -32.2566
   -32.1571 -32.1224 -32.0820 -32.0765 -32.0681 -32.0477 -32.0401 -31.9978
   -31.9838 -31.9741 -31.9327 -31.9102 -31.9091 -31.8655 -31.8416 -31.8018
   -31.7956 -31.7773 -31.7591 -31.7571 -31.7281 -31.7203 -31.7090 -31.7080
   -31.6985 -31.6654 -31.6558 -31.6389 -31.5436 -31.5389 -31.5219 -31.4996
   -31.4819 -31.4700 -31.4499 -31.4412 -31.3623 -31.3327 -31.2773 -31.1657
   -18.7441 -16.9249 -16.4141 -16.1487 -16.0715 -16.0281 -15.9109 -15.8369
   -15.8123 -15.7527 -15.6506 -15.6270 -15.5120 -15.4893 -15.4562 -15.4169
   -15.4121 -15.4088 -15.3025 -15.2868 -15.2469 -15.1076 -15.0549 -15.0382
   -14.9911 -14.9207 -14.9169 -14.8270 -14.8140 -14.7899 -14.5206 -13.6387
   -13.5308 -12.2749  -6.6514  -6.4634  -4.0788  -3.7769  -3.6778  -3.5037
    -3.4938  -3.4870  -3.3710  -3.2904  -3.2799  -3.1716  -3.1401  -3.1381
    -3.0697  -3.0129  -2.8775  -2.8331  -2.7970  -2.7680  -2.6988  -2.6066
    -2.5528  -2.5181  -2.4999  -2.4935  -2.4401  -2.3660  -2.3438  -2.2797
    -2.2650  -2.2430  -2.2212  -2.1546  -2.1082  -2.0652  -2.0344  -2.0028
    -1.9747  -1.8758  -1.8595  -1.8250  -1.8211  -1.7202  -1.6907  -1.6719
    -1.5694  -1.5585  -1.5197  -1.4678  -1.3987  -1.3078  -1.2873  -1.2345
    -1.2104  -1.1270  -1.0739  -1.0597  -1.0012  -0.9829  -0.9185  -0.8349
    -0.8193  -0.7600  -0.6939  -0.6446  -0.5767  -0.5263  -0.5150  -0.4634
    -0.3884  -0.3612  -0.2717  -0.2614  -0.1946  -0.1726  -0.1321  -0.0761
    -0.0565  -0.0060   0.0211   0.1031   0.1479   0.1887   0.2554   0.3208
     0.3447   0.3870   0.4894   0.5198   0.5533   0.5705   0.6454   0.7218
     0.9014   0.9101   1.0050   1.0301   1.0540   1.2002   1.3296   1.6782
     2.6794   2.9552   3.0273   3.2002   3.3114   3.3794   3.4434   3.6538
     3.7414   3.7663   3.8057

          k =-0.0760 0.0419 0.0000 ( 17914 PWs)   bands (ev):

   -56.3370 -56.3131 -55.9349 -55.9110 -55.7473 -55.7197 -55.5559 -55.5526
   -55.5430 -55.5283 -55.5187 -55.4506 -55.2535 -55.2390 -55.1406 -55.1167
   -32.7434 -32.6300 -32.6107 -32.4830 -32.4759 -32.4205 -32.3645 -32.2084
   -32.1451 -32.1207 -32.1134 -32.0769 -32.0757 -32.0171 -31.9941 -31.9851
   -31.9687 -31.9430 -31.9351 -31.9220 -31.9192 -31.8730 -31.8339 -31.7920
   -31.7898 -31.7802 -31.7635 -31.7545 -31.7388 -31.7285 -31.7204 -31.7141
   -31.7116 -31.7027 -31.6984 -31.6364 -31.5585 -31.5426 -31.5075 -31.4903
   -31.4859 -31.4774 -31.4678 -31.4545 -31.3500 -31.3331 -31.2900 -31.2227
   -18.7434 -16.9194 -16.3054 -16.0529 -15.9860 -15.9717 -15.8748 -15.8329
   -15.7344 -15.6909 -15.5961 -15.5542 -15.5262 -15.5127 -15.4632 -15.4200
   -15.3995 -15.3909 -15.3160 -15.2815 -15.2646 -15.1541 -15.1283 -15.0954
   -15.0377 -15.0047 -14.9678 -14.9174 -14.8892 -14.7986 -14.6072 -13.6462
   -13.5724 -12.2793  -6.6752  -6.4481  -4.0333  -3.8002  -3.5348  -3.3623
    -3.2827  -3.1950  -3.1793  -3.1201  -3.1176  -2.9950  -2.9637  -2.9018
    -2.8851  -2.8635  -2.8533  -2.8369  -2.8240  -2.7338  -2.6954  -2.6783
    -2.6653  -2.6165  -2.5737  -2.5397  -2.5130  -2.4795  -2.4537  -2.4254
    -2.3702  -2.3500  -2.3096  -2.2542  -2.2235  -2.1486  -2.0332  -2.0242
    -2.0130  -1.9480  -1.9057  -1.8478  -1.7728  -1.6601  -1.6109  -1.5752
    -1.4887  -1.4679  -1.4120  -1.3651  -1.3084  -1.2956  -1.2677  -1.2281
    -1.1899  -1.1243  -1.1093  -1.0618  -1.0278  -0.9806  -0.9510  -0.9051
    -0.8809  -0.8498  -0.7811  -0.7495  -0.7349  -0.6913  -0.6667  -0.6056
    -0.5664  -0.4837  -0.4444  -0.3837  -0.3471  -0.3113  -0.2633  -0.2063
    -0.1414  -0.0979  -0.0508   0.0206   0.1368   0.1993   0.2457   0.3007
     0.3787   0.3853   0.4309   0.4599   0.5843   0.6452   0.6908   0.7476
     0.7838   0.8981   1.0192   1.1093   1.2203   1.2347   1.3522   1.6310
     2.6514   3.0952   3.2229   3.2808   3.4039   3.5165   3.6418   3.7270
     3.7789   3.7947   3.8729

          k =-0.0760-0.0839 0.0000 ( 17948 PWs)   bands (ev):

   -56.3256 -56.3245 -55.9248 -55.9212 -55.7404 -55.7267 -55.5548 -55.5441
   -55.5375 -55.5328 -55.5290 -55.4499 -55.2542 -55.2395 -55.1288 -55.1287
   -32.6207 -32.6194 -32.6116 -32.6110 -32.4525 -32.4513 -32.2404 -32.2364
   -32.1301 -32.1268 -32.1173 -32.1100 -32.0406 -32.0305 -31.9685 -31.9585
   -31.9491 -31.9463 -31.8976 -31.8872 -31.8665 -31.8646 -31.8578 -31.8278
   -31.8117 -31.7810 -31.7739 -31.7577 -31.7551 -31.7467 -31.7458 -31.7303
   -31.7253 -31.7161 -31.7048 -31.6354 -31.6075 -31.5545 -31.5254 -31.5101
   -31.4742 -31.4659 -31.4658 -31.3587 -31.3585 -31.3335 -31.3202 -31.3201
   -18.7427 -16.9140 -16.0634 -16.0510 -15.9333 -15.9283 -15.7497 -15.7313
   -15.6974 -15.6721 -15.6355 -15.5492 -15.4845 -15.4768 -15.4701 -15.4061
   -15.3610 -15.3520 -15.3329 -15.3047 -15.2783 -15.2525 -15.1609 -15.1348
   -15.1310 -15.1013 -15.0198 -15.0073 -14.9476 -14.8102 -14.7384 -13.6344
   -13.6341 -12.2836  -6.6958  -6.4357  -3.9940  -3.8256  -3.2339  -3.1843
    -3.1741  -3.0648  -3.0386  -2.9638  -2.8671  -2.8496  -2.8353  -2.8015
    -2.7767  -2.7683  -2.7519  -2.7075  -2.6600  -2.6382  -2.6224  -2.6139
    -2.6087  -2.5951  -2.5653  -2.5369  -2.4782  -2.4689  -2.4357  -2.4172
    -2.3886  -2.3117  -2.3037  -2.2887  -2.2871  -2.2313  -2.1320  -2.1165
    -2.1077  -2.0647  -1.9994  -1.9301  -1.8417  -1.8000  -1.7340  -1.6778
    -1.6217  -1.5929  -1.5807  -1.4816  -1.4223  -1.4117  -1.3648  -1.3121
    -1.2336  -1.1965  -1.1591  -1.1478  -1.1352  -1.0951  -1.0438  -0.9837
    -0.8695  -0.8451  -0.8349  -0.7718  -0.7676  -0.7575  -0.6480  -0.6170
    -0.5666  -0.5414  -0.5218  -0.4835  -0.4542  -0.3805  -0.2884  -0.2421
    -0.1137  -0.0977  -0.0436   0.0039   0.0159   0.1068   0.1956   0.2196
     0.3582   0.3724   0.4048   0.5378   0.6074   0.6583   0.6756   0.7985
     0.8177   0.8534   1.0202   1.2644   1.2688   1.2878   1.2888   1.6130
     2.6257   3.4204   3.4227   3.4526   3.4547   3.6646   3.6781   3.7561
     3.7939   3.8850   3.9067

     the Fermi energy is     2.8226 ev

!    total energy              =   -2972.69112379 Ry
     estimated scf accuracy    <       0.00000004 Ry
     smearing contrib. (-TS)   =      -0.01345524 Ry
     internal energy E=F+TS    =   -2972.67766854 Ry

     The total energy is F=E-TS. E is the sum of the following terms:
     one-electron contribution =  -24586.19038205 Ry
     hartree contribution      =   12385.12535162 Ry
     xc contribution           =    -493.17016903 Ry
     ewald contribution        =    9721.55728050 Ry
     electric field correction =       0.00025041 Ry

     convergence has been achieved in  63 iterations

     Forces acting on atoms (cartesian axes, Ry/au):

     atom    1 type  1   force =    -0.00000976   -0.00028748    0.10607440
     atom    2 type  1   force =    -0.00022111   -0.00077002   -0.16693063
     atom    3 type  2   force =    -0.00002457   -0.00013675   -0.03888420
     atom    4 type  2   force =    -0.00009989   -0.00037620    0.03648564
     atom    5 type  2   force =    -0.00755823   -0.00012853   -0.00577225
     atom    6 type  2   force =     0.00857099    0.00078023   -0.00745978
     atom    7 type  1   force =    -0.00079742   -0.00145715    0.01974222
     atom    8 type  1   force =     0.00110412    0.01828835    0.06309877
     atom    9 type  2   force =    -0.00008463   -0.00019632    0.00034150
     atom   10 type  2   force =    -0.00265156    0.00203259   -0.04760875
     atom   11 type  2   force =    -0.00024626   -0.00001621    0.00011212
     atom   12 type  2   force =     0.00038609   -0.00013188    0.00007624
     atom   13 type  1   force =     0.00005996   -0.00011530   -0.00047540
     atom   14 type  1   force =    -0.00048663    0.00000593    0.00002961
     atom   15 type  2   force =     0.00026412    0.00007852   -0.00024174
     atom   16 type  2   force =    -0.00013360   -0.00029195    0.00058015
     atom   17 type  2   force =     0.00001036   -0.00028902    0.00032382
     atom   18 type  2   force =     0.00006597    0.00010692   -0.00022845
     atom   19 type  1   force =     0.00018525    0.00006742    0.00129526
     atom   20 type  1   force =     0.00001232    0.00020740    0.00009335
     atom   21 type  2   force =     0.00004782   -0.00001873    0.10087365
     atom   22 type  2   force =     0.00032077    0.00028071    0.00052088
     atom   23 type  2   force =    -0.07580863   -0.00011813   -0.02986979
     atom   24 type  2   force =     0.07569827    0.00033537   -0.02987916
     atom   25 type  1   force =     0.00020228   -0.00056134    0.10643493
     atom   26 type  1   force =    -0.00006664   -0.00026315   -0.16736927
     atom   27 type  2   force =    -0.00006251   -0.00032083   -0.03753394
     atom   28 type  2   force =     0.00007121   -0.00045889    0.03694682
     atom   29 type  2   force =    -0.00852884    0.00126188   -0.00516584
     atom   30 type  2   force =     0.00948375    0.00122402   -0.00688257
     atom   31 type  1   force =    -0.00129814   -0.00007854    0.02606651
     atom   32 type  1   force =     0.00115808   -0.02139081    0.06367117
     atom   33 type  2   force =    -0.00002419    0.00024500   -0.00004110
     atom   34 type  2   force =    -0.00008367    0.00090714   -0.05941250
     atom   35 type  2   force =    -0.00009937    0.00009392   -0.00013941
     atom   36 type  2   force =    -0.00009794    0.00036744   -0.00015788
     atom   37 type  1   force =     0.00002129   -0.00032268   -0.00001372
     atom   38 type  1   force =    -0.00042803   -0.00009553   -0.00014597
     atom   39 type  2   force =    -0.00017883    0.00037953    0.00061026
     atom   40 type  2   force =     0.00045384    0.00013297   -0.00042409
     atom   41 type  2   force =    -0.00012023    0.00042326   -0.00014599
     atom   42 type  2   force =     0.00041094    0.00015856    0.00011365
     atom   43 type  1   force =    -0.00032997   -0.00000459   -0.00009142
     atom   44 type  1   force =     0.00021012    0.00008171   -0.00025830
     atom   45 type  2   force =     0.00002343   -0.00000393    0.10089897
     atom   46 type  2   force =    -0.07582089   -0.00010608   -0.02982250
     atom   47 type  2   force =     0.07568929    0.00032182   -0.02986166
     atom   48 type  3   force =     0.00128101    0.00024546   -0.00033551
     atom   49 type  4   force =     0.00108363    0.00092802    0.00104992
     atom   50 type  5   force =    -0.00025575   -0.00134231   -0.00027968
     atom   51 type  3   force =    -0.00707980    0.00008135    0.00656470
     atom   52 type  5   force =     0.00609284    0.00024582   -0.00654287
     atom   53 type  2   force =    -0.00054990    0.00003695   -0.00082715
     atom   54 type  5   force =    -0.00025793    0.00012103    0.00041824
     atom   55 type  5   force =     0.00049721   -0.00015696    0.00037873

     Total force =     0.383816     Total SCF correction =     0.000581
  @ DRIVER MODE: Message from server: STATUS
  @ DRIVER MODE: Message from server: GETFORCE
  @ DRIVER MODE: Returning v,forces,stress,ensemble 

     Writing output data file ./calc.save/
  @ DRIVER MODE: Message from server: EXIT
  @ DRIVE MODE: Exiting  
 
     init_run     :     10.74s CPU     10.98s WALL (       1 calls)
     electrons    :   1013.04s CPU   1027.24s WALL (       1 calls)
     forces       :      2.38s CPU      2.47s WALL (       1 calls)

     Called by init_run:
     wfcinit      :      4.80s CPU      4.87s WALL (       1 calls)
     potinit      :      5.31s CPU      5.37s WALL (       1 calls)
     hinit0       :      0.29s CPU      0.30s WALL (       1 calls)

     Called by electrons:
     c_bands      :    865.41s CPU    871.35s WALL (      63 calls)
     sum_band     :    100.76s CPU    104.10s WALL (      63 calls)
     v_of_rho     :     35.84s CPU     37.56s WALL (      64 calls)
     newd         :     14.44s CPU     17.68s WALL (      64 calls)
     mix_rho      :      1.29s CPU      1.31s WALL (      63 calls)
     vdW_kernel   :      4.54s CPU      4.56s WALL (       1 calls)

     Called by c_bands:
     init_us_2    :      5.84s CPU      5.87s WALL (    1280 calls)
     cegterg      :    848.16s CPU    853.87s WALL (     646 calls)

     Called by *egterg:
     cdiaghg      :    133.94s CPU    134.51s WALL (    5884 calls)
     h_psi        :    457.57s CPU    461.61s WALL (    5899 calls)
     s_psi        :     59.27s CPU     59.44s WALL (    5899 calls)
     g_psi        :      1.70s CPU      1.71s WALL (    5243 calls)

     Called by h_psi:
     h_psi:calbec :     56.05s CPU     56.30s WALL (    5899 calls)
     vloc_psi     :    339.15s CPU    342.45s WALL (    5899 calls)
     add_vuspsi   :     59.39s CPU     59.69s WALL (    5899 calls)

     General routines
     calbec       :     73.97s CPU     74.28s WALL (    6569 calls)
     fft          :     17.81s CPU     17.94s WALL (    4032 calls)
     ffts         :      0.11s CPU      0.11s WALL (     127 calls)
     fftw         :    378.11s CPU    381.77s WALL (  900288 calls)
     interpolate  :      0.36s CPU      0.37s WALL (      64 calls)
     davcio       :      0.00s CPU      0.15s WALL (      10 calls)
 
     Parallel routines
 
     PWSCF        :  17m 6.45s CPU  17m21.28s WALL

 
   This run was terminated on:   1: 6:25  16Sep2021            

=------------------------------------------------------------------------------=
   JOB DONE.
=------------------------------------------------------------------------------=
