
     Program PWSCF v.6.7GPU starts on  2Aug2021 at 23:18: 6 

     This program is part of the open-source Quantum ESPRESSO suite
     for quantum simulation of materials; please cite
         "P. Giannozzi et al., J. Phys.:Condens. Matter 21 395502 (2009);
         "P. Giannozzi et al., J. Phys.:Condens. Matter 29 465901 (2017);
         "P. Giannozzi et al., J. Chem. Phys. 152 154105 (2020);
          URL http://www.quantum-espresso.org", 
     in publications or presentations arising from this work. More details at
     http://www.quantum-espresso.org/quote

     Parallel version (MPI), running on    16 processors

     MPI processes distributed on     1 nodes
     R & G space division:  proc/nbgrp/npool/nimage =      16
     Reading input from /storage/home/hcoda1/3/ntian30/research/carbon/02Aug_vib_paired/ads_slab/CH3NNH3_a/out_0040/pw.inp
Warning: card &CELL ignored
Warning: card   CELL_DYNAMICS='IPI', ignored
Warning: card / ignored

     Current dimensions of program PWSCF are:
     Max number of different atomic species (ntypx) = 10
     Max number of k-points (npk) =  40000
     Max angular momentum in pseudopotentials (lmaxx) =  3
     Presently no symmetry can be used with electric field

     Message from routine cell_base_init:
     DEPRECATED: use true lattice parameter, not A to a.u. conversion factor

     **************************************************************************
     Initializing libbeef V0.1.2 with the BEEF-vdW functional.
     Citation: Wellendorff et al., PRB 85, 235149 (2012).
     **************************************************************************


     IMPORTANT: XC functional enforced from input :
     Exchange-correlation= BEEF-VDW
                           (   1   4  43  14   2   0   0)
     Any further DFT definition will be discarded
     Please, verify this is what you really want


     Subspace diagonalization in iterative solution of the eigenvalue problem:
     one sub-group per band group will be used
     scalapack distributed-memory algorithm (size of sub-group:  4*  4 procs)

  @ DRIVER MODE: Connecting to 
 qe_1139763_2482544.sched-torque.pace.gatech.edu6pu65bwq_scratch
  using UNIX socket
  @ DRIVER MODE: Message from server: STATUS
  @ DRIVER MODE: Message from server: INIT
  @ DRIVER MODE: Receiving replica           0          -1
  @ DRIVER MODE: Receiving encoded integer          25
  @ DRIVER MODE:  SCF:  T  FORCE:  T  STRESS:  F  VC:  F  ENSEMBLE:  F
  @ DRIVER MODE:  SCF:  T  FORCE:  T  STRESS:  F  VC:  F  ENSEMBLE:  F
 
     Parallelization info
     --------------------
     sticks:   dense  smooth     PW     G-vecs:    dense   smooth      PW
     Min         204      82     23                35422     8962    1367
     Max         205      84     24                35435     8968    1382
     Sum        3275    1317    379               566857   143421   21985
 
     Using Slab Decomposition
 


     bravais-lattice index     =            0
     lattice parameter (alat)  =       1.8897  a.u.
     unit-cell volume          =    6658.9804 (a.u.)^3
     number of atoms/cell      =           56
     number of atomic types    =            5
     number of electrons       =       398.00
     number of Kohn-Sham states=          209
     kinetic-energy cutoff     =      29.3995  Ry
     charge density cutoff     =     293.9946  Ry
     scf convergence threshold =      7.3E-08
     mixing beta               =       0.0500
     number of iterations used =            8  plain     mixing
     Exchange-correlation= BEEF-VDW
                           (   1   4  43  14   2   0   0)

     celldm(1)=   1.889726  celldm(2)=   0.000000  celldm(3)=   0.000000
     celldm(4)=   0.000000  celldm(5)=   0.000000  celldm(6)=   0.000000

     crystal axes: (cart. coord. in units of alat)
               a(1) = (   6.579727   0.000000   0.000000 )  
               a(2) = (  -0.000775   5.961596   0.000000 )  
               a(3) = (   0.000000   0.000000  25.155947 )  

     reciprocal axes: (cart. coord. in units 2 pi/alat)
               b(1) = (  0.151982  0.000020  0.000000 )  
               b(2) = (  0.000000  0.167740  0.000000 )  
               b(3) = (  0.000000  0.000000  0.039752 )  


     PseudoPot. # 1 for Ti read from file:
     /storage/coda1/p-amedford6/0/shared/rich_project_chbe-medford/medford-share/data/pseudos_module/espresso/nninc/pbe/van/Ti.UPF
     MD5 check sum: 8e4df49b7f0d34bbd5052bf3f5ea0213
     Pseudo is Ultrasoft, Zval = 12.0
     Generated by new atomic code, or converted to UPF format
     Using radial grid of  851 points,  6 beta functions with: 
                l(1) =   0
                l(2) =   0
                l(3) =   1
                l(4) =   1
                l(5) =   2
                l(6) =   2
     Q(r) pseudized with  8 coefficients,  rinner =    1.000   1.000   1.000
                                                       1.000   1.000

     PseudoPot. # 2 for O  read from file:
     /storage/coda1/p-amedford6/0/shared/rich_project_chbe-medford/medford-share/data/pseudos_module/espresso/nninc/pbe/van/O.UPF
     MD5 check sum: 78c19812648e8988a0fe644b0f25305e
     Pseudo is Ultrasoft, Zval =  6.0
     Generated by new atomic code, or converted to UPF format
     Using radial grid of  737 points,  4 beta functions with: 
                l(1) =   0
                l(2) =   0
                l(3) =   1
                l(4) =   1
     Q(r) pseudized with  8 coefficients,  rinner =    0.800   0.800   0.800


     PseudoPot. # 3 for N  read from file:
     /storage/coda1/p-amedford6/0/shared/rich_project_chbe-medford/medford-share/data/pseudos_module/espresso/nninc/pbe/van/N.UPF
     MD5 check sum: 90d10febe142ad51ac9d5be1deb811c4
     Pseudo is Ultrasoft, Zval =  5.0
     Generated by new atomic code, or converted to UPF format
     Using radial grid of  729 points,  4 beta functions with: 
                l(1) =   0
                l(2) =   0
                l(3) =   1
                l(4) =   1
     Q(r) pseudized with  8 coefficients,  rinner =    0.800   0.800   0.800


     PseudoPot. # 4 for C  read from file:
     /storage/coda1/p-amedford6/0/shared/rich_project_chbe-medford/medford-share/data/pseudos_module/espresso/nninc/pbe/van/C.UPF
     MD5 check sum: 1a69bf6b8db32088f5b2163dbdb77a27
     Pseudo is Ultrasoft, Zval =  4.0
     Generated by new atomic code, or converted to UPF format
     Using radial grid of  721 points,  4 beta functions with: 
                l(1) =   0
                l(2) =   0
                l(3) =   1
                l(4) =   1
     Q(r) pseudized with  8 coefficients,  rinner =    0.800   0.800   0.800


     PseudoPot. # 5 for H  read from file:
     /storage/coda1/p-amedford6/0/shared/rich_project_chbe-medford/medford-share/data/pseudos_module/espresso/nninc/pbe/van/H.UPF
     MD5 check sum: b5ee9d7bfd3a09ee7748110bda690ff7
     Pseudo is Ultrasoft, Zval =  1.0
     Generated by new atomic code, or converted to UPF format
     Using radial grid of  615 points,  1 beta functions with: 
                l(1) =   0
     Q(r) pseudized with  8 coefficients,  rinner =    0.800

     atomic species   valence    mass     pseudopotential
        Ti1           12.00    47.86700     Ti( 1.00)
        O1             6.00    15.99900     O ( 1.00)
        N1             5.00    14.00700     N ( 1.00)
        C1             4.00    12.01100     C ( 1.00)
        H1             1.00     1.00800     H ( 1.00)

     No symmetry found



   Cartesian axes

     site n.     atom                  positions (alat units)
         1           Ti1 tau(   1) = (   0.0004258   2.9801865   6.0000000  )
         2           Ti1 tau(   2) = (   3.2906075   1.4906267   6.0002472  )
         3           O1  tau(   3) = (   0.0006271   0.0005054   7.9858123  )
         4           O1  tau(   4) = (   3.2906025   0.0005020   7.3038282  )
         5           O1  tau(   5) = (   4.5942328   1.4918067   9.2879030  )
         6           O1  tau(   6) = (   1.9868534   1.4903216   9.2879459  )
         7           Ti1 tau(   7) = (   3.2907910   2.8959150   9.1758416  )
         8           Ti1 tau(   8) = (   0.0015273   1.4827037   9.2680791  )
         9           O1  tau(   9) = (   3.2727297   5.9424138  11.2974721  )
        10           O1  tau(  10) = (   0.0116148   5.9584955  10.6183126  )
        11           O1  tau(  11) = (   1.3027692   1.4721713  12.6242268  )
        12           O1  tau(  12) = (   5.2784376   1.4723552  12.6258992  )
        13           Ti1 tau(  13) = (   6.4570204   2.9507206  12.7630554  )
        14           Ti1 tau(  14) = (   3.1467966   1.4649636  12.4688949  )
        15           O1  tau(  15) = (   6.5600513   5.9133837  14.5918744  )
        16           O1  tau(  16) = (   3.2766225   5.9390981  13.8789110  )
        17           O1  tau(  17) = (   4.4915826   1.4834571  16.0540230  )
        18           O1  tau(  18) = (   2.0416982   1.4849982  16.0411193  )
        19           Ti1 tau(  19) = (   3.2679172   2.9642910  15.6858091  )
        20           Ti1 tau(  20) = (   6.5495220   1.5641796  16.1095294  )
        21           O1  tau(  21) = (   3.2904802   0.0005063   4.7018136  )
        22           O1  tau(  22) = (   6.5606002   0.0080969  17.2010096  )
        23           O1  tau(  23) = (   1.3043587   1.4918075   6.0039043  )
        24           O1  tau(  24) = (   5.2767064   1.4903225   6.0039473  )
        25           Ti1 tau(  25) = (   0.0000382   5.9609847   6.0000000  )
        26           Ti1 tau(  26) = (   3.2902200   4.4714249   6.0002472  )
        27           O1  tau(  27) = (   0.0002396   2.9813036   7.9858123  )
        28           O1  tau(  28) = (   3.2902150   2.9813002   7.3038282  )
        29           O1  tau(  29) = (   4.5938453   4.4726049   9.2879030  )
        30           O1  tau(  30) = (   1.9864658   4.4711199   9.2879459  )
        31           Ti1 tau(  31) = (   3.2891106   5.8743827   9.1763621  )
        32           Ti1 tau(  32) = (   0.0006254   4.4649316   9.2693709  )
        33           O1  tau(  33) = (   3.2718307   2.9587034  11.2961003  )
        34           O1  tau(  34) = (   0.0092240   2.9805883  10.6323155  )
        35           O1  tau(  35) = (   1.3028232   4.4416136  12.6207192  )
        36           O1  tau(  36) = (   5.2777600   4.4366566  12.6238879  )
        37           Ti1 tau(  37) = (   6.4830488   5.9304874  12.7660964  )
        38           Ti1 tau(  38) = (   3.1463657   4.4448748  12.4639736  )
        39           O1  tau(  39) = (   6.5417323   2.9404903  14.6589984  )
        40           O1  tau(  40) = (   3.2789452   2.9619718  13.8791424  )
        41           O1  tau(  41) = (   4.4971312   4.4676043  16.0556370  )
        42           O1  tau(  42) = (   2.0400509   4.4648231  16.0515753  )
        43           Ti1 tau(  43) = (   3.2598176   5.9476019  15.6881950  )
        44           Ti1 tau(  44) = (   6.5485469   4.5424454  16.1156095  )
        45           O1  tau(  45) = (   3.2900926   2.9813045   4.7018136  )
        46           O1  tau(  46) = (   1.3039711   4.4726057   6.0039043  )
        47           O1  tau(  47) = (   5.2763189   4.4711207   6.0039473  )
        48           N1  tau(  48) = (   0.0016189   2.9795595  17.3279962  )
        49           C1  tau(  49) = (   0.1681806   3.0735589  18.7581663  )
        50           H1  tau(  50) = (   6.0068595   3.7517258  19.1994632  )
        51           H1  tau(  51) = (   0.0766375   2.0971904  19.2409400  )
        52           H1  tau(  52) = (   1.1565538   3.4901639  19.0026035  )
        53           N1  tau(  53) = (   4.7601180   1.8141088  21.6614004  )
        54           H1  tau(  54) = (   4.4666586   2.7930198  21.5980365  )
        55           H1  tau(  55) = (   4.1231612   1.2775871  21.0809158  )
        56           H1  tau(  56) = (   4.6015807   1.5257772  22.6208530  )

     number of k points=    10  Fermi-Dirac smearing, width (Ry)=  0.0073
                       cart. coord. in units 2pi/alat
        k(    1) = (   0.0000000   0.0000000   0.0000000), wk =   0.1250000
        k(    2) = (   0.0000000   0.0419351   0.0000000), wk =   0.2500000
        k(    3) = (   0.0000000  -0.0838702   0.0000000), wk =   0.1250000
        k(    4) = (   0.0379955   0.0000049   0.0000000), wk =   0.2500000
        k(    5) = (   0.0379955   0.0419400   0.0000000), wk =   0.2500000
        k(    6) = (   0.0379955  -0.0838652   0.0000000), wk =   0.2500000
        k(    7) = (   0.0379955  -0.0419301   0.0000000), wk =   0.2500000
        k(    8) = (  -0.0759910  -0.0000099   0.0000000), wk =   0.1250000
        k(    9) = (  -0.0759910   0.0419252   0.0000000), wk =   0.2500000
        k(   10) = (  -0.0759910  -0.0838800   0.0000000), wk =   0.1250000

     Dense  grid:   566857 G-vectors     FFT dimensions: (  72,  64, 270)

     Smooth grid:   143421 G-vectors     FFT dimensions: (  45,  40, 180)

     Estimated max dynamical RAM per process >     230.24 MB

     Estimated total dynamical RAM >       3.60 GB
     Cannot read rho : file not found

     Initial potential from superposition of free atoms

     starting charge  381.99914, renormalised to  398.00000

     negative rho (up, down):  9.477E-03 0.000E+00


     %%%%%%%%%%%%%%%%%%%%%%%%%%%%%%%%%%%%%%%%%%%%%%%%%%%%%%%%%%%%%%%%%%%%%%%%
     %                                                                      %
     % You are using vdW-DF, which was implemented by the Thonhauser group. %
     % Please cite the following two papers that made this development      %
     % possible and the two reviews that describe the various versions:     %
     %                                                                      %
     %   T. Thonhauser et al., PRL 115, 136402 (2015).                      %
     %   T. Thonhauser et al., PRB 76, 125112 (2007).                       %
     %   K. Berland et al., Rep. Prog. Phys. 78, 066501 (2015).             %
     %   D.C. Langreth et al., J. Phys.: Condens. Matter 21, 084203 (2009). %
     %                                                                      %
     %                                                                      %
     % If you are calculating the stress with vdW-DF, please also cite:     %
     %                                                                      %
     %   R. Sabatini et al., J. Phys.: Condens. Matter 24, 424209 (2012).   %
     %                                                                      %
     %%%%%%%%%%%%%%%%%%%%%%%%%%%%%%%%%%%%%%%%%%%%%%%%%%%%%%%%%%%%%%%%%%%%%%%%


 
     Adding external electric field

     Computed dipole along edir(3) : 
        Dipole              -11.3717 Ry au,        -28.9040 Debye
        Dipole field         -0.0215 Ry au, 
 
        Potential amp.        1.9893 Ry
        Total length         46.3494 bohr
 
     Starting wfcs are  302 atomic wfcs
  @ DRIVER MODE: Message from server: STATUS
  @ DRIVER MODE: Message from server: POSDATA
  @ DRIVER MODE: Reading and sharing cell 
  @ DRIVER MODE: Reading and sharing positions 
  @ DRIVER MODE: Received positions 

     total cpu time spent up to now is       11.9 secs

     Self-consistent Calculation

     iteration #  1     ecut=    29.40 Ry     beta= 0.05
     Davidson diagonalization with overlap
     c_bands:  1 eigenvalues not converged
     c_bands:  1 eigenvalues not converged
     c_bands:  2 eigenvalues not converged
     c_bands:  1 eigenvalues not converged
     c_bands:  1 eigenvalues not converged
     c_bands:  1 eigenvalues not converged
     c_bands:  1 eigenvalues not converged
     c_bands:  2 eigenvalues not converged
     c_bands:  2 eigenvalues not converged
     ethr =  1.00E-05,  avg # of iterations = 19.6

     negative rho (up, down):  8.256E-03 0.000E+00
 
     Adding external electric field

     Computed dipole along edir(3) : 
        Dipole               44.5735 Ry au,        113.2946 Debye
        Dipole field          0.0841 Ry au, 
 
        Potential amp.       -7.7975 Ry
        Total length         46.3494 bohr
 

     total cpu time spent up to now is       42.3 secs

     total energy              =   -2520.83531616 Ry
     estimated scf accuracy    <    4705.88956094 Ry

     iteration #  2     ecut=    29.40 Ry     beta= 0.05
     Davidson diagonalization with overlap
     ethr =  1.00E-02,  avg # of iterations = 22.2

     negative rho (up, down):  1.383E-03 0.000E+00
 
     Adding external electric field

     Computed dipole along edir(3) : 
        Dipole               -3.6425 Ry au,         -9.2583 Debye
        Dipole field         -0.0069 Ry au, 
 
        Potential amp.        0.6372 Ry
        Total length         46.3494 bohr
 

     total cpu time spent up to now is      101.9 secs

     total energy              =   -2441.01179777 Ry
     estimated scf accuracy    <   72119.49332617 Ry

     iteration #  3     ecut=    29.40 Ry     beta= 0.05
     Davidson diagonalization with overlap
     ethr =  1.00E-02,  avg # of iterations = 16.1

     negative rho (up, down):  1.455E-03 0.000E+00
 
     Adding external electric field

     Computed dipole along edir(3) : 
        Dipole               -5.2956 Ry au,        -13.4600 Debye
        Dipole field         -0.0100 Ry au, 
 
        Potential amp.        0.9264 Ry
        Total length         46.3494 bohr
 

     total cpu time spent up to now is      139.0 secs

     total energy              =   -2930.02345659 Ry
     estimated scf accuracy    <    4519.86711499 Ry

     iteration #  4     ecut=    29.40 Ry     beta= 0.05
     Davidson diagonalization with overlap
     ethr =  1.00E-02,  avg # of iterations = 13.3

     negative rho (up, down):  1.476E-03 0.000E+00
 
     Adding external electric field

     Computed dipole along edir(3) : 
        Dipole               -6.0663 Ry au,        -15.4189 Debye
        Dipole field         -0.0114 Ry au, 
 
        Potential amp.        1.0612 Ry
        Total length         46.3494 bohr
 

     total cpu time spent up to now is      153.4 secs

     total energy              =   -2933.51385601 Ry
     estimated scf accuracy    <    1512.38786421 Ry

     iteration #  5     ecut=    29.40 Ry     beta= 0.05
     Davidson diagonalization with overlap
     ethr =  1.00E-02,  avg # of iterations =  3.7

     negative rho (up, down):  1.510E-03 0.000E+00
 
     Adding external electric field

     Computed dipole along edir(3) : 
        Dipole               -7.0116 Ry au,        -17.8218 Debye
        Dipole field         -0.0132 Ry au, 
 
        Potential amp.        1.2266 Ry
        Total length         46.3494 bohr
 

     total cpu time spent up to now is      161.5 secs

     total energy              =   -2917.95322475 Ry
     estimated scf accuracy    <    1262.57128123 Ry

     iteration #  6     ecut=    29.40 Ry     beta= 0.05
     Davidson diagonalization with overlap
     ethr =  1.00E-02,  avg # of iterations = 13.5

     negative rho (up, down):  1.220E-03 0.000E+00
 
     Adding external electric field

     Computed dipole along edir(3) : 
        Dipole               -5.7543 Ry au,        -14.6260 Debye
        Dipole field         -0.0109 Ry au, 
 
        Potential amp.        1.0066 Ry
        Total length         46.3494 bohr
 

     total cpu time spent up to now is      179.5 secs

     total energy              =   -2946.64211536 Ry
     estimated scf accuracy    <      30.63202953 Ry

     iteration #  7     ecut=    29.40 Ry     beta= 0.05
     Davidson diagonalization with overlap
     ethr =  7.70E-03,  avg # of iterations =  1.4

     negative rho (up, down):  1.353E-03 0.000E+00
 
     Adding external electric field

     Computed dipole along edir(3) : 
        Dipole               -4.8983 Ry au,        -12.4503 Debye
        Dipole field         -0.0092 Ry au, 
 
        Potential amp.        0.8569 Ry
        Total length         46.3494 bohr
 

     total cpu time spent up to now is      186.8 secs

     total energy              =   -2946.39734500 Ry
     estimated scf accuracy    <      20.57007569 Ry

     iteration #  8     ecut=    29.40 Ry     beta= 0.05
     Davidson diagonalization with overlap
     ethr =  5.17E-03,  avg # of iterations =  1.4

     negative rho (up, down):  2.017E-03 0.000E+00
 
     Adding external electric field

     Computed dipole along edir(3) : 
        Dipole               -2.0862 Ry au,         -5.3026 Debye
        Dipole field         -0.0039 Ry au, 
 
        Potential amp.        0.3650 Ry
        Total length         46.3494 bohr
 

     total cpu time spent up to now is      194.1 secs

     total energy              =   -2945.44663794 Ry
     estimated scf accuracy    <      18.83486818 Ry

     iteration #  9     ecut=    29.40 Ry     beta= 0.05
     Davidson diagonalization with overlap
     c_bands:  3 eigenvalues not converged
     c_bands:  2 eigenvalues not converged
     c_bands:  1 eigenvalues not converged
     c_bands:  1 eigenvalues not converged
     c_bands:  2 eigenvalues not converged
     c_bands:  1 eigenvalues not converged
     c_bands:  2 eigenvalues not converged
     c_bands:  2 eigenvalues not converged
     c_bands:  1 eigenvalues not converged
     c_bands:  2 eigenvalues not converged
     ethr =  4.73E-03,  avg # of iterations = 20.0

     negative rho (up, down):  1.716E-03 0.000E+00
 
     Adding external electric field

     Computed dipole along edir(3) : 
        Dipole               -2.9312 Ry au,         -7.4503 Debye
        Dipole field         -0.0055 Ry au, 
 
        Potential amp.        0.5128 Ry
        Total length         46.3494 bohr
 

     total cpu time spent up to now is      210.7 secs

     total energy              =   -2949.51487961 Ry
     estimated scf accuracy    <    1423.10361374 Ry

     iteration # 10     ecut=    29.40 Ry     beta= 0.05
     Davidson diagonalization with overlap
     ethr =  4.73E-03,  avg # of iterations =  1.1

     negative rho (up, down):  5.592E-03 0.000E+00
 
     Adding external electric field

     Computed dipole along edir(3) : 
        Dipole                1.6567 Ry au,          4.2108 Debye
        Dipole field          0.0031 Ry au, 
 
        Potential amp.       -0.2898 Ry
        Total length         46.3494 bohr
 

     total cpu time spent up to now is      217.8 secs

     total energy              =   -2976.26657524 Ry
     estimated scf accuracy    <     786.94990702 Ry

     iteration # 11     ecut=    29.40 Ry     beta= 0.05
     Davidson diagonalization with overlap
     ethr =  4.73E-03,  avg # of iterations = 16.5

     negative rho (up, down):  2.132E-03 0.000E+00
 
     Adding external electric field

     Computed dipole along edir(3) : 
        Dipole               -0.6057 Ry au,         -1.5396 Debye
        Dipole field         -0.0011 Ry au, 
 
        Potential amp.        0.1060 Ry
        Total length         46.3494 bohr
 

     total cpu time spent up to now is      233.0 secs

     total energy              =   -2955.64698664 Ry
     estimated scf accuracy    <    3273.28775763 Ry

     iteration # 12     ecut=    29.40 Ry     beta= 0.05
     Davidson diagonalization with overlap
     ethr =  4.73E-03,  avg # of iterations = 10.0

     negative rho (up, down):  2.082E-03 0.000E+00
 
     Adding external electric field

     Computed dipole along edir(3) : 
        Dipole                0.7536 Ry au,          1.9156 Debye
        Dipole field          0.0014 Ry au, 
 
        Potential amp.       -0.1318 Ry
        Total length         46.3494 bohr
 

     total cpu time spent up to now is      244.5 secs

     total energy              =   -2959.96363110 Ry
     estimated scf accuracy    <    1810.52052253 Ry

     iteration # 13     ecut=    29.40 Ry     beta= 0.05
     Davidson diagonalization with overlap
     ethr =  4.73E-03,  avg # of iterations =  1.3

     negative rho (up, down):  1.642E-03 0.000E+00
 
     Adding external electric field

     Computed dipole along edir(3) : 
        Dipole                0.1567 Ry au,          0.3982 Debye
        Dipole field          0.0003 Ry au, 
 
        Potential amp.       -0.0274 Ry
        Total length         46.3494 bohr
 

     total cpu time spent up to now is      251.7 secs

     total energy              =   -2946.90129515 Ry
     estimated scf accuracy    <    1737.13377838 Ry

     iteration # 14     ecut=    29.40 Ry     beta= 0.05
     Davidson diagonalization with overlap
     ethr =  4.73E-03,  avg # of iterations =  1.5

     negative rho (up, down):  1.491E-03 0.000E+00
 
     Adding external electric field

     Computed dipole along edir(3) : 
        Dipole               -0.7182 Ry au,         -1.8255 Debye
        Dipole field         -0.0014 Ry au, 
 
        Potential amp.        0.1256 Ry
        Total length         46.3494 bohr
 

     total cpu time spent up to now is      261.3 secs

     total energy              =   -2934.52989218 Ry
     estimated scf accuracy    <    1732.35351075 Ry

     iteration # 15     ecut=    29.40 Ry     beta= 0.05
     Davidson diagonalization with overlap
     ethr =  4.73E-03,  avg # of iterations =  5.7

     negative rho (up, down):  1.637E-03 0.000E+00
 
     Adding external electric field

     Computed dipole along edir(3) : 
        Dipole                1.3637 Ry au,          3.4663 Debye
        Dipole field          0.0026 Ry au, 
 
        Potential amp.       -0.2386 Ry
        Total length         46.3494 bohr
 

     total cpu time spent up to now is      275.4 secs

     total energy              =   -2929.99949515 Ry
     estimated scf accuracy    <    1139.23586297 Ry

     iteration # 16     ecut=    29.40 Ry     beta= 0.05
     Davidson diagonalization with overlap
     ethr =  4.73E-03,  avg # of iterations = 13.9

     negative rho (up, down):  1.878E-03 0.000E+00
 
     Adding external electric field

     Computed dipole along edir(3) : 
        Dipole                1.9092 Ry au,          4.8528 Debye
        Dipole field          0.0036 Ry au, 
 
        Potential amp.       -0.3340 Ry
        Total length         46.3494 bohr
 

     total cpu time spent up to now is      302.9 secs

     total energy              =   -2943.82246830 Ry
     estimated scf accuracy    <       9.95667947 Ry

     iteration # 17     ecut=    29.40 Ry     beta= 0.05
     Davidson diagonalization with overlap
     ethr =  2.50E-03,  avg # of iterations =  5.2

     negative rho (up, down):  1.923E-03 0.000E+00
 
     Adding external electric field

     Computed dipole along edir(3) : 
        Dipole                1.9725 Ry au,          5.0136 Debye
        Dipole field          0.0037 Ry au, 
 
        Potential amp.       -0.3451 Ry
        Total length         46.3494 bohr
 

     total cpu time spent up to now is      311.5 secs

     total energy              =   -2946.31951544 Ry
     estimated scf accuracy    <     143.50392227 Ry

     iteration # 18     ecut=    29.40 Ry     beta= 0.05
     Davidson diagonalization with overlap
     c_bands:  1 eigenvalues not converged
     ethr =  2.50E-03,  avg # of iterations =  9.0

     negative rho (up, down):  2.285E-03 0.000E+00
 
     Adding external electric field

     Computed dipole along edir(3) : 
        Dipole                1.2966 Ry au,          3.2957 Debye
        Dipole field          0.0024 Ry au, 
 
        Potential amp.       -0.2268 Ry
        Total length         46.3494 bohr
 

     total cpu time spent up to now is      321.0 secs

     total energy              =   -2949.67237180 Ry
     estimated scf accuracy    <     220.63419205 Ry

     iteration # 19     ecut=    29.40 Ry     beta= 0.05
     Davidson diagonalization with overlap
     c_bands:  1 eigenvalues not converged
     ethr =  2.50E-03,  avg # of iterations = 15.9

     negative rho (up, down):  2.463E-03 0.000E+00
 
     Adding external electric field

     Computed dipole along edir(3) : 
        Dipole                2.8483 Ry au,          7.2397 Debye
        Dipole field          0.0054 Ry au, 
 
        Potential amp.       -0.4983 Ry
        Total length         46.3494 bohr
 

     total cpu time spent up to now is      335.7 secs

     total energy              =   -2955.94723943 Ry
     estimated scf accuracy    <     867.68378998 Ry

     iteration # 20     ecut=    29.40 Ry     beta= 0.05
     Davidson diagonalization with overlap
     ethr =  2.50E-03,  avg # of iterations =  5.0

     negative rho (up, down):  2.281E-03 0.000E+00
 
     Adding external electric field

     Computed dipole along edir(3) : 
        Dipole                1.6428 Ry au,          4.1755 Debye
        Dipole field          0.0031 Ry au, 
 
        Potential amp.       -0.2874 Ry
        Total length         46.3494 bohr
 

     total cpu time spent up to now is      344.2 secs

     total energy              =   -2951.79861341 Ry
     estimated scf accuracy    <    1169.25705006 Ry

     iteration # 21     ecut=    29.40 Ry     beta= 0.05
     Davidson diagonalization with overlap
     ethr =  2.50E-03,  avg # of iterations =  1.9

     negative rho (up, down):  1.755E-03 0.000E+00
 
     Adding external electric field

     Computed dipole along edir(3) : 
        Dipole               -0.7359 Ry au,         -1.8704 Debye
        Dipole field         -0.0014 Ry au, 
 
        Potential amp.        0.1287 Ry
        Total length         46.3494 bohr
 

     total cpu time spent up to now is      351.4 secs

     total energy              =   -2940.33848763 Ry
     estimated scf accuracy    <     902.93578616 Ry

     iteration # 22     ecut=    29.40 Ry     beta= 0.05
     Davidson diagonalization with overlap
     c_bands:  1 eigenvalues not converged
     c_bands:  1 eigenvalues not converged
     c_bands:  4 eigenvalues not converged
     ethr =  2.50E-03,  avg # of iterations = 16.2

     negative rho (up, down):  1.484E-03 0.000E+00
 
     Adding external electric field

     Computed dipole along edir(3) : 
        Dipole               -4.7017 Ry au,        -11.9505 Debye
        Dipole field         -0.0089 Ry au, 
 
        Potential amp.        0.8225 Ry
        Total length         46.3494 bohr
 

     total cpu time spent up to now is      365.1 secs

     total energy              =   -2938.57680966 Ry
     estimated scf accuracy    <     111.13626204 Ry

     iteration # 23     ecut=    29.40 Ry     beta= 0.05
     Davidson diagonalization with overlap
     ethr =  2.50E-03,  avg # of iterations = 13.0

     negative rho (up, down):  1.516E-03 0.000E+00
 
     Adding external electric field

     Computed dipole along edir(3) : 
        Dipole               -1.7965 Ry au,         -4.5663 Debye
        Dipole field         -0.0034 Ry au, 
 
        Potential amp.        0.3143 Ry
        Total length         46.3494 bohr
 

     total cpu time spent up to now is      384.2 secs

     total energy              =   -2942.04924672 Ry
     estimated scf accuracy    <      64.66261476 Ry

     iteration # 24     ecut=    29.40 Ry     beta= 0.05
     Davidson diagonalization with overlap
     ethr =  2.50E-03,  avg # of iterations = 10.0

     negative rho (up, down):  1.593E-03 0.000E+00
 
     Adding external electric field

     Computed dipole along edir(3) : 
        Dipole               -0.6451 Ry au,         -1.6396 Debye
        Dipole field         -0.0012 Ry au, 
 
        Potential amp.        0.1128 Ry
        Total length         46.3494 bohr
 

     total cpu time spent up to now is      394.2 secs

     total energy              =   -2943.00188728 Ry
     estimated scf accuracy    <       2.50284512 Ry

     iteration # 25     ecut=    29.40 Ry     beta= 0.05
     Davidson diagonalization with overlap
     ethr =  6.29E-04,  avg # of iterations =  4.1

     negative rho (up, down):  1.677E-03 0.000E+00
 
     Adding external electric field

     Computed dipole along edir(3) : 
        Dipole               -0.0377 Ry au,         -0.0958 Debye
        Dipole field         -0.0001 Ry au, 
 
        Potential amp.        0.0066 Ry
        Total length         46.3494 bohr
 

     total cpu time spent up to now is      402.9 secs

     total energy              =   -2943.10425413 Ry
     estimated scf accuracy    <       1.70755806 Ry

     iteration # 26     ecut=    29.40 Ry     beta= 0.05
     Davidson diagonalization with overlap
     ethr =  4.29E-04,  avg # of iterations =  4.5

     negative rho (up, down):  1.767E-03 0.000E+00
 
     Adding external electric field

     Computed dipole along edir(3) : 
        Dipole               -0.2570 Ry au,         -0.6533 Debye
        Dipole field         -0.0005 Ry au, 
 
        Potential amp.        0.0450 Ry
        Total length         46.3494 bohr
 

     total cpu time spent up to now is      411.3 secs

     total energy              =   -2942.98464873 Ry
     estimated scf accuracy    <       1.34224190 Ry

     iteration # 27     ecut=    29.40 Ry     beta= 0.05
     Davidson diagonalization with overlap
     ethr =  3.37E-04,  avg # of iterations =  5.9

     negative rho (up, down):  2.083E-03 0.000E+00
 
     Adding external electric field

     Computed dipole along edir(3) : 
        Dipole               -0.4155 Ry au,         -1.0560 Debye
        Dipole field         -0.0008 Ry au, 
 
        Potential amp.        0.0727 Ry
        Total length         46.3494 bohr
 

     total cpu time spent up to now is      420.0 secs

     total energy              =   -2942.81979860 Ry
     estimated scf accuracy    <       0.79236299 Ry

     iteration # 28     ecut=    29.40 Ry     beta= 0.05
     Davidson diagonalization with overlap
     c_bands:  1 eigenvalues not converged
     c_bands:  5 eigenvalues not converged
     c_bands:  1 eigenvalues not converged
     c_bands:  4 eigenvalues not converged
     c_bands:  3 eigenvalues not converged
     c_bands:  2 eigenvalues not converged
     ethr =  1.99E-04,  avg # of iterations = 18.8

     negative rho (up, down):  2.042E-03 0.000E+00
 
     Adding external electric field

     Computed dipole along edir(3) : 
        Dipole               -0.5087 Ry au,         -1.2930 Debye
        Dipole field         -0.0010 Ry au, 
 
        Potential amp.        0.0890 Ry
        Total length         46.3494 bohr
 

     total cpu time spent up to now is      439.1 secs

     total energy              =   -2943.04106123 Ry
     estimated scf accuracy    <       1.42510026 Ry

     iteration # 29     ecut=    29.40 Ry     beta= 0.05
     Davidson diagonalization with overlap
     c_bands:  1 eigenvalues not converged
     ethr =  1.99E-04,  avg # of iterations =  9.3

     negative rho (up, down):  2.236E-03 0.000E+00
 
     Adding external electric field

     Computed dipole along edir(3) : 
        Dipole                0.8144 Ry au,          2.0699 Debye
        Dipole field          0.0015 Ry au, 
 
        Potential amp.       -0.1425 Ry
        Total length         46.3494 bohr
 

     total cpu time spent up to now is      455.8 secs

     total energy              =   -2942.96438614 Ry
     estimated scf accuracy    <       1.61142233 Ry

     iteration # 30     ecut=    29.40 Ry     beta= 0.05
     Davidson diagonalization with overlap
     ethr =  1.99E-04,  avg # of iterations = 10.2

     negative rho (up, down):  2.144E-03 0.000E+00
 
     Adding external electric field

     Computed dipole along edir(3) : 
        Dipole                0.7087 Ry au,          1.8013 Debye
        Dipole field          0.0013 Ry au, 
 
        Potential amp.       -0.1240 Ry
        Total length         46.3494 bohr
 

     total cpu time spent up to now is      466.4 secs

     total energy              =   -2942.99281642 Ry
     estimated scf accuracy    <       1.22706779 Ry

     iteration # 31     ecut=    29.40 Ry     beta= 0.05
     Davidson diagonalization with overlap
     ethr =  1.99E-04,  avg # of iterations =  1.7

     negative rho (up, down):  2.117E-03 0.000E+00
 
     Adding external electric field

     Computed dipole along edir(3) : 
        Dipole                0.6417 Ry au,          1.6310 Debye
        Dipole field          0.0012 Ry au, 
 
        Potential amp.       -0.1123 Ry
        Total length         46.3494 bohr
 

     total cpu time spent up to now is      479.6 secs

     total energy              =   -2943.00818599 Ry
     estimated scf accuracy    <       0.79783951 Ry

     iteration # 32     ecut=    29.40 Ry     beta= 0.05
     Davidson diagonalization with overlap
     ethr =  1.99E-04,  avg # of iterations =  1.0

     negative rho (up, down):  2.125E-03 0.000E+00
 
     Adding external electric field

     Computed dipole along edir(3) : 
        Dipole                1.0723 Ry au,          2.7256 Debye
        Dipole field          0.0020 Ry au, 
 
        Potential amp.       -0.1876 Ry
        Total length         46.3494 bohr
 

     total cpu time spent up to now is      486.6 secs

     total energy              =   -2942.97011284 Ry
     estimated scf accuracy    <       0.85219349 Ry

     iteration # 33     ecut=    29.40 Ry     beta= 0.05
     Davidson diagonalization with overlap
     c_bands:  1 eigenvalues not converged
     c_bands:  1 eigenvalues not converged
     ethr =  1.99E-04,  avg # of iterations = 17.0

     negative rho (up, down):  2.166E-03 0.000E+00
 
     Adding external electric field

     Computed dipole along edir(3) : 
        Dipole                1.0525 Ry au,          2.6752 Debye
        Dipole field          0.0020 Ry au, 
 
        Potential amp.       -0.1841 Ry
        Total length         46.3494 bohr
 

     total cpu time spent up to now is      500.8 secs

     total energy              =   -2943.05607096 Ry
     estimated scf accuracy    <       1.04747463 Ry

     iteration # 34     ecut=    29.40 Ry     beta= 0.05
     Davidson diagonalization with overlap
     ethr =  1.99E-04,  avg # of iterations =  1.2

     negative rho (up, down):  2.184E-03 0.000E+00
 
     Adding external electric field

     Computed dipole along edir(3) : 
        Dipole                1.0198 Ry au,          2.5921 Debye
        Dipole field          0.0019 Ry au, 
 
        Potential amp.       -0.1784 Ry
        Total length         46.3494 bohr
 

     total cpu time spent up to now is      508.0 secs

     total energy              =   -2943.02384602 Ry
     estimated scf accuracy    <       1.05240023 Ry

     iteration # 35     ecut=    29.40 Ry     beta= 0.05
     Davidson diagonalization with overlap
     ethr =  1.99E-04,  avg # of iterations =  3.8

     negative rho (up, down):  2.177E-03 0.000E+00
 
     Adding external electric field

     Computed dipole along edir(3) : 
        Dipole                0.9890 Ry au,          2.5137 Debye
        Dipole field          0.0019 Ry au, 
 
        Potential amp.       -0.1730 Ry
        Total length         46.3494 bohr
 

     total cpu time spent up to now is      525.0 secs

     total energy              =   -2943.05092098 Ry
     estimated scf accuracy    <       1.00359628 Ry

     iteration # 36     ecut=    29.40 Ry     beta= 0.05
     Davidson diagonalization with overlap
     ethr =  1.99E-04,  avg # of iterations =  1.0

     negative rho (up, down):  2.103E-03 0.000E+00
 
     Adding external electric field

     Computed dipole along edir(3) : 
        Dipole                0.9765 Ry au,          2.4821 Debye
        Dipole field          0.0018 Ry au, 
 
        Potential amp.       -0.1708 Ry
        Total length         46.3494 bohr
 

     total cpu time spent up to now is      532.0 secs

     total energy              =   -2943.03577601 Ry
     estimated scf accuracy    <       1.00569337 Ry

     iteration # 37     ecut=    29.40 Ry     beta= 0.05
     Davidson diagonalization with overlap
     ethr =  1.99E-04,  avg # of iterations =  1.2

     negative rho (up, down):  1.973E-03 0.000E+00
 
     Adding external electric field

     Computed dipole along edir(3) : 
        Dipole                0.6520 Ry au,          1.6572 Debye
        Dipole field          0.0012 Ry au, 
 
        Potential amp.       -0.1141 Ry
        Total length         46.3494 bohr
 

     total cpu time spent up to now is      540.5 secs

     total energy              =   -2943.10215381 Ry
     estimated scf accuracy    <       0.98052512 Ry

     iteration # 38     ecut=    29.40 Ry     beta= 0.05
     Davidson diagonalization with overlap
     c_bands:  2 eigenvalues not converged
     c_bands:  2 eigenvalues not converged
     c_bands:  2 eigenvalues not converged
     c_bands:  2 eigenvalues not converged
     c_bands:  1 eigenvalues not converged
     c_bands:  1 eigenvalues not converged
     ethr =  1.99E-04,  avg # of iterations = 19.5

     negative rho (up, down):  2.072E-03 0.000E+00
 
     Adding external electric field

     Computed dipole along edir(3) : 
        Dipole                1.4781 Ry au,          3.7570 Debye
        Dipole field          0.0028 Ry au, 
 
        Potential amp.       -0.2586 Ry
        Total length         46.3494 bohr
 

     total cpu time spent up to now is      563.2 secs

     total energy              =   -2943.32936841 Ry
     estimated scf accuracy    <       6.26787448 Ry

     iteration # 39     ecut=    29.40 Ry     beta= 0.05
     Davidson diagonalization with overlap
     c_bands:  1 eigenvalues not converged
     c_bands:  2 eigenvalues not converged
     ethr =  1.99E-04,  avg # of iterations =  9.9

     negative rho (up, down):  2.247E-03 0.000E+00
 
     Adding external electric field

     Computed dipole along edir(3) : 
        Dipole                1.9066 Ry au,          4.8462 Debye
        Dipole field          0.0036 Ry au, 
 
        Potential amp.       -0.3335 Ry
        Total length         46.3494 bohr
 

     total cpu time spent up to now is      573.1 secs

     total energy              =   -2943.83629122 Ry
     estimated scf accuracy    <      10.42154613 Ry

     iteration # 40     ecut=    29.40 Ry     beta= 0.05
     Davidson diagonalization with overlap
     c_bands:  1 eigenvalues not converged
     ethr =  1.99E-04,  avg # of iterations = 12.3

     negative rho (up, down):  1.976E-03 0.000E+00
 
     Adding external electric field

     Computed dipole along edir(3) : 
        Dipole                0.6200 Ry au,          1.5760 Debye
        Dipole field          0.0012 Ry au, 
 
        Potential amp.       -0.1085 Ry
        Total length         46.3494 bohr
 

     total cpu time spent up to now is      584.1 secs

     total energy              =   -2941.66034900 Ry
     estimated scf accuracy    <      48.72495948 Ry

     iteration # 41     ecut=    29.40 Ry     beta= 0.05
     Davidson diagonalization with overlap
     c_bands:  2 eigenvalues not converged
     c_bands:  1 eigenvalues not converged
     ethr =  1.99E-04,  avg # of iterations = 14.9

     negative rho (up, down):  1.812E-03 0.000E+00
 
     Adding external electric field

     Computed dipole along edir(3) : 
        Dipole                0.2877 Ry au,          0.7312 Debye
        Dipole field          0.0005 Ry au, 
 
        Potential amp.       -0.0503 Ry
        Total length         46.3494 bohr
 

     total cpu time spent up to now is      598.9 secs

     total energy              =   -2942.88621463 Ry
     estimated scf accuracy    <       1.31977150 Ry

     iteration # 42     ecut=    29.40 Ry     beta= 0.05
     Davidson diagonalization with overlap
     c_bands:  2 eigenvalues not converged
     ethr =  1.99E-04,  avg # of iterations =  6.5

     negative rho (up, down):  1.659E-03 0.000E+00
 
     Adding external electric field

     Computed dipole along edir(3) : 
        Dipole               -0.0645 Ry au,         -0.1640 Debye
        Dipole field         -0.0001 Ry au, 
 
        Potential amp.        0.0113 Ry
        Total length         46.3494 bohr
 

     total cpu time spent up to now is      608.3 secs

     total energy              =   -2942.81134509 Ry
     estimated scf accuracy    <       0.69220873 Ry

     iteration # 43     ecut=    29.40 Ry     beta= 0.05
     Davidson diagonalization with overlap
     c_bands:  2 eigenvalues not converged
     c_bands:  1 eigenvalues not converged
     c_bands:  1 eigenvalues not converged
     c_bands:  1 eigenvalues not converged
     ethr =  1.74E-04,  avg # of iterations = 16.0

     negative rho (up, down):  1.683E-03 0.000E+00
 
     Adding external electric field

     Computed dipole along edir(3) : 
        Dipole                0.1175 Ry au,          0.2987 Debye
        Dipole field          0.0002 Ry au, 
 
        Potential amp.       -0.0206 Ry
        Total length         46.3494 bohr
 

     total cpu time spent up to now is      622.9 secs

     total energy              =   -2942.89956318 Ry
     estimated scf accuracy    <       0.17780461 Ry

     iteration # 44     ecut=    29.40 Ry     beta= 0.05
     Davidson diagonalization with overlap
     c_bands:  2 eigenvalues not converged
     ethr =  4.47E-05,  avg # of iterations = 10.5

     negative rho (up, down):  1.683E-03 0.000E+00
 
     Adding external electric field

     Computed dipole along edir(3) : 
        Dipole                0.1239 Ry au,          0.3148 Debye
        Dipole field          0.0002 Ry au, 
 
        Potential amp.       -0.0217 Ry
        Total length         46.3494 bohr
 

     total cpu time spent up to now is      633.8 secs

     total energy              =   -2942.90274568 Ry
     estimated scf accuracy    <       0.13799633 Ry

     iteration # 45     ecut=    29.40 Ry     beta= 0.05
     Davidson diagonalization with overlap
     c_bands:  1 eigenvalues not converged
     c_bands:  1 eigenvalues not converged
     ethr =  3.47E-05,  avg # of iterations = 12.5

     negative rho (up, down):  1.815E-03 0.000E+00
 
     Adding external electric field

     Computed dipole along edir(3) : 
        Dipole               -0.1917 Ry au,         -0.4871 Debye
        Dipole field         -0.0004 Ry au, 
 
        Potential amp.        0.0335 Ry
        Total length         46.3494 bohr
 

     total cpu time spent up to now is      646.3 secs

     total energy              =   -2942.89941907 Ry
     estimated scf accuracy    <       0.09864475 Ry

     iteration # 46     ecut=    29.40 Ry     beta= 0.05
     Davidson diagonalization with overlap
     ethr =  2.48E-05,  avg # of iterations =  7.2

     negative rho (up, down):  1.840E-03 0.000E+00
 
     Adding external electric field

     Computed dipole along edir(3) : 
        Dipole               -0.3622 Ry au,         -0.9205 Debye
        Dipole field         -0.0007 Ry au, 
 
        Potential amp.        0.0634 Ry
        Total length         46.3494 bohr
 

     total cpu time spent up to now is      656.3 secs

     total energy              =   -2942.90767797 Ry
     estimated scf accuracy    <       0.06538654 Ry

     iteration # 47     ecut=    29.40 Ry     beta= 0.05
     Davidson diagonalization with overlap
     c_bands:  1 eigenvalues not converged
     c_bands:  2 eigenvalues not converged
     c_bands:  3 eigenvalues not converged
     c_bands:  2 eigenvalues not converged
     c_bands:  1 eigenvalues not converged
     ethr =  1.64E-05,  avg # of iterations = 15.1

     negative rho (up, down):  1.930E-03 0.000E+00
 
     Adding external electric field

     Computed dipole along edir(3) : 
        Dipole               -0.4959 Ry au,         -1.2604 Debye
        Dipole field         -0.0009 Ry au, 
 
        Potential amp.        0.0867 Ry
        Total length         46.3494 bohr
 

     total cpu time spent up to now is      668.3 secs

     total energy              =   -2942.91047988 Ry
     estimated scf accuracy    <       0.06589361 Ry

     iteration # 48     ecut=    29.40 Ry     beta= 0.05
     Davidson diagonalization with overlap
     ethr =  1.64E-05,  avg # of iterations =  8.2

     negative rho (up, down):  1.882E-03 0.000E+00
 
     Adding external electric field

     Computed dipole along edir(3) : 
        Dipole               -0.4040 Ry au,         -1.0270 Debye
        Dipole field         -0.0008 Ry au, 
 
        Potential amp.        0.0707 Ry
        Total length         46.3494 bohr
 

     total cpu time spent up to now is      678.4 secs

     total energy              =   -2942.91110632 Ry
     estimated scf accuracy    <       0.23308887 Ry

     iteration # 49     ecut=    29.40 Ry     beta= 0.05
     Davidson diagonalization with overlap
     ethr =  1.64E-05,  avg # of iterations =  2.2

     negative rho (up, down):  2.216E-03 0.000E+00
 
     Adding external electric field

     Computed dipole along edir(3) : 
        Dipole               -0.3601 Ry au,         -0.9153 Debye
        Dipole field         -0.0007 Ry au, 
 
        Potential amp.        0.0630 Ry
        Total length         46.3494 bohr
 

     total cpu time spent up to now is      685.9 secs

     total energy              =   -2942.90798414 Ry
     estimated scf accuracy    <       0.07163954 Ry

     iteration # 50     ecut=    29.40 Ry     beta= 0.05
     Davidson diagonalization with overlap
     ethr =  1.64E-05,  avg # of iterations =  4.6

     negative rho (up, down):  2.333E-03 0.000E+00
 
     Adding external electric field

     Computed dipole along edir(3) : 
        Dipole                0.1462 Ry au,          0.3715 Debye
        Dipole field          0.0003 Ry au, 
 
        Potential amp.       -0.0256 Ry
        Total length         46.3494 bohr
 

     total cpu time spent up to now is      694.3 secs

     total energy              =   -2942.89259371 Ry
     estimated scf accuracy    <       0.09266666 Ry

     iteration # 51     ecut=    29.40 Ry     beta= 0.05
     Davidson diagonalization with overlap
     c_bands:  1 eigenvalues not converged
     c_bands:  2 eigenvalues not converged
     c_bands:  1 eigenvalues not converged
     c_bands:  2 eigenvalues not converged
     c_bands:  2 eigenvalues not converged
     ethr =  1.64E-05,  avg # of iterations = 18.6

     negative rho (up, down):  2.381E-03 0.000E+00
 
     Adding external electric field

     Computed dipole along edir(3) : 
        Dipole               -0.0169 Ry au,         -0.0428 Debye
        Dipole field         -0.0000 Ry au, 
 
        Potential amp.        0.0029 Ry
        Total length         46.3494 bohr
 

     total cpu time spent up to now is      710.9 secs

     total energy              =   -2942.90262238 Ry
     estimated scf accuracy    <       0.03931758 Ry

     iteration # 52     ecut=    29.40 Ry     beta= 0.05
     Davidson diagonalization with overlap
     c_bands:  3 eigenvalues not converged
     c_bands:  1 eigenvalues not converged
     c_bands:  1 eigenvalues not converged
     c_bands:  1 eigenvalues not converged
     c_bands:  4 eigenvalues not converged
     ethr =  9.88E-06,  avg # of iterations = 18.6

     negative rho (up, down):  2.910E-03 0.000E+00
 
     Adding external electric field

     Computed dipole along edir(3) : 
        Dipole               -0.1326 Ry au,         -0.3371 Debye
        Dipole field         -0.0003 Ry au, 
 
        Potential amp.        0.0232 Ry
        Total length         46.3494 bohr
 

     total cpu time spent up to now is      723.8 secs

     total energy              =   -2942.90593996 Ry
     estimated scf accuracy    <       0.01325892 Ry

     iteration # 53     ecut=    29.40 Ry     beta= 0.05
     Davidson diagonalization with overlap
     c_bands:  2 eigenvalues not converged
     c_bands:  1 eigenvalues not converged
     c_bands:  2 eigenvalues not converged
     c_bands:  1 eigenvalues not converged
     ethr =  3.33E-06,  avg # of iterations = 18.5

     negative rho (up, down):  3.711E-03 0.000E+00
 
     Adding external electric field

     Computed dipole along edir(3) : 
        Dipole               -0.0720 Ry au,         -0.1830 Debye
        Dipole field         -0.0001 Ry au, 
 
        Potential amp.        0.0126 Ry
        Total length         46.3494 bohr
 

     total cpu time spent up to now is      738.8 secs

     total energy              =   -2942.90802842 Ry
     estimated scf accuracy    <       0.03779816 Ry

     iteration # 54     ecut=    29.40 Ry     beta= 0.05
     Davidson diagonalization with overlap
     c_bands:  1 eigenvalues not converged
     ethr =  3.33E-06,  avg # of iterations =  9.2

     negative rho (up, down):  4.099E-03 0.000E+00
 
     Adding external electric field

     Computed dipole along edir(3) : 
        Dipole                0.0750 Ry au,          0.1905 Debye
        Dipole field          0.0001 Ry au, 
 
        Potential amp.       -0.0131 Ry
        Total length         46.3494 bohr
 

     total cpu time spent up to now is      748.9 secs

     total energy              =   -2942.90587334 Ry
     estimated scf accuracy    <       0.05443064 Ry

     iteration # 55     ecut=    29.40 Ry     beta= 0.05
     Davidson diagonalization with overlap
     ethr =  3.33E-06,  avg # of iterations =  3.2

     negative rho (up, down):  4.206E-03 0.000E+00
 
     Adding external electric field

     Computed dipole along edir(3) : 
        Dipole                0.1112 Ry au,          0.2827 Debye
        Dipole field          0.0002 Ry au, 
 
        Potential amp.       -0.0195 Ry
        Total length         46.3494 bohr
 

     total cpu time spent up to now is      756.9 secs

     total energy              =   -2942.90696877 Ry
     estimated scf accuracy    <       0.00763663 Ry

     iteration # 56     ecut=    29.40 Ry     beta= 0.05
     Davidson diagonalization with overlap
     c_bands:  1 eigenvalues not converged
     ethr =  1.92E-06,  avg # of iterations =  7.4

     negative rho (up, down):  4.310E-03 0.000E+00
 
     Adding external electric field

     Computed dipole along edir(3) : 
        Dipole                0.1098 Ry au,          0.2791 Debye
        Dipole field          0.0002 Ry au, 
 
        Potential amp.       -0.0192 Ry
        Total length         46.3494 bohr
 

     total cpu time spent up to now is      769.0 secs

     total energy              =   -2942.90706864 Ry
     estimated scf accuracy    <       0.00411383 Ry

     iteration # 57     ecut=    29.40 Ry     beta= 0.05
     Davidson diagonalization with overlap
     ethr =  1.03E-06,  avg # of iterations =  5.2

     negative rho (up, down):  5.212E-03 0.000E+00
 
     Adding external electric field

     Computed dipole along edir(3) : 
        Dipole                0.1788 Ry au,          0.4544 Debye
        Dipole field          0.0003 Ry au, 
 
        Potential amp.       -0.0313 Ry
        Total length         46.3494 bohr
 

     total cpu time spent up to now is      777.5 secs

     total energy              =   -2942.90681673 Ry
     estimated scf accuracy    <       0.00349791 Ry

     iteration # 58     ecut=    29.40 Ry     beta= 0.05
     Davidson diagonalization with overlap
     ethr =  8.79E-07,  avg # of iterations =  2.3

     negative rho (up, down):  6.033E-03 0.000E+00
 
     Adding external electric field

     Computed dipole along edir(3) : 
        Dipole                0.2607 Ry au,          0.6625 Debye
        Dipole field          0.0005 Ry au, 
 
        Potential amp.       -0.0456 Ry
        Total length         46.3494 bohr
 

     total cpu time spent up to now is      785.4 secs

     total energy              =   -2942.90663858 Ry
     estimated scf accuracy    <       0.00252502 Ry

     iteration # 59     ecut=    29.40 Ry     beta= 0.05
     Davidson diagonalization with overlap
     ethr =  6.34E-07,  avg # of iterations =  4.9

     negative rho (up, down):  6.464E-03 0.000E+00
 
     Adding external electric field

     Computed dipole along edir(3) : 
        Dipole                0.2982 Ry au,          0.7580 Debye
        Dipole field          0.0006 Ry au, 
 
        Potential amp.       -0.0522 Ry
        Total length         46.3494 bohr
 

     total cpu time spent up to now is      793.9 secs

     total energy              =   -2942.90667302 Ry
     estimated scf accuracy    <       0.00084132 Ry

     iteration # 60     ecut=    29.40 Ry     beta= 0.05
     Davidson diagonalization with overlap
     ethr =  2.11E-07,  avg # of iterations =  6.1

     negative rho (up, down):  6.827E-03 0.000E+00
 
     Adding external electric field

     Computed dipole along edir(3) : 
        Dipole                0.3140 Ry au,          0.7981 Debye
        Dipole field          0.0006 Ry au, 
 
        Potential amp.       -0.0549 Ry
        Total length         46.3494 bohr
 

     total cpu time spent up to now is      802.8 secs

     total energy              =   -2942.90668923 Ry
     estimated scf accuracy    <       0.00067187 Ry

     iteration # 61     ecut=    29.40 Ry     beta= 0.05
     Davidson diagonalization with overlap
     ethr =  1.69E-07,  avg # of iterations =  5.0

     negative rho (up, down):  8.592E-03 0.000E+00
 
     Adding external electric field

     Computed dipole along edir(3) : 
        Dipole                0.3650 Ry au,          0.9278 Debye
        Dipole field          0.0007 Ry au, 
 
        Potential amp.       -0.0639 Ry
        Total length         46.3494 bohr
 

     total cpu time spent up to now is      811.5 secs

     total energy              =   -2942.90652996 Ry
     estimated scf accuracy    <       0.00086918 Ry

     iteration # 62     ecut=    29.40 Ry     beta= 0.05
     Davidson diagonalization with overlap
     ethr =  1.69E-07,  avg # of iterations =  6.0

     negative rho (up, down):  8.445E-03 0.000E+00
 
     Adding external electric field

     Computed dipole along edir(3) : 
        Dipole                0.3722 Ry au,          0.9461 Debye
        Dipole field          0.0007 Ry au, 
 
        Potential amp.       -0.0651 Ry
        Total length         46.3494 bohr
 

     total cpu time spent up to now is      821.9 secs

     total energy              =   -2942.90659221 Ry
     estimated scf accuracy    <       0.00034287 Ry

     iteration # 63     ecut=    29.40 Ry     beta= 0.05
     Davidson diagonalization with overlap
     ethr =  8.61E-08,  avg # of iterations =  6.0

     negative rho (up, down):  9.904E-03 0.000E+00
 
     Adding external electric field

     Computed dipole along edir(3) : 
        Dipole                0.4206 Ry au,          1.0691 Debye
        Dipole field          0.0008 Ry au, 
 
        Potential amp.       -0.0736 Ry
        Total length         46.3494 bohr
 

     total cpu time spent up to now is      831.3 secs

     total energy              =   -2942.90660017 Ry
     estimated scf accuracy    <       0.00018707 Ry

     iteration # 64     ecut=    29.40 Ry     beta= 0.05
     Davidson diagonalization with overlap
     ethr =  4.70E-08,  avg # of iterations =  5.0

     negative rho (up, down):  1.087E-02 0.000E+00
 
     Adding external electric field

     Computed dipole along edir(3) : 
        Dipole                0.4454 Ry au,          1.1320 Debye
        Dipole field          0.0008 Ry au, 
 
        Potential amp.       -0.0779 Ry
        Total length         46.3494 bohr
 

     total cpu time spent up to now is      840.0 secs

     total energy              =   -2942.90660762 Ry
     estimated scf accuracy    <       0.00005799 Ry

     iteration # 65     ecut=    29.40 Ry     beta= 0.05
     Davidson diagonalization with overlap
     ethr =  1.46E-08,  avg # of iterations =  5.2

     negative rho (up, down):  1.062E-02 0.000E+00
 
     Adding external electric field

     Computed dipole along edir(3) : 
        Dipole                0.4370 Ry au,          1.1108 Debye
        Dipole field          0.0008 Ry au, 
 
        Potential amp.       -0.0764 Ry
        Total length         46.3494 bohr
 

     total cpu time spent up to now is      856.2 secs

     total energy              =   -2942.90661243 Ry
     estimated scf accuracy    <       0.00004662 Ry

     iteration # 66     ecut=    29.40 Ry     beta= 0.05
     Davidson diagonalization with overlap
     ethr =  1.17E-08,  avg # of iterations =  5.9

     negative rho (up, down):  1.071E-02 0.000E+00
 
     Adding external electric field

     Computed dipole along edir(3) : 
        Dipole                0.4399 Ry au,          1.1182 Debye
        Dipole field          0.0008 Ry au, 
 
        Potential amp.       -0.0770 Ry
        Total length         46.3494 bohr
 

     total cpu time spent up to now is      867.6 secs

     total energy              =   -2942.90661989 Ry
     estimated scf accuracy    <       0.00004991 Ry

     iteration # 67     ecut=    29.40 Ry     beta= 0.05
     Davidson diagonalization with overlap
     ethr =  1.17E-08,  avg # of iterations =  2.0

     negative rho (up, down):  1.098E-02 0.000E+00
 
     Adding external electric field

     Computed dipole along edir(3) : 
        Dipole                0.4477 Ry au,          1.1380 Debye
        Dipole field          0.0008 Ry au, 
 
        Potential amp.       -0.0783 Ry
        Total length         46.3494 bohr
 

     total cpu time spent up to now is      875.4 secs

     total energy              =   -2942.90661570 Ry
     estimated scf accuracy    <       0.00004154 Ry

     iteration # 68     ecut=    29.40 Ry     beta= 0.05
     Davidson diagonalization with overlap
     ethr =  1.04E-08,  avg # of iterations =  4.8

     negative rho (up, down):  1.115E-02 0.000E+00
 
     Adding external electric field

     Computed dipole along edir(3) : 
        Dipole                0.4533 Ry au,          1.1523 Debye
        Dipole field          0.0009 Ry au, 
 
        Potential amp.       -0.0793 Ry
        Total length         46.3494 bohr
 

     total cpu time spent up to now is      884.2 secs

     total energy              =   -2942.90661734 Ry
     estimated scf accuracy    <       0.00001731 Ry

     iteration # 69     ecut=    29.40 Ry     beta= 0.05
     Davidson diagonalization with overlap
     ethr =  4.35E-09,  avg # of iterations =  5.9

     negative rho (up, down):  1.097E-02 0.000E+00
 
     Adding external electric field

     Computed dipole along edir(3) : 
        Dipole                0.4499 Ry au,          1.1435 Debye
        Dipole field          0.0008 Ry au, 
 
        Potential amp.       -0.0787 Ry
        Total length         46.3494 bohr
 

     total cpu time spent up to now is      913.1 secs

     total energy              =   -2942.90662428 Ry
     estimated scf accuracy    <       0.00002912 Ry

     iteration # 70     ecut=    29.40 Ry     beta= 0.05
     Davidson diagonalization with overlap
     ethr =  4.35E-09,  avg # of iterations =  2.2

     negative rho (up, down):  1.091E-02 0.000E+00
 
     Adding external electric field

     Computed dipole along edir(3) : 
        Dipole                0.4513 Ry au,          1.1471 Debye
        Dipole field          0.0009 Ry au, 
 
        Potential amp.       -0.0789 Ry
        Total length         46.3494 bohr
 

     total cpu time spent up to now is      921.1 secs

     total energy              =   -2942.90662325 Ry
     estimated scf accuracy    <       0.00001471 Ry

     iteration # 71     ecut=    29.40 Ry     beta= 0.05
     Davidson diagonalization with overlap
     ethr =  3.70E-09,  avg # of iterations =  5.9

     negative rho (up, down):  1.096E-02 0.000E+00
 
     Adding external electric field

     Computed dipole along edir(3) : 
        Dipole                0.4522 Ry au,          1.1494 Debye
        Dipole field          0.0009 Ry au, 
 
        Potential amp.       -0.0791 Ry
        Total length         46.3494 bohr
 

     total cpu time spent up to now is      933.3 secs

     total energy              =   -2942.90663194 Ry
     estimated scf accuracy    <       0.00001334 Ry

     iteration # 72     ecut=    29.40 Ry     beta= 0.05
     Davidson diagonalization with overlap
     ethr =  3.35E-09,  avg # of iterations =  1.0

     negative rho (up, down):  1.096E-02 0.000E+00
 
     Adding external electric field

     Computed dipole along edir(3) : 
        Dipole                0.4511 Ry au,          1.1466 Debye
        Dipole field          0.0009 Ry au, 
 
        Potential amp.       -0.0789 Ry
        Total length         46.3494 bohr
 

     total cpu time spent up to now is      940.4 secs

     total energy              =   -2942.90663354 Ry
     estimated scf accuracy    <       0.00000989 Ry

     iteration # 73     ecut=    29.40 Ry     beta= 0.05
     Davidson diagonalization with overlap
     ethr =  2.48E-09,  avg # of iterations =  3.2

     negative rho (up, down):  1.086E-02 0.000E+00
 
     Adding external electric field

     Computed dipole along edir(3) : 
        Dipole                0.4491 Ry au,          1.1416 Debye
        Dipole field          0.0008 Ry au, 
 
        Potential amp.       -0.0786 Ry
        Total length         46.3494 bohr
 

     total cpu time spent up to now is      949.0 secs

     total energy              =   -2942.90663721 Ry
     estimated scf accuracy    <       0.00000259 Ry

     iteration # 74     ecut=    29.40 Ry     beta= 0.05
     Davidson diagonalization with overlap
     ethr =  6.51E-10,  avg # of iterations =  5.0

     negative rho (up, down):  1.084E-02 0.000E+00
 
     Adding external electric field

     Computed dipole along edir(3) : 
        Dipole                0.4488 Ry au,          1.1406 Debye
        Dipole field          0.0008 Ry au, 
 
        Potential amp.       -0.0785 Ry
        Total length         46.3494 bohr
 

     total cpu time spent up to now is      957.8 secs

     total energy              =   -2942.90663972 Ry
     estimated scf accuracy    <       0.00000170 Ry

     iteration # 75     ecut=    29.40 Ry     beta= 0.05
     Davidson diagonalization with overlap
     ethr =  4.28E-10,  avg # of iterations =  5.9

     negative rho (up, down):  1.090E-02 0.000E+00
 
     Adding external electric field

     Computed dipole along edir(3) : 
        Dipole                0.4509 Ry au,          1.1460 Debye
        Dipole field          0.0009 Ry au, 
 
        Potential amp.       -0.0789 Ry
        Total length         46.3494 bohr
 

     total cpu time spent up to now is      969.5 secs

     total energy              =   -2942.90664192 Ry
     estimated scf accuracy    <       0.00000166 Ry

     iteration # 76     ecut=    29.40 Ry     beta= 0.05
     Davidson diagonalization with overlap
     ethr =  4.17E-10,  avg # of iterations =  5.1

     negative rho (up, down):  1.091E-02 0.000E+00
 
     Adding external electric field

     Computed dipole along edir(3) : 
        Dipole                0.4523 Ry au,          1.1495 Debye
        Dipole field          0.0009 Ry au, 
 
        Potential amp.       -0.0791 Ry
        Total length         46.3494 bohr
 

     total cpu time spent up to now is      979.2 secs

     total energy              =   -2942.90664418 Ry
     estimated scf accuracy    <       0.00000044 Ry

     iteration # 77     ecut=    29.40 Ry     beta= 0.05
     Davidson diagonalization with overlap
     ethr =  1.11E-10,  avg # of iterations =  5.6

     negative rho (up, down):  1.093E-02 0.000E+00
 
     Adding external electric field

     Computed dipole along edir(3) : 
        Dipole                0.4528 Ry au,          1.1508 Debye
        Dipole field          0.0009 Ry au, 
 
        Potential amp.       -0.0792 Ry
        Total length         46.3494 bohr
 

     total cpu time spent up to now is      999.6 secs

     total energy              =   -2942.90664606 Ry
     estimated scf accuracy    <       0.00000080 Ry

     iteration # 78     ecut=    29.40 Ry     beta= 0.05
     Davidson diagonalization with overlap
     ethr =  1.11E-10,  avg # of iterations =  4.1

     negative rho (up, down):  1.094E-02 0.000E+00
 
     Adding external electric field

     Computed dipole along edir(3) : 
        Dipole                0.4530 Ry au,          1.1515 Debye
        Dipole field          0.0009 Ry au, 
 
        Potential amp.       -0.0792 Ry
        Total length         46.3494 bohr
 

     total cpu time spent up to now is     1015.2 secs

     total energy              =   -2942.90664780 Ry
     estimated scf accuracy    <       0.00000034 Ry

     iteration # 79     ecut=    29.40 Ry     beta= 0.05
     Davidson diagonalization with overlap
     ethr =  8.66E-11,  avg # of iterations =  4.6

     negative rho (up, down):  1.093E-02 0.000E+00
 
     Adding external electric field

     Computed dipole along edir(3) : 
        Dipole                0.4529 Ry au,          1.1512 Debye
        Dipole field          0.0009 Ry au, 
 
        Potential amp.       -0.0792 Ry
        Total length         46.3494 bohr
 

     total cpu time spent up to now is     1023.6 secs

     total energy              =   -2942.90664938 Ry
     estimated scf accuracy    <       0.00000021 Ry

     iteration # 80     ecut=    29.40 Ry     beta= 0.05
     Davidson diagonalization with overlap
     ethr =  5.26E-11,  avg # of iterations =  4.5

     negative rho (up, down):  1.092E-02 0.000E+00
 
     Adding external electric field

     Computed dipole along edir(3) : 
        Dipole                0.4528 Ry au,          1.1508 Debye
        Dipole field          0.0009 Ry au, 
 
        Potential amp.       -0.0792 Ry
        Total length         46.3494 bohr
 

     total cpu time spent up to now is     1032.0 secs

     total energy              =   -2942.90665076 Ry
     estimated scf accuracy    <       0.00000016 Ry

     iteration # 81     ecut=    29.40 Ry     beta= 0.05
     Davidson diagonalization with overlap
     ethr =  4.12E-11,  avg # of iterations =  5.7

     negative rho (up, down):  1.092E-02 0.000E+00
 
     Adding external electric field

     Computed dipole along edir(3) : 
        Dipole                0.4529 Ry au,          1.1512 Debye
        Dipole field          0.0009 Ry au, 
 
        Potential amp.       -0.0792 Ry
        Total length         46.3494 bohr
 

     total cpu time spent up to now is     1043.4 secs

     total energy              =   -2942.90665205 Ry
     estimated scf accuracy    <       0.00000009 Ry

     iteration # 82     ecut=    29.40 Ry     beta= 0.05
     Davidson diagonalization with overlap
     ethr =  2.15E-11,  avg # of iterations =  2.0

     negative rho (up, down):  1.094E-02 0.000E+00
 
     Adding external electric field

     Computed dipole along edir(3) : 
        Dipole                0.4525 Ry au,          1.1502 Debye
        Dipole field          0.0009 Ry au, 
 
        Potential amp.       -0.0792 Ry
        Total length         46.3494 bohr
 

     total cpu time spent up to now is     1051.5 secs

     End of self-consistent calculation

          k = 0.0000 0.0000 0.0000 ( 18029 PWs)   bands (ev):

   -56.6136 -56.5800 -55.7329 -55.7244 -55.6975 -55.6921 -55.5873 -55.5516
   -55.3703 -55.3350 -55.2784 -55.2720 -55.2445 -55.1699 -54.7331 -54.6199
   -33.0415 -32.8882 -32.8601 -32.7898 -32.6987 -32.6675 -32.2076 -32.1968
   -32.1303 -32.0193 -31.9743 -31.9462 -31.9322 -31.9074 -31.8748 -31.8722
   -31.8681 -31.8615 -31.8384 -31.8349 -31.8236 -31.7955 -31.7702 -31.7566
   -31.7435 -31.7235 -31.7153 -31.6920 -31.6708 -31.6169 -31.6018 -31.5928
   -31.5142 -31.5091 -31.4894 -31.4474 -31.4370 -31.4060 -31.3988 -31.3744
   -31.3531 -31.2950 -31.2346 -30.9742 -30.9616 -30.8794 -30.8398 -30.7489
   -16.7776 -16.3433 -16.1135 -15.9761 -15.9086 -15.8542 -15.8089 -15.6877
   -15.6150 -15.6086 -15.5681 -15.5376 -15.4671 -15.3263 -15.2281 -15.1747
   -15.1303 -15.0093 -14.9493 -14.9165 -14.9118 -14.8774 -14.8578 -14.6618
   -14.6374 -14.5349 -14.5250 -14.3994 -14.1769 -13.7770 -13.6866 -13.6669
   -12.7973  -7.4933  -4.3434  -3.8385  -3.7960  -3.7340  -3.6010  -3.5140
    -3.4065  -3.3937  -3.3125  -3.1944  -3.1484  -3.1007  -2.9848  -2.9847
    -2.8354  -2.7953  -2.7893  -2.7855  -2.7404  -2.6770  -2.6613  -2.6223
    -2.6169  -2.6075  -2.4568  -2.3568  -2.2894  -2.2680  -2.2576  -2.2219
    -2.1437  -2.1236  -2.1089  -2.1052  -2.0047  -1.8561  -1.8544  -1.8233
    -1.7798  -1.7784  -1.7402  -1.7254  -1.5901  -1.5164  -1.4135  -1.3962
    -1.3578  -1.2936  -1.2872  -1.1892  -1.1149  -1.0523  -1.0267  -0.9177
    -0.8752  -0.8526  -0.7629  -0.7010  -0.6613  -0.6437  -0.6269  -0.5231
    -0.5031  -0.4921  -0.4072  -0.3955  -0.3383  -0.2570  -0.2373  -0.2311
    -0.1429  -0.1377  -0.0455  -0.0037   0.0381   0.0831   0.1789   0.1973
     0.3001   0.3356   0.3570   0.4768   0.4898   0.5525   0.6200   0.6874
     0.7186   0.7430   0.7725   0.7941   0.8675   0.9824   0.9871   1.0891
     1.1284   1.2960   1.3350   1.3842   1.6230   1.6494   2.3198   2.6610
     2.8211   3.1195   3.3104   3.4214   3.6364   3.6515   3.6568   3.8344
     3.8803

          k = 0.0000 0.0419 0.0000 ( 17933 PWs)   bands (ev):

   -56.6086 -56.5849 -55.7278 -55.7196 -55.7025 -55.6966 -55.5822 -55.5566
   -55.3652 -55.3399 -55.2734 -55.2705 -55.2494 -55.1714 -54.7317 -54.6212
   -32.9881 -32.8840 -32.8639 -32.7765 -32.7234 -32.7120 -32.1546 -32.1440
   -32.0748 -32.0049 -31.9684 -31.9351 -31.9346 -31.9284 -31.8933 -31.8791
   -31.8736 -31.8723 -31.8675 -31.8557 -31.7923 -31.7910 -31.7831 -31.7730
   -31.7554 -31.7081 -31.7003 -31.6906 -31.6181 -31.6132 -31.5961 -31.5883
   -31.5227 -31.5097 -31.4957 -31.4773 -31.4453 -31.4181 -31.4119 -31.4003
   -31.3750 -31.3518 -31.1873 -30.9733 -30.9605 -30.9004 -30.8404 -30.7795
   -16.6564 -16.2210 -16.0296 -16.0101 -15.9164 -15.8330 -15.7920 -15.6279
   -15.6278 -15.5793 -15.5532 -15.4709 -15.4476 -15.3574 -15.2708 -15.2627
   -15.1746 -15.0111 -15.0040 -14.9811 -14.9510 -14.8548 -14.7973 -14.7112
   -14.6338 -14.5818 -14.5396 -14.4215 -14.2453 -13.7842 -13.7080 -13.6861
   -12.8063  -7.4888  -4.1616  -3.7953  -3.7419  -3.6604  -3.4389  -3.3618
    -3.3193  -3.2586  -3.1892  -3.1387  -3.1265  -3.1140  -2.9526  -2.8919
    -2.7964  -2.7904  -2.7767  -2.7597  -2.7540  -2.7175  -2.6516  -2.6230
    -2.6089  -2.5624  -2.5183  -2.4920  -2.4632  -2.4240  -2.3592  -2.3310
    -2.2670  -2.2427  -2.1760  -2.0503  -2.0413  -2.0289  -1.8459  -1.8203
    -1.8133  -1.7682  -1.7003  -1.6144  -1.4664  -1.4225  -1.4114  -1.3668
    -1.3636  -1.1916  -1.1754  -1.1461  -1.0692  -1.0423  -1.0314  -0.9604
    -0.8943  -0.8825  -0.8432  -0.7318  -0.6569  -0.5954  -0.5294  -0.4496
    -0.4429  -0.4008  -0.3846  -0.3212  -0.3099  -0.2693  -0.2566  -0.2463
    -0.1692  -0.1262  -0.0837  -0.0532  -0.0373   0.0868   0.1125   0.2094
     0.2342   0.2438   0.2943   0.3542   0.3736   0.3938   0.4141   0.4207
     0.5983   0.6257   0.7078   0.7982   0.9221   0.9750   1.0364   1.0593
     1.0829   1.2416   1.2471   1.3814   1.5035   1.6213   2.1926   2.9279
     2.9334   3.1280   3.4702   3.4983   3.5288   3.6104   3.6283   3.7782
     3.8222

          k = 0.0000-0.0839 0.0000 ( 17884 PWs)   bands (ev):

   -56.5969 -56.5965 -55.7175 -55.7132 -55.7081 -55.7076 -55.5721 -55.5666
   -55.3553 -55.3497 -55.2689 -55.2614 -55.2613 -55.1729 -54.7302 -54.6226
   -32.8740 -32.8737 -32.8572 -32.8570 -32.7444 -32.7441 -32.0271 -32.0241
   -32.0165 -32.0112 -31.9691 -31.9684 -31.9648 -31.9637 -31.9214 -31.9177
   -31.9060 -31.9007 -31.8683 -31.8669 -31.8240 -31.8195 -31.7738 -31.7684
   -31.7064 -31.6991 -31.6372 -31.6302 -31.6061 -31.6045 -31.6044 -31.5563
   -31.5546 -31.5231 -31.4877 -31.4871 -31.4870 -31.4479 -31.4478 -31.4426
   -31.4097 -31.3764 -31.1134 -30.9942 -30.9597 -30.9294 -30.8409 -30.8075
   -16.3552 -16.3545 -15.9438 -15.9396 -15.7892 -15.7887 -15.7722 -15.7721
   -15.6512 -15.6447 -15.4574 -15.4523 -15.3457 -15.3399 -15.2311 -15.2295
   -15.2227 -15.2195 -15.1442 -15.1300 -14.8346 -14.8299 -14.7194 -14.7170
   -14.6689 -14.6633 -14.4992 -14.4947 -14.3313 -13.7708 -13.7707 -13.6858
   -12.8151  -7.4842  -3.7947  -3.7497  -3.7074  -3.7073  -3.2451  -3.2358
    -3.2179  -3.2175  -3.1181  -3.1163  -3.0696  -3.0637  -2.8988  -2.8764
    -2.8049  -2.7772  -2.7674  -2.7520  -2.7475  -2.7234  -2.7193  -2.7059
    -2.6646  -2.6382  -2.5399  -2.5353  -2.4661  -2.4304  -2.3109  -2.2439
    -2.2310  -2.1777  -2.1407  -2.1306  -1.9397  -1.9210  -1.9127  -1.9063
    -1.8390  -1.8318  -1.8194  -1.7266  -1.7075  -1.5783  -1.5696  -1.3096
    -1.3027  -1.1269  -1.1120  -1.0942  -1.0539  -1.0204  -0.9795  -0.9074
    -0.8821  -0.7574  -0.7517  -0.7484  -0.7081  -0.6075  -0.5674  -0.5123
    -0.5084  -0.4284  -0.4171  -0.4031  -0.3771  -0.3072  -0.1893  -0.1783
    -0.1560  -0.1092  -0.0925   0.0109   0.0409   0.0556   0.0910   0.1261
     0.1528   0.1625   0.2205   0.2966   0.2985   0.3214   0.3685   0.3732
     0.3912   0.4837   0.5986   0.6869   0.9665   0.9947   1.1078   1.1082
     1.1293   1.2106   1.2204   1.2473   1.3788   1.6015   2.0614   3.1705
     3.1709   3.3063   3.3065   3.3673   3.3675   3.7345   3.7522   3.8606
     3.8732

          k = 0.0380 0.0000 0.0000 ( 17913 PWs)   bands (ev):

   -56.6135 -56.5799 -55.7321 -55.7250 -55.6974 -55.6920 -55.5872 -55.5515
   -55.3701 -55.3349 -55.2783 -55.2719 -55.2444 -55.1699 -54.7330 -54.6198
   -33.0421 -32.8880 -32.8600 -32.7878 -32.6984 -32.6672 -32.2116 -32.1971
   -32.1303 -31.9999 -31.9738 -31.9463 -31.9321 -31.9004 -31.8947 -31.8733
   -31.8679 -31.8614 -31.8359 -31.8357 -31.8251 -31.7894 -31.7861 -31.7673
   -31.7233 -31.7152 -31.7145 -31.6919 -31.6704 -31.6194 -31.5992 -31.5910
   -31.5207 -31.5091 -31.4892 -31.4472 -31.4367 -31.4058 -31.3992 -31.3742
   -31.3529 -31.2948 -31.2340 -30.9740 -30.9625 -30.8792 -30.8397 -30.7487
   -16.6738 -16.2666 -16.1337 -16.0795 -15.9582 -15.8054 -15.7127 -15.6921
   -15.6166 -15.6001 -15.5451 -15.5253 -15.4885 -15.4680 -15.1732 -15.1676
   -15.1294 -15.0557 -15.0492 -15.0277 -14.9475 -14.7526 -14.7477 -14.7437
   -14.6410 -14.5734 -14.5037 -14.3989 -14.1750 -13.7743 -13.6864 -13.6666
   -12.7958  -7.4916  -4.0596  -3.7963  -3.7338  -3.6771  -3.5446  -3.5126
    -3.4226  -3.3472  -3.1828  -3.1680  -3.1356  -3.1032  -2.9503  -2.9364
    -2.9161  -2.8199  -2.8138  -2.7661  -2.7506  -2.6907  -2.6480  -2.6241
    -2.5434  -2.4969  -2.4259  -2.3332  -2.2697  -2.2578  -2.2429  -2.2363
    -2.1309  -2.0937  -2.0401  -1.9191  -1.9033  -1.8717  -1.8108  -1.7824
    -1.7718  -1.7624  -1.6973  -1.6790  -1.6669  -1.5331  -1.4737  -1.4268
    -1.3686  -1.3112  -1.2657  -1.1817  -1.1097  -1.0902  -1.0466  -1.0114
    -0.9637  -0.9356  -0.9072  -0.8403  -0.7603  -0.6717  -0.6065  -0.5943
    -0.5461  -0.4962  -0.4368  -0.4050  -0.3967  -0.3572  -0.2976  -0.1435
    -0.1074  -0.0671  -0.0437  -0.0132   0.0234   0.1270   0.1763   0.1884
     0.1948   0.2159   0.2922   0.3925   0.4272   0.4602   0.5533   0.5945
     0.6442   0.7541   0.7584   0.7724   0.8571   0.8954   0.9295   0.9554
     1.0077   1.1920   1.2462   1.3743   1.4957   1.6563   2.1744   2.8047
     2.8378   3.1188   3.2796   3.3897   3.6404   3.6663   3.7314   3.7317
     3.8856

          k = 0.0380 0.0419 0.0000 ( 17878 PWs)   bands (ev):

   -56.6086 -56.5848 -55.7271 -55.7201 -55.7024 -55.6968 -55.5821 -55.5565
   -55.3651 -55.3399 -55.2733 -55.2704 -55.2494 -55.1713 -54.7316 -54.6211
   -32.9887 -32.8838 -32.8640 -32.7748 -32.7234 -32.7117 -32.1588 -32.1447
   -32.0748 -31.9878 -31.9678 -31.9352 -31.9346 -31.9164 -31.9023 -31.8855
   -31.8746 -31.8740 -31.8732 -31.8555 -31.7923 -31.7889 -31.7801 -31.7740
   -31.7684 -31.7081 -31.6908 -31.6849 -31.6178 -31.6151 -31.5951 -31.5861
   -31.5225 -31.5152 -31.4958 -31.4771 -31.4451 -31.4182 -31.4120 -31.4010
   -31.3749 -31.3516 -31.1869 -30.9733 -30.9614 -30.9002 -30.8407 -30.7794
   -16.5587 -16.1488 -16.1161 -16.0005 -15.8873 -15.8838 -15.7286 -15.7011
   -15.6279 -15.5165 -15.4913 -15.4714 -15.4477 -15.4463 -15.3275 -15.1725
   -15.1230 -15.0975 -15.0869 -15.0196 -14.8889 -14.8675 -14.8290 -14.7846
   -14.6233 -14.6068 -14.5159 -14.4219 -14.2440 -13.7822 -13.7083 -13.6860
   -12.8052  -7.4877  -3.8820  -3.7956  -3.7418  -3.5043  -3.3998  -3.3456
    -3.2727  -3.2448  -3.0479  -3.0384  -3.0069  -2.9714  -2.9346  -2.9186
    -2.8457  -2.8073  -2.7585  -2.7555  -2.6978  -2.6700  -2.6498  -2.6173
    -2.5839  -2.5585  -2.5085  -2.4897  -2.4325  -2.3472  -2.3158  -2.2730
    -2.1922  -2.1622  -2.1339  -2.0803  -2.0042  -1.9927  -1.8965  -1.8450
    -1.8178  -1.6908  -1.6433  -1.5607  -1.5238  -1.5045  -1.4565  -1.4158
    -1.3247  -1.2907  -1.2264  -1.1981  -1.1250  -1.0892  -1.0601  -1.0540
    -0.9211  -0.9032  -0.8213  -0.7853  -0.7691  -0.6913  -0.6614  -0.5762
    -0.5403  -0.5114  -0.4782  -0.4470  -0.4165  -0.3694  -0.3477  -0.3064
    -0.2193  -0.1566  -0.1416  -0.1053  -0.0502   0.0603   0.0778   0.1215
     0.1676   0.2150   0.2371   0.3105   0.3598   0.3776   0.4058   0.4436
     0.5673   0.6650   0.7239   0.8617   0.8842   0.9364   0.9859   1.0231
     1.1102   1.1659   1.2245   1.3734   1.4299   1.6407   2.1602   2.9205
     3.0792   3.1707   3.3274   3.5124   3.5958   3.6501   3.7324   3.7900
     3.9099

          k = 0.0380-0.0839 0.0000 ( 17916 PWs)   bands (ev):

   -56.5969 -56.5965 -55.7172 -55.7126 -55.7086 -55.7081 -55.5721 -55.5666
   -55.3553 -55.3497 -55.2689 -55.2614 -55.2613 -55.1729 -54.7302 -54.6226
   -32.8740 -32.8738 -32.8578 -32.8576 -32.7436 -32.7433 -32.0329 -32.0302
   -32.0190 -32.0131 -31.9649 -31.9638 -31.9495 -31.9490 -31.9215 -31.9177
   -31.9061 -31.9008 -31.8801 -31.8787 -31.8241 -31.8195 -31.7733 -31.7685
   -31.7066 -31.6993 -31.6378 -31.6310 -31.6052 -31.6051 -31.6023 -31.5554
   -31.5535 -31.5239 -31.4886 -31.4870 -31.4869 -31.4479 -31.4479 -31.4426
   -31.4127 -31.3764 -31.1134 -30.9941 -30.9604 -30.9294 -30.8416 -30.8075
   -16.2858 -16.2848 -15.9325 -15.9293 -15.8653 -15.8633 -15.7569 -15.7563
   -15.6241 -15.6179 -15.4385 -15.4323 -15.3325 -15.3273 -15.2262 -15.2173
   -15.1940 -15.1858 -15.1654 -15.1598 -14.9126 -14.9082 -14.8145 -14.8074
   -14.6388 -14.6323 -14.4921 -14.4861 -14.3290 -13.7706 -13.7705 -13.6858
   -12.8145  -7.4838  -3.7950  -3.7498  -3.4962  -3.4949  -3.1429  -3.1403
    -3.1283  -3.1274  -3.0817  -3.0780  -2.9939  -2.9856  -2.7945  -2.7900
    -2.7629  -2.7328  -2.7255  -2.6865  -2.6819  -2.6665  -2.6617  -2.6549
    -2.6010  -2.5554  -2.5013  -2.4419  -2.4051  -2.3990  -2.2804  -2.1902
    -2.1884  -2.1477  -2.1303  -2.0928  -2.0590  -2.0515  -1.9414  -1.9361
    -1.8730  -1.8429  -1.8209  -1.6782  -1.6668  -1.5837  -1.5739  -1.3866
    -1.3825  -1.3285  -1.3191  -1.1802  -1.1516  -1.1175  -1.0920  -1.0002
    -0.9892  -0.8933  -0.8858  -0.8104  -0.7958  -0.6915  -0.6728  -0.6266
    -0.6214  -0.6001  -0.5445  -0.4810  -0.4095  -0.3482  -0.2682  -0.2280
    -0.2103  -0.1659  -0.1445  -0.1195  -0.1001  -0.0383  -0.0243   0.0175
     0.0468   0.1039   0.1558   0.2232   0.2336   0.3745   0.4686   0.4732
     0.5034   0.6498   0.7386   0.7958   0.9720   0.9952   1.1165   1.1175
     1.1518   1.1721   1.2117   1.2232   1.3740   1.6255   2.1308   3.1742
     3.1756   3.3369   3.3387   3.5360   3.5367   3.7060   3.7214   3.8584
     3.8692

          k = 0.0380-0.0419 0.0000 ( 17876 PWs)   bands (ev):

   -56.6086 -56.5848 -55.7271 -55.7201 -55.7023 -55.6968 -55.5821 -55.5565
   -55.3651 -55.3399 -55.2733 -55.2704 -55.2494 -55.1713 -54.7316 -54.6211
   -32.9887 -32.8838 -32.8640 -32.7748 -32.7234 -32.7117 -32.1588 -32.1446
   -32.0748 -31.9878 -31.9678 -31.9352 -31.9346 -31.9164 -31.9022 -31.8855
   -31.8746 -31.8743 -31.8729 -31.8555 -31.7923 -31.7888 -31.7800 -31.7741
   -31.7686 -31.7081 -31.6908 -31.6849 -31.6178 -31.6151 -31.5951 -31.5861
   -31.5225 -31.5152 -31.4958 -31.4771 -31.4451 -31.4182 -31.4119 -31.4011
   -31.3749 -31.3516 -31.1869 -30.9732 -30.9614 -30.9004 -30.8406 -30.7794
   -16.5584 -16.1488 -16.1169 -16.0004 -15.8868 -15.8838 -15.7282 -15.7013
   -15.6280 -15.5164 -15.4912 -15.4716 -15.4483 -15.4460 -15.3277 -15.1724
   -15.1226 -15.0977 -15.0871 -15.0198 -14.8883 -14.8674 -14.8288 -14.7849
   -14.6232 -14.6069 -14.5159 -14.4220 -14.2440 -13.7822 -13.7083 -13.6861
   -12.8052  -7.4877  -3.8814  -3.7955  -3.7418  -3.5033  -3.4018  -3.3465
    -3.2709  -3.2448  -3.0472  -3.0376  -3.0065  -2.9697  -2.9346  -2.9172
    -2.8459  -2.8230  -2.7562  -2.7505  -2.6978  -2.6713  -2.6501  -2.6166
    -2.5814  -2.5573  -2.5050  -2.4865  -2.4385  -2.3489  -2.3153  -2.2716
    -2.1912  -2.1654  -2.1319  -2.0842  -2.0012  -1.9936  -1.8904  -1.8476
    -1.8162  -1.6866  -1.6476  -1.5620  -1.5235  -1.5066  -1.4545  -1.4187
    -1.3194  -1.2866  -1.2253  -1.1977  -1.1264  -1.0890  -1.0640  -1.0551
    -0.9205  -0.9039  -0.8252  -0.7838  -0.7618  -0.7042  -0.6632  -0.5837
    -0.5347  -0.5023  -0.4970  -0.4567  -0.4088  -0.3681  -0.3551  -0.3057
    -0.2279  -0.1584  -0.1254  -0.0985  -0.0246   0.0298   0.0685   0.1402
     0.1667   0.2352   0.2399   0.2996   0.3581   0.3773   0.4010   0.4577
     0.5721   0.6612   0.7163   0.8528   0.8886   0.9383   0.9865   1.0220
     1.1107   1.1655   1.2250   1.3743   1.4278   1.6412   2.1597   2.9212
     3.0795   3.1708   3.3263   3.5122   3.5968   3.6494   3.7282   3.7896
     3.9056

          k =-0.0760-0.0000 0.0000 ( 17886 PWs)   bands (ev):

   -56.6135 -56.5799 -55.7311 -55.7258 -55.6973 -55.6920 -55.5871 -55.5514
   -55.3701 -55.3349 -55.2783 -55.2719 -55.2444 -55.1698 -54.7330 -54.6197
   -33.0428 -32.8879 -32.8599 -32.7858 -32.6987 -32.6672 -32.2156 -32.1975
   -32.1304 -31.9737 -31.9647 -31.9465 -31.9320 -31.9304 -31.8924 -31.8762
   -31.8679 -31.8613 -31.8366 -31.8324 -31.8284 -31.8011 -31.7801 -31.7676
   -31.7232 -31.7152 -31.7003 -31.6918 -31.6701 -31.6217 -31.5966 -31.5899
   -31.5280 -31.5097 -31.4892 -31.4470 -31.4367 -31.4057 -31.4000 -31.3741
   -31.3529 -31.2949 -31.2335 -30.9739 -30.9638 -30.8792 -30.8399 -30.7487
   -16.5111 -16.2232 -16.2167 -16.0544 -16.0319 -15.8017 -15.7649 -15.6184
   -15.6145 -15.5600 -15.5533 -15.5024 -15.4822 -15.4690 -15.2447 -15.1776
   -15.1713 -15.1100 -15.0829 -15.0597 -14.9658 -14.8386 -14.6956 -14.6657
   -14.6509 -14.5852 -14.4965 -14.3988 -14.1735 -13.7717 -13.6863 -13.6663
   -12.7943  -7.4900  -3.7966  -3.7338  -3.6719  -3.6684  -3.6401  -3.5268
    -3.2735  -3.2567  -3.2223  -3.1048  -3.0822  -2.9527  -2.8913  -2.8764
    -2.8248  -2.8176  -2.7794  -2.7103  -2.7094  -2.6764  -2.5778  -2.5121
    -2.4678  -2.4171  -2.3921  -2.3360  -2.3307  -2.3013  -2.2518  -2.1830
    -2.1560  -2.0506  -2.0427  -1.9996  -1.9228  -1.9012  -1.8892  -1.7722
    -1.7274  -1.7159  -1.6688  -1.6353  -1.6013  -1.5531  -1.4815  -1.4572
    -1.4263  -1.3791  -1.3037  -1.2673  -1.2418  -1.2100  -1.0997  -1.0071
    -0.9881  -0.8987  -0.8528  -0.8270  -0.7992  -0.7796  -0.6912  -0.6896
    -0.6663  -0.5459  -0.5340  -0.4767  -0.4371  -0.3619  -0.3209  -0.2994
    -0.2498  -0.1185  -0.0368  -0.0103   0.0364   0.0652   0.1384   0.1961
     0.2146   0.2446   0.3406   0.3926   0.4370   0.4831   0.5199   0.5386
     0.6054   0.6275   0.6935   0.7717   0.8338   0.8557   0.9109   0.9528
     1.0526   1.0610   1.1808   1.2851   1.3647   1.6572   2.0469   2.7951
     2.9315   3.0232   3.1178   3.4770   3.4984   3.6779   3.7920   3.8213
     3.8479

          k =-0.0760 0.0419 0.0000 ( 17914 PWs)   bands (ev):

   -56.6086 -56.5849 -55.7263 -55.7209 -55.7022 -55.6970 -55.5821 -55.5566
   -55.3651 -55.3399 -55.2733 -55.2704 -55.2494 -55.1713 -54.7316 -54.6212
   -32.9895 -32.8838 -32.8640 -32.7734 -32.7237 -32.7117 -32.1631 -32.1454
   -32.0750 -31.9683 -31.9532 -31.9365 -31.9351 -31.9342 -31.8962 -31.8891
   -31.8821 -31.8789 -31.8737 -31.8555 -31.7926 -31.7878 -31.7812 -31.7749
   -31.7731 -31.7082 -31.6907 -31.6734 -31.6176 -31.6172 -31.5945 -31.5842
   -31.5225 -31.5212 -31.4961 -31.4771 -31.4451 -31.4182 -31.4125 -31.4019
   -31.3749 -31.3517 -31.1866 -30.9733 -30.9625 -30.9004 -30.8411 -30.7795
   -16.3977 -16.1719 -16.1385 -15.9791 -15.9701 -15.8771 -15.7179 -15.6765
   -15.6264 -15.5133 -15.4707 -15.4680 -15.4490 -15.3840 -15.3382 -15.2277
   -15.1447 -15.1254 -15.0576 -15.0453 -14.9992 -14.8862 -14.8420 -14.8089
   -14.6217 -14.5973 -14.5060 -14.4226 -14.2432 -13.7804 -13.7086 -13.6860
   -12.8042  -7.4867  -3.7959  -3.7419  -3.4758  -3.4620  -3.3910  -3.3653
    -3.1461  -3.1359  -3.0412  -3.0155  -2.9649  -2.9425  -2.8412  -2.7749
    -2.7630  -2.7517  -2.6930  -2.6736  -2.6592  -2.6409  -2.6219  -2.5743
    -2.5674  -2.5291  -2.4947  -2.4555  -2.3772  -2.2646  -2.2571  -2.1984
    -2.1886  -2.1381  -2.0989  -2.0380  -2.0001  -1.9795  -1.9210  -1.8125
    -1.7545  -1.7477  -1.6408  -1.6109  -1.6050  -1.5877  -1.5002  -1.4276
    -1.3764  -1.3326  -1.2941  -1.2522  -1.2108  -1.1923  -1.1388  -1.0904
    -1.0278  -0.9723  -0.9353  -0.8959  -0.8384  -0.7908  -0.7677  -0.6990
    -0.6623  -0.5811  -0.5581  -0.5150  -0.4716  -0.4555  -0.4406  -0.3953
    -0.3306  -0.2975  -0.2017  -0.1952  -0.1651  -0.0644  -0.0098   0.0540
     0.1760   0.1889   0.2889   0.3050   0.3504   0.3803   0.5147   0.5713
     0.6603   0.7037   0.7977   0.8291   0.8617   0.9241   1.0325   1.0349
     1.0966   1.1014   1.2117   1.3080   1.3672   1.6589   2.1382   2.9326
     3.1056   3.1193   3.2180   3.6188   3.6659   3.6748   3.7201   3.8342
     3.9299

          k =-0.0760-0.0839 0.0000 ( 17948 PWs)   bands (ev):

   -56.5969 -56.5966 -55.7169 -55.7117 -55.7094 -55.7086 -55.5721 -55.5666
   -55.3554 -55.3498 -55.2690 -55.2615 -55.2614 -55.1729 -54.7302 -54.6226
   -32.8741 -32.8738 -32.8584 -32.8582 -32.7428 -32.7426 -32.0372 -32.0346
   -32.0211 -32.0150 -31.9649 -31.9638 -31.9216 -31.9201 -31.9188 -31.9177
   -31.9068 -31.9041 -31.9027 -31.9004 -31.8242 -31.8196 -31.7734 -31.7679
   -31.7067 -31.6994 -31.6384 -31.6317 -31.6058 -31.6057 -31.5985 -31.5544
   -31.5524 -31.5246 -31.4896 -31.4870 -31.4869 -31.4479 -31.4479 -31.4426
   -31.4157 -31.3765 -31.1134 -30.9941 -30.9612 -30.9294 -30.8423 -30.8075
   -16.1259 -16.1238 -16.0917 -16.0915 -15.8217 -15.8180 -15.7738 -15.7721
   -15.5993 -15.5934 -15.3868 -15.3766 -15.3708 -15.3667 -15.2425 -15.2337
   -15.1702 -15.1594 -15.0702 -15.0667 -15.0038 -14.9976 -14.9597 -14.9400
   -14.6235 -14.6159 -14.4883 -14.4796 -14.3269 -13.7705 -13.7704 -13.6857
   -12.8138  -7.4834  -3.7952  -3.7500  -3.2255  -3.2250  -3.1595  -3.1582
    -3.0372  -3.0325  -2.9559  -2.9554  -2.8561  -2.8519  -2.7560  -2.7123
    -2.7101  -2.7074  -2.6945  -2.6518  -2.5564  -2.5561  -2.5414  -2.5262
    -2.4707  -2.4686  -2.4541  -2.3816  -2.3680  -2.3321  -2.2928  -2.1862
    -2.1726  -2.1561  -2.1302  -2.0702  -2.0556  -2.0442  -1.9967  -1.9721
    -1.8943  -1.8278  -1.7865  -1.6668  -1.6633  -1.6534  -1.6413  -1.4863
    -1.4504  -1.4191  -1.4095  -1.4034  -1.3589  -1.2610  -1.2530  -1.1186
    -1.1160  -1.0462  -0.9643  -0.9411  -0.9190  -0.7847  -0.7443  -0.7035
    -0.6984  -0.6734  -0.6476  -0.6281  -0.6005  -0.4489  -0.4297  -0.3955
    -0.3646  -0.3565  -0.3153  -0.2471  -0.1673  -0.0866  -0.0854  -0.0189
     0.0333   0.0952   0.1830   0.1955   0.1995   0.4823   0.5624   0.6497
     0.7288   0.7927   0.8584   0.8831   0.9436   0.9827   1.1225   1.1254
     1.1441   1.1445   1.2047   1.2130   1.3668   1.6455   2.2065   3.2341
     3.2344   3.3016   3.3020   3.6257   3.6312   3.7402   3.7492   3.8593
     3.8646

     the Fermi energy is     2.4991 ev

!    total energy              =   -2942.90666378 Ry
     estimated scf accuracy    <       0.00000004 Ry
     smearing contrib. (-TS)   =      -0.00477610 Ry
     internal energy E=F+TS    =   -2942.90188768 Ry

     The total energy is F=E-TS. E is the sum of the following terms:
     one-electron contribution =  -23225.40405180 Ry
     hartree contribution      =   11702.98404074 Ry
     xc contribution           =    -487.46027840 Ry
     ewald contribution        =    9066.97801535 Ry
     electric field correction =       0.00038643 Ry

     convergence has been achieved in  82 iterations

     Forces acting on atoms (cartesian axes, Ry/au):

     atom    1 type  1   force =     0.00000829   -0.00043665    0.12430144
     atom    2 type  1   force =    -0.00005822   -0.00054574   -0.16062935
     atom    3 type  2   force =     0.00016485   -0.00030104   -0.06834850
     atom    4 type  2   force =    -0.00005232   -0.00038604    0.02753131
     atom    5 type  2   force =    -0.01678291    0.00113097   -0.00832738
     atom    6 type  2   force =     0.01783328    0.00163038   -0.01022026
     atom    7 type  1   force =     0.00039787   -0.00408053    0.02181835
     atom    8 type  1   force =     0.00019879   -0.00219508    0.11167393
     atom    9 type  2   force =     0.00010130    0.00018463   -0.00031362
     atom   10 type  2   force =    -0.00319749    0.00010808   -0.07307299
     atom   11 type  2   force =    -0.00034982    0.00033041   -0.00007383
     atom   12 type  2   force =     0.00015548    0.00045119   -0.00003495
     atom   13 type  1   force =     0.00013323   -0.00024210   -0.00001646
     atom   14 type  1   force =    -0.00015629    0.00004316   -0.00031485
     atom   15 type  2   force =    -0.00004574   -0.00024724    0.00018863
     atom   16 type  2   force =     0.00032564    0.00076571    0.00003012
     atom   17 type  2   force =     0.00019077    0.00030729   -0.00028679
     atom   18 type  2   force =    -0.00019796    0.00021092    0.00011466
     atom   19 type  1   force =     0.00049715   -0.00009465   -0.00020921
     atom   20 type  1   force =     0.00026003   -0.00037867   -0.00049712
     atom   21 type  2   force =     0.00010104    0.00008117    0.09967550
     atom   22 type  2   force =     0.00007695    0.00095058    0.00047213
     atom   23 type  2   force =    -0.07915845    0.00008719   -0.03244934
     atom   24 type  2   force =     0.07906408    0.00051485   -0.03244440
     atom   25 type  1   force =     0.00002766   -0.00041330    0.12382221
     atom   26 type  1   force =    -0.00003869   -0.00042251   -0.16074993
     atom   27 type  2   force =     0.00028758   -0.00046824   -0.06734018
     atom   28 type  2   force =    -0.00005445   -0.00020285    0.02726528
     atom   29 type  2   force =    -0.01731355    0.00074375   -0.00825450
     atom   30 type  2   force =     0.01828186    0.00114186   -0.01009137
     atom   31 type  1   force =     0.00033721   -0.00100105    0.02128238
     atom   32 type  1   force =     0.00021426   -0.00027227    0.11223020
     atom   33 type  2   force =     0.00011780    0.00051288   -0.00007956
     atom   34 type  2   force =    -0.00294465   -0.00065400   -0.07292771
     atom   35 type  2   force =    -0.00025459    0.00027227   -0.00009874
     atom   36 type  2   force =     0.00011219    0.00013745   -0.00003487
     atom   37 type  1   force =     0.00013816   -0.00015378    0.00024966
     atom   38 type  1   force =     0.00006748    0.00005138    0.00031703
     atom   39 type  2   force =     0.00021332    0.00037126   -0.00015734
     atom   40 type  2   force =     0.00009776    0.00034674    0.00017071
     atom   41 type  2   force =    -0.00016231    0.00033400    0.00016397
     atom   42 type  2   force =    -0.00002624    0.00060262   -0.00001875
     atom   43 type  1   force =     0.00059518    0.00052504    0.00048888
     atom   44 type  1   force =     0.00014722    0.00032944   -0.00040371
     atom   45 type  2   force =     0.00010629    0.00005068    0.09970508
     atom   46 type  2   force =    -0.07916759    0.00012719   -0.03245018
     atom   47 type  2   force =     0.07906870    0.00056171   -0.03243930
     atom   48 type  3   force =     0.00042683    0.00029885   -0.00025331
     atom   49 type  4   force =     0.00073039   -0.00037630    0.00175656
     atom   50 type  5   force =     0.00055364   -0.00036105   -0.00036672
     atom   51 type  5   force =    -0.00022183    0.00034690   -0.00011028
     atom   52 type  5   force =    -0.00071478   -0.00059723    0.00024293
     atom   53 type  3   force =    -0.00200895    0.01367093   -0.00056962
     atom   54 type  5   force =     0.00353770   -0.01428337   -0.00000386
     atom   55 type  5   force =    -0.00022287    0.00111091    0.00018220
     atom   56 type  5   force =    -0.00144028   -0.00021869   -0.00009415

     Total force =     0.425396     Total SCF correction =     0.000668
  @ DRIVER MODE: Message from server: STATUS
  @ DRIVER MODE: Message from server: GETFORCE
  @ DRIVER MODE: Returning v,forces,stress,ensemble 

     Writing output data file ./calc.save/
  @ DRIVER MODE: Message from server: EXIT
  @ DRIVE MODE: Exiting  
 
     init_run     :      8.94s CPU      9.09s WALL (       1 calls)
     electrons    :   1018.36s CPU   1039.59s WALL (       1 calls)
     forces       :      6.44s CPU      6.49s WALL (       1 calls)

     Called by init_run:
     wfcinit      :      3.40s CPU      3.45s WALL (       1 calls)
     potinit      :      3.66s CPU      3.71s WALL (       1 calls)
     hinit0       :      1.02s CPU      1.03s WALL (       1 calls)

     Called by electrons:
     c_bands      :    874.36s CPU    889.72s WALL (      82 calls)
     sum_band     :     95.18s CPU     97.59s WALL (      82 calls)
     v_of_rho     :     31.36s CPU     32.15s WALL (      83 calls)
     newd         :     12.48s CPU     15.09s WALL (      83 calls)
     mix_rho      :      7.29s CPU      7.33s WALL (      82 calls)
     vdW_kernel   :      3.03s CPU      3.04s WALL (       1 calls)

     Called by c_bands:
     init_us_2    :      5.28s CPU      5.31s WALL (    1660 calls)
     cegterg      :    859.29s CPU    874.32s WALL (     832 calls)

     Called by *egterg:
     cdiaghg      :    199.62s CPU    209.05s WALL (    7343 calls)
     h_psi        :    414.54s CPU    418.55s WALL (    7353 calls)
     s_psi        :     50.09s CPU     50.27s WALL (    7353 calls)
     g_psi        :      1.24s CPU      1.25s WALL (    6511 calls)

     Called by h_psi:
     h_psi:calbec :     51.83s CPU     52.10s WALL (    7353 calls)
     vloc_psi     :    309.76s CPU    313.28s WALL (    7353 calls)
     add_vuspsi   :     50.40s CPU     50.61s WALL (    7353 calls)

     General routines
     calbec       :     74.23s CPU     74.56s WALL (    8213 calls)
     fft          :     17.11s CPU     17.25s WALL (    5229 calls)
     ffts         :      0.16s CPU      0.16s WALL (     165 calls)
     fftw         :    351.25s CPU    355.13s WALL ( 1092342 calls)
     interpolate  :      0.41s CPU      0.42s WALL (      83 calls)
     davcio       :      0.00s CPU      0.11s WALL (      10 calls)
 
     Parallel routines
 
     PWSCF        :  17m16.60s CPU  17m38.84s WALL

 
   This run was terminated on:  23:35:45   2Aug2021            

=------------------------------------------------------------------------------=
   JOB DONE.
=------------------------------------------------------------------------------=
