
     Program PWSCF v.6.7GPU starts on 12Oct2021 at 10: 3:54 

     This program is part of the open-source Quantum ESPRESSO suite
     for quantum simulation of materials; please cite
         "P. Giannozzi et al., J. Phys.:Condens. Matter 21 395502 (2009);
         "P. Giannozzi et al., J. Phys.:Condens. Matter 29 465901 (2017);
         "P. Giannozzi et al., J. Chem. Phys. 152 154105 (2020);
          URL http://www.quantum-espresso.org", 
     in publications or presentations arising from this work. More details at
     http://www.quantum-espresso.org/quote

     Parallel version (MPI), running on     8 processors

     MPI processes distributed on     1 nodes
     R & G space division:  proc/nbgrp/npool/nimage =       8
     Reading input from /storage/home/hcoda1/3/ntian30/research/carbon/ACS_vib/ads_slab/NH3/out_0004/pw.inp
Warning: card &CELL ignored
Warning: card   CELL_DYNAMICS='IPI', ignored
Warning: card / ignored

     Current dimensions of program PWSCF are:
     Max number of different atomic species (ntypx) = 10
     Max number of k-points (npk) =  40000
     Max angular momentum in pseudopotentials (lmaxx) =  3
     Presently no symmetry can be used with electric field

     Message from routine cell_base_init:
     DEPRECATED: use true lattice parameter, not A to a.u. conversion factor

     **************************************************************************
     Initializing libbeef V0.1.2 with the BEEF-vdW functional.
     Citation: Wellendorff et al., PRB 85, 235149 (2012).
     **************************************************************************


     IMPORTANT: XC functional enforced from input :
     Exchange-correlation= BEEF-VDW
                           (   1   4  43  14   2   0   0)
     Any further DFT definition will be discarded
     Please, verify this is what you really want


     Subspace diagonalization in iterative solution of the eigenvalue problem:
     one sub-group per band group will be used
     scalapack distributed-memory algorithm (size of sub-group:  2*  2 procs)

  @ DRIVER MODE: Connecting to 
 qe_1139763_3181317.sched-torque.pace.gatech.edusn_c_vmf_scratch
  using UNIX socket
  @ DRIVER MODE: Message from server: STATUS
  @ DRIVER MODE: Message from server: INIT
  @ DRIVER MODE: Receiving replica           0          -1
  @ DRIVER MODE: Receiving encoded integer          25
  @ DRIVER MODE:  SCF:  T  FORCE:  T  STRESS:  F  VC:  F  ENSEMBLE:  F
  @ DRIVER MODE:  SCF:  T  FORCE:  T  STRESS:  F  VC:  F  ENSEMBLE:  F
 
     Parallelization info
     --------------------
     sticks:   dense  smooth     PW     G-vecs:    dense   smooth      PW
     Min         409     164     47                70857    17926    2743
     Max         411     165     48                70858    17931    2751
     Sum        3275    1317    379               566857   143421   21985
 
     Using Slab Decomposition
 


     bravais-lattice index     =            0
     lattice parameter (alat)  =       1.8897  a.u.
     unit-cell volume          =    6658.9804 (a.u.)^3
     number of atoms/cell      =           51
     number of atomic types    =            4
     number of electrons       =       386.00
     number of Kohn-Sham states=          203
     kinetic-energy cutoff     =      29.3995  Ry
     charge density cutoff     =     293.9946  Ry
     scf convergence threshold =      7.3E-08
     mixing beta               =       0.0500
     number of iterations used =            8  plain     mixing
     Exchange-correlation= BEEF-VDW
                           (   1   4  43  14   2   0   0)

     celldm(1)=   1.889726  celldm(2)=   0.000000  celldm(3)=   0.000000
     celldm(4)=   0.000000  celldm(5)=   0.000000  celldm(6)=   0.000000

     crystal axes: (cart. coord. in units of alat)
               a(1) = (   6.579727   0.000000   0.000000 )  
               a(2) = (  -0.000775   5.961596   0.000000 )  
               a(3) = (   0.000000   0.000000  25.155947 )  

     reciprocal axes: (cart. coord. in units 2 pi/alat)
               b(1) = (  0.151982  0.000020  0.000000 )  
               b(2) = (  0.000000  0.167740  0.000000 )  
               b(3) = (  0.000000  0.000000  0.039752 )  


     PseudoPot. # 1 for Ti read from file:
     /storage/coda1/p-amedford6/0/shared/rich_project_chbe-medford/medford-share/data/pseudos_module/espresso/nninc/pbe/van/Ti.UPF
     MD5 check sum: 8e4df49b7f0d34bbd5052bf3f5ea0213
     Pseudo is Ultrasoft, Zval = 12.0
     Generated by new atomic code, or converted to UPF format
     Using radial grid of  851 points,  6 beta functions with: 
                l(1) =   0
                l(2) =   0
                l(3) =   1
                l(4) =   1
                l(5) =   2
                l(6) =   2
     Q(r) pseudized with  8 coefficients,  rinner =    1.000   1.000   1.000
                                                       1.000   1.000

     PseudoPot. # 2 for O  read from file:
     /storage/coda1/p-amedford6/0/shared/rich_project_chbe-medford/medford-share/data/pseudos_module/espresso/nninc/pbe/van/O.UPF
     MD5 check sum: 78c19812648e8988a0fe644b0f25305e
     Pseudo is Ultrasoft, Zval =  6.0
     Generated by new atomic code, or converted to UPF format
     Using radial grid of  737 points,  4 beta functions with: 
                l(1) =   0
                l(2) =   0
                l(3) =   1
                l(4) =   1
     Q(r) pseudized with  8 coefficients,  rinner =    0.800   0.800   0.800


     PseudoPot. # 3 for N  read from file:
     /storage/coda1/p-amedford6/0/shared/rich_project_chbe-medford/medford-share/data/pseudos_module/espresso/nninc/pbe/van/N.UPF
     MD5 check sum: 90d10febe142ad51ac9d5be1deb811c4
     Pseudo is Ultrasoft, Zval =  5.0
     Generated by new atomic code, or converted to UPF format
     Using radial grid of  729 points,  4 beta functions with: 
                l(1) =   0
                l(2) =   0
                l(3) =   1
                l(4) =   1
     Q(r) pseudized with  8 coefficients,  rinner =    0.800   0.800   0.800


     PseudoPot. # 4 for H  read from file:
     /storage/coda1/p-amedford6/0/shared/rich_project_chbe-medford/medford-share/data/pseudos_module/espresso/nninc/pbe/van/H.UPF
     MD5 check sum: b5ee9d7bfd3a09ee7748110bda690ff7
     Pseudo is Ultrasoft, Zval =  1.0
     Generated by new atomic code, or converted to UPF format
     Using radial grid of  615 points,  1 beta functions with: 
                l(1) =   0
     Q(r) pseudized with  8 coefficients,  rinner =    0.800

     atomic species   valence    mass     pseudopotential
        Ti1           12.00    47.86700     Ti( 1.00)
        O1             6.00    15.99900     O ( 1.00)
        N1             5.00    14.00700     N ( 1.00)
        H1             1.00     1.00800     H ( 1.00)

     No symmetry found



   Cartesian axes

     site n.     atom                  positions (alat units)
         1           Ti1 tau(   1) = (   0.0004258   2.9801865   6.0000000  )
         2           Ti1 tau(   2) = (   3.2906075   1.4906267   6.0002472  )
         3           O1  tau(   3) = (   0.0006271   0.0005054   7.9858123  )
         4           O1  tau(   4) = (   3.2906025   0.0005020   7.3038282  )
         5           O1  tau(   5) = (   4.5942328   1.4918067   9.2879030  )
         6           O1  tau(   6) = (   1.9868534   1.4903216   9.2879459  )
         7           Ti1 tau(   7) = (   3.2905188   2.9817269   9.1608671  )
         8           Ti1 tau(   8) = (   0.0008727   1.4903491   9.2579811  )
         9           O1  tau(   9) = (   3.2954587   0.0012773  11.3746546  )
        10           O1  tau(  10) = (   0.0020290   0.0006084  10.6073296  )
        11           O1  tau(  11) = (   1.2942686   1.4887116  12.6629798  )
        12           O1  tau(  12) = (   5.2972733   1.4890718  12.6650130  )
        13           Ti1 tau(  13) = (   0.0067627   2.9786896  12.5148789  )
        14           Ti1 tau(  14) = (   3.2982433   1.4907855  12.5198723  )
        15           O1  tau(  15) = (   0.0088675   5.9288053  14.6873217  )
        16           O1  tau(  16) = (   3.2976659   5.9545549  13.9976866  )
        17           O1  tau(  17) = (   4.5618459   1.5065800  16.1616785  )
        18           O1  tau(  18) = (   2.0406978   1.5054917  16.1618958  )
        19           Ti1 tau(  19) = (   3.3003398   2.9801551  15.7464260  )
        20           Ti1 tau(  20) = (   0.0122322   1.3591711  15.8926631  )
        21           O1  tau(  21) = (   3.2904802   0.0005063   4.7018136  )
        22           O1  tau(  22) = (   0.0111396   0.0327255  17.2179391  )
        23           O1  tau(  23) = (   1.3043587   1.4918075   6.0039043  )
        24           O1  tau(  24) = (   5.2767064   1.4903225   6.0039473  )
        25           Ti1 tau(  25) = (   0.0000382   5.9609847   6.0000000  )
        26           Ti1 tau(  26) = (   3.2902200   4.4714249   6.0002472  )
        27           O1  tau(  27) = (   0.0002396   2.9813036   7.9858123  )
        28           O1  tau(  28) = (   3.2902150   2.9813002   7.3038282  )
        29           O1  tau(  29) = (   4.5938453   4.4726049   9.2879030  )
        30           O1  tau(  30) = (   1.9864658   4.4711199   9.2879459  )
        31           Ti1 tau(  31) = (   3.2908958   0.0009406   9.1591437  )
        32           Ti1 tau(  32) = (   0.0004876   4.4725358   9.2579169  )
        33           O1  tau(  33) = (   3.2950182   2.9773574  11.3676543  )
        34           O1  tau(  34) = (   0.0019984   2.9784031  10.6274637  )
        35           O1  tau(  35) = (   1.2946310   4.4674284  12.6500497  )
        36           O1  tau(  36) = (   5.2961322   4.4668132  12.6522398  )
        37           Ti1 tau(  37) = (   0.0072964   5.9565020  12.4821340  )
        38           Ti1 tau(  38) = (   3.2980713   4.4687862  12.5160290  )
        39           O1  tau(  39) = (   0.0098827   2.9916113  14.9005182  )
        40           O1  tau(  40) = (   3.2960480   2.9848727  13.9584560  )
        41           O1  tau(  41) = (   4.5591248   4.4529439  16.1935040  )
        42           O1  tau(  42) = (   2.0431063   4.4547719  16.1917947  )
        43           Ti1 tau(  43) = (   3.3030955   0.0010839  15.7925060  )
        44           Ti1 tau(  44) = (   0.0111621   4.5610188  15.9796684  )
        45           O1  tau(  45) = (   3.2900926   2.9813045   4.7018136  )
        46           O1  tau(  46) = (   1.3039711   4.4726057   6.0039043  )
        47           O1  tau(  47) = (   5.2763189   4.4711207   6.0039473  )
        48           N1  tau(  48) = (   0.0348475   3.0584350  18.0388005  )
        49           H1  tau(  49) = (   0.0344738   2.0763216  18.3478120  )
        50           H1  tau(  50) = (   0.8651728   3.4882926  18.4252144  )
        51           H1  tau(  51) = (   5.8033537   3.4985160  18.4509717  )

     number of k points=    10  Fermi-Dirac smearing, width (Ry)=  0.0073
                       cart. coord. in units 2pi/alat
        k(    1) = (   0.0000000   0.0000000   0.0000000), wk =   0.1250000
        k(    2) = (   0.0000000   0.0419351   0.0000000), wk =   0.2500000
        k(    3) = (   0.0000000  -0.0838702   0.0000000), wk =   0.1250000
        k(    4) = (   0.0379955   0.0000049   0.0000000), wk =   0.2500000
        k(    5) = (   0.0379955   0.0419400   0.0000000), wk =   0.2500000
        k(    6) = (   0.0379955  -0.0838652   0.0000000), wk =   0.2500000
        k(    7) = (   0.0379955  -0.0419301   0.0000000), wk =   0.2500000
        k(    8) = (  -0.0759910  -0.0000099   0.0000000), wk =   0.1250000
        k(    9) = (  -0.0759910   0.0419252   0.0000000), wk =   0.2500000
        k(   10) = (  -0.0759910  -0.0838800   0.0000000), wk =   0.1250000

     Dense  grid:   566857 G-vectors     FFT dimensions: (  72,  64, 270)

     Smooth grid:   143421 G-vectors     FFT dimensions: (  45,  40, 180)

     Estimated max dynamical RAM per process >     446.98 MB

     Estimated total dynamical RAM >       3.49 GB
     Cannot read rho : file not found

     Initial potential from superposition of free atoms

     starting charge  369.99921, renormalised to  386.00000

     negative rho (up, down):  1.972E-02 0.000E+00


     %%%%%%%%%%%%%%%%%%%%%%%%%%%%%%%%%%%%%%%%%%%%%%%%%%%%%%%%%%%%%%%%%%%%%%%%
     %                                                                      %
     % You are using vdW-DF, which was implemented by the Thonhauser group. %
     % Please cite the following two papers that made this development      %
     % possible and the two reviews that describe the various versions:     %
     %                                                                      %
     %   T. Thonhauser et al., PRL 115, 136402 (2015).                      %
     %   T. Thonhauser et al., PRB 76, 125112 (2007).                       %
     %   K. Berland et al., Rep. Prog. Phys. 78, 066501 (2015).             %
     %   D.C. Langreth et al., J. Phys.: Condens. Matter 21, 084203 (2009). %
     %                                                                      %
     %                                                                      %
     % If you are calculating the stress with vdW-DF, please also cite:     %
     %                                                                      %
     %   R. Sabatini et al., J. Phys.: Condens. Matter 24, 424209 (2012).   %
     %                                                                      %
     %%%%%%%%%%%%%%%%%%%%%%%%%%%%%%%%%%%%%%%%%%%%%%%%%%%%%%%%%%%%%%%%%%%%%%%%


 
     Adding external electric field

     Computed dipole along edir(3) : 
        Dipole               -3.5656 Ry au,         -9.0628 Debye
        Dipole field         -0.0067 Ry au, 
 
        Potential amp.        0.6237 Ry
        Total length         46.3494 bohr
 
     Starting wfcs are  291 atomic wfcs
  @ DRIVER MODE: Message from server: STATUS
  @ DRIVER MODE: Message from server: POSDATA
  @ DRIVER MODE: Reading and sharing cell 
  @ DRIVER MODE: Reading and sharing positions 
  @ DRIVER MODE: Received positions 

     total cpu time spent up to now is       13.7 secs

     Self-consistent Calculation

     iteration #  1     ecut=    29.40 Ry     beta= 0.05
     Davidson diagonalization with overlap
     c_bands:  1 eigenvalues not converged
     c_bands:  2 eigenvalues not converged
     c_bands:  1 eigenvalues not converged
     c_bands:  4 eigenvalues not converged
     c_bands:  1 eigenvalues not converged
     c_bands:  1 eigenvalues not converged
     c_bands:  3 eigenvalues not converged
     ethr =  1.00E-05,  avg # of iterations = 19.9

     negative rho (up, down):  1.947E-02 0.000E+00
 
     Adding external electric field

     Computed dipole along edir(3) : 
        Dipole                5.8541 Ry au,         14.8796 Debye
        Dipole field          0.0110 Ry au, 
 
        Potential amp.       -1.0241 Ry
        Total length         46.3494 bohr
 

     total cpu time spent up to now is       58.6 secs

     total energy              =   -2896.13985932 Ry
     estimated scf accuracy    <     156.26805296 Ry

     iteration #  2     ecut=    29.40 Ry     beta= 0.05
     Davidson diagonalization with overlap
     ethr =  1.00E-02,  avg # of iterations = 14.8

     negative rho (up, down):  1.761E-02 0.000E+00
 
     Adding external electric field

     Computed dipole along edir(3) : 
        Dipole               -1.5282 Ry au,         -3.8843 Debye
        Dipole field         -0.0029 Ry au, 
 
        Potential amp.        0.2673 Ry
        Total length         46.3494 bohr
 

     total cpu time spent up to now is       86.1 secs

     total energy              =   -2877.69047325 Ry
     estimated scf accuracy    <    2574.95131018 Ry

     iteration #  3     ecut=    29.40 Ry     beta= 0.05
     Davidson diagonalization with overlap
     ethr =  1.00E-02,  avg # of iterations = 13.1

     negative rho (up, down):  1.744E-02 0.000E+00
 
     Adding external electric field

     Computed dipole along edir(3) : 
        Dipole               -1.5746 Ry au,         -4.0023 Debye
        Dipole field         -0.0030 Ry au, 
 
        Potential amp.        0.2755 Ry
        Total length         46.3494 bohr
 

     total cpu time spent up to now is      109.1 secs

     total energy              =   -2907.68316039 Ry
     estimated scf accuracy    <      10.75186435 Ry

     iteration #  4     ecut=    29.40 Ry     beta= 0.05
     Davidson diagonalization with overlap
     ethr =  2.79E-03,  avg # of iterations =  8.9

     negative rho (up, down):  1.718E-02 0.000E+00
 
     Adding external electric field

     Computed dipole along edir(3) : 
        Dipole               -1.3955 Ry au,         -3.5471 Debye
        Dipole field         -0.0026 Ry au, 
 
        Potential amp.        0.2441 Ry
        Total length         46.3494 bohr
 

     total cpu time spent up to now is      125.9 secs

     total energy              =   -2908.94013105 Ry
     estimated scf accuracy    <      11.05089818 Ry

     iteration #  5     ecut=    29.40 Ry     beta= 0.05
     Davidson diagonalization with overlap
     ethr =  2.79E-03,  avg # of iterations =  1.2

     negative rho (up, down):  1.662E-02 0.000E+00
 
     Adding external electric field

     Computed dipole along edir(3) : 
        Dipole               -0.5581 Ry au,         -1.4187 Debye
        Dipole field         -0.0011 Ry au, 
 
        Potential amp.        0.0976 Ry
        Total length         46.3494 bohr
 

     total cpu time spent up to now is      138.2 secs

     total energy              =   -2907.48328129 Ry
     estimated scf accuracy    <       9.06229056 Ry

     iteration #  6     ecut=    29.40 Ry     beta= 0.05
     Davidson diagonalization with overlap
     ethr =  2.35E-03,  avg # of iterations =  1.9

     negative rho (up, down):  1.661E-02 0.000E+00
 
     Adding external electric field

     Computed dipole along edir(3) : 
        Dipole                0.8325 Ry au,          2.1160 Debye
        Dipole field          0.0016 Ry au, 
 
        Potential amp.       -0.1456 Ry
        Total length         46.3494 bohr
 

     total cpu time spent up to now is      151.0 secs

     total energy              =   -2906.52630685 Ry
     estimated scf accuracy    <       4.31313274 Ry

     iteration #  7     ecut=    29.40 Ry     beta= 0.05
     Davidson diagonalization with overlap
     ethr =  1.12E-03,  avg # of iterations = 13.7

     negative rho (up, down):  1.643E-02 0.000E+00
 
     Adding external electric field

     Computed dipole along edir(3) : 
        Dipole                0.7251 Ry au,          1.8429 Debye
        Dipole field          0.0014 Ry au, 
 
        Potential amp.       -0.1268 Ry
        Total length         46.3494 bohr
 

     total cpu time spent up to now is      174.9 secs

     total energy              =   -2909.12671273 Ry
     estimated scf accuracy    <     119.98344068 Ry

     iteration #  8     ecut=    29.40 Ry     beta= 0.05
     Davidson diagonalization with overlap
     ethr =  1.12E-03,  avg # of iterations =  1.9

     negative rho (up, down):  1.625E-02 0.000E+00
 
     Adding external electric field

     Computed dipole along edir(3) : 
        Dipole                0.3880 Ry au,          0.9863 Debye
        Dipole field          0.0007 Ry au, 
 
        Potential amp.       -0.0679 Ry
        Total length         46.3494 bohr
 

     total cpu time spent up to now is      187.7 secs

     total energy              =   -2907.71935265 Ry
     estimated scf accuracy    <      87.38805991 Ry

     iteration #  9     ecut=    29.40 Ry     beta= 0.05
     Davidson diagonalization with overlap
     ethr =  1.12E-03,  avg # of iterations =  5.7

     negative rho (up, down):  1.614E-02 0.000E+00
 
     Adding external electric field

     Computed dipole along edir(3) : 
        Dipole                0.3715 Ry au,          0.9443 Debye
        Dipole field          0.0007 Ry au, 
 
        Potential amp.       -0.0650 Ry
        Total length         46.3494 bohr
 

     total cpu time spent up to now is      202.1 secs

     total energy              =   -2907.48846224 Ry
     estimated scf accuracy    <      29.98944391 Ry

     iteration # 10     ecut=    29.40 Ry     beta= 0.05
     Davidson diagonalization with overlap
     ethr =  1.12E-03,  avg # of iterations =  5.3

     negative rho (up, down):  1.604E-02 0.000E+00
 
     Adding external electric field

     Computed dipole along edir(3) : 
        Dipole                0.3768 Ry au,          0.9577 Debye
        Dipole field          0.0007 Ry au, 
 
        Potential amp.       -0.0659 Ry
        Total length         46.3494 bohr
 

     total cpu time spent up to now is      216.3 secs

     total energy              =   -2907.62176168 Ry
     estimated scf accuracy    <      16.15500136 Ry

     iteration # 11     ecut=    29.40 Ry     beta= 0.05
     Davidson diagonalization with overlap
     ethr =  1.12E-03,  avg # of iterations =  1.2

     negative rho (up, down):  1.624E-02 0.000E+00
 
     Adding external electric field

     Computed dipole along edir(3) : 
        Dipole                0.5786 Ry au,          1.4707 Debye
        Dipole field          0.0011 Ry au, 
 
        Potential amp.       -0.1012 Ry
        Total length         46.3494 bohr
 

     total cpu time spent up to now is      228.5 secs

     total energy              =   -2906.73398159 Ry
     estimated scf accuracy    <      15.62377769 Ry

     iteration # 12     ecut=    29.40 Ry     beta= 0.05
     Davidson diagonalization with overlap
     ethr =  1.12E-03,  avg # of iterations =  8.0

     negative rho (up, down):  1.667E-02 0.000E+00
 
     Adding external electric field

     Computed dipole along edir(3) : 
        Dipole                0.7237 Ry au,          1.8396 Debye
        Dipole field          0.0014 Ry au, 
 
        Potential amp.       -0.1266 Ry
        Total length         46.3494 bohr
 

     total cpu time spent up to now is      244.3 secs

     total energy              =   -2907.59465224 Ry
     estimated scf accuracy    <       1.74094626 Ry

     iteration # 13     ecut=    29.40 Ry     beta= 0.05
     Davidson diagonalization with overlap
     c_bands:  2 eigenvalues not converged
     c_bands:  3 eigenvalues not converged
     c_bands:  1 eigenvalues not converged
     c_bands:  3 eigenvalues not converged
     c_bands:  1 eigenvalues not converged
     c_bands:  2 eigenvalues not converged
     c_bands:  3 eigenvalues not converged
     c_bands:  2 eigenvalues not converged
     ethr =  4.51E-04,  avg # of iterations = 20.0

     negative rho (up, down):  1.622E-02 0.000E+00
 
     Adding external electric field

     Computed dipole along edir(3) : 
        Dipole                0.6288 Ry au,          1.5982 Debye
        Dipole field          0.0012 Ry au, 
 
        Potential amp.       -0.1100 Ry
        Total length         46.3494 bohr
 

     total cpu time spent up to now is      274.3 secs

     total energy              =   -2907.51542909 Ry
     estimated scf accuracy    <       5.09076409 Ry

     iteration # 14     ecut=    29.40 Ry     beta= 0.05
     Davidson diagonalization with overlap
     ethr =  4.51E-04,  avg # of iterations =  8.3

     negative rho (up, down):  1.623E-02 0.000E+00
 
     Adding external electric field

     Computed dipole along edir(3) : 
        Dipole                0.6988 Ry au,          1.7761 Debye
        Dipole field          0.0013 Ry au, 
 
        Potential amp.       -0.1222 Ry
        Total length         46.3494 bohr
 

     total cpu time spent up to now is      289.9 secs

     total energy              =   -2907.47104505 Ry
     estimated scf accuracy    <       1.59436328 Ry

     iteration # 15     ecut=    29.40 Ry     beta= 0.05
     Davidson diagonalization with overlap
     c_bands:  2 eigenvalues not converged
     ethr =  4.13E-04,  avg # of iterations =  7.6

     negative rho (up, down):  1.638E-02 0.000E+00
 
     Adding external electric field

     Computed dipole along edir(3) : 
        Dipole                0.7794 Ry au,          1.9811 Debye
        Dipole field          0.0015 Ry au, 
 
        Potential amp.       -0.1363 Ry
        Total length         46.3494 bohr
 

     total cpu time spent up to now is      306.4 secs

     total energy              =   -2907.55005954 Ry
     estimated scf accuracy    <       0.48330958 Ry

     iteration # 16     ecut=    29.40 Ry     beta= 0.05
     Davidson diagonalization with overlap
     c_bands:  1 eigenvalues not converged
     c_bands:  2 eigenvalues not converged
     c_bands:  1 eigenvalues not converged
     c_bands:  2 eigenvalues not converged
     c_bands:  1 eigenvalues not converged
     ethr =  1.25E-04,  avg # of iterations = 16.5

     negative rho (up, down):  1.634E-02 0.000E+00
 
     Adding external electric field

     Computed dipole along edir(3) : 
        Dipole                0.7425 Ry au,          1.8872 Debye
        Dipole field          0.0014 Ry au, 
 
        Potential amp.       -0.1299 Ry
        Total length         46.3494 bohr
 

     total cpu time spent up to now is      332.8 secs

     total energy              =   -2907.63507749 Ry
     estimated scf accuracy    <       0.70885463 Ry

     iteration # 17     ecut=    29.40 Ry     beta= 0.05
     Davidson diagonalization with overlap
     ethr =  1.25E-04,  avg # of iterations =  5.5

     negative rho (up, down):  1.651E-02 0.000E+00
 
     Adding external electric field

     Computed dipole along edir(3) : 
        Dipole                0.7765 Ry au,          1.9737 Debye
        Dipole field          0.0015 Ry au, 
 
        Potential amp.       -0.1358 Ry
        Total length         46.3494 bohr
 

     total cpu time spent up to now is      347.1 secs

     total energy              =   -2907.66440685 Ry
     estimated scf accuracy    <       0.27233628 Ry

     iteration # 18     ecut=    29.40 Ry     beta= 0.05
     Davidson diagonalization with overlap
     c_bands:  3 eigenvalues not converged
     c_bands:  3 eigenvalues not converged
     c_bands:  2 eigenvalues not converged
     ethr =  7.06E-05,  avg # of iterations = 11.9

     negative rho (up, down):  1.689E-02 0.000E+00
 
     Adding external electric field

     Computed dipole along edir(3) : 
        Dipole                0.8535 Ry au,          2.1693 Debye
        Dipole field          0.0016 Ry au, 
 
        Potential amp.       -0.1493 Ry
        Total length         46.3494 bohr
 

     total cpu time spent up to now is      364.0 secs

     total energy              =   -2907.68269365 Ry
     estimated scf accuracy    <       0.34177393 Ry

     iteration # 19     ecut=    29.40 Ry     beta= 0.05
     Davidson diagonalization with overlap
     ethr =  7.06E-05,  avg # of iterations =  3.8

     negative rho (up, down):  1.836E-02 0.000E+00
 
     Adding external electric field

     Computed dipole along edir(3) : 
        Dipole                0.9949 Ry au,          2.5289 Debye
        Dipole field          0.0019 Ry au, 
 
        Potential amp.       -0.1740 Ry
        Total length         46.3494 bohr
 

     total cpu time spent up to now is      377.3 secs

     total energy              =   -2907.63947614 Ry
     estimated scf accuracy    <       0.39923080 Ry

     iteration # 20     ecut=    29.40 Ry     beta= 0.05
     Davidson diagonalization with overlap
     c_bands:  2 eigenvalues not converged
     c_bands:  1 eigenvalues not converged
     c_bands:  1 eigenvalues not converged
     c_bands:  1 eigenvalues not converged
     c_bands:  1 eigenvalues not converged
     ethr =  7.06E-05,  avg # of iterations = 16.9

     negative rho (up, down):  1.837E-02 0.000E+00
 
     Adding external electric field

     Computed dipole along edir(3) : 
        Dipole                1.0230 Ry au,          2.6002 Debye
        Dipole field          0.0019 Ry au, 
 
        Potential amp.       -0.1790 Ry
        Total length         46.3494 bohr
 

     total cpu time spent up to now is      402.2 secs

     total energy              =   -2907.71958884 Ry
     estimated scf accuracy    <       0.53872827 Ry

     iteration # 21     ecut=    29.40 Ry     beta= 0.05
     Davidson diagonalization with overlap
     ethr =  7.06E-05,  avg # of iterations =  6.0

     negative rho (up, down):  1.832E-02 0.000E+00
 
     Adding external electric field

     Computed dipole along edir(3) : 
        Dipole                1.0175 Ry au,          2.5863 Debye
        Dipole field          0.0019 Ry au, 
 
        Potential amp.       -0.1780 Ry
        Total length         46.3494 bohr
 

     total cpu time spent up to now is      416.7 secs

     total energy              =   -2907.73425076 Ry
     estimated scf accuracy    <       0.52598853 Ry

     iteration # 22     ecut=    29.40 Ry     beta= 0.05
     Davidson diagonalization with overlap
     ethr =  7.06E-05,  avg # of iterations =  1.0

     negative rho (up, down):  1.792E-02 0.000E+00
 
     Adding external electric field

     Computed dipole along edir(3) : 
        Dipole                0.9733 Ry au,          2.4739 Debye
        Dipole field          0.0018 Ry au, 
 
        Potential amp.       -0.1703 Ry
        Total length         46.3494 bohr
 

     total cpu time spent up to now is      428.8 secs

     total energy              =   -2907.69347277 Ry
     estimated scf accuracy    <       0.53525939 Ry

     iteration # 23     ecut=    29.40 Ry     beta= 0.05
     Davidson diagonalization with overlap
     ethr =  7.06E-05,  avg # of iterations =  1.4

     negative rho (up, down):  1.879E-02 0.000E+00
 
     Adding external electric field

     Computed dipole along edir(3) : 
        Dipole                1.0097 Ry au,          2.5663 Debye
        Dipole field          0.0019 Ry au, 
 
        Potential amp.       -0.1766 Ry
        Total length         46.3494 bohr
 

     total cpu time spent up to now is      441.3 secs

     total energy              =   -2907.75181693 Ry
     estimated scf accuracy    <       0.48621753 Ry

     iteration # 24     ecut=    29.40 Ry     beta= 0.05
     Davidson diagonalization with overlap
     c_bands:  1 eigenvalues not converged
     c_bands:  2 eigenvalues not converged
     ethr =  7.06E-05,  avg # of iterations =  8.3

     negative rho (up, down):  1.863E-02 0.000E+00
 
     Adding external electric field

     Computed dipole along edir(3) : 
        Dipole                0.9933 Ry au,          2.5248 Debye
        Dipole field          0.0019 Ry au, 
 
        Potential amp.       -0.1738 Ry
        Total length         46.3494 bohr
 

     total cpu time spent up to now is      456.3 secs

     total energy              =   -2907.74524904 Ry
     estimated scf accuracy    <       1.34598931 Ry

     iteration # 25     ecut=    29.40 Ry     beta= 0.05
     Davidson diagonalization with overlap
     ethr =  7.06E-05,  avg # of iterations =  3.7

     negative rho (up, down):  1.739E-02 0.000E+00
 
     Adding external electric field

     Computed dipole along edir(3) : 
        Dipole                0.9188 Ry au,          2.3354 Debye
        Dipole field          0.0017 Ry au, 
 
        Potential amp.       -0.1607 Ry
        Total length         46.3494 bohr
 

     total cpu time spent up to now is      469.3 secs

     total energy              =   -2907.63854006 Ry
     estimated scf accuracy    <       0.96777117 Ry

     iteration # 26     ecut=    29.40 Ry     beta= 0.05
     Davidson diagonalization with overlap
     c_bands:  1 eigenvalues not converged
     c_bands:  1 eigenvalues not converged
     c_bands:  2 eigenvalues not converged
     c_bands:  1 eigenvalues not converged
     c_bands:  2 eigenvalues not converged
     ethr =  7.06E-05,  avg # of iterations = 16.8

     negative rho (up, down):  1.765E-02 0.000E+00
 
     Adding external electric field

     Computed dipole along edir(3) : 
        Dipole                1.0332 Ry au,          2.6262 Debye
        Dipole field          0.0019 Ry au, 
 
        Potential amp.       -0.1807 Ry
        Total length         46.3494 bohr
 

     total cpu time spent up to now is      489.2 secs

     total energy              =   -2907.66793183 Ry
     estimated scf accuracy    <       0.15241916 Ry

     iteration # 27     ecut=    29.40 Ry     beta= 0.05
     Davidson diagonalization with overlap
     c_bands:  2 eigenvalues not converged
     ethr =  3.95E-05,  avg # of iterations =  9.3

     negative rho (up, down):  1.795E-02 0.000E+00
 
     Adding external electric field

     Computed dipole along edir(3) : 
        Dipole                1.1288 Ry au,          2.8691 Debye
        Dipole field          0.0021 Ry au, 
 
        Potential amp.       -0.1975 Ry
        Total length         46.3494 bohr
 

     total cpu time spent up to now is      507.7 secs

     total energy              =   -2907.69172897 Ry
     estimated scf accuracy    <       0.07793062 Ry

     iteration # 28     ecut=    29.40 Ry     beta= 0.05
     Davidson diagonalization with overlap
     c_bands:  1 eigenvalues not converged
     c_bands:  1 eigenvalues not converged
     c_bands:  3 eigenvalues not converged
     c_bands:  1 eigenvalues not converged
     c_bands:  1 eigenvalues not converged
     c_bands:  3 eigenvalues not converged
     ethr =  2.02E-05,  avg # of iterations = 18.4

     negative rho (up, down):  1.812E-02 0.000E+00
 
     Adding external electric field

     Computed dipole along edir(3) : 
        Dipole                1.1069 Ry au,          2.8136 Debye
        Dipole field          0.0021 Ry au, 
 
        Potential amp.       -0.1936 Ry
        Total length         46.3494 bohr
 

     total cpu time spent up to now is      531.2 secs

     total energy              =   -2907.69340503 Ry
     estimated scf accuracy    <       0.27325331 Ry

     iteration # 29     ecut=    29.40 Ry     beta= 0.05
     Davidson diagonalization with overlap
     c_bands:  1 eigenvalues not converged
     ethr =  2.02E-05,  avg # of iterations =  4.6

     negative rho (up, down):  1.862E-02 0.000E+00
 
     Adding external electric field

     Computed dipole along edir(3) : 
        Dipole                1.1241 Ry au,          2.8571 Debye
        Dipole field          0.0021 Ry au, 
 
        Potential amp.       -0.1966 Ry
        Total length         46.3494 bohr
 

     total cpu time spent up to now is      544.7 secs

     total energy              =   -2907.69030149 Ry
     estimated scf accuracy    <       0.16608827 Ry

     iteration # 30     ecut=    29.40 Ry     beta= 0.05
     Davidson diagonalization with overlap
     ethr =  2.02E-05,  avg # of iterations =  6.8

     negative rho (up, down):  1.852E-02 0.000E+00
 
     Adding external electric field

     Computed dipole along edir(3) : 
        Dipole                1.1257 Ry au,          2.8612 Debye
        Dipole field          0.0021 Ry au, 
 
        Potential amp.       -0.1969 Ry
        Total length         46.3494 bohr
 

     total cpu time spent up to now is      560.5 secs

     total energy              =   -2907.70128965 Ry
     estimated scf accuracy    <       0.17746078 Ry

     iteration # 31     ecut=    29.40 Ry     beta= 0.05
     Davidson diagonalization with overlap
     ethr =  2.02E-05,  avg # of iterations =  2.2

     negative rho (up, down):  1.848E-02 0.000E+00
 
     Adding external electric field

     Computed dipole along edir(3) : 
        Dipole                1.1193 Ry au,          2.8450 Debye
        Dipole field          0.0021 Ry au, 
 
        Potential amp.       -0.1958 Ry
        Total length         46.3494 bohr
 

     total cpu time spent up to now is      573.8 secs

     total energy              =   -2907.68716004 Ry
     estimated scf accuracy    <       0.24525477 Ry

     iteration # 32     ecut=    29.40 Ry     beta= 0.05
     Davidson diagonalization with overlap
     c_bands:  1 eigenvalues not converged
     ethr =  2.02E-05,  avg # of iterations = 12.7

     negative rho (up, down):  1.815E-02 0.000E+00
 
     Adding external electric field

     Computed dipole along edir(3) : 
        Dipole                1.2146 Ry au,          3.0871 Debye
        Dipole field          0.0023 Ry au, 
 
        Potential amp.       -0.2125 Ry
        Total length         46.3494 bohr
 

     total cpu time spent up to now is      590.6 secs

     total energy              =   -2907.67904729 Ry
     estimated scf accuracy    <       0.07649786 Ry

     iteration # 33     ecut=    29.40 Ry     beta= 0.05
     Davidson diagonalization with overlap
     c_bands:  2 eigenvalues not converged
     c_bands:  2 eigenvalues not converged
     c_bands:  2 eigenvalues not converged
     c_bands:  1 eigenvalues not converged
     c_bands:  2 eigenvalues not converged
     ethr =  1.98E-05,  avg # of iterations = 18.7

     negative rho (up, down):  1.879E-02 0.000E+00
 
     Adding external electric field

     Computed dipole along edir(3) : 
        Dipole                1.2657 Ry au,          3.2170 Debye
        Dipole field          0.0024 Ry au, 
 
        Potential amp.       -0.2214 Ry
        Total length         46.3494 bohr
 

     total cpu time spent up to now is      620.2 secs

     total energy              =   -2907.67804417 Ry
     estimated scf accuracy    <       0.19023369 Ry

     iteration # 34     ecut=    29.40 Ry     beta= 0.05
     Davidson diagonalization with overlap
     ethr =  1.98E-05,  avg # of iterations =  7.4

     negative rho (up, down):  1.899E-02 0.000E+00
 
     Adding external electric field

     Computed dipole along edir(3) : 
        Dipole                1.1692 Ry au,          2.9718 Debye
        Dipole field          0.0022 Ry au, 
 
        Potential amp.       -0.2045 Ry
        Total length         46.3494 bohr
 

     total cpu time spent up to now is      637.0 secs

     total energy              =   -2907.66870420 Ry
     estimated scf accuracy    <       0.06567072 Ry

     iteration # 35     ecut=    29.40 Ry     beta= 0.05
     Davidson diagonalization with overlap
     c_bands:  2 eigenvalues not converged
     c_bands:  1 eigenvalues not converged
     ethr =  1.70E-05,  avg # of iterations =  9.5

     negative rho (up, down):  1.932E-02 0.000E+00
 
     Adding external electric field

     Computed dipole along edir(3) : 
        Dipole                1.2568 Ry au,          3.1945 Debye
        Dipole field          0.0024 Ry au, 
 
        Potential amp.       -0.2199 Ry
        Total length         46.3494 bohr
 

     total cpu time spent up to now is      662.4 secs

     total energy              =   -2907.68395621 Ry
     estimated scf accuracy    <       0.12861694 Ry

     iteration # 36     ecut=    29.40 Ry     beta= 0.05
     Davidson diagonalization with overlap
     ethr =  1.70E-05,  avg # of iterations =  5.3

     negative rho (up, down):  1.944E-02 0.000E+00
 
     Adding external electric field

     Computed dipole along edir(3) : 
        Dipole                1.2650 Ry au,          3.2153 Debye
        Dipole field          0.0024 Ry au, 
 
        Potential amp.       -0.2213 Ry
        Total length         46.3494 bohr
 

     total cpu time spent up to now is      677.5 secs

     total energy              =   -2907.68019173 Ry
     estimated scf accuracy    <       0.03806704 Ry

     iteration # 37     ecut=    29.40 Ry     beta= 0.05
     Davidson diagonalization with overlap
     ethr =  9.86E-06,  avg # of iterations =  6.5

     negative rho (up, down):  1.936E-02 0.000E+00
 
     Adding external electric field

     Computed dipole along edir(3) : 
        Dipole                1.2582 Ry au,          3.1981 Debye
        Dipole field          0.0024 Ry au, 
 
        Potential amp.       -0.2201 Ry
        Total length         46.3494 bohr
 

     total cpu time spent up to now is      698.1 secs

     total energy              =   -2907.69108031 Ry
     estimated scf accuracy    <       0.01441266 Ry

     iteration # 38     ecut=    29.40 Ry     beta= 0.05
     Davidson diagonalization with overlap
     ethr =  3.73E-06,  avg # of iterations =  5.3

     negative rho (up, down):  1.926E-02 0.000E+00
 
     Adding external electric field

     Computed dipole along edir(3) : 
        Dipole                1.2515 Ry au,          3.1810 Debye
        Dipole field          0.0024 Ry au, 
 
        Potential amp.       -0.2189 Ry
        Total length         46.3494 bohr
 

     total cpu time spent up to now is      713.1 secs

     total energy              =   -2907.69185768 Ry
     estimated scf accuracy    <       0.00378365 Ry

     iteration # 39     ecut=    29.40 Ry     beta= 0.05
     Davidson diagonalization with overlap
     c_bands:  1 eigenvalues not converged
     c_bands:  1 eigenvalues not converged
     c_bands:  1 eigenvalues not converged
     c_bands:  3 eigenvalues not converged
     ethr =  9.80E-07,  avg # of iterations = 15.4

     negative rho (up, down):  1.948E-02 0.000E+00
 
     Adding external electric field

     Computed dipole along edir(3) : 
        Dipole                1.2894 Ry au,          3.2774 Debye
        Dipole field          0.0024 Ry au, 
 
        Potential amp.       -0.2256 Ry
        Total length         46.3494 bohr
 

     total cpu time spent up to now is      737.2 secs

     total energy              =   -2907.69288493 Ry
     estimated scf accuracy    <       0.00315530 Ry

     iteration # 40     ecut=    29.40 Ry     beta= 0.05
     Davidson diagonalization with overlap
     ethr =  8.17E-07,  avg # of iterations =  8.5

     negative rho (up, down):  1.954E-02 0.000E+00
 
     Adding external electric field

     Computed dipole along edir(3) : 
        Dipole                1.2746 Ry au,          3.2396 Debye
        Dipole field          0.0024 Ry au, 
 
        Potential amp.       -0.2230 Ry
        Total length         46.3494 bohr
 

     total cpu time spent up to now is      758.6 secs

     total energy              =   -2907.69322104 Ry
     estimated scf accuracy    <       0.00469622 Ry

     iteration # 41     ecut=    29.40 Ry     beta= 0.05
     Davidson diagonalization with overlap
     ethr =  8.17E-07,  avg # of iterations =  5.1

     negative rho (up, down):  1.951E-02 0.000E+00
 
     Adding external electric field

     Computed dipole along edir(3) : 
        Dipole                1.2548 Ry au,          3.1894 Debye
        Dipole field          0.0024 Ry au, 
 
        Potential amp.       -0.2195 Ry
        Total length         46.3494 bohr
 

     total cpu time spent up to now is      773.2 secs

     total energy              =   -2907.69315058 Ry
     estimated scf accuracy    <       0.00164101 Ry

     iteration # 42     ecut=    29.40 Ry     beta= 0.05
     Davidson diagonalization with overlap
     ethr =  4.25E-07,  avg # of iterations = 11.3

     negative rho (up, down):  1.943E-02 0.000E+00
 
     Adding external electric field

     Computed dipole along edir(3) : 
        Dipole                1.2575 Ry au,          3.1962 Debye
        Dipole field          0.0024 Ry au, 
 
        Potential amp.       -0.2200 Ry
        Total length         46.3494 bohr
 

     total cpu time spent up to now is      796.0 secs

     total energy              =   -2907.69317869 Ry
     estimated scf accuracy    <       0.00166339 Ry

     iteration # 43     ecut=    29.40 Ry     beta= 0.05
     Davidson diagonalization with overlap
     ethr =  4.25E-07,  avg # of iterations =  9.3

     negative rho (up, down):  1.931E-02 0.000E+00
 
     Adding external electric field

     Computed dipole along edir(3) : 
        Dipole                1.2477 Ry au,          3.1714 Debye
        Dipole field          0.0024 Ry au, 
 
        Potential amp.       -0.2183 Ry
        Total length         46.3494 bohr
 

     total cpu time spent up to now is      818.2 secs

     total energy              =   -2907.69416864 Ry
     estimated scf accuracy    <       0.00246527 Ry

     iteration # 44     ecut=    29.40 Ry     beta= 0.05
     Davidson diagonalization with overlap
     ethr =  4.25E-07,  avg # of iterations =  3.4

     negative rho (up, down):  1.930E-02 0.000E+00
 
     Adding external electric field

     Computed dipole along edir(3) : 
        Dipole                1.2482 Ry au,          3.1727 Debye
        Dipole field          0.0024 Ry au, 
 
        Potential amp.       -0.2184 Ry
        Total length         46.3494 bohr
 

     total cpu time spent up to now is      831.8 secs

     total energy              =   -2907.69373570 Ry
     estimated scf accuracy    <       0.00375272 Ry

     iteration # 45     ecut=    29.40 Ry     beta= 0.05
     Davidson diagonalization with overlap
     ethr =  4.25E-07,  avg # of iterations =  1.1

     negative rho (up, down):  1.930E-02 0.000E+00
 
     Adding external electric field

     Computed dipole along edir(3) : 
        Dipole                1.2541 Ry au,          3.1877 Debye
        Dipole field          0.0024 Ry au, 
 
        Potential amp.       -0.2194 Ry
        Total length         46.3494 bohr
 

     total cpu time spent up to now is      844.0 secs

     total energy              =   -2907.69333786 Ry
     estimated scf accuracy    <       0.00245124 Ry

     iteration # 46     ecut=    29.40 Ry     beta= 0.05
     Davidson diagonalization with overlap
     ethr =  4.25E-07,  avg # of iterations =  4.6

     negative rho (up, down):  1.927E-02 0.000E+00
 
     Adding external electric field

     Computed dipole along edir(3) : 
        Dipole                1.2480 Ry au,          3.1721 Debye
        Dipole field          0.0024 Ry au, 
 
        Potential amp.       -0.2183 Ry
        Total length         46.3494 bohr
 

     total cpu time spent up to now is      859.6 secs

     total energy              =   -2907.69341445 Ry
     estimated scf accuracy    <       0.00069957 Ry

     iteration # 47     ecut=    29.40 Ry     beta= 0.05
     Davidson diagonalization with overlap
     ethr =  1.81E-07,  avg # of iterations =  6.0

     negative rho (up, down):  1.926E-02 0.000E+00
 
     Adding external electric field

     Computed dipole along edir(3) : 
        Dipole                1.2460 Ry au,          3.1670 Debye
        Dipole field          0.0024 Ry au, 
 
        Potential amp.       -0.2180 Ry
        Total length         46.3494 bohr
 

     total cpu time spent up to now is      877.4 secs

     total energy              =   -2907.69355248 Ry
     estimated scf accuracy    <       0.00009540 Ry

     iteration # 48     ecut=    29.40 Ry     beta= 0.05
     Davidson diagonalization with overlap
     c_bands:  3 eigenvalues not converged
     c_bands:  1 eigenvalues not converged
     ethr =  2.47E-08,  avg # of iterations = 15.3

     negative rho (up, down):  1.929E-02 0.000E+00
 
     Adding external electric field

     Computed dipole along edir(3) : 
        Dipole                1.2462 Ry au,          3.1675 Debye
        Dipole field          0.0024 Ry au, 
 
        Potential amp.       -0.2180 Ry
        Total length         46.3494 bohr
 

     total cpu time spent up to now is      901.7 secs

     total energy              =   -2907.69359902 Ry
     estimated scf accuracy    <       0.00007730 Ry

     iteration # 49     ecut=    29.40 Ry     beta= 0.05
     Davidson diagonalization with overlap
     c_bands:  2 eigenvalues not converged
     c_bands:  1 eigenvalues not converged
     ethr =  2.00E-08,  avg # of iterations = 10.4

     negative rho (up, down):  1.926E-02 0.000E+00
 
     Adding external electric field

     Computed dipole along edir(3) : 
        Dipole                1.2448 Ry au,          3.1641 Debye
        Dipole field          0.0023 Ry au, 
 
        Potential amp.       -0.2178 Ry
        Total length         46.3494 bohr
 

     total cpu time spent up to now is      923.9 secs

     total energy              =   -2907.69361156 Ry
     estimated scf accuracy    <       0.00009597 Ry

     iteration # 50     ecut=    29.40 Ry     beta= 0.05
     Davidson diagonalization with overlap
     c_bands:  1 eigenvalues not converged
     ethr =  2.00E-08,  avg # of iterations =  6.8

     negative rho (up, down):  1.927E-02 0.000E+00
 
     Adding external electric field

     Computed dipole along edir(3) : 
        Dipole                1.2471 Ry au,          3.1699 Debye
        Dipole field          0.0024 Ry au, 
 
        Potential amp.       -0.2182 Ry
        Total length         46.3494 bohr
 

     total cpu time spent up to now is      940.3 secs

     total energy              =   -2907.69363775 Ry
     estimated scf accuracy    <       0.00002072 Ry

     iteration # 51     ecut=    29.40 Ry     beta= 0.05
     Davidson diagonalization with overlap
     c_bands:  1 eigenvalues not converged
     ethr =  5.37E-09,  avg # of iterations = 15.6

     negative rho (up, down):  1.926E-02 0.000E+00
 
     Adding external electric field

     Computed dipole along edir(3) : 
        Dipole                1.2470 Ry au,          3.1696 Debye
        Dipole field          0.0024 Ry au, 
 
        Potential amp.       -0.2181 Ry
        Total length         46.3494 bohr
 

     total cpu time spent up to now is      970.7 secs

     total energy              =   -2907.69363982 Ry
     estimated scf accuracy    <       0.00013520 Ry

     iteration # 52     ecut=    29.40 Ry     beta= 0.05
     Davidson diagonalization with overlap
     ethr =  5.37E-09,  avg # of iterations =  7.8

     negative rho (up, down):  1.926E-02 0.000E+00
 
     Adding external electric field

     Computed dipole along edir(3) : 
        Dipole                1.2469 Ry au,          3.1693 Debye
        Dipole field          0.0024 Ry au, 
 
        Potential amp.       -0.2181 Ry
        Total length         46.3494 bohr
 

     total cpu time spent up to now is      995.0 secs

     total energy              =   -2907.69366154 Ry
     estimated scf accuracy    <       0.00001146 Ry

     iteration # 53     ecut=    29.40 Ry     beta= 0.05
     Davidson diagonalization with overlap
     ethr =  2.97E-09,  avg # of iterations =  5.7

     negative rho (up, down):  1.926E-02 0.000E+00
 
     Adding external electric field

     Computed dipole along edir(3) : 
        Dipole                1.2474 Ry au,          3.1705 Debye
        Dipole field          0.0024 Ry au, 
 
        Potential amp.       -0.2182 Ry
        Total length         46.3494 bohr
 

     total cpu time spent up to now is     1009.7 secs

     total energy              =   -2907.69367147 Ry
     estimated scf accuracy    <       0.00000546 Ry

     iteration # 54     ecut=    29.40 Ry     beta= 0.05
     Davidson diagonalization with overlap
     c_bands:  1 eigenvalues not converged
     c_bands:  1 eigenvalues not converged
     ethr =  1.41E-09,  avg # of iterations = 15.5

     negative rho (up, down):  1.926E-02 0.000E+00
 
     Adding external electric field

     Computed dipole along edir(3) : 
        Dipole                1.2479 Ry au,          3.1719 Debye
        Dipole field          0.0024 Ry au, 
 
        Potential amp.       -0.2183 Ry
        Total length         46.3494 bohr
 

     total cpu time spent up to now is     1035.4 secs

     total energy              =   -2907.69367867 Ry
     estimated scf accuracy    <       0.00000991 Ry

     iteration # 55     ecut=    29.40 Ry     beta= 0.05
     Davidson diagonalization with overlap
     ethr =  1.41E-09,  avg # of iterations =  6.6

     negative rho (up, down):  1.926E-02 0.000E+00
 
     Adding external electric field

     Computed dipole along edir(3) : 
        Dipole                1.2484 Ry au,          3.1731 Debye
        Dipole field          0.0024 Ry au, 
 
        Potential amp.       -0.2184 Ry
        Total length         46.3494 bohr
 

     total cpu time spent up to now is     1051.8 secs

     total energy              =   -2907.69368474 Ry
     estimated scf accuracy    <       0.00000304 Ry

     iteration # 56     ecut=    29.40 Ry     beta= 0.05
     Davidson diagonalization with overlap
     ethr =  7.88E-10,  avg # of iterations = 14.0

     negative rho (up, down):  1.926E-02 0.000E+00
 
     Adding external electric field

     Computed dipole along edir(3) : 
        Dipole                1.2481 Ry au,          3.1724 Debye
        Dipole field          0.0024 Ry au, 
 
        Potential amp.       -0.2183 Ry
        Total length         46.3494 bohr
 

     total cpu time spent up to now is     1081.4 secs

     total energy              =   -2907.69369136 Ry
     estimated scf accuracy    <       0.00001200 Ry

     iteration # 57     ecut=    29.40 Ry     beta= 0.05
     Davidson diagonalization with overlap
     ethr =  7.88E-10,  avg # of iterations =  3.9

     negative rho (up, down):  1.925E-02 0.000E+00
 
     Adding external electric field

     Computed dipole along edir(3) : 
        Dipole                1.2476 Ry au,          3.1711 Debye
        Dipole field          0.0024 Ry au, 
 
        Potential amp.       -0.2183 Ry
        Total length         46.3494 bohr
 

     total cpu time spent up to now is     1095.8 secs

     total energy              =   -2907.69369482 Ry
     estimated scf accuracy    <       0.00000598 Ry

     iteration # 58     ecut=    29.40 Ry     beta= 0.05
     Davidson diagonalization with overlap
     c_bands:  1 eigenvalues not converged
     ethr =  7.88E-10,  avg # of iterations = 11.3

     negative rho (up, down):  1.926E-02 0.000E+00
 
     Adding external electric field

     Computed dipole along edir(3) : 
        Dipole                1.2477 Ry au,          3.1712 Debye
        Dipole field          0.0024 Ry au, 
 
        Potential amp.       -0.2183 Ry
        Total length         46.3494 bohr
 

     total cpu time spent up to now is     1119.2 secs

     total energy              =   -2907.69370049 Ry
     estimated scf accuracy    <       0.00000089 Ry

     iteration # 59     ecut=    29.40 Ry     beta= 0.05
     Davidson diagonalization with overlap
     ethr =  2.30E-10,  avg # of iterations =  9.4

     negative rho (up, down):  1.926E-02 0.000E+00
 
     Adding external electric field

     Computed dipole along edir(3) : 
        Dipole                1.2476 Ry au,          3.1710 Debye
        Dipole field          0.0024 Ry au, 
 
        Potential amp.       -0.2182 Ry
        Total length         46.3494 bohr
 

     total cpu time spent up to now is     1137.8 secs

     total energy              =   -2907.69370470 Ry
     estimated scf accuracy    <       0.00000057 Ry

     iteration # 60     ecut=    29.40 Ry     beta= 0.05
     Davidson diagonalization with overlap
     ethr =  1.47E-10,  avg # of iterations =  6.1

     negative rho (up, down):  1.926E-02 0.000E+00
 
     Adding external electric field

     Computed dipole along edir(3) : 
        Dipole                1.2473 Ry au,          3.1702 Debye
        Dipole field          0.0024 Ry au, 
 
        Potential amp.       -0.2182 Ry
        Total length         46.3494 bohr
 

     total cpu time spent up to now is     1153.7 secs

     total energy              =   -2907.69370831 Ry
     estimated scf accuracy    <       0.00000071 Ry

     iteration # 61     ecut=    29.40 Ry     beta= 0.05
     Davidson diagonalization with overlap
     ethr =  1.47E-10,  avg # of iterations =  4.5

     negative rho (up, down):  1.926E-02 0.000E+00
 
     Adding external electric field

     Computed dipole along edir(3) : 
        Dipole                1.2472 Ry au,          3.1700 Debye
        Dipole field          0.0024 Ry au, 
 
        Potential amp.       -0.2182 Ry
        Total length         46.3494 bohr
 

     total cpu time spent up to now is     1167.3 secs

     total energy              =   -2907.69371152 Ry
     estimated scf accuracy    <       0.00000047 Ry

     iteration # 62     ecut=    29.40 Ry     beta= 0.05
     Davidson diagonalization with overlap
     ethr =  1.21E-10,  avg # of iterations =  7.3

     negative rho (up, down):  1.926E-02 0.000E+00
 
     Adding external electric field

     Computed dipole along edir(3) : 
        Dipole                1.2472 Ry au,          3.1700 Debye
        Dipole field          0.0024 Ry au, 
 
        Potential amp.       -0.2182 Ry
        Total length         46.3494 bohr
 

     total cpu time spent up to now is     1182.2 secs

     total energy              =   -2907.69371441 Ry
     estimated scf accuracy    <       0.00000032 Ry

     iteration # 63     ecut=    29.40 Ry     beta= 0.05
     Davidson diagonalization with overlap
     ethr =  8.29E-11,  avg # of iterations =  7.4

     negative rho (up, down):  1.926E-02 0.000E+00
 
     Adding external electric field

     Computed dipole along edir(3) : 
        Dipole                1.2471 Ry au,          3.1699 Debye
        Dipole field          0.0024 Ry au, 
 
        Potential amp.       -0.2182 Ry
        Total length         46.3494 bohr
 

     total cpu time spent up to now is     1197.0 secs

     total energy              =   -2907.69371705 Ry
     estimated scf accuracy    <       0.00000016 Ry

     iteration # 64     ecut=    29.40 Ry     beta= 0.05
     Davidson diagonalization with overlap
     ethr =  4.19E-11,  avg # of iterations =  7.6

     negative rho (up, down):  1.926E-02 0.000E+00
 
     Adding external electric field

     Computed dipole along edir(3) : 
        Dipole                1.2471 Ry au,          3.1698 Debye
        Dipole field          0.0024 Ry au, 
 
        Potential amp.       -0.2182 Ry
        Total length         46.3494 bohr
 

     total cpu time spent up to now is     1217.8 secs

     total energy              =   -2907.69371950 Ry
     estimated scf accuracy    <       0.00000007 Ry

     iteration # 65     ecut=    29.40 Ry     beta= 0.05
     Davidson diagonalization with overlap
     ethr =  1.91E-11,  avg # of iterations =  2.0

     negative rho (up, down):  1.931E-02 0.000E+00
 
     Adding external electric field

     Computed dipole along edir(3) : 
        Dipole                1.2471 Ry au,          3.1697 Debye
        Dipole field          0.0024 Ry au, 
 
        Potential amp.       -0.2182 Ry
        Total length         46.3494 bohr
 

     total cpu time spent up to now is     1230.9 secs

     End of self-consistent calculation

          k = 0.0000 0.0000 0.0000 ( 18029 PWs)   bands (ev):

   -55.6682 -55.6320 -55.6255 -55.5913 -55.5772 -55.5500 -55.5402 -55.5026
   -55.4971 -55.4946 -55.4604 -55.4598 -55.4499 -55.4159 -54.7105 -54.6764
   -32.2374 -32.1726 -32.1238 -32.0264 -31.9851 -31.9696 -31.9682 -31.9621
   -31.9160 -31.9116 -31.8746 -31.8737 -31.8715 -31.8703 -31.8426 -31.8225
   -31.8215 -31.8121 -31.8033 -31.7964 -31.7786 -31.7734 -31.7520 -31.7482
   -31.7445 -31.7291 -31.7201 -31.7198 -31.6859 -31.6812 -31.6693 -31.6538
   -31.6536 -31.6419 -31.6340 -31.6290 -31.6271 -31.6004 -31.5938 -31.5838
   -31.5824 -31.5637 -31.1221 -31.0211 -30.9995 -30.9384 -30.8519 -30.7409
   -16.5043 -16.2634 -16.1380 -15.9971 -15.8880 -15.8570 -15.7562 -15.7234
   -15.6095 -15.5214 -15.3972 -15.3522 -15.3259 -15.3203 -15.3076 -15.2888
   -15.2798 -15.2163 -15.1774 -15.1690 -15.1484 -15.1469 -15.1046 -15.1037
   -15.0469 -15.0318 -14.8944 -14.8196 -14.7586 -14.5079 -13.2118 -13.0927
    -6.0348  -6.0008  -3.8320  -3.6724  -3.6454  -3.5950  -3.5843  -3.4281
    -3.2687  -3.1357  -3.0905  -2.9528  -2.9187  -2.8709  -2.8427  -2.6944
    -2.6611  -2.6310  -2.5738  -2.5442  -2.5426  -2.5338  -2.5205  -2.4395
    -2.4367  -2.4187  -2.3025  -2.2525  -2.1419  -2.1112  -2.0475  -2.0302
    -1.9931  -1.9919  -1.9817  -1.9313  -1.9300  -1.9056  -1.8730  -1.8036
    -1.7072  -1.6562  -1.5634  -1.5287  -1.4204  -1.4161  -1.2493  -1.2298
    -1.1642  -1.1219  -1.1100  -1.0778  -1.0674  -1.0174  -0.9079  -0.8243
    -0.7851  -0.7231  -0.6719  -0.6393  -0.6025  -0.5280  -0.4586  -0.4514
    -0.4199  -0.3048  -0.2625  -0.2079  -0.1546  -0.1458  -0.1104  -0.0116
    -0.0062   0.0926   0.0992   0.1327   0.1608   0.2667   0.2751   0.2843
     0.3043   0.3053   0.3929   0.4309   0.4926   0.5080   0.6533   0.8678
     0.9051   0.9356   1.2079   1.2829   1.3148   1.4783   1.8973   1.9495
     3.4311   3.4954   3.5303   3.5598   3.5734   3.6406   3.9211   3.9236
     3.9364   3.9513   3.9872

          k = 0.0000 0.0419 0.0000 ( 17933 PWs)   bands (ev):

   -55.6629 -55.6371 -55.6204 -55.5962 -55.5751 -55.5483 -55.5357 -55.5070
   -55.4991 -55.4896 -55.4653 -55.4613 -55.4449 -55.4208 -54.7054 -54.6813
   -32.1800 -32.1352 -32.0697 -31.9735 -31.9718 -31.9223 -31.9204 -31.9169
   -31.9145 -31.9109 -31.8970 -31.8647 -31.8635 -31.8592 -31.8574 -31.8436
   -31.8203 -31.8135 -31.8126 -31.8015 -31.7911 -31.7644 -31.7589 -31.7566
   -31.7439 -31.7346 -31.7234 -31.7139 -31.6996 -31.6954 -31.6886 -31.6796
   -31.6763 -31.6500 -31.6472 -31.6443 -31.6360 -31.6276 -31.6270 -31.6245
   -31.6182 -31.5938 -31.0680 -31.0178 -31.0024 -30.9258 -30.8645 -30.7981
   -16.3765 -16.1520 -16.0392 -15.9533 -15.8475 -15.7724 -15.7024 -15.6842
   -15.5796 -15.5451 -15.5011 -15.4145 -15.3391 -15.3351 -15.2817 -15.2689
   -15.2443 -15.2259 -15.2234 -15.1955 -15.1614 -15.1577 -15.1365 -15.0904
   -15.0763 -15.0735 -14.9506 -14.8770 -14.8159 -14.6349 -13.2146 -13.1315
    -6.0346  -5.9793  -3.6407  -3.5036  -3.4825  -3.4318  -3.4150  -3.2844
    -3.0552  -3.0169  -2.9920  -2.9039  -2.8426  -2.8210  -2.7992  -2.7466
    -2.6893  -2.6834  -2.6522  -2.6377  -2.6155  -2.5915  -2.5549  -2.4781
    -2.4588  -2.4548  -2.4272  -2.3777  -2.3043  -2.2736  -2.2480  -2.2289
    -2.1489  -2.1142  -2.1010  -1.9854  -1.9714  -1.8406  -1.7425  -1.6647
    -1.6099  -1.5820  -1.4712  -1.4489  -1.4267  -1.3437  -1.2452  -1.1185
    -1.0532  -1.0325  -0.9829  -0.9810  -0.9005  -0.8760  -0.8531  -0.8204
    -0.7023  -0.6629  -0.6483  -0.6211  -0.5853  -0.5454  -0.5052  -0.4956
    -0.4743  -0.3640  -0.3058  -0.2669  -0.2509  -0.1814  -0.1778  -0.1144
    -0.0501  -0.0037   0.0586   0.0781   0.0882   0.1001   0.1535   0.1620
     0.2960   0.3045   0.3632   0.3815   0.4321   0.5348   0.5833   0.6052
     0.6935   0.8008   0.9126   1.1594   1.4976   1.5674   1.8515   1.8602
     3.6238   3.6435   3.6549   3.7231   3.7558   3.8222   3.8240   3.8777
     3.8856   3.9278   4.0196

          k = 0.0000-0.0839 0.0000 ( 17884 PWs)   bands (ev):

   -55.6518 -55.6482 -55.6088 -55.6077 -55.5728 -55.5467 -55.5291 -55.5136
   -55.5013 -55.4785 -55.4764 -55.4629 -55.4341 -55.4314 -54.6933 -54.6933
   -32.0914 -32.0414 -32.0383 -31.9551 -31.9374 -31.9365 -31.9267 -31.9017
   -31.9007 -31.8688 -31.8582 -31.8457 -31.8397 -31.8390 -31.8357 -31.8302
   -31.8256 -31.8073 -31.8016 -31.7929 -31.7909 -31.7831 -31.7820 -31.7435
   -31.7430 -31.7419 -31.7413 -31.7350 -31.7307 -31.7301 -31.7295 -31.7229
   -31.7213 -31.7037 -31.7013 -31.6907 -31.6875 -31.6282 -31.6237 -31.6219
   -31.6200 -31.6175 -31.0099 -31.0098 -30.9349 -30.9348 -30.8952 -30.8951
   -16.1372 -16.0174 -15.9399 -15.8884 -15.8103 -15.7729 -15.6810 -15.6606
   -15.5632 -15.5411 -15.5164 -15.5124 -15.4509 -15.4138 -15.3047 -15.2952
   -15.2713 -15.2245 -15.1875 -15.1658 -15.1520 -15.1427 -15.0907 -15.0830
   -15.0298 -15.0169 -15.0165 -14.9546 -14.9525 -14.8620 -13.1942 -13.1942
    -6.0347  -5.9596  -3.2267  -3.2021  -3.1317  -3.1179  -3.0965  -3.0831
    -3.0765  -3.0622  -2.9968  -2.9787  -2.9735  -2.8563  -2.8548  -2.8165
    -2.8082  -2.7895  -2.7232  -2.6721  -2.6689  -2.6275  -2.5879  -2.5770
    -2.5578  -2.5385  -2.5065  -2.3711  -2.3643  -2.3634  -2.3093  -2.2925
    -2.1666  -2.1174  -2.0420  -2.0161  -1.8299  -1.7848  -1.7450  -1.5888
    -1.5564  -1.5091  -1.4998  -1.4293  -1.2166  -1.1802  -1.1678  -1.1461
    -1.1257  -1.1241  -1.0775  -1.0666  -1.0617  -0.9977  -0.8793  -0.8497
    -0.8358  -0.7156  -0.7139  -0.5116  -0.4952  -0.4061  -0.4022  -0.3734
    -0.3150  -0.3109  -0.2957  -0.2563  -0.2301  -0.1952  -0.1926  -0.1753
    -0.0708  -0.0559  -0.0239  -0.0087   0.0071   0.0259   0.0782   0.0800
     0.0838   0.1415   0.1531   0.1752   0.4570   0.5039   0.5053   0.5204
     0.6850   0.7356   0.8893   0.9136   1.6346   1.6359   1.7873   1.7878
     3.7082   3.7187   3.7294   3.7489   3.8074   3.8805   3.9085   3.9095
     4.0096   4.0185   4.0267

          k = 0.0380 0.0000 0.0000 ( 17913 PWs)   bands (ev):

   -55.6680 -55.6319 -55.6253 -55.5912 -55.5770 -55.5500 -55.5402 -55.5025
   -55.4970 -55.4944 -55.4603 -55.4597 -55.4499 -55.4158 -54.7104 -54.6763
   -32.2375 -32.1726 -32.1247 -32.0319 -31.9849 -31.9735 -31.9724 -31.9624
   -31.9157 -31.9115 -31.8734 -31.8719 -31.8704 -31.8576 -31.8426 -31.8211
   -31.8120 -31.8047 -31.7966 -31.7962 -31.7745 -31.7553 -31.7519 -31.7477
   -31.7442 -31.7370 -31.7329 -31.7201 -31.6914 -31.6810 -31.6688 -31.6536
   -31.6499 -31.6474 -31.6417 -31.6329 -31.6292 -31.5993 -31.5927 -31.5837
   -31.5831 -31.5643 -31.1216 -31.0249 -30.9974 -30.9382 -30.8518 -30.7407
   -16.4265 -16.1824 -16.1259 -15.9683 -15.8623 -15.7986 -15.7511 -15.7213
   -15.6306 -15.5224 -15.4521 -15.4297 -15.4122 -15.3828 -15.3698 -15.3273
   -15.3259 -15.2960 -15.1918 -15.1761 -15.1545 -15.1057 -15.0601 -15.0120
   -14.9704 -14.9230 -14.8907 -14.8892 -14.8585 -14.5066 -13.2084 -13.0924
    -6.0418  -6.0009  -3.7209  -3.5900  -3.4431  -3.3878  -3.3167  -3.2885
    -3.2463  -3.1985  -3.1412  -3.0887  -2.9977  -2.9667  -2.8631  -2.7811
    -2.7326  -2.6442  -2.6110  -2.5289  -2.4404  -2.4170  -2.3986  -2.3495
    -2.3426  -2.2959  -2.2625  -2.2532  -2.1552  -2.0890  -2.0521  -2.0315
    -2.0051  -1.9421  -1.9311  -1.8624  -1.8362  -1.8141  -1.7490  -1.7372
    -1.6605  -1.6104  -1.5312  -1.4980  -1.4655  -1.4082  -1.3424  -1.2823
    -1.1845  -1.1799  -1.1550  -1.1121  -1.1009  -1.0315  -1.0014  -0.9972
    -0.7779  -0.7197  -0.6331  -0.6134  -0.5742  -0.5523  -0.5301  -0.5151
    -0.3645  -0.3404  -0.2964  -0.2854  -0.2529  -0.1856  -0.1518  -0.0938
    -0.0325  -0.0182  -0.0047   0.0514   0.0715   0.1150   0.1459   0.1932
     0.2523   0.3096   0.3279   0.3564   0.3771   0.4745   0.5136   0.6371
     0.7601   0.9527   1.1439   1.2141   1.3267   1.4458   1.7827   1.8660
     3.4486   3.5232   3.6718   3.7461   3.7595   3.8133   3.8653   3.8788
     3.9124   3.9383   3.9626

          k = 0.0380 0.0419 0.0000 ( 17878 PWs)   bands (ev):

   -55.6628 -55.6371 -55.6203 -55.5962 -55.5749 -55.5484 -55.5357 -55.5070
   -55.4991 -55.4894 -55.4653 -55.4613 -55.4449 -55.4208 -54.7053 -54.6813
   -32.1801 -32.1353 -32.0706 -31.9784 -31.9733 -31.9253 -31.9213 -31.9195
   -31.9169 -31.9107 -31.8973 -31.8650 -31.8594 -31.8578 -31.8495 -31.8438
   -31.8204 -31.8030 -31.8016 -31.7976 -31.7908 -31.7609 -31.7567 -31.7451
   -31.7411 -31.7339 -31.7296 -31.7236 -31.6972 -31.6957 -31.6949 -31.6789
   -31.6684 -31.6583 -31.6468 -31.6444 -31.6375 -31.6353 -31.6302 -31.6301
   -31.6177 -31.5938 -31.0676 -31.0207 -31.0014 -30.9256 -30.8645 -30.7980
   -16.3062 -16.0923 -16.0285 -15.9299 -15.8145 -15.7248 -15.6947 -15.6561
   -15.5851 -15.5606 -15.4965 -15.4434 -15.3930 -15.3540 -15.3414 -15.3263
   -15.3071 -15.2672 -15.2539 -15.1886 -15.1745 -15.1528 -15.0914 -15.0714
   -15.0232 -15.0073 -14.9573 -14.9411 -14.9103 -14.6337 -13.2122 -13.1318
    -6.0392  -5.9787  -3.5454  -3.4289  -3.2757  -3.2267  -3.1484  -3.1293
    -3.0603  -3.0359  -3.0048  -2.9222  -2.8604  -2.7973  -2.7566  -2.7175
    -2.7107  -2.6799  -2.6254  -2.5945  -2.5580  -2.5102  -2.4951  -2.4807
    -2.4644  -2.3929  -2.3531  -2.3459  -2.2992  -2.2843  -2.2210  -2.1991
    -2.1181  -2.0956  -2.0601  -1.9819  -1.8912  -1.7461  -1.7078  -1.6850
    -1.6753  -1.5288  -1.4841  -1.4114  -1.3768  -1.3144  -1.2551  -1.1592
    -1.1291  -1.0999  -1.0789  -1.0402  -1.0267  -0.9516  -0.9255  -0.8565
    -0.8095  -0.7882  -0.7549  -0.6624  -0.6184  -0.5868  -0.5640  -0.4890
    -0.4418  -0.4215  -0.3779  -0.3752  -0.3286  -0.3062  -0.2900  -0.2467
    -0.2033  -0.1263  -0.1134  -0.0622  -0.0412   0.0570   0.0854   0.1474
     0.2214   0.3080   0.3364   0.4090   0.4649   0.4724   0.5712   0.6302
     0.7008   0.7514   0.8660   1.1057   1.5082   1.5708   1.7729   1.8407
     3.6090   3.6353   3.6527   3.7748   3.7988   3.8450   3.8708   3.9374
     3.9767   3.9971   4.0287

          k = 0.0380-0.0839 0.0000 ( 17916 PWs)   bands (ev):

   -55.6518 -55.6482 -55.6088 -55.6078 -55.5727 -55.5468 -55.5291 -55.5136
   -55.5014 -55.4784 -55.4764 -55.4629 -55.4342 -55.4315 -54.6934 -54.6933
   -32.0916 -32.0416 -32.0385 -31.9553 -31.9383 -31.9373 -31.9269 -31.9017
   -31.9007 -31.8690 -31.8631 -31.8597 -31.8571 -31.8386 -31.8274 -31.8141
   -31.8082 -31.8058 -31.7935 -31.7926 -31.7920 -31.7885 -31.7881 -31.7442
   -31.7427 -31.7422 -31.7353 -31.7325 -31.7310 -31.7282 -31.7277 -31.7127
   -31.7042 -31.7030 -31.7021 -31.6959 -31.6924 -31.6357 -31.6351 -31.6332
   -31.6201 -31.6175 -31.0110 -31.0110 -30.9348 -30.9347 -30.8952 -30.8951
   -16.1031 -15.9777 -15.9265 -15.8629 -15.7673 -15.7596 -15.6263 -15.6208
   -15.5414 -15.5397 -15.5279 -15.4992 -15.4120 -15.3752 -15.3323 -15.3173
   -15.2661 -15.2505 -15.2455 -15.2157 -15.1483 -15.1458 -15.1392 -15.1276
   -15.0563 -15.0544 -15.0206 -15.0155 -15.0041 -14.8507 -13.1940 -13.1940
    -6.0374  -5.9582  -3.1932  -3.1558  -3.1224  -2.9476  -2.9407  -2.9200
    -2.8790  -2.8715  -2.8537  -2.8329  -2.7824  -2.7789  -2.7687  -2.7502
    -2.7101  -2.7056  -2.6696  -2.6538  -2.6153  -2.5735  -2.5707  -2.5431
    -2.5334  -2.4884  -2.4772  -2.4534  -2.3697  -2.3645  -2.3115  -2.2401
    -2.1386  -2.1155  -1.9339  -1.8835  -1.7867  -1.7757  -1.6847  -1.6558
    -1.6398  -1.6037  -1.5227  -1.4631  -1.4533  -1.4303  -1.3419  -1.3348
    -1.3233  -1.2729  -1.1646  -1.0780  -1.0501  -1.0130  -0.9988  -0.9418
    -0.8782  -0.7491  -0.7219  -0.6978  -0.6422  -0.6031  -0.5411  -0.4877
    -0.4743  -0.4704  -0.4574  -0.3637  -0.3217  -0.3065  -0.2861  -0.2474
    -0.2232  -0.1709  -0.1393  -0.1299   0.0305   0.0588   0.0615   0.1061
     0.2224   0.2485   0.3648   0.3668   0.4193   0.4576   0.5437   0.5529
     0.6552   0.6777   0.8766   0.8987   1.6486   1.6498   1.7794   1.7802
     3.6125   3.6705   3.7223   3.7557   3.8205   3.8794   3.8934   3.9175
     4.0212   4.0444   4.0839

          k = 0.0380-0.0419 0.0000 ( 17876 PWs)   bands (ev):

   -55.6628 -55.6371 -55.6203 -55.5962 -55.5749 -55.5484 -55.5357 -55.5070
   -55.4991 -55.4894 -55.4653 -55.4613 -55.4449 -55.4208 -54.7053 -54.6813
   -32.1801 -32.1353 -32.0706 -31.9784 -31.9733 -31.9253 -31.9213 -31.9195
   -31.9169 -31.9107 -31.8973 -31.8650 -31.8594 -31.8578 -31.8495 -31.8438
   -31.8205 -31.8030 -31.8016 -31.7976 -31.7908 -31.7609 -31.7567 -31.7450
   -31.7411 -31.7339 -31.7296 -31.7235 -31.6972 -31.6957 -31.6949 -31.6789
   -31.6683 -31.6584 -31.6468 -31.6444 -31.6373 -31.6352 -31.6303 -31.6302
   -31.6178 -31.5938 -31.0676 -31.0207 -31.0014 -30.9256 -30.8645 -30.7980
   -16.3062 -16.0923 -16.0284 -15.9300 -15.8143 -15.7247 -15.6947 -15.6559
   -15.5852 -15.5605 -15.4966 -15.4430 -15.3934 -15.3542 -15.3415 -15.3264
   -15.3070 -15.2671 -15.2543 -15.1886 -15.1742 -15.1528 -15.0914 -15.0716
   -15.0232 -15.0067 -14.9570 -14.9415 -14.9107 -14.6337 -13.2122 -13.1318
    -6.0397  -5.9782  -3.5455  -3.4290  -3.2757  -3.2268  -3.1478  -3.1288
    -3.0604  -3.0358  -3.0048  -2.9222  -2.8605  -2.7973  -2.7567  -2.7173
    -2.7106  -2.6799  -2.6255  -2.5945  -2.5584  -2.5105  -2.4953  -2.4808
    -2.4645  -2.3934  -2.3529  -2.3458  -2.2991  -2.2841  -2.2216  -2.2000
    -2.1184  -2.0954  -2.0596  -1.9816  -1.8912  -1.7458  -1.7071  -1.6845
    -1.6736  -1.5290  -1.4843  -1.4110  -1.3767  -1.3140  -1.2553  -1.1587
    -1.1288  -1.0998  -1.0795  -1.0414  -1.0275  -0.9520  -0.9255  -0.8564
    -0.8100  -0.7880  -0.7554  -0.6624  -0.6185  -0.5868  -0.5643  -0.4892
    -0.4414  -0.4223  -0.3786  -0.3757  -0.3287  -0.3065  -0.2906  -0.2463
    -0.2034  -0.1263  -0.1133  -0.0623  -0.0409   0.0572   0.0852   0.1480
     0.2219   0.3081   0.3363   0.4092   0.4648   0.4724   0.5714   0.6306
     0.7007   0.7520   0.8660   1.1060   1.5082   1.5708   1.7727   1.8414
     3.6087   3.6352   3.6528   3.7749   3.7989   3.8450   3.8707   3.9373
     3.9771   3.9975   4.0281

          k =-0.0760-0.0000 0.0000 ( 17886 PWs)   bands (ev):

   -55.6679 -55.6319 -55.6253 -55.5912 -55.5768 -55.5501 -55.5402 -55.5025
   -55.4970 -55.4942 -55.4603 -55.4597 -55.4499 -55.4158 -54.7103 -54.6763
   -32.2377 -32.1729 -32.1257 -32.0372 -31.9847 -31.9775 -31.9763 -31.9626
   -31.9156 -31.9115 -31.8729 -31.8726 -31.8704 -31.8425 -31.8334 -31.8211
   -31.8119 -31.7960 -31.7909 -31.7711 -31.7700 -31.7614 -31.7580 -31.7519
   -31.7480 -31.7442 -31.7216 -31.7200 -31.6945 -31.6823 -31.6814 -31.6687
   -31.6536 -31.6443 -31.6418 -31.6324 -31.6312 -31.5981 -31.5917 -31.5842
   -31.5836 -31.5653 -31.1212 -31.0286 -30.9960 -30.9381 -30.8517 -30.7408
   -16.2875 -16.2142 -16.0513 -15.9024 -15.8809 -15.7531 -15.7157 -15.7028
   -15.5918 -15.5307 -15.5074 -15.5056 -15.4763 -15.4529 -15.4312 -15.4084
   -15.3849 -15.2799 -15.1721 -15.1643 -15.1388 -15.0999 -15.0784 -15.0600
   -14.9656 -14.9639 -14.9296 -14.8328 -14.8035 -14.5056 -13.2052 -13.0921
    -6.0488  -6.0011  -3.6893  -3.5686  -3.3065  -3.2245  -3.2031  -3.1563
    -3.1458  -3.1362  -3.0919  -3.0538  -2.9574  -2.9562  -2.9364  -2.7882
    -2.6068  -2.6045  -2.5820  -2.4157  -2.3768  -2.2926  -2.2759  -2.2722
    -2.2583  -2.2482  -2.1929  -2.1801  -2.1112  -2.0661  -2.0643  -2.0291
    -2.0237  -2.0070  -1.9918  -1.9577  -1.9005  -1.8166  -1.7855  -1.7569
    -1.6693  -1.4900  -1.4846  -1.3980  -1.3905  -1.3674  -1.3301  -1.2988
    -1.2699  -1.2515  -1.1982  -1.1612  -1.1381  -1.1063  -1.0132  -0.9565
    -0.9406  -0.9027  -0.9024  -0.6584  -0.6261  -0.6101  -0.5758  -0.5384
    -0.4540  -0.4063  -0.3924  -0.3155  -0.2842  -0.2250  -0.1811  -0.1738
    -0.1722  -0.0875  -0.0532  -0.0162   0.0232   0.0443   0.1121   0.1126
     0.1486   0.1774   0.2985   0.3135   0.3347   0.4918   0.5947   0.5977
     0.8021   0.8750   0.9646   1.2197   1.3486   1.4197   1.6486   1.8094
     3.4492   3.4877   3.5790   3.7184   3.7453   3.7835   3.8604   3.9115
     3.9157   3.9547   4.0015

          k =-0.0760 0.0419 0.0000 ( 17914 PWs)   bands (ev):

   -55.6627 -55.6371 -55.6203 -55.5962 -55.5748 -55.5485 -55.5358 -55.5070
   -55.4991 -55.4893 -55.4653 -55.4613 -55.4450 -55.4208 -54.7053 -54.6813
   -32.1805 -32.1355 -32.0717 -31.9847 -31.9734 -31.9294 -31.9245 -31.9207
   -31.9179 -31.9108 -31.8974 -31.8652 -31.8592 -31.8581 -31.8440 -31.8326
   -31.8205 -31.8019 -31.7938 -31.7907 -31.7698 -31.7584 -31.7568 -31.7510
   -31.7487 -31.7438 -31.7236 -31.7098 -31.6973 -31.6964 -31.6947 -31.6891
   -31.6818 -31.6482 -31.6480 -31.6454 -31.6447 -31.6371 -31.6355 -31.6347
   -31.6189 -31.5939 -31.0673 -31.0239 -31.0007 -30.9256 -30.8645 -30.7981
   -16.1705 -16.1431 -15.9605 -15.8976 -15.7916 -15.6978 -15.6539 -15.6274
   -15.5811 -15.5136 -15.4765 -15.4648 -15.4483 -15.4278 -15.4067 -15.3977
   -15.3654 -15.2807 -15.2359 -15.2095 -15.1809 -15.1383 -15.1134 -15.0868
   -15.0273 -15.0139 -15.0124 -14.9403 -14.9013 -14.6330 -13.2100 -13.1322
    -6.0443  -5.9779  -3.5238  -3.4115  -3.0894  -3.0589  -3.0297  -2.9533
    -2.9395  -2.8831  -2.8800  -2.8553  -2.7946  -2.7717  -2.7366  -2.6873
    -2.6613  -2.6526  -2.6514  -2.5607  -2.5579  -2.4827  -2.4563  -2.4022
    -2.3693  -2.3582  -2.2622  -2.2515  -2.2424  -2.2092  -2.1766  -2.1531
    -2.1523  -2.1489  -1.9084  -1.8784  -1.8664  -1.8445  -1.7847  -1.6806
    -1.6453  -1.4739  -1.4549  -1.4356  -1.3606  -1.3559  -1.2577  -1.2471
    -1.2204  -1.1735  -1.1279  -1.0739  -1.0691  -1.0437  -0.9919  -0.9458
    -0.9379  -0.9265  -0.9099  -0.8732  -0.8452  -0.7657  -0.7589  -0.6535
    -0.6288  -0.5746  -0.5028  -0.4528  -0.4489  -0.4220  -0.3749  -0.3464
    -0.2394  -0.1946  -0.1324  -0.1078   0.0146   0.0591   0.0724   0.1070
     0.2160   0.2822   0.3229   0.4471   0.5538   0.5644   0.6113   0.6852
     0.7244   0.7807   0.8217   0.9507   1.5224   1.5730   1.6951   1.8291
     3.6131   3.6335   3.6499   3.6554   3.7415   3.8033   3.8040   3.8938
     3.9458   4.0385   4.0558

          k =-0.0760-0.0839 0.0000 ( 17948 PWs)   bands (ev):

   -55.6518 -55.6482 -55.6088 -55.6078 -55.5726 -55.5469 -55.5292 -55.5137
   -55.5014 -55.4784 -55.4763 -55.4630 -55.4343 -55.4316 -54.6934 -54.6933
   -32.0918 -32.0419 -32.0388 -31.9554 -31.9391 -31.9381 -31.9271 -31.9018
   -31.9008 -31.8712 -31.8692 -31.8644 -31.8609 -31.8389 -31.8273 -31.8183
   -31.7950 -31.7945 -31.7940 -31.7911 -31.7888 -31.7862 -31.7842 -31.7453
   -31.7437 -31.7422 -31.7355 -31.7311 -31.7267 -31.7264 -31.7261 -31.7246
   -31.7059 -31.7031 -31.6909 -31.6764 -31.6749 -31.6575 -31.6547 -31.6456
   -31.6201 -31.6175 -31.0121 -31.0121 -30.9348 -30.9347 -30.8952 -30.8951
   -16.0624 -15.9344 -15.9117 -15.8581 -15.6952 -15.6821 -15.6519 -15.6330
   -15.4917 -15.4751 -15.4590 -15.4524 -15.4086 -15.3991 -15.3929 -15.3813
   -15.2618 -15.2576 -15.2473 -15.2439 -15.1756 -15.1725 -15.1693 -15.1526
   -15.1270 -15.1142 -15.0782 -15.0738 -14.9984 -14.8421 -13.1938 -13.1938
    -6.0401  -5.9569  -3.1874  -3.1469  -3.1221  -2.9040  -2.8701  -2.8417
    -2.8293  -2.7465  -2.6859  -2.6810  -2.6674  -2.6290  -2.5747  -2.5592
    -2.5533  -2.5189  -2.5074  -2.4928  -2.4598  -2.4458  -2.3903  -2.3609
    -2.3481  -2.3466  -2.3343  -2.3274  -2.3121  -2.2935  -2.2718  -2.2658
    -2.1483  -2.0441  -1.9977  -1.9893  -1.8867  -1.8842  -1.8827  -1.7955
    -1.7751  -1.7225  -1.7175  -1.6965  -1.4818  -1.4658  -1.4462  -1.4423
    -1.4179  -1.3397  -1.2616  -1.2339  -1.2179  -1.1636  -1.0501  -1.0179
    -0.9969  -0.9267  -0.8799  -0.8654  -0.8153  -0.6813  -0.6693  -0.6641
    -0.6497  -0.6445  -0.5868  -0.5813  -0.5002  -0.4537  -0.4021  -0.3898
    -0.3695  -0.1771  -0.1434  -0.0775   0.0196   0.0263   0.2009   0.2465
     0.2528   0.3561   0.3792   0.4167   0.4722   0.5939   0.6073   0.6436
     0.7195   0.7758   0.7767   0.7788   1.6664   1.6678   1.7677   1.7678
     3.5777   3.6670   3.6841   3.7471   3.8402   3.9435   3.9450   3.9597
     3.9893   3.9908   4.0948

     the Fermi energy is     3.4909 ev

!    total energy              =   -2907.69374134 Ry
     estimated scf accuracy    <       0.00000005 Ry
     smearing contrib. (-TS)   =      -0.03696761 Ry
     internal energy E=F+TS    =   -2907.65677373 Ry

     The total energy is F=E-TS. E is the sum of the following terms:
     one-electron contribution =  -24675.97064588 Ry
     hartree contribution      =   12422.80745167 Ry
     xc contribution           =    -476.54950188 Ry
     ewald contribution        =    9822.05298756 Ry
     electric field correction =       0.00293480 Ry

     convergence has been achieved in  65 iterations

     Forces acting on atoms (cartesian axes, Ry/au):

     atom    1 type  1   force =     0.00000651    0.00004566    0.09122282
     atom    2 type  1   force =    -0.00012430    0.00034815   -0.18249659
     atom    3 type  2   force =     0.00003555   -0.00041126   -0.02466433
     atom    4 type  2   force =     0.00001317    0.00000999    0.05207331
     atom    5 type  2   force =    -0.01337937   -0.00057329    0.00485662
     atom    6 type  2   force =     0.01362608   -0.00009580    0.00501489
     atom    7 type  1   force =    -0.00000347   -0.00033356   -0.00326703
     atom    8 type  1   force =    -0.00006831    0.00367023    0.00359398
     atom    9 type  2   force =     0.00000893    0.00016001   -0.00016162
     atom   10 type  2   force =     0.00003619    0.00004899   -0.00037947
     atom   11 type  2   force =    -0.00002292    0.00019976    0.00018034
     atom   12 type  2   force =     0.00007179    0.00015307    0.00014283
     atom   13 type  1   force =     0.00012349    0.00055173   -0.00019817
     atom   14 type  1   force =     0.00010380   -0.00018199   -0.00076081
     atom   15 type  2   force =     0.00011028    0.00025205   -0.00014274
     atom   16 type  2   force =    -0.00003998    0.00006990    0.00025890
     atom   17 type  2   force =     0.00065166    0.00016362    0.00009744
     atom   18 type  2   force =    -0.00065933    0.00025137    0.00018349
     atom   19 type  1   force =     0.00024876    0.00034271    0.00036147
     atom   20 type  1   force =    -0.00004507   -0.00211303   -0.00066396
     atom   21 type  2   force =     0.00001330    0.00011716    0.10480537
     atom   22 type  2   force =     0.00010347    0.00104635    0.00136085
     atom   23 type  2   force =    -0.06843891   -0.00023309   -0.02641844
     atom   24 type  2   force =     0.06828352    0.00019813   -0.02647514
     atom   25 type  1   force =     0.00006950    0.00000844    0.09094840
     atom   26 type  1   force =    -0.00009066   -0.00044126   -0.18243878
     atom   27 type  2   force =     0.00002676    0.00005393   -0.02328343
     atom   28 type  2   force =     0.00000633    0.00001540    0.05196644
     atom   29 type  2   force =    -0.01321502   -0.00010521    0.00519152
     atom   30 type  2   force =     0.01345303    0.00041306    0.00534053
     atom   31 type  1   force =     0.00004239    0.00024646   -0.00294452
     atom   32 type  1   force =    -0.00008550   -0.00358840    0.00348323
     atom   33 type  2   force =     0.00001563   -0.00019638    0.00022846
     atom   34 type  2   force =     0.00001714   -0.00006998   -0.00064344
     atom   35 type  2   force =    -0.00008368   -0.00028893   -0.00002136
     atom   36 type  2   force =     0.00012341   -0.00024324   -0.00004751
     atom   37 type  1   force =     0.00008731   -0.00063717    0.00078503
     atom   38 type  1   force =     0.00009534    0.00018008   -0.00070910
     atom   39 type  2   force =     0.00007187   -0.00013475    0.00018844
     atom   40 type  2   force =     0.00008975   -0.00011262    0.00066599
     atom   41 type  2   force =     0.00031267   -0.00015326    0.00012812
     atom   42 type  2   force =    -0.00028205   -0.00025478    0.00031386
     atom   43 type  1   force =     0.00008450   -0.00046322    0.00000468
     atom   44 type  1   force =    -0.00011191    0.00010023    0.00057342
     atom   45 type  2   force =     0.00001351    0.00009356    0.10478430
     atom   46 type  2   force =    -0.06841940   -0.00016864   -0.02640276
     atom   47 type  2   force =     0.06827473    0.00026974   -0.02645008
     atom   48 type  3   force =     0.00057251   -0.02154436   -0.00132130
     atom   49 type  4   force =    -0.00032765    0.01273324   -0.00580237
     atom   50 type  4   force =     0.00432435    0.00504816    0.00286887
     atom   51 type  4   force =    -0.00571972    0.00555307    0.00406939

     Total force =     0.367286     Total SCF correction =     0.000430
  @ DRIVER MODE: Message from server: STATUS
  @ DRIVER MODE: Message from server: GETFORCE
  @ DRIVER MODE: Returning v,forces,stress,ensemble 

     Writing output data file ./calc.save/
  @ DRIVER MODE: Message from server: EXIT
  @ DRIVE MODE: Exiting  
 
     init_run     :     13.12s CPU     13.43s WALL (       1 calls)
     electrons    :   1190.85s CPU   1217.18s WALL (       1 calls)
     forces       :      2.63s CPU      2.77s WALL (       1 calls)

     Called by init_run:
     wfcinit      :      5.63s CPU      5.73s WALL (       1 calls)
     potinit      :      6.82s CPU      6.90s WALL (       1 calls)
     hinit0       :      0.29s CPU      0.31s WALL (       1 calls)

     Called by electrons:
     c_bands      :   1004.02s CPU   1017.91s WALL (      65 calls)
     sum_band     :    125.92s CPU    131.71s WALL (      65 calls)
     v_of_rho     :     47.92s CPU     49.80s WALL (      66 calls)
     newd         :     17.08s CPU     21.70s WALL (      66 calls)
     mix_rho      :      1.75s CPU      1.86s WALL (      65 calls)
     vdW_kernel   :      5.84s CPU      5.86s WALL (       1 calls)

     Called by c_bands:
     init_us_2    :      7.41s CPU      7.46s WALL (    1320 calls)
     cegterg      :    982.78s CPU    996.11s WALL (     650 calls)

     Called by *egterg:
     cdiaghg      :    155.50s CPU    156.31s WALL (    6169 calls)
     h_psi        :    539.57s CPU    547.80s WALL (    6179 calls)
     s_psi        :     69.06s CPU     69.26s WALL (    6179 calls)
     g_psi        :      1.97s CPU      1.98s WALL (    5519 calls)

     Called by h_psi:
     h_psi:calbec :     65.47s CPU     66.62s WALL (    6179 calls)
     vloc_psi     :    401.05s CPU    404.65s WALL (    6179 calls)
     add_vuspsi   :     70.01s CPU     71.38s WALL (    6179 calls)

     General routines
     calbec       :     87.30s CPU     88.51s WALL (    6869 calls)
     fft          :     24.47s CPU     24.60s WALL (    4158 calls)
     ffts         :      0.17s CPU      0.17s WALL (     131 calls)
     fftw         :    450.97s CPU    454.96s WALL (  839748 calls)
     interpolate  :      0.51s CPU      0.52s WALL (      66 calls)
     davcio       :      0.00s CPU      0.08s WALL (      10 calls)
 
     Parallel routines
 
     PWSCF        :  20m 6.92s CPU  20m34.86s WALL

 
   This run was terminated on:  10:24:29  12Oct2021            

=------------------------------------------------------------------------------=
   JOB DONE.
=------------------------------------------------------------------------------=
