
     Program PWSCF v.6.7GPU starts on 18Oct2021 at 22:39:33 

     This program is part of the open-source Quantum ESPRESSO suite
     for quantum simulation of materials; please cite
         "P. Giannozzi et al., J. Phys.:Condens. Matter 21 395502 (2009);
         "P. Giannozzi et al., J. Phys.:Condens. Matter 29 465901 (2017);
         "P. Giannozzi et al., J. Chem. Phys. 152 154105 (2020);
          URL http://www.quantum-espresso.org", 
     in publications or presentations arising from this work. More details at
     http://www.quantum-espresso.org/quote

     Parallel version (MPI), running on     8 processors

     MPI processes distributed on     1 nodes
     R & G space division:  proc/nbgrp/npool/nimage =       8
     Reading input from /storage/home/hcoda1/3/ntian30/research/carbon/CxH_vib/Thiel_calc/ads_slab/NH3_perslab/out_0023/pw.inp
Warning: card &CELL ignored
Warning: card   CELL_DYNAMICS='IPI', ignored
Warning: card / ignored

     Current dimensions of program PWSCF are:
     Max number of different atomic species (ntypx) = 10
     Max number of k-points (npk) =  40000
     Max angular momentum in pseudopotentials (lmaxx) =  3
     Presently no symmetry can be used with electric field

     Message from routine cell_base_init:
     DEPRECATED: use true lattice parameter, not A to a.u. conversion factor

     **************************************************************************
     Initializing libbeef V0.1.2 with the BEEF-vdW functional.
     Citation: Wellendorff et al., PRB 85, 235149 (2012).
     **************************************************************************


     IMPORTANT: XC functional enforced from input :
     Exchange-correlation= BEEF-VDW
                           (   1   4  43  14   2   0   0)
     Any further DFT definition will be discarded
     Please, verify this is what you really want


     Subspace diagonalization in iterative solution of the eigenvalue problem:
     one sub-group per band group will be used
     scalapack distributed-memory algorithm (size of sub-group:  2*  2 procs)

  @ DRIVER MODE: Connecting to 
 qe_1139763_3255128.sched-torque.pace.gatech.eduvqla09pn_scratch
  using UNIX socket
  @ DRIVER MODE: Message from server: STATUS
  @ DRIVER MODE: Message from server: INIT
  @ DRIVER MODE: Receiving replica           0          -1
  @ DRIVER MODE: Receiving encoded integer          25
  @ DRIVER MODE:  SCF:  T  FORCE:  T  STRESS:  F  VC:  F  ENSEMBLE:  F
  @ DRIVER MODE:  SCF:  T  FORCE:  T  STRESS:  F  VC:  F  ENSEMBLE:  F
 
     Parallelization info
     --------------------
     sticks:   dense  smooth     PW     G-vecs:    dense   smooth      PW
     Min         614     246     69               106272    26887    3981
     Max         615     248     70               106275    26893    3990
     Sum        4915    1977    553               850181   215109   31863
 
     Using Slab Decomposition
 


     bravais-lattice index     =            0
     lattice parameter (alat)  =       1.8897  a.u.
     unit-cell volume          =    9988.4706 (a.u.)^3
     number of atoms/cell      =           57
     number of atomic types    =            4
     number of electrons       =       434.00
     number of Kohn-Sham states=          227
     kinetic-energy cutoff     =      29.3995  Ry
     charge density cutoff     =     293.9946  Ry
     scf convergence threshold =      7.3E-08
     mixing beta               =       0.0500
     number of iterations used =            8  plain     mixing
     Exchange-correlation= BEEF-VDW
                           (   1   4  43  14   2   0   0)

     celldm(1)=   1.889726  celldm(2)=   0.000000  celldm(3)=   0.000000
     celldm(4)=   0.000000  celldm(5)=   0.000000  celldm(6)=   0.000000

     crystal axes: (cart. coord. in units of alat)
               a(1) = (   6.579727   0.000000   0.000000 )  
               a(2) = (  -0.001163   8.942395   0.000000 )  
               a(3) = (   0.000000   0.000000  25.155947 )  

     reciprocal axes: (cart. coord. in units 2 pi/alat)
               b(1) = (  0.151982  0.000020  0.000000 )  
               b(2) = (  0.000000  0.111827  0.000000 )  
               b(3) = (  0.000000  0.000000  0.039752 )  


     PseudoPot. # 1 for O  read from file:
     /storage/coda1/p-amedford6/0/shared/rich_project_chbe-medford/medford-share/data/pseudos_module/espresso/nninc/pbe/van/O.UPF
     MD5 check sum: 78c19812648e8988a0fe644b0f25305e
     Pseudo is Ultrasoft, Zval =  6.0
     Generated by new atomic code, or converted to UPF format
     Using radial grid of  737 points,  4 beta functions with: 
                l(1) =   0
                l(2) =   0
                l(3) =   1
                l(4) =   1
     Q(r) pseudized with  8 coefficients,  rinner =    0.800   0.800   0.800


     PseudoPot. # 2 for Ti read from file:
     /storage/coda1/p-amedford6/0/shared/rich_project_chbe-medford/medford-share/data/pseudos_module/espresso/nninc/pbe/van/Ti.UPF
     MD5 check sum: 8e4df49b7f0d34bbd5052bf3f5ea0213
     Pseudo is Ultrasoft, Zval = 12.0
     Generated by new atomic code, or converted to UPF format
     Using radial grid of  851 points,  6 beta functions with: 
                l(1) =   0
                l(2) =   0
                l(3) =   1
                l(4) =   1
                l(5) =   2
                l(6) =   2
     Q(r) pseudized with  8 coefficients,  rinner =    1.000   1.000   1.000
                                                       1.000   1.000

     PseudoPot. # 3 for N  read from file:
     /storage/coda1/p-amedford6/0/shared/rich_project_chbe-medford/medford-share/data/pseudos_module/espresso/nninc/pbe/van/N.UPF
     MD5 check sum: 90d10febe142ad51ac9d5be1deb811c4
     Pseudo is Ultrasoft, Zval =  5.0
     Generated by new atomic code, or converted to UPF format
     Using radial grid of  729 points,  4 beta functions with: 
                l(1) =   0
                l(2) =   0
                l(3) =   1
                l(4) =   1
     Q(r) pseudized with  8 coefficients,  rinner =    0.800   0.800   0.800


     PseudoPot. # 4 for H  read from file:
     /storage/coda1/p-amedford6/0/shared/rich_project_chbe-medford/medford-share/data/pseudos_module/espresso/nninc/pbe/van/H.UPF
     MD5 check sum: b5ee9d7bfd3a09ee7748110bda690ff7
     Pseudo is Ultrasoft, Zval =  1.0
     Generated by new atomic code, or converted to UPF format
     Using radial grid of  615 points,  1 beta functions with: 
                l(1) =   0
     Q(r) pseudized with  8 coefficients,  rinner =    0.800

     atomic species   valence    mass     pseudopotential
        O1             6.00    15.99900     O ( 1.00)
        Ti1           12.00    47.86700     Ti( 1.00)
        N1             5.00    14.00700     N ( 1.00)
        H1             1.00     1.00800     H ( 1.00)

     No symmetry found



   Cartesian axes

     site n.     atom                  positions (alat units)
         1           O1  tau(   1) = (   0.0007354   0.0005023  10.5931620  )
         2           O1  tau(   2) = (   3.2904414   0.0112058  13.8964882  )
         3           O1  tau(   3) = (   0.0005401   0.0771385  17.1949530  )
         4           O1  tau(   4) = (   0.0006271   0.0005054   7.9858123  )
         5           O1  tau(   5) = (   3.2895838   8.9314717  11.1944372  )
         6           O1  tau(   6) = (   0.0004542   0.0037726  14.5839567  )
         7           O1  tau(   7) = (   1.9868534   1.4903216   9.2879459  )
         8           O1  tau(   8) = (   5.2378633   1.6121790  12.5812404  )
         9           O1  tau(   9) = (   2.0187564   1.5175485  16.0920123  )
        10           Ti1 tau(  10) = (   0.0007404   1.4906270   9.2895810  )
        11           Ti1 tau(  11) = (   3.2908292   1.3533612  12.4825321  )
        12           Ti1 tau(  12) = (   6.5791587   1.3318727  15.7218970  )
        13           O1  tau(  13) = (   4.5942328   1.4918067   9.2879030  )
        14           O1  tau(  14) = (   1.3429762   1.6114357  12.5808800  )
        15           O1  tau(  15) = (   4.5614660   1.5177748  16.0924020  )
        16           Ti1 tau(  16) = (   3.2902859   2.9801868   9.2893338  )
        17           Ti1 tau(  17) = (   0.0008758   2.8334547  12.4616519  )
        18           Ti1 tau(  18) = (   3.2892168   3.0031368  15.7199352  )
        19           O1  tau(  19) = (   0.0003479   2.9813005  10.5931620  )
        20           O1  tau(  20) = (   3.2898890   2.9669551  13.9060418  )
        21           O1  tau(  21) = (   0.0002396   2.9813036   7.9858123  )
        22           O1  tau(  22) = (   3.2903741   2.9784362  11.1973051  )
        23           O1  tau(  23) = (   0.0002543   2.9904732  14.7865853  )
        24           O1  tau(  24) = (   1.9864658   4.4711199   9.2879459  )
        25           O1  tau(  25) = (   5.2421976   4.5796938  12.5913975  )
        26           O1  tau(  26) = (   1.9868962   4.3874993  16.0752682  )
        27           Ti1 tau(  27) = (   0.0003529   4.4714252   9.2895810  )
        28           Ti1 tau(  28) = (   3.2909855   4.3334338  12.5384581  )
        29           Ti1 tau(  29) = (  -0.0001346   4.7016419  15.7431722  )
        30           O1  tau(  30) = (   4.5938453   4.4726049   9.2879030  )
        31           O1  tau(  31) = (   1.3385138   4.5792087  12.5910896  )
        32           O1  tau(  32) = (   4.5924143   4.3878248  16.0749966  )
        33           Ti1 tau(  33) = (   3.2898983   5.9609850   9.2893338  )
        34           Ti1 tau(  34) = (   0.0009896   5.8105845  12.4545566  )
        35           Ti1 tau(  35) = (   3.2904027   6.0159751  15.8417138  )
        36           O1  tau(  36) = (  -0.0000397   5.9620987  10.5931620  )
        37           O1  tau(  37) = (   3.2899583   5.9542551  13.9530320  )
        38           O1  tau(  38) = (  -0.0003598   5.9221528  17.2055630  )
        39           O1  tau(  39) = (  -0.0001480   5.9621018   7.9858123  )
        40           O1  tau(  40) = (   3.2900585   5.9465535  11.2077716  )
        41           O1  tau(  41) = (   0.0000491   6.0342996  14.6037136  )
        42           O1  tau(  42) = (   1.9860782   7.4519181   9.2879459  )
        43           O1  tau(  43) = (   5.2346004   7.5551364  12.5649479  )
        44           O1  tau(  44) = (   2.0242992   7.4812189  16.0368393  )
        45           Ti1 tau(  45) = (  -0.0000347   7.4522234   9.2895810  )
        46           Ti1 tau(  46) = (   3.2903849   7.2707884  12.5514019  )
        47           Ti1 tau(  47) = (  -0.0000376   7.4906229  16.2622595  )
        48           O1  tau(  48) = (   4.5934577   7.4534031   9.2879030  )
        49           O1  tau(  49) = (   1.3450914   7.5544588  12.5647554  )
        50           O1  tau(  50) = (   4.5547502   7.4813962  16.0367022  )
        51           Ti1 tau(  51) = (   3.2895107   8.9417832   9.2893338  )
        52           Ti1 tau(  52) = (   0.0003618   8.7732999  12.4519576  )
        53           Ti1 tau(  53) = (   3.2901532   0.0195992  15.7030453  )
        54           N1  tau(  54) = (   3.2894534   5.9569964  18.1695816  )
        55           H1  tau(  55) = (   3.2894156   5.0059420  18.5212279  )
        56           H1  tau(  56) = (   2.4599617   6.4194056  18.5308046  )
        57           H1  tau(  57) = (   4.1186270   6.4195692  18.5214737  )

     number of k points=    10  Fermi-Dirac smearing, width (Ry)=  0.0073
                       cart. coord. in units 2pi/alat
        k(    1) = (   0.0000000   0.0000000   0.0000000), wk =   0.1250000
        k(    2) = (   0.0000000   0.0279567   0.0000000), wk =   0.2500000
        k(    3) = (   0.0000000  -0.0559134   0.0000000), wk =   0.1250000
        k(    4) = (   0.0379955   0.0000049   0.0000000), wk =   0.2500000
        k(    5) = (   0.0379955   0.0279617   0.0000000), wk =   0.2500000
        k(    6) = (   0.0379955  -0.0559085   0.0000000), wk =   0.2500000
        k(    7) = (   0.0379955  -0.0279518   0.0000000), wk =   0.2500000
        k(    8) = (  -0.0759910  -0.0000099   0.0000000), wk =   0.1250000
        k(    9) = (  -0.0759910   0.0279468   0.0000000), wk =   0.2500000
        k(   10) = (  -0.0759910  -0.0559233   0.0000000), wk =   0.1250000

     Dense  grid:   850181 G-vectors     FFT dimensions: (  72,  96, 270)

     Smooth grid:   215109 G-vectors     FFT dimensions: (  45,  60, 180)

     Estimated max dynamical RAM per process >     704.15 MB

     Estimated total dynamical RAM >       5.50 GB
     Cannot read rho : file not found

     Initial potential from superposition of free atoms

     starting charge  415.99912, renormalised to  434.00000

     negative rho (up, down):  3.901E-02 0.000E+00


     %%%%%%%%%%%%%%%%%%%%%%%%%%%%%%%%%%%%%%%%%%%%%%%%%%%%%%%%%%%%%%%%%%%%%%%%
     %                                                                      %
     % You are using vdW-DF, which was implemented by the Thonhauser group. %
     % Please cite the following two papers that made this development      %
     % possible and the two reviews that describe the various versions:     %
     %                                                                      %
     %   T. Thonhauser et al., PRL 115, 136402 (2015).                      %
     %   T. Thonhauser et al., PRB 76, 125112 (2007).                       %
     %   K. Berland et al., Rep. Prog. Phys. 78, 066501 (2015).             %
     %   D.C. Langreth et al., J. Phys.: Condens. Matter 21, 084203 (2009). %
     %                                                                      %
     %                                                                      %
     % If you are calculating the stress with vdW-DF, please also cite:     %
     %                                                                      %
     %   R. Sabatini et al., J. Phys.: Condens. Matter 24, 424209 (2012).   %
     %                                                                      %
     %%%%%%%%%%%%%%%%%%%%%%%%%%%%%%%%%%%%%%%%%%%%%%%%%%%%%%%%%%%%%%%%%%%%%%%%


 
     Adding external electric field

     Computed dipole along edir(3) : 
        Dipole               -2.9250 Ry au,         -7.4346 Debye
        Dipole field         -0.0037 Ry au, 
 
        Potential amp.        0.3411 Ry
        Total length         46.3494 bohr
 
     Starting wfcs are  327 atomic wfcs
  @ DRIVER MODE: Message from server: STATUS
  @ DRIVER MODE: Message from server: POSDATA
  @ DRIVER MODE: Reading and sharing cell 
  @ DRIVER MODE: Reading and sharing positions 
  @ DRIVER MODE: Received positions 

     total cpu time spent up to now is       18.5 secs

     Self-consistent Calculation

     iteration #  1     ecut=    29.40 Ry     beta= 0.05
     Davidson diagonalization with overlap
     c_bands:  4 eigenvalues not converged
     c_bands:  3 eigenvalues not converged
     c_bands:  4 eigenvalues not converged
     c_bands:  2 eigenvalues not converged
     c_bands:  2 eigenvalues not converged
     c_bands:  1 eigenvalues not converged
     c_bands:  2 eigenvalues not converged
     c_bands:  1 eigenvalues not converged
     c_bands:  1 eigenvalues not converged
     c_bands:  4 eigenvalues not converged
     ethr =  1.00E-05,  avg # of iterations = 22.0

     negative rho (up, down):  3.861E-02 0.000E+00
 
     Adding external electric field

     Computed dipole along edir(3) : 
        Dipole               -1.5881 Ry au,         -4.0366 Debye
        Dipole field         -0.0020 Ry au, 
 
        Potential amp.        0.1852 Ry
        Total length         46.3494 bohr
 

     total cpu time spent up to now is       96.2 secs

     total energy              =   -3273.66912920 Ry
     estimated scf accuracy    <      14.21380362 Ry

     iteration #  2     ecut=    29.40 Ry     beta= 0.05
     Davidson diagonalization with overlap
     ethr =  3.28E-03,  avg # of iterations =  1.0

     negative rho (up, down):  3.844E-02 0.000E+00
 
     Adding external electric field

     Computed dipole along edir(3) : 
        Dipole                0.1618 Ry au,          0.4111 Debye
        Dipole field          0.0002 Ry au, 
 
        Potential amp.       -0.0189 Ry
        Total length         46.3494 bohr
 

     total cpu time spent up to now is      116.6 secs

     total energy              =   -3271.89006898 Ry
     estimated scf accuracy    <      10.10409273 Ry

     iteration #  3     ecut=    29.40 Ry     beta= 0.05
     Davidson diagonalization with overlap
     ethr =  2.33E-03,  avg # of iterations =  2.5

     negative rho (up, down):  3.890E-02 0.000E+00
 
     Adding external electric field

     Computed dipole along edir(3) : 
        Dipole                1.8376 Ry au,          4.6708 Debye
        Dipole field          0.0023 Ry au, 
 
        Potential amp.       -0.2143 Ry
        Total length         46.3494 bohr
 

     total cpu time spent up to now is      138.9 secs

     total energy              =   -3271.18593422 Ry
     estimated scf accuracy    <       3.57716955 Ry

     iteration #  4     ecut=    29.40 Ry     beta= 0.05
     Davidson diagonalization with overlap
     c_bands:  4 eigenvalues not converged
     c_bands:  4 eigenvalues not converged
     c_bands:  1 eigenvalues not converged
     c_bands:  2 eigenvalues not converged
     c_bands:  1 eigenvalues not converged
     c_bands:  2 eigenvalues not converged
     c_bands:  2 eigenvalues not converged
     ethr =  8.24E-04,  avg # of iterations = 19.7

     negative rho (up, down):  3.841E-02 0.000E+00
 
     Adding external electric field

     Computed dipole along edir(3) : 
        Dipole                1.9322 Ry au,          4.9112 Debye
        Dipole field          0.0024 Ry au, 
 
        Potential amp.       -0.2253 Ry
        Total length         46.3494 bohr
 

     total cpu time spent up to now is      182.0 secs

     total energy              =   -3272.74257017 Ry
     estimated scf accuracy    <      61.21661426 Ry

     iteration #  5     ecut=    29.40 Ry     beta= 0.05
     Davidson diagonalization with overlap
     ethr =  8.24E-04,  avg # of iterations =  5.8

     negative rho (up, down):  3.809E-02 0.000E+00
 
     Adding external electric field

     Computed dipole along edir(3) : 
        Dipole                2.0266 Ry au,          5.1511 Debye
        Dipole field          0.0025 Ry au, 
 
        Potential amp.       -0.2364 Ry
        Total length         46.3494 bohr
 

     total cpu time spent up to now is      205.9 secs

     total energy              =   -3272.89604471 Ry
     estimated scf accuracy    <      82.96556994 Ry

     iteration #  6     ecut=    29.40 Ry     beta= 0.05
     Davidson diagonalization with overlap
     ethr =  8.24E-04,  avg # of iterations =  1.4

     negative rho (up, down):  3.787E-02 0.000E+00
 
     Adding external electric field

     Computed dipole along edir(3) : 
        Dipole                2.0007 Ry au,          5.0853 Debye
        Dipole field          0.0025 Ry au, 
 
        Potential amp.       -0.2333 Ry
        Total length         46.3494 bohr
 

     total cpu time spent up to now is      226.8 secs

     total energy              =   -3272.86435129 Ry
     estimated scf accuracy    <     102.82679491 Ry

     iteration #  7     ecut=    29.40 Ry     beta= 0.05
     Davidson diagonalization with overlap
     ethr =  8.24E-04,  avg # of iterations =  1.0

     negative rho (up, down):  3.784E-02 0.000E+00
 
     Adding external electric field

     Computed dipole along edir(3) : 
        Dipole                1.0591 Ry au,          2.6918 Debye
        Dipole field          0.0013 Ry au, 
 
        Potential amp.       -0.1235 Ry
        Total length         46.3494 bohr
 

     total cpu time spent up to now is      247.0 secs

     total energy              =   -3271.28933984 Ry
     estimated scf accuracy    <      98.35867614 Ry

     iteration #  8     ecut=    29.40 Ry     beta= 0.05
     Davidson diagonalization with overlap
     ethr =  8.24E-04,  avg # of iterations = 12.1

     negative rho (up, down):  3.755E-02 0.000E+00
 
     Adding external electric field

     Computed dipole along edir(3) : 
        Dipole                0.5714 Ry au,          1.4523 Debye
        Dipole field          0.0007 Ry au, 
 
        Potential amp.       -0.0666 Ry
        Total length         46.3494 bohr
 

     total cpu time spent up to now is      274.6 secs

     total energy              =   -3271.98571075 Ry
     estimated scf accuracy    <       1.49526011 Ry

     iteration #  9     ecut=    29.40 Ry     beta= 0.05
     Davidson diagonalization with overlap
     c_bands:  1 eigenvalues not converged
     c_bands:  2 eigenvalues not converged
     ethr =  3.45E-04,  avg # of iterations = 17.4

     negative rho (up, down):  3.746E-02 0.000E+00
 
     Adding external electric field

     Computed dipole along edir(3) : 
        Dipole                0.5159 Ry au,          1.3112 Debye
        Dipole field          0.0006 Ry au, 
 
        Potential amp.       -0.0602 Ry
        Total length         46.3494 bohr
 

     total cpu time spent up to now is      307.0 secs

     total energy              =   -3272.09542290 Ry
     estimated scf accuracy    <       0.69213240 Ry

     iteration # 10     ecut=    29.40 Ry     beta= 0.05
     Davidson diagonalization with overlap
     c_bands:  1 eigenvalues not converged
     c_bands:  1 eigenvalues not converged
     c_bands:  1 eigenvalues not converged
     ethr =  1.59E-04,  avg # of iterations =  8.8

     negative rho (up, down):  3.783E-02 0.000E+00
 
     Adding external electric field

     Computed dipole along edir(3) : 
        Dipole                0.6451 Ry au,          1.6396 Debye
        Dipole field          0.0008 Ry au, 
 
        Potential amp.       -0.0752 Ry
        Total length         46.3494 bohr
 

     total cpu time spent up to now is      332.7 secs

     total energy              =   -3272.06505094 Ry
     estimated scf accuracy    <       0.59208273 Ry

     iteration # 11     ecut=    29.40 Ry     beta= 0.05
     Davidson diagonalization with overlap
     c_bands:  1 eigenvalues not converged
     c_bands:  5 eigenvalues not converged
     c_bands:  4 eigenvalues not converged
     c_bands:  4 eigenvalues not converged
     c_bands:  1 eigenvalues not converged
     c_bands:  1 eigenvalues not converged
     ethr =  1.36E-04,  avg # of iterations = 18.2

     negative rho (up, down):  3.767E-02 0.000E+00
 
     Adding external electric field

     Computed dipole along edir(3) : 
        Dipole                0.6750 Ry au,          1.7157 Debye
        Dipole field          0.0008 Ry au, 
 
        Potential amp.       -0.0787 Ry
        Total length         46.3494 bohr
 

     total cpu time spent up to now is      365.3 secs

     total energy              =   -3272.13525896 Ry
     estimated scf accuracy    <       0.78472605 Ry

     iteration # 12     ecut=    29.40 Ry     beta= 0.05
     Davidson diagonalization with overlap
     ethr =  1.36E-04,  avg # of iterations =  7.8

     negative rho (up, down):  3.730E-02 0.000E+00
 
     Adding external electric field

     Computed dipole along edir(3) : 
        Dipole                0.6790 Ry au,          1.7259 Debye
        Dipole field          0.0009 Ry au, 
 
        Potential amp.       -0.0792 Ry
        Total length         46.3494 bohr
 

     total cpu time spent up to now is      389.2 secs

     total energy              =   -3272.11125472 Ry
     estimated scf accuracy    <       1.09608399 Ry

     iteration # 13     ecut=    29.40 Ry     beta= 0.05
     Davidson diagonalization with overlap
     ethr =  1.36E-04,  avg # of iterations =  1.1

     negative rho (up, down):  3.766E-02 0.000E+00
 
     Adding external electric field

     Computed dipole along edir(3) : 
        Dipole                0.5384 Ry au,          1.3684 Debye
        Dipole field          0.0007 Ry au, 
 
        Potential amp.       -0.0628 Ry
        Total length         46.3494 bohr
 

     total cpu time spent up to now is      409.7 secs

     total energy              =   -3272.04847051 Ry
     estimated scf accuracy    <       0.81569012 Ry

     iteration # 14     ecut=    29.40 Ry     beta= 0.05
     Davidson diagonalization with overlap
     c_bands:  1 eigenvalues not converged
     c_bands:  1 eigenvalues not converged
     c_bands:  1 eigenvalues not converged
     ethr =  1.36E-04,  avg # of iterations = 17.0

     negative rho (up, down):  3.820E-02 0.000E+00
 
     Adding external electric field

     Computed dipole along edir(3) : 
        Dipole                0.2382 Ry au,          0.6056 Debye
        Dipole field          0.0003 Ry au, 
 
        Potential amp.       -0.0278 Ry
        Total length         46.3494 bohr
 

     total cpu time spent up to now is      442.0 secs

     total energy              =   -3272.15860829 Ry
     estimated scf accuracy    <       0.84478397 Ry

     iteration # 15     ecut=    29.40 Ry     beta= 0.05
     Davidson diagonalization with overlap
     c_bands:  1 eigenvalues not converged
     c_bands:  4 eigenvalues not converged
     ethr =  1.36E-04,  avg # of iterations = 12.3

     negative rho (up, down):  3.822E-02 0.000E+00
 
     Adding external electric field

     Computed dipole along edir(3) : 
        Dipole               -0.1176 Ry au,         -0.2990 Debye
        Dipole field         -0.0001 Ry au, 
 
        Potential amp.        0.0137 Ry
        Total length         46.3494 bohr
 

     total cpu time spent up to now is      470.0 secs

     total energy              =   -3272.19371204 Ry
     estimated scf accuracy    <       1.51155904 Ry

     iteration # 16     ecut=    29.40 Ry     beta= 0.05
     Davidson diagonalization with overlap
     c_bands:  2 eigenvalues not converged
     c_bands:  1 eigenvalues not converged
     ethr =  1.36E-04,  avg # of iterations = 12.4

     negative rho (up, down):  3.808E-02 0.000E+00
 
     Adding external electric field

     Computed dipole along edir(3) : 
        Dipole                0.0046 Ry au,          0.0117 Debye
        Dipole field          0.0000 Ry au, 
 
        Potential amp.       -0.0005 Ry
        Total length         46.3494 bohr
 

     total cpu time spent up to now is      497.7 secs

     total energy              =   -3272.18037729 Ry
     estimated scf accuracy    <       1.51599581 Ry

     iteration # 17     ecut=    29.40 Ry     beta= 0.05
     Davidson diagonalization with overlap
     c_bands:  2 eigenvalues not converged
     c_bands:  1 eigenvalues not converged
     c_bands:  1 eigenvalues not converged
     c_bands:  2 eigenvalues not converged
     ethr =  1.36E-04,  avg # of iterations = 18.0

     negative rho (up, down):  3.663E-02 0.000E+00
 
     Adding external electric field

     Computed dipole along edir(3) : 
        Dipole                1.3778 Ry au,          3.5020 Debye
        Dipole field          0.0017 Ry au, 
 
        Potential amp.       -0.1607 Ry
        Total length         46.3494 bohr
 

     total cpu time spent up to now is      535.0 secs

     total energy              =   -3271.96300259 Ry
     estimated scf accuracy    <       1.61223859 Ry

     iteration # 18     ecut=    29.40 Ry     beta= 0.05
     Davidson diagonalization with overlap
     c_bands:  3 eigenvalues not converged
     c_bands:  4 eigenvalues not converged
     c_bands:  5 eigenvalues not converged
     c_bands:  3 eigenvalues not converged
     c_bands:  1 eigenvalues not converged
     c_bands:  5 eigenvalues not converged
     c_bands:  2 eigenvalues not converged
     c_bands:  4 eigenvalues not converged
     c_bands:  2 eigenvalues not converged
     ethr =  1.36E-04,  avg # of iterations = 20.2

     negative rho (up, down):  3.720E-02 0.000E+00
 
     Adding external electric field

     Computed dipole along edir(3) : 
        Dipole                0.6273 Ry au,          1.5945 Debye
        Dipole field          0.0008 Ry au, 
 
        Potential amp.       -0.0732 Ry
        Total length         46.3494 bohr
 

     total cpu time spent up to now is      579.8 secs

     total energy              =   -3271.93866515 Ry
     estimated scf accuracy    <       1.29636857 Ry

     iteration # 19     ecut=    29.40 Ry     beta= 0.05
     Davidson diagonalization with overlap
     c_bands:  1 eigenvalues not converged
     c_bands:  3 eigenvalues not converged
     c_bands:  2 eigenvalues not converged
     c_bands:  1 eigenvalues not converged
     c_bands:  2 eigenvalues not converged
     c_bands:  1 eigenvalues not converged
     c_bands:  1 eigenvalues not converged
     ethr =  1.36E-04,  avg # of iterations = 19.5

     negative rho (up, down):  3.741E-02 0.000E+00
 
     Adding external electric field

     Computed dipole along edir(3) : 
        Dipole                0.7208 Ry au,          1.8320 Debye
        Dipole field          0.0009 Ry au, 
 
        Potential amp.       -0.0841 Ry
        Total length         46.3494 bohr
 

     total cpu time spent up to now is      615.7 secs

     total energy              =   -3272.10964361 Ry
     estimated scf accuracy    <       0.35683746 Ry

     iteration # 20     ecut=    29.40 Ry     beta= 0.05
     Davidson diagonalization with overlap
     c_bands:  1 eigenvalues not converged
     c_bands:  1 eigenvalues not converged
     ethr =  8.22E-05,  avg # of iterations =  9.0

     negative rho (up, down):  3.732E-02 0.000E+00
 
     Adding external electric field

     Computed dipole along edir(3) : 
        Dipole                0.7968 Ry au,          2.0252 Debye
        Dipole field          0.0010 Ry au, 
 
        Potential amp.       -0.0929 Ry
        Total length         46.3494 bohr
 

     total cpu time spent up to now is      642.0 secs

     total energy              =   -3272.12629939 Ry
     estimated scf accuracy    <       0.39306455 Ry

     iteration # 21     ecut=    29.40 Ry     beta= 0.05
     Davidson diagonalization with overlap
     ethr =  8.22E-05,  avg # of iterations =  1.2

     negative rho (up, down):  3.757E-02 0.000E+00
 
     Adding external electric field

     Computed dipole along edir(3) : 
        Dipole                0.9746 Ry au,          2.4773 Debye
        Dipole field          0.0012 Ry au, 
 
        Potential amp.       -0.1137 Ry
        Total length         46.3494 bohr
 

     total cpu time spent up to now is      662.6 secs

     total energy              =   -3272.10255974 Ry
     estimated scf accuracy    <       0.37044432 Ry

     iteration # 22     ecut=    29.40 Ry     beta= 0.05
     Davidson diagonalization with overlap
     ethr =  8.22E-05,  avg # of iterations =  7.8

     negative rho (up, down):  3.811E-02 0.000E+00
 
     Adding external electric field

     Computed dipole along edir(3) : 
        Dipole                1.5051 Ry au,          3.8257 Debye
        Dipole field          0.0019 Ry au, 
 
        Potential amp.       -0.1755 Ry
        Total length         46.3494 bohr
 

     total cpu time spent up to now is      686.9 secs

     total energy              =   -3272.07288303 Ry
     estimated scf accuracy    <       0.27720461 Ry

     iteration # 23     ecut=    29.40 Ry     beta= 0.05
     Davidson diagonalization with overlap
     c_bands:  1 eigenvalues not converged
     c_bands:  4 eigenvalues not converged
     c_bands:  2 eigenvalues not converged
     c_bands:  3 eigenvalues not converged
     ethr =  6.39E-05,  avg # of iterations = 18.9

     negative rho (up, down):  3.817E-02 0.000E+00
 
     Adding external electric field

     Computed dipole along edir(3) : 
        Dipole                1.2686 Ry au,          3.2244 Debye
        Dipole field          0.0016 Ry au, 
 
        Potential amp.       -0.1479 Ry
        Total length         46.3494 bohr
 

     total cpu time spent up to now is      724.7 secs

     total energy              =   -3272.08565930 Ry
     estimated scf accuracy    <       0.20952233 Ry

     iteration # 24     ecut=    29.40 Ry     beta= 0.05
     Davidson diagonalization with overlap
     ethr =  4.83E-05,  avg # of iterations = 13.5

     negative rho (up, down):  3.814E-02 0.000E+00
 
     Adding external electric field

     Computed dipole along edir(3) : 
        Dipole                1.3071 Ry au,          3.3222 Debye
        Dipole field          0.0016 Ry au, 
 
        Potential amp.       -0.1524 Ry
        Total length         46.3494 bohr
 

     total cpu time spent up to now is      753.3 secs

     total energy              =   -3272.09774980 Ry
     estimated scf accuracy    <       0.14019713 Ry

     iteration # 25     ecut=    29.40 Ry     beta= 0.05
     Davidson diagonalization with overlap
     ethr =  3.23E-05,  avg # of iterations = 11.9

     negative rho (up, down):  3.793E-02 0.000E+00
 
     Adding external electric field

     Computed dipole along edir(3) : 
        Dipole                1.5386 Ry au,          3.9108 Debye
        Dipole field          0.0019 Ry au, 
 
        Potential amp.       -0.1794 Ry
        Total length         46.3494 bohr
 

     total cpu time spent up to now is      780.7 secs

     total energy              =   -3272.08470021 Ry
     estimated scf accuracy    <       0.12202715 Ry

     iteration # 26     ecut=    29.40 Ry     beta= 0.05
     Davidson diagonalization with overlap
     c_bands:  1 eigenvalues not converged
     c_bands:  1 eigenvalues not converged
     ethr =  2.81E-05,  avg # of iterations = 15.4

     negative rho (up, down):  3.772E-02 0.000E+00
 
     Adding external electric field

     Computed dipole along edir(3) : 
        Dipole                1.4925 Ry au,          3.7935 Debye
        Dipole field          0.0019 Ry au, 
 
        Potential amp.       -0.1741 Ry
        Total length         46.3494 bohr
 

     total cpu time spent up to now is      811.5 secs

     total energy              =   -3272.09742731 Ry
     estimated scf accuracy    <       0.16007656 Ry

     iteration # 27     ecut=    29.40 Ry     beta= 0.05
     Davidson diagonalization with overlap
     ethr =  2.81E-05,  avg # of iterations =  2.1

     negative rho (up, down):  3.761E-02 0.000E+00
 
     Adding external electric field

     Computed dipole along edir(3) : 
        Dipole                1.4593 Ry au,          3.7093 Debye
        Dipole field          0.0018 Ry au, 
 
        Potential amp.       -0.1702 Ry
        Total length         46.3494 bohr
 

     total cpu time spent up to now is      833.1 secs

     total energy              =   -3272.09701976 Ry
     estimated scf accuracy    <       0.07859719 Ry

     iteration # 28     ecut=    29.40 Ry     beta= 0.05
     Davidson diagonalization with overlap
     ethr =  1.81E-05,  avg # of iterations =  6.6

     negative rho (up, down):  3.754E-02 0.000E+00
 
     Adding external electric field

     Computed dipole along edir(3) : 
        Dipole                1.4579 Ry au,          3.7056 Debye
        Dipole field          0.0018 Ry au, 
 
        Potential amp.       -0.1700 Ry
        Total length         46.3494 bohr
 

     total cpu time spent up to now is      856.8 secs

     total energy              =   -3272.09747894 Ry
     estimated scf accuracy    <       0.04119976 Ry

     iteration # 29     ecut=    29.40 Ry     beta= 0.05
     Davidson diagonalization with overlap
     c_bands:  1 eigenvalues not converged
     c_bands:  1 eigenvalues not converged
     ethr =  9.49E-06,  avg # of iterations = 12.6

     negative rho (up, down):  3.750E-02 0.000E+00
 
     Adding external electric field

     Computed dipole along edir(3) : 
        Dipole                1.4250 Ry au,          3.6219 Debye
        Dipole field          0.0018 Ry au, 
 
        Potential amp.       -0.1662 Ry
        Total length         46.3494 bohr
 

     total cpu time spent up to now is      885.4 secs

     total energy              =   -3272.09452240 Ry
     estimated scf accuracy    <       0.04556669 Ry

     iteration # 30     ecut=    29.40 Ry     beta= 0.05
     Davidson diagonalization with overlap
     c_bands:  1 eigenvalues not converged
     c_bands:  1 eigenvalues not converged
     c_bands:  2 eigenvalues not converged
     ethr =  9.49E-06,  avg # of iterations = 12.6

     negative rho (up, down):  3.749E-02 0.000E+00
 
     Adding external electric field

     Computed dipole along edir(3) : 
        Dipole                1.4191 Ry au,          3.6069 Debye
        Dipole field          0.0018 Ry au, 
 
        Potential amp.       -0.1655 Ry
        Total length         46.3494 bohr
 

     total cpu time spent up to now is      913.2 secs

     total energy              =   -3272.09665221 Ry
     estimated scf accuracy    <       0.00545077 Ry

     iteration # 31     ecut=    29.40 Ry     beta= 0.05
     Davidson diagonalization with overlap
     c_bands:  1 eigenvalues not converged
     c_bands:  1 eigenvalues not converged
     c_bands:  1 eigenvalues not converged
     c_bands:  1 eigenvalues not converged
     c_bands:  2 eigenvalues not converged
     c_bands:  2 eigenvalues not converged
     ethr =  1.26E-06,  avg # of iterations = 18.4

     negative rho (up, down):  3.740E-02 0.000E+00
 
     Adding external electric field

     Computed dipole along edir(3) : 
        Dipole                1.4114 Ry au,          3.5874 Debye
        Dipole field          0.0018 Ry au, 
 
        Potential amp.       -0.1646 Ry
        Total length         46.3494 bohr
 

     total cpu time spent up to now is      954.4 secs

     total energy              =   -3272.09738839 Ry
     estimated scf accuracy    <       0.00433323 Ry

     iteration # 32     ecut=    29.40 Ry     beta= 0.05
     Davidson diagonalization with overlap
     c_bands:  1 eigenvalues not converged
     ethr =  9.98E-07,  avg # of iterations =  8.3

     negative rho (up, down):  3.735E-02 0.000E+00
 
     Adding external electric field

     Computed dipole along edir(3) : 
        Dipole                1.4251 Ry au,          3.6223 Debye
        Dipole field          0.0018 Ry au, 
 
        Potential amp.       -0.1662 Ry
        Total length         46.3494 bohr
 

     total cpu time spent up to now is      979.5 secs

     total energy              =   -3272.09738934 Ry
     estimated scf accuracy    <       0.00193269 Ry

     iteration # 33     ecut=    29.40 Ry     beta= 0.05
     Davidson diagonalization with overlap
     ethr =  4.45E-07,  avg # of iterations = 15.3

     negative rho (up, down):  3.733E-02 0.000E+00
 
     Adding external electric field

     Computed dipole along edir(3) : 
        Dipole                1.4239 Ry au,          3.6193 Debye
        Dipole field          0.0018 Ry au, 
 
        Potential amp.       -0.1661 Ry
        Total length         46.3494 bohr
 

     total cpu time spent up to now is     1022.2 secs

     total energy              =   -3272.09873785 Ry
     estimated scf accuracy    <       0.00475103 Ry

     iteration # 34     ecut=    29.40 Ry     beta= 0.05
     Davidson diagonalization with overlap
     ethr =  4.45E-07,  avg # of iterations =  7.8

     negative rho (up, down):  3.728E-02 0.000E+00
 
     Adding external electric field

     Computed dipole along edir(3) : 
        Dipole                1.4101 Ry au,          3.5842 Debye
        Dipole field          0.0018 Ry au, 
 
        Potential amp.       -0.1645 Ry
        Total length         46.3494 bohr
 

     total cpu time spent up to now is     1047.4 secs

     total energy              =   -3272.09797091 Ry
     estimated scf accuracy    <       0.00532106 Ry

     iteration # 35     ecut=    29.40 Ry     beta= 0.05
     Davidson diagonalization with overlap
     ethr =  4.45E-07,  avg # of iterations =  8.6

     negative rho (up, down):  3.719E-02 0.000E+00
 
     Adding external electric field

     Computed dipole along edir(3) : 
        Dipole                1.3998 Ry au,          3.5578 Debye
        Dipole field          0.0018 Ry au, 
 
        Potential amp.       -0.1632 Ry
        Total length         46.3494 bohr
 

     total cpu time spent up to now is     1077.3 secs

     total energy              =   -3272.09797183 Ry
     estimated scf accuracy    <       0.00163780 Ry

     iteration # 36     ecut=    29.40 Ry     beta= 0.05
     Davidson diagonalization with overlap
     ethr =  3.77E-07,  avg # of iterations =  5.3

     negative rho (up, down):  3.715E-02 0.000E+00
 
     Adding external electric field

     Computed dipole along edir(3) : 
        Dipole                1.3961 Ry au,          3.5485 Debye
        Dipole field          0.0018 Ry au, 
 
        Potential amp.       -0.1628 Ry
        Total length         46.3494 bohr
 

     total cpu time spent up to now is     1105.5 secs

     total energy              =   -3272.09821016 Ry
     estimated scf accuracy    <       0.00064614 Ry

     iteration # 37     ecut=    29.40 Ry     beta= 0.05
     Davidson diagonalization with overlap
     c_bands:  1 eigenvalues not converged
     ethr =  1.49E-07,  avg # of iterations = 13.9

     negative rho (up, down):  3.709E-02 0.000E+00
 
     Adding external electric field

     Computed dipole along edir(3) : 
        Dipole                1.3987 Ry au,          3.5552 Debye
        Dipole field          0.0018 Ry au, 
 
        Potential amp.       -0.1631 Ry
        Total length         46.3494 bohr
 

     total cpu time spent up to now is     1138.4 secs

     total energy              =   -3272.09829130 Ry
     estimated scf accuracy    <       0.00031514 Ry

     iteration # 38     ecut=    29.40 Ry     beta= 0.05
     Davidson diagonalization with overlap
     ethr =  7.26E-08,  avg # of iterations = 11.5

     negative rho (up, down):  3.705E-02 0.000E+00
 
     Adding external electric field

     Computed dipole along edir(3) : 
        Dipole                1.3964 Ry au,          3.5494 Debye
        Dipole field          0.0018 Ry au, 
 
        Potential amp.       -0.1629 Ry
        Total length         46.3494 bohr
 

     total cpu time spent up to now is     1166.8 secs

     total energy              =   -3272.09833062 Ry
     estimated scf accuracy    <       0.00015789 Ry

     iteration # 39     ecut=    29.40 Ry     beta= 0.05
     Davidson diagonalization with overlap
     ethr =  3.64E-08,  avg # of iterations = 12.5

     negative rho (up, down):  3.701E-02 0.000E+00
 
     Adding external electric field

     Computed dipole along edir(3) : 
        Dipole                1.3950 Ry au,          3.5458 Debye
        Dipole field          0.0018 Ry au, 
 
        Potential amp.       -0.1627 Ry
        Total length         46.3494 bohr
 

     total cpu time spent up to now is     1214.0 secs

     total energy              =   -3272.09833977 Ry
     estimated scf accuracy    <       0.00062024 Ry

     iteration # 40     ecut=    29.40 Ry     beta= 0.05
     Davidson diagonalization with overlap
     ethr =  3.64E-08,  avg # of iterations =  9.9

     negative rho (up, down):  3.698E-02 0.000E+00
 
     Adding external electric field

     Computed dipole along edir(3) : 
        Dipole                1.3963 Ry au,          3.5491 Debye
        Dipole field          0.0018 Ry au, 
 
        Potential amp.       -0.1628 Ry
        Total length         46.3494 bohr
 

     total cpu time spent up to now is     1252.8 secs

     total energy              =   -3272.09842626 Ry
     estimated scf accuracy    <       0.00005057 Ry

     iteration # 41     ecut=    29.40 Ry     beta= 0.05
     Davidson diagonalization with overlap
     ethr =  1.17E-08,  avg # of iterations = 11.4

     negative rho (up, down):  3.694E-02 0.000E+00
 
     Adding external electric field

     Computed dipole along edir(3) : 
        Dipole                1.3991 Ry au,          3.5561 Debye
        Dipole field          0.0018 Ry au, 
 
        Potential amp.       -0.1632 Ry
        Total length         46.3494 bohr
 

     total cpu time spent up to now is     1289.3 secs

     total energy              =   -3272.09844861 Ry
     estimated scf accuracy    <       0.00006171 Ry

     iteration # 42     ecut=    29.40 Ry     beta= 0.05
     Davidson diagonalization with overlap
     ethr =  1.17E-08,  avg # of iterations =  6.7

     negative rho (up, down):  3.692E-02 0.000E+00
 
     Adding external electric field

     Computed dipole along edir(3) : 
        Dipole                1.3987 Ry au,          3.5551 Debye
        Dipole field          0.0018 Ry au, 
 
        Potential amp.       -0.1631 Ry
        Total length         46.3494 bohr
 

     total cpu time spent up to now is     1322.9 secs

     total energy              =   -3272.09848520 Ry
     estimated scf accuracy    <       0.00001751 Ry

     iteration # 43     ecut=    29.40 Ry     beta= 0.05
     Davidson diagonalization with overlap
     ethr =  4.03E-09,  avg # of iterations =  4.0

     negative rho (up, down):  3.690E-02 0.000E+00
 
     Adding external electric field

     Computed dipole along edir(3) : 
        Dipole                1.3973 Ry au,          3.5515 Debye
        Dipole field          0.0018 Ry au, 
 
        Potential amp.       -0.1630 Ry
        Total length         46.3494 bohr
 

     total cpu time spent up to now is     1346.1 secs

     total energy              =   -3272.09850376 Ry
     estimated scf accuracy    <       0.00001393 Ry

     iteration # 44     ecut=    29.40 Ry     beta= 0.05
     Davidson diagonalization with overlap
     ethr =  3.21E-09,  avg # of iterations = 11.8

     negative rho (up, down):  3.688E-02 0.000E+00
 
     Adding external electric field

     Computed dipole along edir(3) : 
        Dipole                1.3979 Ry au,          3.5531 Debye
        Dipole field          0.0018 Ry au, 
 
        Potential amp.       -0.1630 Ry
        Total length         46.3494 bohr
 

     total cpu time spent up to now is     1383.6 secs

     total energy              =   -3272.09852613 Ry
     estimated scf accuracy    <       0.00001155 Ry

     iteration # 45     ecut=    29.40 Ry     beta= 0.05
     Davidson diagonalization with overlap
     c_bands:  1 eigenvalues not converged
     ethr =  2.66E-09,  avg # of iterations = 10.7

     negative rho (up, down):  3.686E-02 0.000E+00
 
     Adding external electric field

     Computed dipole along edir(3) : 
        Dipole                1.3982 Ry au,          3.5540 Debye
        Dipole field          0.0018 Ry au, 
 
        Potential amp.       -0.1631 Ry
        Total length         46.3494 bohr
 

     total cpu time spent up to now is     1414.7 secs

     total energy              =   -3272.09854378 Ry
     estimated scf accuracy    <       0.00000980 Ry

     iteration # 46     ecut=    29.40 Ry     beta= 0.05
     Davidson diagonalization with overlap
     ethr =  2.26E-09,  avg # of iterations =  4.8

     negative rho (up, down):  3.685E-02 0.000E+00
 
     Adding external electric field

     Computed dipole along edir(3) : 
        Dipole                1.3986 Ry au,          3.5548 Debye
        Dipole field          0.0018 Ry au, 
 
        Potential amp.       -0.1631 Ry
        Total length         46.3494 bohr
 

     total cpu time spent up to now is     1438.2 secs

     total energy              =   -3272.09855870 Ry
     estimated scf accuracy    <       0.00000462 Ry

     iteration # 47     ecut=    29.40 Ry     beta= 0.05
     Davidson diagonalization with overlap
     ethr =  1.06E-09,  avg # of iterations = 10.1

     negative rho (up, down):  3.684E-02 0.000E+00
 
     Adding external electric field

     Computed dipole along edir(3) : 
        Dipole                1.3987 Ry au,          3.5552 Debye
        Dipole field          0.0018 Ry au, 
 
        Potential amp.       -0.1631 Ry
        Total length         46.3494 bohr
 

     total cpu time spent up to now is     1471.4 secs

     total energy              =   -3272.09857354 Ry
     estimated scf accuracy    <       0.00000115 Ry

     iteration # 48     ecut=    29.40 Ry     beta= 0.05
     Davidson diagonalization with overlap
     ethr =  2.64E-10,  avg # of iterations =  9.1

     negative rho (up, down):  3.683E-02 0.000E+00
 
     Adding external electric field

     Computed dipole along edir(3) : 
        Dipole                1.3987 Ry au,          3.5551 Debye
        Dipole field          0.0018 Ry au, 
 
        Potential amp.       -0.1631 Ry
        Total length         46.3494 bohr
 

     total cpu time spent up to now is     1506.7 secs

     total energy              =   -3272.09858650 Ry
     estimated scf accuracy    <       0.00000096 Ry

     iteration # 49     ecut=    29.40 Ry     beta= 0.05
     Davidson diagonalization with overlap
     ethr =  2.22E-10,  avg # of iterations =  2.2

     negative rho (up, down):  3.682E-02 0.000E+00
 
     Adding external electric field

     Computed dipole along edir(3) : 
        Dipole                1.3983 Ry au,          3.5542 Debye
        Dipole field          0.0018 Ry au, 
 
        Potential amp.       -0.1631 Ry
        Total length         46.3494 bohr
 

     total cpu time spent up to now is     1528.5 secs

     total energy              =   -3272.09859790 Ry
     estimated scf accuracy    <       0.00000069 Ry

     iteration # 50     ecut=    29.40 Ry     beta= 0.05
     Davidson diagonalization with overlap
     ethr =  1.60E-10,  avg # of iterations = 16.3

     negative rho (up, down):  3.681E-02 0.000E+00
 
     Adding external electric field

     Computed dipole along edir(3) : 
        Dipole                1.3987 Ry au,          3.5550 Debye
        Dipole field          0.0018 Ry au, 
 
        Potential amp.       -0.1631 Ry
        Total length         46.3494 bohr
 

     total cpu time spent up to now is     1579.2 secs

     total energy              =   -3272.09860815 Ry
     estimated scf accuracy    <       0.00000234 Ry

     iteration # 51     ecut=    29.40 Ry     beta= 0.05
     Davidson diagonalization with overlap
     ethr =  1.60E-10,  avg # of iterations = 13.8

     negative rho (up, down):  3.681E-02 0.000E+00
 
     Adding external electric field

     Computed dipole along edir(3) : 
        Dipole                1.3985 Ry au,          3.5547 Debye
        Dipole field          0.0018 Ry au, 
 
        Potential amp.       -0.1631 Ry
        Total length         46.3494 bohr
 

     total cpu time spent up to now is     1621.5 secs

     total energy              =   -3272.09861785 Ry
     estimated scf accuracy    <       0.00000022 Ry

     iteration # 52     ecut=    29.40 Ry     beta= 0.05
     Davidson diagonalization with overlap
     ethr =  4.98E-11,  avg # of iterations = 10.0

     negative rho (up, down):  3.680E-02 0.000E+00
 
     Adding external electric field

     Computed dipole along edir(3) : 
        Dipole                1.3984 Ry au,          3.5544 Debye
        Dipole field          0.0018 Ry au, 
 
        Potential amp.       -0.1631 Ry
        Total length         46.3494 bohr
 

     total cpu time spent up to now is     1651.9 secs

     total energy              =   -3272.09862635 Ry
     estimated scf accuracy    <       0.00000013 Ry

     iteration # 53     ecut=    29.40 Ry     beta= 0.05
     Davidson diagonalization with overlap
     ethr =  3.08E-11,  avg # of iterations = 10.7

     negative rho (up, down):  3.686E-02 0.000E+00
 
     Adding external electric field

     Computed dipole along edir(3) : 
        Dipole                1.3973 Ry au,          3.5515 Debye
        Dipole field          0.0018 Ry au, 
 
        Potential amp.       -0.1630 Ry
        Total length         46.3494 bohr
 

     total cpu time spent up to now is     1683.1 secs

     End of self-consistent calculation

          k = 0.0000 0.0000 0.0000 ( 26871 PWs)   bands (ev):

   -57.9225 -57.9039 -57.8805 -57.8737 -57.8409 -57.7399 -57.7376 -57.7103
   -57.6957 -57.6885 -57.6562 -57.6208 -57.4820 -57.4654 -57.4008 -56.9364
   -56.9115 -56.9098 -34.2886 -34.2866 -34.2814 -34.2421 -34.2318 -34.2136
   -34.2105 -34.1760 -34.1678 -34.1559 -34.1484 -34.1365 -34.1222 -34.1026
   -34.0936 -34.0800 -34.0710 -34.0266 -34.0227 -34.0196 -34.0068 -34.0028
   -33.9970 -33.9953 -33.9817 -33.9528 -33.9271 -33.9232 -33.9227 -33.9223
   -33.9063 -33.9017 -33.8933 -33.8798 -33.8767 -33.8663 -33.8620 -33.8463
   -33.8334 -33.7589 -33.6936 -33.6741 -33.6678 -33.6549 -33.5299 -33.2505
   -33.2499 -33.2481 -33.2335 -33.2321 -33.1630 -33.0995 -33.0976 -32.9628
   -18.7208 -18.3408 -18.1794 -18.1245 -18.0964 -18.0108 -17.9656 -17.9247
   -17.7369 -17.6965 -17.6762 -17.6567 -17.6317 -17.6030 -17.5919 -17.5790
   -17.5567 -17.5473 -17.5458 -17.5199 -17.5096 -17.4341 -17.3807 -17.3540
   -17.3522 -17.3369 -17.3363 -17.3260 -17.2342 -17.1518 -17.0310 -16.9182
   -16.8318 -15.4023 -15.3447 -15.3418  -7.7556  -7.7029  -6.0480  -5.8238
    -5.8115  -5.7038  -5.3375  -5.2720  -5.2560  -5.2495  -5.1901  -5.1725
    -5.1492  -5.1254  -5.0918  -5.0307  -5.0118  -5.0060  -4.9521  -4.8873
    -4.8654  -4.8403  -4.7865  -4.7538  -4.7337  -4.7156  -4.6855  -4.6589
    -4.6116  -4.5929  -4.5521  -4.5427  -4.4647  -4.4304  -4.2910  -4.2353
    -4.2235  -4.1673  -4.1541  -4.1431  -4.0840  -4.0574  -4.0293  -4.0016
    -3.9605  -3.9549  -3.8736  -3.8142  -3.6953  -3.6409  -3.6211  -3.6057
    -3.5202  -3.5081  -3.4585  -3.3285  -3.3234  -3.2511  -3.2277  -3.1850
    -3.1418  -3.0831  -3.0027  -2.9702  -2.9209  -2.8993  -2.8390  -2.7883
    -2.7449  -2.7208  -2.6725  -2.6678  -2.6133  -2.5719  -2.5704  -2.5385
    -2.5116  -2.4661  -2.4576  -2.3983  -2.3612  -2.3181  -2.2551  -2.2424
    -2.2124  -2.1879  -2.1349  -2.1043  -2.0673  -2.0562  -2.0401  -1.9303
    -1.7623  -1.7594  -1.7543  -1.7419  -1.6373  -1.6081  -1.5064  -1.3345
    -1.1321  -0.9783  -0.6895  -0.6410  -0.6395  -0.3733  -0.3710  -0.2409
     1.1074   1.2962   1.3247   1.5224   1.5440   1.5908   1.6830   1.7020
     1.7641   1.8535   1.8787

          k = 0.0000 0.0280 0.0000 ( 26907 PWs)   bands (ev):

   -57.9224 -57.9018 -57.8862 -57.8703 -57.8411 -57.7394 -57.7370 -57.7129
   -57.6942 -57.6879 -57.6572 -57.6204 -57.4813 -57.4664 -57.4006 -56.9340
   -56.9192 -56.9045 -34.3511 -34.3135 -34.2493 -34.2336 -34.2225 -34.2193
   -34.2008 -34.1836 -34.1771 -34.1634 -34.1355 -34.1251 -34.1082 -34.0749
   -34.0648 -34.0515 -34.0440 -34.0365 -34.0307 -34.0283 -34.0237 -34.0209
   -33.9986 -33.9825 -33.9642 -33.9517 -33.9424 -33.9263 -33.9228 -33.9220
   -33.9125 -33.9032 -33.8976 -33.8859 -33.8772 -33.8762 -33.8648 -33.8620
   -33.8354 -33.7362 -33.6936 -33.6739 -33.6673 -33.6552 -33.5467 -33.3173
   -33.2482 -33.2383 -33.2290 -33.1572 -33.1556 -33.1200 -33.0830 -32.9887
   -18.6666 -18.3211 -18.2713 -18.1338 -18.0746 -18.0254 -17.9540 -17.8373
   -17.8289 -17.7903 -17.6806 -17.6693 -17.6247 -17.6241 -17.5931 -17.5927
   -17.5681 -17.5179 -17.5008 -17.4919 -17.4367 -17.4175 -17.4114 -17.3757
   -17.3708 -17.3297 -17.3295 -17.2349 -17.2304 -17.1650 -17.0583 -17.0122
   -16.7612 -15.4041 -15.3831 -15.3004  -7.7556  -7.7030  -5.9736  -5.7508
    -5.7419  -5.6362  -5.5030  -5.4228  -5.2559  -5.2396  -5.1983  -5.1969
    -5.1714  -5.1561  -5.1309  -5.1215  -5.0693  -5.0519  -4.9681  -4.9080
    -4.8770  -4.8299  -4.8109  -4.7247  -4.7067  -4.6831  -4.6551  -4.6363
    -4.5893  -4.5790  -4.5271  -4.5198  -4.4647  -4.4427  -4.3686  -4.3111
    -4.3079  -4.2938  -4.2652  -4.1930  -4.1209  -4.0218  -3.9901  -3.8859
    -3.8614  -3.8155  -3.7428  -3.7002  -3.6851  -3.6604  -3.5865  -3.5863
    -3.4572  -3.3791  -3.3650  -3.3325  -3.2776  -3.2009  -3.1908  -3.1486
    -3.0937  -3.0505  -3.0292  -3.0014  -2.9740  -2.9080  -2.8244  -2.8239
    -2.7838  -2.7326  -2.7057  -2.6099  -2.6041  -2.5842  -2.5351  -2.5256
    -2.5006  -2.4489  -2.4441  -2.4211  -2.3166  -2.3101  -2.2329  -2.2294
    -2.1968  -2.1710  -2.1582  -2.1489  -2.1471  -2.1246  -2.0759  -2.0319
    -1.8575  -1.8555  -1.7390  -1.7092  -1.5856  -1.5229  -1.5085  -1.3627
    -1.1837  -1.1188  -0.7899  -0.6656  -0.5555  -0.4084  -0.3125  -0.2871
     1.1835   1.3266   1.3870   1.4390   1.5527   1.6048   1.6732   1.7218
     1.7320   1.7984   1.8159

          k = 0.0000-0.0559 0.0000 ( 26942 PWs)   bands (ev):

   -57.9223 -57.8980 -57.8920 -57.8683 -57.8413 -57.7391 -57.7362 -57.7153
   -57.6930 -57.6874 -57.6582 -57.6200 -57.4804 -57.4675 -57.4004 -56.9286
   -56.9269 -56.9023 -34.3756 -34.3313 -34.2590 -34.2331 -34.2250 -34.2231
   -34.2194 -34.1790 -34.1666 -34.1345 -34.1195 -34.0944 -34.0881 -34.0667
   -34.0617 -34.0583 -34.0525 -34.0476 -34.0450 -34.0307 -33.9938 -33.9855
   -33.9794 -33.9762 -33.9667 -33.9535 -33.9456 -33.9431 -33.9256 -33.9228
   -33.9209 -33.9181 -33.9157 -33.9046 -33.8861 -33.8755 -33.8689 -33.8621
   -33.8370 -33.7094 -33.6937 -33.6738 -33.6660 -33.6555 -33.5685 -33.3418
   -33.2447 -33.2434 -33.2276 -33.1427 -33.1407 -33.0772 -33.0608 -33.0587
   -18.5323 -18.4975 -18.2158 -18.1006 -18.0638 -18.0042 -17.9648 -17.9468
   -17.8958 -17.7460 -17.7039 -17.6738 -17.6422 -17.6022 -17.5988 -17.5808
   -17.5591 -17.5233 -17.4630 -17.4439 -17.4393 -17.4284 -17.4154 -17.3963
   -17.3666 -17.3175 -17.3031 -17.2237 -17.1823 -17.1332 -17.1327 -17.0778
   -16.7238 -15.4037 -15.4008 -15.2818  -7.7557  -7.7031  -5.7781  -5.7712
    -5.6509  -5.5250  -5.5205  -5.5130  -5.4375  -5.4315  -5.3452  -5.2549
    -5.2140  -5.1200  -5.0715  -5.0413  -5.0226  -5.0218  -4.9648  -4.9314
    -4.8974  -4.8770  -4.8590  -4.7865  -4.7567  -4.7534  -4.6980  -4.6643
    -4.5639  -4.5561  -4.5276  -4.4934  -4.4458  -4.4373  -4.3914  -4.3816
    -4.3020  -4.2713  -4.2389  -4.1463  -4.0621  -3.9630  -3.9466  -3.9243
    -3.8294  -3.8088  -3.7707  -3.7143  -3.6731  -3.6275  -3.6096  -3.4930
    -3.4555  -3.3434  -3.3175  -3.2641  -3.1699  -3.0982  -3.0685  -3.0537
    -3.0169  -3.0033  -2.9438  -2.9158  -2.9030  -2.8928  -2.8657  -2.8107
    -2.7771  -2.7704  -2.7465  -2.7024  -2.6529  -2.6494  -2.6129  -2.5517
    -2.4965  -2.4927  -2.4322  -2.4277  -2.3977  -2.3555  -2.3033  -2.2615
    -2.2543  -2.2042  -2.1766  -2.1598  -2.1152  -2.0352  -1.9809  -1.9732
    -1.9724  -1.9355  -1.7704  -1.6224  -1.6066  -1.4621  -1.4616  -1.3609
    -1.3389  -1.2733  -0.8851  -0.5912  -0.5729  -0.3721  -0.3689  -0.2887
     1.2914   1.3305   1.3662   1.4381   1.6039   1.6316   1.6762   1.7012
     1.7080   1.7401   1.8332

          k = 0.0380 0.0000 0.0000 ( 26897 PWs)   bands (ev):

   -57.9225 -57.9038 -57.8806 -57.8738 -57.8410 -57.7398 -57.7375 -57.7103
   -57.6957 -57.6886 -57.6563 -57.6209 -57.4821 -57.4654 -57.4008 -56.9363
   -56.9116 -56.9099 -34.2902 -34.2878 -34.2826 -34.2422 -34.2317 -34.2138
   -34.2107 -34.1763 -34.1690 -34.1602 -34.1521 -34.1335 -34.1295 -34.1050
   -34.0947 -34.0693 -34.0577 -34.0298 -34.0139 -34.0068 -34.0020 -33.9969
   -33.9950 -33.9907 -33.9828 -33.9525 -33.9468 -33.9232 -33.9225 -33.9189
   -33.9119 -33.9061 -33.8931 -33.8848 -33.8793 -33.8640 -33.8619 -33.8473
   -33.8334 -33.7588 -33.6981 -33.6741 -33.6678 -33.6557 -33.5301 -33.2533
   -33.2506 -33.2482 -33.2331 -33.2318 -33.1628 -33.0997 -33.0978 -32.9625
   -18.6435 -18.2519 -18.1470 -18.0978 -18.0813 -18.0050 -17.9554 -17.9204
   -17.7663 -17.7095 -17.7022 -17.6951 -17.6600 -17.6511 -17.6295 -17.6046
   -17.5613 -17.5584 -17.5396 -17.5182 -17.5017 -17.4371 -17.4213 -17.3841
   -17.3387 -17.3247 -17.2912 -17.2824 -17.2810 -17.1420 -17.1142 -16.9195
   -16.8320 -15.3989 -15.3451 -15.3423  -7.7482  -7.7013  -5.9380  -5.6208
    -5.5935  -5.5495  -5.3566  -5.3397  -5.2606  -5.2360  -5.1961  -5.1815
    -5.1269  -5.0512  -5.0317  -4.9974  -4.9711  -4.9458  -4.9032  -4.8781
    -4.8380  -4.8220  -4.7811  -4.7437  -4.7308  -4.7080  -4.6425  -4.6298
    -4.5848  -4.5580  -4.5136  -4.4692  -4.4631  -4.3907  -4.2905  -4.2737
    -4.2532  -4.2271  -4.1931  -4.1843  -4.1333  -4.0878  -4.0675  -4.0300
    -3.9842  -3.9542  -3.7916  -3.7357  -3.7015  -3.6566  -3.6337  -3.5865
    -3.5657  -3.4662  -3.4581  -3.3721  -3.3097  -3.2752  -3.2599  -3.2211
    -3.1661  -3.0913  -3.0001  -2.9763  -2.9428  -2.9275  -2.8876  -2.8608
    -2.8473  -2.7891  -2.7872  -2.7664  -2.7218  -2.6916  -2.6450  -2.5821
    -2.5121  -2.4961  -2.4629  -2.4402  -2.3690  -2.3403  -2.3205  -2.3033
    -2.2858  -2.1391  -2.0867  -2.0768  -2.0236  -2.0000  -1.9587  -1.9415
    -1.8210  -1.7913  -1.7586  -1.7418  -1.6087  -1.5737  -1.5635  -1.5389
    -1.2698  -0.9707  -0.7193  -0.6292  -0.6278  -0.4214  -0.4198  -0.3313
     1.1105   1.3788   1.4248   1.4733   1.4802   1.5228   1.5640   1.5888
     1.6551   1.7213   1.7704

          k = 0.0380 0.0280 0.0000 ( 26880 PWs)   bands (ev):

   -57.9224 -57.9018 -57.8862 -57.8702 -57.8411 -57.7394 -57.7370 -57.7128
   -57.6941 -57.6881 -57.6572 -57.6204 -57.4813 -57.4664 -57.4006 -56.9340
   -56.9192 -56.9044 -34.3520 -34.3148 -34.2493 -34.2336 -34.2226 -34.2193
   -34.2067 -34.1843 -34.1774 -34.1637 -34.1328 -34.1257 -34.1087 -34.0670
   -34.0632 -34.0529 -34.0466 -34.0349 -34.0244 -34.0229 -34.0211 -34.0077
   -33.9863 -33.9821 -33.9642 -33.9517 -33.9459 -33.9428 -33.9230 -33.9188
   -33.9162 -33.9121 -33.8954 -33.8850 -33.8815 -33.8776 -33.8650 -33.8620
   -33.8353 -33.7361 -33.6974 -33.6750 -33.6672 -33.6553 -33.5467 -33.3168
   -33.2515 -33.2393 -33.2274 -33.1573 -33.1556 -33.1200 -33.0829 -32.9888
   -18.5930 -18.2654 -18.1995 -18.1025 -18.0418 -18.0143 -17.9339 -17.8732
   -17.8301 -17.7791 -17.7139 -17.7017 -17.6708 -17.6475 -17.6278 -17.6012
   -17.5715 -17.5530 -17.5301 -17.5232 -17.4492 -17.4367 -17.4218 -17.3927
   -17.3591 -17.3129 -17.2925 -17.2828 -17.1940 -17.1432 -17.1392 -17.0070
   -16.7616 -15.4012 -15.3829 -15.3004  -7.7482  -7.7013  -5.8680  -5.5620
    -5.5292  -5.4697  -5.4662  -5.4441  -5.3921  -5.2535  -5.2166  -5.1563
    -5.1300  -5.0865  -5.0419  -5.0258  -5.0033  -4.9775  -4.9445  -4.9133
    -4.8767  -4.8535  -4.8055  -4.7590  -4.7211  -4.6845  -4.6499  -4.6368
    -4.5925  -4.5454  -4.5122  -4.4870  -4.4284  -4.3806  -4.3170  -4.3078
    -4.2765  -4.2501  -4.2091  -4.1521  -4.1123  -4.0727  -3.9786  -3.9168
    -3.8604  -3.8128  -3.7484  -3.7078  -3.6672  -3.6386  -3.5789  -3.5632
    -3.5315  -3.4931  -3.4233  -3.3701  -3.3193  -3.2622  -3.2486  -3.1786
    -3.1543  -3.0965  -3.0465  -3.0239  -2.9626  -2.9467  -2.8800  -2.8463
    -2.8015  -2.7805  -2.7680  -2.7149  -2.7071  -2.6581  -2.6091  -2.5659
    -2.5390  -2.4799  -2.4688  -2.4532  -2.4403  -2.3750  -2.3409  -2.3002
    -2.2705  -2.2607  -2.1817  -2.1284  -2.0625  -2.0028  -1.9748  -1.9499
    -1.8890  -1.8034  -1.7851  -1.7412  -1.6221  -1.5717  -1.4760  -1.4251
    -1.2995  -1.1299  -0.7801  -0.6674  -0.5422  -0.4125  -0.4090  -0.3377
     1.1831   1.3521   1.4081   1.4701   1.5196   1.5227   1.5957   1.6174
     1.6633   1.6966   1.7686

          k = 0.0380-0.0559 0.0000 ( 26850 PWs)   bands (ev):

   -57.9223 -57.8980 -57.8920 -57.8682 -57.8412 -57.7390 -57.7361 -57.7152
   -57.6928 -57.6875 -57.6582 -57.6199 -57.4803 -57.4675 -57.4004 -56.9286
   -56.9269 -56.9022 -34.3765 -34.3326 -34.2590 -34.2332 -34.2286 -34.2244
   -34.2202 -34.1791 -34.1667 -34.1318 -34.1195 -34.0948 -34.0885 -34.0626
   -34.0595 -34.0526 -34.0489 -34.0426 -34.0370 -34.0268 -33.9869 -33.9849
   -33.9767 -33.9759 -33.9658 -33.9539 -33.9495 -33.9452 -33.9353 -33.9239
   -33.9193 -33.9181 -33.9161 -33.9119 -33.8860 -33.8797 -33.8687 -33.8620
   -33.8368 -33.7094 -33.6966 -33.6758 -33.6659 -33.6550 -33.5683 -33.3413
   -33.2469 -33.2456 -33.2256 -33.1427 -33.1407 -33.0771 -33.0607 -33.0586
   -18.4739 -18.4291 -18.1395 -18.0593 -18.0413 -17.9714 -17.9553 -17.9101
   -17.8711 -17.8361 -17.7208 -17.7096 -17.6898 -17.6365 -17.6149 -17.6022
   -17.5817 -17.5426 -17.5024 -17.4910 -17.4666 -17.4510 -17.4119 -17.3978
   -17.3735 -17.3164 -17.2736 -17.2075 -17.2051 -17.1539 -17.1390 -17.0667
   -16.7235 -15.4021 -15.3991 -15.2815  -7.7482  -7.7013  -5.7026  -5.6582
    -5.5326  -5.5136  -5.4234  -5.4017  -5.3787  -5.2564  -5.2534  -5.1998
    -5.1856  -5.1643  -5.0759  -5.0449  -5.0373  -5.0058  -4.9760  -4.9178
    -4.9031  -4.8501  -4.8395  -4.8184  -4.8107  -4.6978  -4.6590  -4.6480
    -4.5820  -4.5489  -4.4781  -4.4547  -4.4065  -4.3982  -4.3488  -4.3319
    -4.2695  -4.2277  -4.1570  -4.1224  -4.0363  -3.9575  -3.9237  -3.9006
    -3.8027  -3.7789  -3.7585  -3.7078  -3.6032  -3.5748  -3.5488  -3.5225
    -3.4782  -3.4328  -3.3518  -3.3356  -3.3149  -3.2914  -3.2629  -3.1790
    -3.1344  -3.1117  -3.0954  -2.9477  -2.9328  -2.8654  -2.8602  -2.8330
    -2.8169  -2.8084  -2.7812  -2.7595  -2.7027  -2.6692  -2.5829  -2.5737
    -2.5665  -2.5422  -2.5172  -2.4701  -2.4367  -2.4119  -2.3809  -2.3397
    -2.2874  -2.2747  -2.2008  -2.1675  -2.1023  -2.0371  -1.9819  -1.9720
    -1.9135  -1.8576  -1.8282  -1.6524  -1.5627  -1.4992  -1.4867  -1.3647
    -1.3404  -1.3079  -0.8729  -0.5817  -0.5639  -0.4022  -0.3749  -0.3738
     1.3033   1.3238   1.3668   1.4812   1.5091   1.5280   1.5579   1.6098
     1.6560   1.7699   1.7752

          k = 0.0380-0.0280 0.0000 ( 26873 PWs)   bands (ev):

   -57.9224 -57.9018 -57.8862 -57.8702 -57.8411 -57.7393 -57.7370 -57.7128
   -57.6941 -57.6881 -57.6572 -57.6204 -57.4813 -57.4664 -57.4006 -56.9340
   -56.9192 -56.9044 -34.3520 -34.3148 -34.2493 -34.2336 -34.2226 -34.2193
   -34.2067 -34.1843 -34.1774 -34.1637 -34.1327 -34.1257 -34.1087 -34.0670
   -34.0632 -34.0529 -34.0466 -34.0349 -34.0244 -34.0229 -34.0210 -34.0077
   -33.9863 -33.9821 -33.9641 -33.9517 -33.9458 -33.9428 -33.9230 -33.9187
   -33.9162 -33.9121 -33.8954 -33.8850 -33.8815 -33.8775 -33.8650 -33.8620
   -33.8353 -33.7361 -33.6974 -33.6750 -33.6672 -33.6553 -33.5467 -33.3168
   -33.2515 -33.2393 -33.2274 -33.1572 -33.1555 -33.1200 -33.0829 -32.9888
   -18.5931 -18.2653 -18.1995 -18.1025 -18.0418 -18.0144 -17.9339 -17.8735
   -17.8302 -17.7789 -17.7142 -17.7016 -17.6710 -17.6473 -17.6278 -17.6011
   -17.5714 -17.5531 -17.5300 -17.5234 -17.4494 -17.4367 -17.4218 -17.3927
   -17.3590 -17.3128 -17.2924 -17.2822 -17.1943 -17.1432 -17.1394 -17.0070
   -16.7616 -15.4012 -15.3829 -15.3004  -7.7481  -7.7013  -5.8681  -5.5621
    -5.5292  -5.4693  -5.4661  -5.4436  -5.3919  -5.2538  -5.2167  -5.1563
    -5.1301  -5.0865  -5.0417  -5.0259  -5.0033  -4.9775  -4.9447  -4.9140
    -4.8768  -4.8533  -4.8054  -4.7590  -4.7209  -4.6844  -4.6500  -4.6372
    -4.5926  -4.5458  -4.5124  -4.4869  -4.4280  -4.3806  -4.3169  -4.3082
    -4.2766  -4.2498  -4.2089  -4.1519  -4.1121  -4.0726  -3.9790  -3.9169
    -3.8602  -3.8128  -3.7484  -3.7077  -3.6663  -3.6383  -3.5788  -3.5632
    -3.5317  -3.4928  -3.4236  -3.3699  -3.3193  -3.2627  -3.2488  -3.1786
    -3.1546  -3.0962  -3.0468  -3.0240  -2.9623  -2.9469  -2.8799  -2.8462
    -2.8020  -2.7809  -2.7683  -2.7143  -2.7075  -2.6580  -2.6088  -2.5655
    -2.5385  -2.4795  -2.4687  -2.4530  -2.4400  -2.3746  -2.3411  -2.3009
    -2.2705  -2.2609  -2.1819  -2.1288  -2.0624  -2.0028  -1.9746  -1.9499
    -1.8892  -1.8037  -1.7851  -1.7412  -1.6222  -1.5719  -1.4760  -1.4249
    -1.2995  -1.1299  -0.7801  -0.6674  -0.5422  -0.4131  -0.4090  -0.3372
     1.1832   1.3522   1.4082   1.4709   1.5191   1.5232   1.5957   1.6175
     1.6634   1.6963   1.7685

          k =-0.0760-0.0000 0.0000 ( 26902 PWs)   bands (ev):

   -57.9224 -57.9038 -57.8806 -57.8738 -57.8410 -57.7398 -57.7374 -57.7102
   -57.6956 -57.6887 -57.6563 -57.6209 -57.4821 -57.4654 -57.4009 -56.9362
   -56.9116 -56.9099 -34.2915 -34.2888 -34.2835 -34.2421 -34.2316 -34.2139
   -34.2108 -34.1767 -34.1700 -34.1657 -34.1534 -34.1360 -34.1305 -34.1064
   -34.0955 -34.0659 -34.0316 -34.0221 -34.0095 -34.0020 -33.9963 -33.9949
   -33.9889 -33.9848 -33.9824 -33.9720 -33.9523 -33.9247 -33.9232 -33.9226
   -33.9157 -33.9061 -33.8939 -33.8929 -33.8791 -33.8623 -33.8613 -33.8490
   -33.8334 -33.7586 -33.7026 -33.6742 -33.6678 -33.6564 -33.5302 -33.2567
   -33.2504 -33.2480 -33.2329 -33.2315 -33.1628 -33.0997 -33.0978 -32.9626
   -18.5390 -18.2029 -18.1162 -18.0829 -18.0184 -17.9468 -17.9385 -17.8885
   -17.8772 -17.7420 -17.7086 -17.6996 -17.6842 -17.6804 -17.6776 -17.6067
   -17.6035 -17.5824 -17.5392 -17.5292 -17.5261 -17.5102 -17.4036 -17.3670
   -17.3391 -17.3332 -17.3068 -17.2517 -17.2492 -17.1922 -17.1374 -16.9209
   -16.8323 -15.3957 -15.3455 -15.3427  -7.7408  -7.6997  -5.8799  -5.3705
    -5.3061  -5.3047  -5.3001  -5.2758  -5.2575  -5.2259  -5.1824  -5.1755
    -5.1216  -5.0396  -4.9901  -4.9663  -4.9654  -4.9268  -4.9047  -4.8732
    -4.8550  -4.8404  -4.8208  -4.7783  -4.6870  -4.6707  -4.6664  -4.6323
    -4.6189  -4.5297  -4.5245  -4.4908  -4.4191  -4.3876  -4.3533  -4.2491
    -4.2096  -4.1749  -4.1623  -4.1441  -4.1190  -4.0619  -4.0599  -3.8962
    -3.8945  -3.8899  -3.8822  -3.7419  -3.6969  -3.6529  -3.5921  -3.5613
    -3.5409  -3.5134  -3.5024  -3.4538  -3.4458  -3.3379  -3.3207  -3.3152
    -3.2344  -3.1839  -3.1559  -3.0404  -3.0216  -2.9905  -2.9649  -2.9409
    -2.9189  -2.8635  -2.8157  -2.8017  -2.7142  -2.6705  -2.6526  -2.6461
    -2.6322  -2.6122  -2.5772  -2.5230  -2.4370  -2.3212  -2.3096  -2.2877
    -2.2025  -2.1219  -2.0996  -2.0773  -2.0294  -1.9628  -1.9085  -1.8489
    -1.8309  -1.7928  -1.7456  -1.7106  -1.6967  -1.6067  -1.5363  -1.5320
    -1.5044  -0.9657  -0.7418  -0.6123  -0.6110  -0.4677  -0.4661  -0.3939
     1.1099   1.2766   1.4049   1.4240   1.4305   1.4704   1.5351   1.6203
     1.6638   1.6729   1.6813

          k =-0.0760 0.0279 0.0000 ( 26908 PWs)   bands (ev):

   -57.9224 -57.9017 -57.8862 -57.8702 -57.8411 -57.7393 -57.7369 -57.7127
   -57.6941 -57.6882 -57.6573 -57.6204 -57.4813 -57.4664 -57.4006 -56.9340
   -56.9193 -56.9045 -34.3531 -34.3162 -34.2495 -34.2336 -34.2227 -34.2193
   -34.2127 -34.1850 -34.1776 -34.1640 -34.1300 -34.1265 -34.1094 -34.0723
   -34.0603 -34.0483 -34.0368 -34.0230 -34.0215 -34.0212 -34.0196 -33.9868
   -33.9823 -33.9784 -33.9712 -33.9634 -33.9517 -33.9433 -33.9340 -33.9229
   -33.9159 -33.9123 -33.8943 -33.8892 -33.8806 -33.8799 -33.8654 -33.8620
   -33.8352 -33.7360 -33.7013 -33.6765 -33.6672 -33.6552 -33.5468 -33.3166
   -33.2547 -33.2403 -33.2263 -33.1572 -33.1555 -33.1201 -33.0829 -32.9888
   -18.4947 -18.2036 -18.1595 -18.0663 -18.0173 -17.9322 -17.9187 -17.9045
   -17.8547 -17.8206 -17.6938 -17.6931 -17.6755 -17.6702 -17.6632 -17.6271
   -17.6075 -17.5860 -17.5469 -17.5438 -17.5234 -17.5133 -17.4185 -17.4033
   -17.3446 -17.3342 -17.3237 -17.2621 -17.2148 -17.1341 -17.1156 -17.0032
   -16.7623 -15.3985 -15.3826 -15.3005  -7.7408  -7.6996  -5.8109  -5.5450
    -5.4267  -5.3961  -5.3104  -5.2562  -5.1906  -5.1849  -5.1242  -5.1210
    -5.0937  -5.0822  -5.0537  -5.0443  -5.0398  -4.9976  -4.9306  -4.9183
    -4.8213  -4.7986  -4.7709  -4.7455  -4.6693  -4.6587  -4.6207  -4.6179
    -4.5240  -4.4812  -4.4768  -4.4388  -4.4231  -4.3924  -4.3854  -4.3418
    -4.2626  -4.2524  -4.2249  -4.1084  -4.0698  -4.0648  -3.9835  -3.9191
    -3.9037  -3.7943  -3.7878  -3.6806  -3.6217  -3.5949  -3.5681  -3.5664
    -3.5467  -3.4883  -3.4496  -3.3739  -3.3528  -3.3388  -3.2989  -3.2799
    -3.2732  -3.1972  -3.1954  -3.0862  -3.0754  -2.9489  -2.9126  -2.8836
    -2.8651  -2.8500  -2.8494  -2.7952  -2.7512  -2.7445  -2.7241  -2.6825
    -2.6645  -2.6410  -2.5437  -2.5146  -2.4993  -2.4321  -2.4125  -2.3344
    -2.3000  -2.1746  -2.1646  -2.0196  -1.9777  -1.9537  -1.9131  -1.8639
    -1.8613  -1.8118  -1.7671  -1.6668  -1.6154  -1.6083  -1.5765  -1.4811
    -1.3539  -1.1502  -0.7658  -0.6687  -0.5268  -0.5106  -0.4158  -0.3712
     1.1813   1.2922   1.3287   1.4182   1.4385   1.5112   1.5483   1.5676
     1.5999   1.6375   1.7231

          k =-0.0760-0.0559 0.0000 ( 26868 PWs)   bands (ev):

   -57.9223 -57.8980 -57.8920 -57.8682 -57.8412 -57.7390 -57.7361 -57.7151
   -57.6928 -57.6876 -57.6582 -57.6199 -57.4803 -57.4675 -57.4004 -56.9286
   -56.9269 -56.9022 -34.3774 -34.3339 -34.2589 -34.2344 -34.2328 -34.2245
   -34.2203 -34.1791 -34.1668 -34.1293 -34.1197 -34.0952 -34.0889 -34.0630
   -34.0608 -34.0468 -34.0417 -34.0326 -34.0236 -34.0214 -33.9882 -33.9820
   -33.9787 -33.9762 -33.9587 -33.9576 -33.9517 -33.9513 -33.9450 -33.9305
   -33.9203 -33.9173 -33.9157 -33.9149 -33.8859 -33.8843 -33.8686 -33.8620
   -33.8366 -33.7093 -33.6998 -33.6787 -33.6658 -33.6544 -33.5683 -33.3409
   -33.2492 -33.2479 -33.2242 -33.1427 -33.1406 -33.0770 -33.0607 -33.0587
   -18.4012 -18.3341 -18.0681 -18.0263 -18.0095 -18.0070 -17.9431 -17.9086
   -17.8342 -17.8174 -17.7339 -17.6851 -17.6655 -17.6625 -17.6392 -17.6051
   -17.6038 -17.5900 -17.5808 -17.5476 -17.5385 -17.5244 -17.4995 -17.4000
   -17.3482 -17.3140 -17.2752 -17.2670 -17.2287 -17.1250 -17.0646 -17.0594
   -16.7234 -15.4005 -15.3976 -15.2812  -7.7408  -7.6996  -5.6555  -5.6465
    -5.5905  -5.5226  -5.3406  -5.2158  -5.1913  -5.1879  -5.1080  -5.0731
    -5.0488  -5.0419  -5.0345  -5.0195  -5.0071  -4.9927  -4.9351  -4.8985
    -4.8408  -4.8238  -4.8189  -4.8108  -4.7830  -4.7578  -4.6185  -4.6172
    -4.5594  -4.5401  -4.4513  -4.4451  -4.4027  -4.3997  -4.3581  -4.3108
    -4.2715  -4.2613  -4.0682  -4.0439  -3.9985  -3.9888  -3.9835  -3.9312
    -3.8860  -3.7769  -3.6822  -3.6046  -3.5673  -3.5414  -3.5328  -3.5201
    -3.4868  -3.4441  -3.3922  -3.3793  -3.3650  -3.3466  -3.3214  -3.2665
    -3.1843  -3.1213  -3.0869  -3.0785  -3.0493  -3.0299  -3.0189  -3.0120
    -2.9449  -2.9434  -2.8786  -2.8502  -2.8096  -2.7899  -2.7559  -2.7218
    -2.6572  -2.6405  -2.6139  -2.4788  -2.4540  -2.4480  -2.4299  -2.4004
    -2.3030  -2.1775  -2.1591  -2.1323  -1.9848  -1.9487  -1.9447  -1.9272
    -1.8640  -1.7977  -1.6800  -1.6718  -1.5533  -1.5120  -1.4829  -1.4727
    -1.4623  -1.2590  -0.8515  -0.5738  -0.5567  -0.5308  -0.3728  -0.3708
     1.2427   1.3352   1.3691   1.4010   1.4440   1.4516   1.4657   1.5185
     1.5830   1.6180   1.8028

     the Fermi energy is     1.1846 ev

!    total energy              =   -3272.09870427 Ry
     estimated scf accuracy    <       0.00000006 Ry
     smearing contrib. (-TS)   =      -0.03416835 Ry
     internal energy E=F+TS    =   -3272.06453592 Ry

     The total energy is F=E-TS. E is the sum of the following terms:
     one-electron contribution =  -34228.36487033 Ry
     hartree contribution      =   17175.32070749 Ry
     xc contribution           =    -536.09944708 Ry
     ewald contribution        =   14317.07661780 Ry
     electric field correction =       0.00245620 Ry

     convergence has been achieved in  53 iterations

     Forces acting on atoms (cartesian axes, Ry/au):

     atom    1 type  1   force =     0.00003622    0.00678217    0.05074970
     atom    2 type  1   force =     0.00001151    0.00016641   -0.00009567
     atom    3 type  1   force =    -0.00000589    0.00092448    0.00018953
     atom    4 type  1   force =     0.00005946    0.00003231    0.10708998
     atom    5 type  1   force =    -0.00000457   -0.00021415    0.00740967
     atom    6 type  1   force =    -0.00001912   -0.00258242    0.00290302
     atom    7 type  1   force =     0.06680274   -0.00010503   -0.02923163
     atom    8 type  1   force =     0.00531450   -0.02807158    0.00305146
     atom    9 type  1   force =     0.00872205   -0.01018390   -0.00351907
     atom   10 type  2   force =    -0.00005834   -0.00259924   -0.18471757
     atom   11 type  2   force =    -0.00000983    0.02119595   -0.00781453
     atom   12 type  2   force =     0.00005951    0.00857354    0.00653119
     atom   13 type  1   force =    -0.06690249   -0.00055865   -0.02921636
     atom   14 type  1   force =    -0.00534488   -0.02801908    0.00306634
     atom   15 type  1   force =    -0.00876845   -0.01019195   -0.00355723
     atom   16 type  2   force =     0.00011848    0.00034690    0.06937918
     atom   17 type  2   force =    -0.00001088    0.03413143    0.00274691
     atom   18 type  2   force =     0.00000174   -0.00323705   -0.00522984
     atom   19 type  1   force =     0.00003171    0.00400770    0.06216522
     atom   20 type  1   force =     0.00001435    0.00066729   -0.00577267
     atom   21 type  1   force =     0.00005975    0.00057422    0.10775056
     atom   22 type  1   force =     0.00000463   -0.00106078    0.00864773
     atom   23 type  1   force =    -0.00002174    0.00172862    0.00489928
     atom   24 type  1   force =     0.06727202    0.00040300   -0.02918500
     atom   25 type  1   force =     0.00510581   -0.03016590    0.00336976
     atom   26 type  1   force =     0.01016627    0.01532648   -0.00075893
     atom   27 type  2   force =    -0.00005994   -0.00058255   -0.18588606
     atom   28 type  2   force =    -0.00001593    0.02136928   -0.00694622
     atom   29 type  2   force =     0.00005177   -0.01803343   -0.00052773
     atom   30 type  1   force =    -0.06736995   -0.00005198   -0.02917262
     atom   31 type  1   force =    -0.00514743   -0.03010192    0.00337936
     atom   32 type  1   force =    -0.01019366    0.01540967   -0.00066051
     atom   33 type  2   force =     0.00010786   -0.00104120    0.07139754
     atom   34 type  2   force =     0.00000279    0.03678176    0.00394321
     atom   35 type  2   force =    -0.00026732   -0.02118353    0.01012494
     atom   36 type  1   force =     0.00004198    0.00352582    0.05350562
     atom   37 type  1   force =    -0.00000306    0.00213696   -0.00353247
     atom   38 type  1   force =    -0.00005266    0.00363972    0.00119086
     atom   39 type  1   force =     0.00005677   -0.00014602    0.10731507
     atom   40 type  1   force =    -0.00000016   -0.00047881    0.00806280
     atom   41 type  1   force =    -0.00000885    0.00234906    0.00211410
     atom   42 type  1   force =     0.06752175   -0.00106146   -0.02900669
     atom   43 type  1   force =     0.00378735   -0.02774017    0.00194739
     atom   44 type  1   force =     0.01107636    0.00350327    0.00291763
     atom   45 type  2   force =    -0.00004583   -0.00029956   -0.18504509
     atom   46 type  2   force =     0.00000603    0.01828791   -0.00603824
     atom   47 type  2   force =     0.00009645   -0.00309013   -0.01515113
     atom   48 type  1   force =    -0.06761306   -0.00150819   -0.02899743
     atom   49 type  1   force =    -0.00385348   -0.02768995    0.00196033
     atom   50 type  1   force =    -0.01105788    0.00341295    0.00304231
     atom   51 type  2   force =     0.00012767   -0.00224075    0.07047474
     atom   52 type  2   force =    -0.00003319    0.03273655    0.00640104
     atom   53 type  2   force =    -0.00004741    0.01448905    0.00236719
     atom   54 type  3   force =    -0.00489983   -0.00205229   -0.00329039
     atom   55 type  4   force =     0.00047196   -0.00029124   -0.00009895
     atom   56 type  4   force =     0.00051797    0.00003008    0.00030934
     atom   57 type  4   force =     0.00416840    0.00205033    0.00304904

     Total force =     0.455397     Total SCF correction =     0.000733
  @ DRIVER MODE: Message from server: STATUS
  @ DRIVER MODE: Message from server: GETFORCE
  @ DRIVER MODE: Returning v,forces,stress,ensemble 

     Writing output data file ./calc.save/
  @ DRIVER MODE: Message from server: EXIT
  @ DRIVE MODE: Exiting  
 
     init_run     :     17.87s CPU     18.26s WALL (       1 calls)
     electrons    :   1632.97s CPU   1664.65s WALL (       1 calls)
     forces       :      4.44s CPU      4.61s WALL (       1 calls)

     Called by init_run:
     wfcinit      :      9.54s CPU      9.68s WALL (       1 calls)
     potinit      :      7.29s CPU      7.38s WALL (       1 calls)
     hinit0       :      0.42s CPU      0.44s WALL (       1 calls)

     Called by electrons:
     c_bands      :   1376.11s CPU   1392.55s WALL (      53 calls)
     sum_band     :    177.06s CPU    184.26s WALL (      53 calls)
     v_of_rho     :     61.69s CPU     63.85s WALL (      54 calls)
     newd         :     21.99s CPU     27.77s WALL (      54 calls)
     mix_rho      :      2.36s CPU      2.48s WALL (      53 calls)
     vdW_kernel   :      5.84s CPU      5.85s WALL (       1 calls)

     Called by c_bands:
     init_us_2    :     10.23s CPU     10.29s WALL (    1080 calls)
     cegterg      :   1347.02s CPU   1362.95s WALL (     532 calls)

     Called by *egterg:
     cdiaghg      :    185.49s CPU    186.35s WALL (    6160 calls)
     h_psi        :    747.10s CPU    757.27s WALL (    6171 calls)
     s_psi        :    104.82s CPU    105.11s WALL (    6171 calls)
     g_psi        :      2.62s CPU      2.63s WALL (    5629 calls)

     Called by h_psi:
     h_psi:calbec :     97.26s CPU     98.19s WALL (    6171 calls)
     vloc_psi     :    540.24s CPU    544.86s WALL (    6171 calls)
     add_vuspsi   :    105.43s CPU    107.53s WALL (    6171 calls)

     General routines
     calbec       :    129.01s CPU    130.03s WALL (    6741 calls)
     fft          :     34.60s CPU     34.77s WALL (    3402 calls)
     ffts         :      0.19s CPU      0.19s WALL (     107 calls)
     fftw         :    602.10s CPU    607.11s WALL (  757392 calls)
     interpolate  :      0.67s CPU      0.68s WALL (      54 calls)
     davcio       :      0.01s CPU      0.15s WALL (      10 calls)
 
     Parallel routines
 
     PWSCF        :  27m35.64s CPU  28m 8.27s WALL

 
   This run was terminated on:  23: 7:42  18Oct2021            

=------------------------------------------------------------------------------=
   JOB DONE.
=------------------------------------------------------------------------------=
