
     Program PWSCF v.6.7GPU starts on 15Sep2021 at 16:15: 4 

     This program is part of the open-source Quantum ESPRESSO suite
     for quantum simulation of materials; please cite
         "P. Giannozzi et al., J. Phys.:Condens. Matter 21 395502 (2009);
         "P. Giannozzi et al., J. Phys.:Condens. Matter 29 465901 (2017);
         "P. Giannozzi et al., J. Chem. Phys. 152 154105 (2020);
          URL http://www.quantum-espresso.org", 
     in publications or presentations arising from this work. More details at
     http://www.quantum-espresso.org/quote

     Parallel version (MPI), running on    10 processors

     MPI processes distributed on     1 nodes
     R & G space division:  proc/nbgrp/npool/nimage =      10
     Reading input from /storage/home/hcoda1/3/ntian30/research/carbon/CxH_vib/H2O_calc/ads_slab/CH3NHNH2H2O_a/out_0002/pw.inp
Warning: card &CELL ignored
Warning: card   CELL_DYNAMICS='IPI', ignored
Warning: card / ignored

     Current dimensions of program PWSCF are:
     Max number of different atomic species (ntypx) = 10
     Max number of k-points (npk) =  40000
     Max angular momentum in pseudopotentials (lmaxx) =  3
     Presently no symmetry can be used with electric field

     Message from routine cell_base_init:
     DEPRECATED: use true lattice parameter, not A to a.u. conversion factor

     **************************************************************************
     Initializing libbeef V0.1.2 with the BEEF-vdW functional.
     Citation: Wellendorff et al., PRB 85, 235149 (2012).
     **************************************************************************


     IMPORTANT: XC functional enforced from input :
     Exchange-correlation= BEEF-VDW
                           (   1   4  43  14   2   0   0)
     Any further DFT definition will be discarded
     Please, verify this is what you really want


     Subspace diagonalization in iterative solution of the eigenvalue problem:
     one sub-group per band group will be used
     scalapack distributed-memory algorithm (size of sub-group:  3*  3 procs)

  @ DRIVER MODE: Connecting to 
 qe_1139763_2852619.sched-torque.pace.gatech.edujajkwr2l_scratch
  using UNIX socket
  @ DRIVER MODE: Message from server: STATUS
  @ DRIVER MODE: Message from server: INIT
  @ DRIVER MODE: Receiving replica           0          -1
  @ DRIVER MODE: Receiving encoded integer          25
  @ DRIVER MODE:  SCF:  T  FORCE:  T  STRESS:  F  VC:  F  ENSEMBLE:  F
  @ DRIVER MODE:  SCF:  T  FORCE:  T  STRESS:  F  VC:  F  ENSEMBLE:  F
 
     Parallelization info
     --------------------
     sticks:   dense  smooth     PW     G-vecs:    dense   smooth      PW
     Min         327     131     37                56683    14340    2191
     Max         328     133     38                56694    14346    2206
     Sum        3275    1317    379               566857   143421   21985
 
     Using Slab Decomposition
 


     bravais-lattice index     =            0
     lattice parameter (alat)  =       1.8897  a.u.
     unit-cell volume          =    6658.9804 (a.u.)^3
     number of atoms/cell      =           59
     number of atomic types    =            5
     number of electrons       =       406.00
     number of Kohn-Sham states=          213
     kinetic-energy cutoff     =      29.3995  Ry
     charge density cutoff     =     293.9946  Ry
     scf convergence threshold =      7.3E-08
     mixing beta               =       0.0500
     number of iterations used =            8  plain     mixing
     Exchange-correlation= BEEF-VDW
                           (   1   4  43  14   2   0   0)

     celldm(1)=   1.889726  celldm(2)=   0.000000  celldm(3)=   0.000000
     celldm(4)=   0.000000  celldm(5)=   0.000000  celldm(6)=   0.000000

     crystal axes: (cart. coord. in units of alat)
               a(1) = (   6.579727   0.000000   0.000000 )  
               a(2) = (  -0.000775   5.961596   0.000000 )  
               a(3) = (   0.000000   0.000000  25.155947 )  

     reciprocal axes: (cart. coord. in units 2 pi/alat)
               b(1) = (  0.151982  0.000020  0.000000 )  
               b(2) = (  0.000000  0.167740  0.000000 )  
               b(3) = (  0.000000  0.000000  0.039752 )  


     PseudoPot. # 1 for Ti read from file:
     /storage/coda1/p-amedford6/0/shared/rich_project_chbe-medford/medford-share/data/pseudos_module/espresso/nninc/pbe/van/Ti.UPF
     MD5 check sum: 8e4df49b7f0d34bbd5052bf3f5ea0213
     Pseudo is Ultrasoft, Zval = 12.0
     Generated by new atomic code, or converted to UPF format
     Using radial grid of  851 points,  6 beta functions with: 
                l(1) =   0
                l(2) =   0
                l(3) =   1
                l(4) =   1
                l(5) =   2
                l(6) =   2
     Q(r) pseudized with  8 coefficients,  rinner =    1.000   1.000   1.000
                                                       1.000   1.000

     PseudoPot. # 2 for O  read from file:
     /storage/coda1/p-amedford6/0/shared/rich_project_chbe-medford/medford-share/data/pseudos_module/espresso/nninc/pbe/van/O.UPF
     MD5 check sum: 78c19812648e8988a0fe644b0f25305e
     Pseudo is Ultrasoft, Zval =  6.0
     Generated by new atomic code, or converted to UPF format
     Using radial grid of  737 points,  4 beta functions with: 
                l(1) =   0
                l(2) =   0
                l(3) =   1
                l(4) =   1
     Q(r) pseudized with  8 coefficients,  rinner =    0.800   0.800   0.800


     PseudoPot. # 3 for N  read from file:
     /storage/coda1/p-amedford6/0/shared/rich_project_chbe-medford/medford-share/data/pseudos_module/espresso/nninc/pbe/van/N.UPF
     MD5 check sum: 90d10febe142ad51ac9d5be1deb811c4
     Pseudo is Ultrasoft, Zval =  5.0
     Generated by new atomic code, or converted to UPF format
     Using radial grid of  729 points,  4 beta functions with: 
                l(1) =   0
                l(2) =   0
                l(3) =   1
                l(4) =   1
     Q(r) pseudized with  8 coefficients,  rinner =    0.800   0.800   0.800


     PseudoPot. # 4 for C  read from file:
     /storage/coda1/p-amedford6/0/shared/rich_project_chbe-medford/medford-share/data/pseudos_module/espresso/nninc/pbe/van/C.UPF
     MD5 check sum: 1a69bf6b8db32088f5b2163dbdb77a27
     Pseudo is Ultrasoft, Zval =  4.0
     Generated by new atomic code, or converted to UPF format
     Using radial grid of  721 points,  4 beta functions with: 
                l(1) =   0
                l(2) =   0
                l(3) =   1
                l(4) =   1
     Q(r) pseudized with  8 coefficients,  rinner =    0.800   0.800   0.800


     PseudoPot. # 5 for H  read from file:
     /storage/coda1/p-amedford6/0/shared/rich_project_chbe-medford/medford-share/data/pseudos_module/espresso/nninc/pbe/van/H.UPF
     MD5 check sum: b5ee9d7bfd3a09ee7748110bda690ff7
     Pseudo is Ultrasoft, Zval =  1.0
     Generated by new atomic code, or converted to UPF format
     Using radial grid of  615 points,  1 beta functions with: 
                l(1) =   0
     Q(r) pseudized with  8 coefficients,  rinner =    0.800

     atomic species   valence    mass     pseudopotential
        Ti1           12.00    47.86700     Ti( 1.00)
        O1             6.00    15.99900     O ( 1.00)
        N1             5.00    14.00700     N ( 1.00)
        C1             4.00    12.01100     C ( 1.00)
        H1             1.00     1.00800     H ( 1.00)

     No symmetry found



   Cartesian axes

     site n.     atom                  positions (alat units)
         1           Ti1 tau(   1) = (   0.0004258   2.9801865   6.0000000  )
         2           Ti1 tau(   2) = (   3.2906075   1.4906267   6.0002472  )
         3           O1  tau(   3) = (   0.0006271   0.0005054   7.9858123  )
         4           O1  tau(   4) = (   3.2906025   0.0005020   7.3038282  )
         5           O1  tau(   5) = (   4.5942328   1.4918067   9.2879030  )
         6           O1  tau(   6) = (   1.9868534   1.4903216   9.2879459  )
         7           Ti1 tau(   7) = (   3.2907910   2.8959150   9.1758416  )
         8           Ti1 tau(   8) = (   0.0015273   1.4827037   9.2680791  )
         9           O1  tau(   9) = (   3.2683845   0.0132936  11.3796717  )
        10           O1  tau(  10) = (   0.0116148   5.9584955  10.6183126  )
        11           O1  tau(  11) = (   1.2681313   1.5011218  12.7194972  )
        12           O1  tau(  12) = (   5.2787963   1.4993765  12.6897032  )
        13           Ti1 tau(  13) = (   6.5560253   2.9823375  12.4990790  )
        14           Ti1 tau(  14) = (   3.2673924   1.4925278  12.5394213  )
        15           O1  tau(  15) = (   6.5345332   5.8735037  14.6996474  )
        16           O1  tau(  16) = (   3.2898196   5.9462848  13.9939205  )
        17           O1  tau(  17) = (   4.4957945   1.5291507  16.1605787  )
        18           O1  tau(  18) = (   1.9883785   1.5110281  16.0762771  )
        19           Ti1 tau(  19) = (   3.2526948   3.0056396  15.7740191  )
        20           Ti1 tau(  20) = (   0.0000763   1.3299063  15.8143521  )
        21           O1  tau(  21) = (   3.2904802   0.0005063   4.7018136  )
        22           O1  tau(  22) = (   6.5205728   0.2065101  17.2442985  )
        23           O1  tau(  23) = (   1.3043587   1.4918075   6.0039043  )
        24           O1  tau(  24) = (   5.2767064   1.4903225   6.0039473  )
        25           Ti1 tau(  25) = (   0.0000382   5.9609847   6.0000000  )
        26           Ti1 tau(  26) = (   3.2902200   4.4714249   6.0002472  )
        27           O1  tau(  27) = (   0.0002396   2.9813036   7.9858123  )
        28           O1  tau(  28) = (   3.2902150   2.9813002   7.3038282  )
        29           O1  tau(  29) = (   4.5938453   4.4726049   9.2879030  )
        30           O1  tau(  30) = (   1.9864658   4.4711199   9.2879459  )
        31           Ti1 tau(  31) = (   3.2891106   5.8743827   9.1763621  )
        32           Ti1 tau(  32) = (   0.0006254   4.4649316   9.2693709  )
        33           O1  tau(  33) = (   3.2688559   2.9716192  11.3757022  )
        34           O1  tau(  34) = (   0.0092240   2.9805883  10.6323155  )
        35           O1  tau(  35) = (   1.2711362   4.4646907  12.6658965  )
        36           O1  tau(  36) = (   5.2748280   4.4660984  12.6332574  )
        37           Ti1 tau(  37) = (   6.5627654   5.9477838  12.5072267  )
        38           Ti1 tau(  38) = (   3.2667511   4.4702655  12.5260729  )
        39           O1  tau(  39) = (   6.5087961   3.0586107  15.0099536  )
        40           O1  tau(  40) = (   3.2849776   3.0149387  13.9815115  )
        41           O1  tau(  41) = (   4.4906635   4.4862850  16.2792570  )
        42           O1  tau(  42) = (   1.9756856   4.4939852  16.2100911  )
        43           Ti1 tau(  43) = (   3.2747729   0.0241646  15.7895078  )
        44           Ti1 tau(  44) = (   6.5697470   4.5456975  16.1185117  )
        45           O1  tau(  45) = (   3.2900926   2.9813045   4.7018136  )
        46           O1  tau(  46) = (   1.3039711   4.4726057   6.0039043  )
        47           O1  tau(  47) = (   5.2763189   4.4711207   6.0039473  )
        48           N1  tau(  48) = (   1.0080056   3.0961469  19.0053282  )
        49           N1  tau(  49) = (   6.4063515   3.4839273  18.2229180  )
        50           C1  tau(  50) = (   1.6570833   4.2684698  19.5811903  )
        51           H1  tau(  51) = (   0.9936588   4.8902639  20.1979557  )
        52           H1  tau(  52) = (   2.4789334   3.9063689  20.1993048  )
        53           H1  tau(  53) = (   2.0598354   4.8861676  18.7819781  )
        54           H1  tau(  54) = (   0.6510520   2.5058952  19.7602174  )
        55           H1  tau(  55) = (   5.8507131   4.1735594  18.7414995  )
        56           H1  tau(  56) = (   5.8147758   2.6545292  18.1916272  )
        57           O1  tau(  57) = (   5.1718451   0.7889162  19.5681371  )
        58           H1  tau(  58) = (   5.5516362   0.5215711  18.6954158  )
        59           H1  tau(  59) = (   4.2099197   0.7512590  19.4668632  )

     number of k points=    10  Fermi-Dirac smearing, width (Ry)=  0.0073
                       cart. coord. in units 2pi/alat
        k(    1) = (   0.0000000   0.0000000   0.0000000), wk =   0.1250000
        k(    2) = (   0.0000000   0.0419351   0.0000000), wk =   0.2500000
        k(    3) = (   0.0000000  -0.0838702   0.0000000), wk =   0.1250000
        k(    4) = (   0.0379955   0.0000049   0.0000000), wk =   0.2500000
        k(    5) = (   0.0379955   0.0419400   0.0000000), wk =   0.2500000
        k(    6) = (   0.0379955  -0.0838652   0.0000000), wk =   0.2500000
        k(    7) = (   0.0379955  -0.0419301   0.0000000), wk =   0.2500000
        k(    8) = (  -0.0759910  -0.0000099   0.0000000), wk =   0.1250000
        k(    9) = (  -0.0759910   0.0419252   0.0000000), wk =   0.2500000
        k(   10) = (  -0.0759910  -0.0838800   0.0000000), wk =   0.1250000

     Dense  grid:   566857 G-vectors     FFT dimensions: (  72,  64, 270)

     Smooth grid:   143421 G-vectors     FFT dimensions: (  45,  40, 180)

     Estimated max dynamical RAM per process >     368.16 MB

     Estimated total dynamical RAM >       3.60 GB
     Cannot read rho : file not found

     Initial potential from superposition of free atoms

     starting charge  389.99912, renormalised to  406.00000

     negative rho (up, down):  1.389E-02 0.000E+00


     %%%%%%%%%%%%%%%%%%%%%%%%%%%%%%%%%%%%%%%%%%%%%%%%%%%%%%%%%%%%%%%%%%%%%%%%
     %                                                                      %
     % You are using vdW-DF, which was implemented by the Thonhauser group. %
     % Please cite the following two papers that made this development      %
     % possible and the two reviews that describe the various versions:     %
     %                                                                      %
     %   T. Thonhauser et al., PRL 115, 136402 (2015).                      %
     %   T. Thonhauser et al., PRB 76, 125112 (2007).                       %
     %   K. Berland et al., Rep. Prog. Phys. 78, 066501 (2015).             %
     %   D.C. Langreth et al., J. Phys.: Condens. Matter 21, 084203 (2009). %
     %                                                                      %
     %                                                                      %
     % If you are calculating the stress with vdW-DF, please also cite:     %
     %                                                                      %
     %   R. Sabatini et al., J. Phys.: Condens. Matter 24, 424209 (2012).   %
     %                                                                      %
     %%%%%%%%%%%%%%%%%%%%%%%%%%%%%%%%%%%%%%%%%%%%%%%%%%%%%%%%%%%%%%%%%%%%%%%%


 
     Adding external electric field

     Computed dipole along edir(3) : 
        Dipole              -16.7176 Ry au,        -42.4920 Debye
        Dipole field         -0.0315 Ry au, 
 
        Potential amp.        2.9245 Ry
        Total length         46.3494 bohr
 
     Starting wfcs are  308 atomic wfcs
  @ DRIVER MODE: Message from server: STATUS
  @ DRIVER MODE: Message from server: POSDATA
  @ DRIVER MODE: Reading and sharing cell 
  @ DRIVER MODE: Reading and sharing positions 
  @ DRIVER MODE: Received positions 

     total cpu time spent up to now is       11.5 secs

     Self-consistent Calculation

     iteration #  1     ecut=    29.40 Ry     beta= 0.05
     Davidson diagonalization with overlap
     c_bands:  2 eigenvalues not converged
     c_bands:  3 eigenvalues not converged
     c_bands:  2 eigenvalues not converged
     c_bands:  4 eigenvalues not converged
     c_bands:  3 eigenvalues not converged
     c_bands:  4 eigenvalues not converged
     c_bands:  5 eigenvalues not converged
     c_bands:  3 eigenvalues not converged
     ethr =  1.00E-05,  avg # of iterations = 24.4

     negative rho (up, down):  7.396E-03 0.000E+00
 
     Adding external electric field

     Computed dipole along edir(3) : 
        Dipole               63.5338 Ry au,        161.4868 Debye
        Dipole field          0.1199 Ry au, 
 
        Potential amp.      -11.1143 Ry
        Total length         46.3494 bohr
 

     total cpu time spent up to now is       59.9 secs

     total energy              =   -2136.67272992 Ry
     estimated scf accuracy    <    9692.79440794 Ry

     iteration #  2     ecut=    29.40 Ry     beta= 0.05
     Davidson diagonalization with overlap
     ethr =  1.00E-02,  avg # of iterations = 32.6

     negative rho (up, down):  2.212E-04 0.000E+00
 
     Adding external electric field

     Computed dipole along edir(3) : 
        Dipole                0.5506 Ry au,          1.3994 Debye
        Dipole field          0.0010 Ry au, 
 
        Potential amp.       -0.0963 Ry
        Total length         46.3494 bohr
 

     total cpu time spent up to now is      159.8 secs

     total energy              =   -2438.33765650 Ry
     estimated scf accuracy    <   80197.00963406 Ry

     iteration #  3     ecut=    29.40 Ry     beta= 0.05
     Davidson diagonalization with overlap
     ethr =  1.00E-02,  avg # of iterations = 16.7

     negative rho (up, down):  2.583E-04 0.000E+00
 
     Adding external electric field

     Computed dipole along edir(3) : 
        Dipole               -3.0355 Ry au,         -7.7154 Debye
        Dipole field         -0.0057 Ry au, 
 
        Potential amp.        0.5310 Ry
        Total length         46.3494 bohr
 

     total cpu time spent up to now is      210.5 secs

     total energy              =   -2970.84125206 Ry
     estimated scf accuracy    <    8198.59776784 Ry

     iteration #  4     ecut=    29.40 Ry     beta= 0.05
     Davidson diagonalization with overlap
     ethr =  1.00E-02,  avg # of iterations = 10.6

     negative rho (up, down):  2.744E-04 0.000E+00
 
     Adding external electric field

     Computed dipole along edir(3) : 
        Dipole               -4.8992 Ry au,        -12.4525 Debye
        Dipole field         -0.0092 Ry au, 
 
        Potential amp.        0.8570 Ry
        Total length         46.3494 bohr
 

     total cpu time spent up to now is      233.5 secs

     total energy              =   -2969.96738373 Ry
     estimated scf accuracy    <    2782.03815618 Ry

     iteration #  5     ecut=    29.40 Ry     beta= 0.05
     Davidson diagonalization with overlap
     c_bands:  4 eigenvalues not converged
     c_bands:  3 eigenvalues not converged
     c_bands:  2 eigenvalues not converged
     c_bands:  5 eigenvalues not converged
     ethr =  1.00E-02,  avg # of iterations = 16.0

     negative rho (up, down):  2.966E-04 0.000E+00
 
     Adding external electric field

     Computed dipole along edir(3) : 
        Dipole               -5.9575 Ry au,        -15.1425 Debye
        Dipole field         -0.0112 Ry au, 
 
        Potential amp.        1.0422 Ry
        Total length         46.3494 bohr
 

     total cpu time spent up to now is      253.3 secs

     total energy              =   -2971.02330529 Ry
     estimated scf accuracy    <    1004.75053644 Ry

     iteration #  6     ecut=    29.40 Ry     beta= 0.05
     Davidson diagonalization with overlap
     ethr =  1.00E-02,  avg # of iterations =  3.6

     negative rho (up, down):  3.098E-04 0.000E+00
 
     Adding external electric field

     Computed dipole along edir(3) : 
        Dipole               -6.7426 Ry au,        -17.1380 Debye
        Dipole field         -0.0127 Ry au, 
 
        Potential amp.        1.1795 Ry
        Total length         46.3494 bohr
 

     total cpu time spent up to now is      264.7 secs

     total energy              =   -2967.68094755 Ry
     estimated scf accuracy    <     778.59058738 Ry

     iteration #  7     ecut=    29.40 Ry     beta= 0.05
     Davidson diagonalization with overlap
     ethr =  1.00E-02,  avg # of iterations =  6.7

     negative rho (up, down):  3.137E-04 0.000E+00
 
     Adding external electric field

     Computed dipole along edir(3) : 
        Dipole               -6.1060 Ry au,        -15.5198 Debye
        Dipole field         -0.0115 Ry au, 
 
        Potential amp.        1.0681 Ry
        Total length         46.3494 bohr
 

     total cpu time spent up to now is      279.8 secs

     total energy              =   -2975.45697035 Ry
     estimated scf accuracy    <     195.59242363 Ry

     iteration #  8     ecut=    29.40 Ry     beta= 0.05
     Davidson diagonalization with overlap
     ethr =  1.00E-02,  avg # of iterations =  3.2

     negative rho (up, down):  3.252E-04 0.000E+00
 
     Adding external electric field

     Computed dipole along edir(3) : 
        Dipole               -5.7207 Ry au,        -14.5406 Debye
        Dipole field         -0.0108 Ry au, 
 
        Potential amp.        1.0008 Ry
        Total length         46.3494 bohr
 

     total cpu time spent up to now is      291.1 secs

     total energy              =   -2976.61368770 Ry
     estimated scf accuracy    <     131.68189153 Ry

     iteration #  9     ecut=    29.40 Ry     beta= 0.05
     Davidson diagonalization with overlap
     ethr =  1.00E-02,  avg # of iterations =  2.4

     negative rho (up, down):  3.408E-04 0.000E+00
 
     Adding external electric field

     Computed dipole along edir(3) : 
        Dipole               -4.1358 Ry au,        -10.5122 Debye
        Dipole field         -0.0078 Ry au, 
 
        Potential amp.        0.7235 Ry
        Total length         46.3494 bohr
 

     total cpu time spent up to now is      302.3 secs

     total energy              =   -2978.66225849 Ry
     estimated scf accuracy    <      45.20146664 Ry

     iteration # 10     ecut=    29.40 Ry     beta= 0.05
     Davidson diagonalization with overlap
     ethr =  1.00E-02,  avg # of iterations =  1.6

     negative rho (up, down):  6.074E-04 0.000E+00
 
     Adding external electric field

     Computed dipole along edir(3) : 
        Dipole                7.2520 Ry au,         18.4327 Debye
        Dipole field          0.0137 Ry au, 
 
        Potential amp.       -1.2686 Ry
        Total length         46.3494 bohr
 

     total cpu time spent up to now is      312.6 secs

     total energy              =   -2976.58108045 Ry
     estimated scf accuracy    <      39.35874338 Ry

     iteration # 11     ecut=    29.40 Ry     beta= 0.05
     Davidson diagonalization with overlap
     ethr =  9.69E-03,  avg # of iterations =  9.1

     negative rho (up, down):  6.210E-04 0.000E+00
 
     Adding external electric field

     Computed dipole along edir(3) : 
        Dipole                5.7963 Ry au,         14.7328 Debye
        Dipole field          0.0109 Ry au, 
 
        Potential amp.       -1.0140 Ry
        Total length         46.3494 bohr
 

     total cpu time spent up to now is      330.6 secs

     total energy              =   -3002.18285745 Ry
     estimated scf accuracy    <    2751.68068531 Ry

     iteration # 12     ecut=    29.40 Ry     beta= 0.05
     Davidson diagonalization with overlap
     ethr =  9.69E-03,  avg # of iterations =  1.7

     negative rho (up, down):  6.468E-04 0.000E+00
 
     Adding external electric field

     Computed dipole along edir(3) : 
        Dipole                7.3776 Ry au,         18.7521 Debye
        Dipole field          0.0139 Ry au, 
 
        Potential amp.       -1.2906 Ry
        Total length         46.3494 bohr
 

     total cpu time spent up to now is      341.4 secs

     total energy              =   -3013.22560639 Ry
     estimated scf accuracy    <    2424.06834289 Ry

     iteration # 13     ecut=    29.40 Ry     beta= 0.05
     Davidson diagonalization with overlap
     ethr =  9.69E-03,  avg # of iterations =  1.1

     negative rho (up, down):  6.555E-04 0.000E+00
 
     Adding external electric field

     Computed dipole along edir(3) : 
        Dipole                7.6392 Ry au,         19.4170 Debye
        Dipole field          0.0144 Ry au, 
 
        Potential amp.       -1.3364 Ry
        Total length         46.3494 bohr
 

     total cpu time spent up to now is      351.6 secs

     total energy              =   -3015.78077468 Ry
     estimated scf accuracy    <    2621.78316374 Ry

     iteration # 14     ecut=    29.40 Ry     beta= 0.05
     Davidson diagonalization with overlap
     ethr =  9.69E-03,  avg # of iterations =  1.0

     negative rho (up, down):  6.775E-04 0.000E+00
 
     Adding external electric field

     Computed dipole along edir(3) : 
        Dipole                5.6143 Ry au,         14.2701 Debye
        Dipole field          0.0106 Ry au, 
 
        Potential amp.       -0.9821 Ry
        Total length         46.3494 bohr
 

     total cpu time spent up to now is      361.7 secs

     total energy              =   -3001.33580594 Ry
     estimated scf accuracy    <    2632.08986075 Ry

     iteration # 15     ecut=    29.40 Ry     beta= 0.05
     Davidson diagonalization with overlap
     ethr =  9.69E-03,  avg # of iterations =  1.0

     negative rho (up, down):  6.923E-04 0.000E+00
 
     Adding external electric field

     Computed dipole along edir(3) : 
        Dipole                5.4816 Ry au,         13.9329 Debye
        Dipole field          0.0103 Ry au, 
 
        Potential amp.       -0.9589 Ry
        Total length         46.3494 bohr
 

     total cpu time spent up to now is      371.8 secs

     total energy              =   -3000.74111331 Ry
     estimated scf accuracy    <    2343.92874709 Ry

     iteration # 16     ecut=    29.40 Ry     beta= 0.05
     Davidson diagonalization with overlap
     ethr =  9.69E-03,  avg # of iterations =  1.0

     negative rho (up, down):  6.031E-04 0.000E+00
 
     Adding external electric field

     Computed dipole along edir(3) : 
        Dipole               -6.4762 Ry au,        -16.4609 Debye
        Dipole field         -0.0122 Ry au, 
 
        Potential amp.        1.1329 Ry
        Total length         46.3494 bohr
 

     total cpu time spent up to now is      381.8 secs

     total energy              =   -2926.36967768 Ry
     estimated scf accuracy    <    2311.80701035 Ry

     iteration # 17     ecut=    29.40 Ry     beta= 0.05
     Davidson diagonalization with overlap
     ethr =  9.69E-03,  avg # of iterations = 12.6

     negative rho (up, down):  4.536E-04 0.000E+00
 
     Adding external electric field

     Computed dipole along edir(3) : 
        Dipole               -5.9917 Ry au,        -15.2293 Debye
        Dipole field         -0.0113 Ry au, 
 
        Potential amp.        1.0482 Ry
        Total length         46.3494 bohr
 

     total cpu time spent up to now is      412.2 secs

     total energy              =   -2980.11501789 Ry
     estimated scf accuracy    <     736.68850420 Ry

     iteration # 18     ecut=    29.40 Ry     beta= 0.05
     Davidson diagonalization with overlap
     ethr =  9.69E-03,  avg # of iterations =  1.8

     negative rho (up, down):  4.578E-04 0.000E+00
 
     Adding external electric field

     Computed dipole along edir(3) : 
        Dipole               -5.1250 Ry au,        -13.0264 Debye
        Dipole field         -0.0097 Ry au, 
 
        Potential amp.        0.8965 Ry
        Total length         46.3494 bohr
 

     total cpu time spent up to now is      423.0 secs

     total energy              =   -2981.75587765 Ry
     estimated scf accuracy    <     362.12530153 Ry

     iteration # 19     ecut=    29.40 Ry     beta= 0.05
     Davidson diagonalization with overlap
     ethr =  9.69E-03,  avg # of iterations =  1.1

     negative rho (up, down):  1.181E-03 0.000E+00
 
     Adding external electric field

     Computed dipole along edir(3) : 
        Dipole               -9.1772 Ry au,        -23.3260 Debye
        Dipole field         -0.0173 Ry au, 
 
        Potential amp.        1.6054 Ry
        Total length         46.3494 bohr
 

     total cpu time spent up to now is      433.2 secs

     total energy              =   -2997.82960883 Ry
     estimated scf accuracy    <     304.70361013 Ry

     iteration # 20     ecut=    29.40 Ry     beta= 0.05
     Davidson diagonalization with overlap
     ethr =  9.69E-03,  avg # of iterations = 10.2

     negative rho (up, down):  2.336E-05 0.000E+00
 
     Adding external electric field

     Computed dipole along edir(3) : 
        Dipole               -4.4305 Ry au,        -11.2612 Debye
        Dipole field         -0.0084 Ry au, 
 
        Potential amp.        0.7750 Ry
        Total length         46.3494 bohr
 

     total cpu time spent up to now is      453.4 secs

     total energy              =   -2962.87091597 Ry
     estimated scf accuracy    <    5941.95819516 Ry

     iteration # 21     ecut=    29.40 Ry     beta= 0.05
     Davidson diagonalization with overlap
     ethr =  9.69E-03,  avg # of iterations = 13.8

     negative rho (up, down):  6.869E-05 0.000E+00
 
     Adding external electric field

     Computed dipole along edir(3) : 
        Dipole               -4.8673 Ry au,        -12.3715 Debye
        Dipole field         -0.0092 Ry au, 
 
        Potential amp.        0.8515 Ry
        Total length         46.3494 bohr
 

     total cpu time spent up to now is      472.3 secs

     total energy              =   -2981.90610690 Ry
     estimated scf accuracy    <     908.88987853 Ry

     iteration # 22     ecut=    29.40 Ry     beta= 0.05
     Davidson diagonalization with overlap
     ethr =  9.69E-03,  avg # of iterations =  1.1

     negative rho (up, down):  8.514E-02 0.000E+00
 
     Adding external electric field

     Computed dipole along edir(3) : 
        Dipole               -2.7168 Ry au,         -6.9053 Debye
        Dipole field         -0.0051 Ry au, 
 
        Potential amp.        0.4753 Ry
        Total length         46.3494 bohr
 

     total cpu time spent up to now is      482.5 secs

     total energy              =   -2962.15221793 Ry
     estimated scf accuracy    <     908.02365904 Ry

     iteration # 23     ecut=    29.40 Ry     beta= 0.05
     Davidson diagonalization with overlap
     ethr =  9.69E-03,  avg # of iterations = 14.6

     negative rho (up, down):  2.940E-02 0.000E+00
 
     Adding external electric field

     Computed dipole along edir(3) : 
        Dipole               -1.9746 Ry au,         -5.0189 Debye
        Dipole field         -0.0037 Ry au, 
 
        Potential amp.        0.3454 Ry
        Total length         46.3494 bohr
 

     total cpu time spent up to now is      501.4 secs

     total energy              =   -2978.84156535 Ry
     estimated scf accuracy    <       9.33277055 Ry

     iteration # 24     ecut=    29.40 Ry     beta= 0.05
     Davidson diagonalization with overlap
     ethr =  2.30E-03,  avg # of iterations =  2.4

     negative rho (up, down):  5.061E-04 0.000E+00
 
     Adding external electric field

     Computed dipole along edir(3) : 
        Dipole               -1.1349 Ry au,         -2.8846 Debye
        Dipole field         -0.0021 Ry au, 
 
        Potential amp.        0.1985 Ry
        Total length         46.3494 bohr
 

     total cpu time spent up to now is      512.7 secs

     total energy              =   -2977.99786928 Ry
     estimated scf accuracy    <       7.00796119 Ry

     iteration # 25     ecut=    29.40 Ry     beta= 0.05
     Davidson diagonalization with overlap
     ethr =  1.73E-03,  avg # of iterations =  5.4

     negative rho (up, down):  4.938E-06 0.000E+00
 
     Adding external electric field

     Computed dipole along edir(3) : 
        Dipole                0.4441 Ry au,          1.1288 Debye
        Dipole field          0.0008 Ry au, 
 
        Potential amp.       -0.0777 Ry
        Total length         46.3494 bohr
 

     total cpu time spent up to now is      524.8 secs

     total energy              =   -2977.33931427 Ry
     estimated scf accuracy    <       4.20566877 Ry

     iteration # 26     ecut=    29.40 Ry     beta= 0.05
     Davidson diagonalization with overlap
     ethr =  1.04E-03,  avg # of iterations = 14.2

     negative rho (up, down):  1.687E-05 0.000E+00
 
     Adding external electric field

     Computed dipole along edir(3) : 
        Dipole                0.0750 Ry au,          0.1907 Debye
        Dipole field          0.0001 Ry au, 
 
        Potential amp.       -0.0131 Ry
        Total length         46.3494 bohr
 

     total cpu time spent up to now is      544.4 secs

     total energy              =   -2977.85448479 Ry
     estimated scf accuracy    <       4.16895459 Ry

     iteration # 27     ecut=    29.40 Ry     beta= 0.05
     Davidson diagonalization with overlap
     ethr =  1.03E-03,  avg # of iterations =  6.0

     negative rho (up, down):  5.237E-05 0.000E+00
 
     Adding external electric field

     Computed dipole along edir(3) : 
        Dipole               -0.1698 Ry au,         -0.4317 Debye
        Dipole field         -0.0003 Ry au, 
 
        Potential amp.        0.0297 Ry
        Total length         46.3494 bohr
 

     total cpu time spent up to now is      556.6 secs

     total energy              =   -2977.80776254 Ry
     estimated scf accuracy    <       2.02430432 Ry

     iteration # 28     ecut=    29.40 Ry     beta= 0.05
     Davidson diagonalization with overlap
     c_bands:  2 eigenvalues not converged
     c_bands:  1 eigenvalues not converged
     ethr =  4.99E-04,  avg # of iterations = 14.8

     negative rho (up, down):  6.534E-05 0.000E+00
 
     Adding external electric field

     Computed dipole along edir(3) : 
        Dipole               -0.1688 Ry au,         -0.4290 Debye
        Dipole field         -0.0003 Ry au, 
 
        Potential amp.        0.0295 Ry
        Total length         46.3494 bohr
 

     total cpu time spent up to now is      572.8 secs

     total energy              =   -2977.92820796 Ry
     estimated scf accuracy    <       1.86439721 Ry

     iteration # 29     ecut=    29.40 Ry     beta= 0.05
     Davidson diagonalization with overlap
     ethr =  4.59E-04,  avg # of iterations =  1.6

     negative rho (up, down):  8.638E-05 0.000E+00
 
     Adding external electric field

     Computed dipole along edir(3) : 
        Dipole                0.2709 Ry au,          0.6885 Debye
        Dipole field          0.0005 Ry au, 
 
        Potential amp.       -0.0474 Ry
        Total length         46.3494 bohr
 

     total cpu time spent up to now is      583.5 secs

     total energy              =   -2977.72024156 Ry
     estimated scf accuracy    <       1.36031184 Ry

     iteration # 30     ecut=    29.40 Ry     beta= 0.05
     Davidson diagonalization with overlap
     c_bands:  3 eigenvalues not converged
     c_bands:  3 eigenvalues not converged
     c_bands:  1 eigenvalues not converged
     c_bands:  1 eigenvalues not converged
     c_bands:  1 eigenvalues not converged
     c_bands:  3 eigenvalues not converged
     c_bands:  4 eigenvalues not converged
     ethr =  3.35E-04,  avg # of iterations = 19.6

     negative rho (up, down):  6.051E-05 0.000E+00
 
     Adding external electric field

     Computed dipole along edir(3) : 
        Dipole                0.3621 Ry au,          0.9204 Debye
        Dipole field          0.0007 Ry au, 
 
        Potential amp.       -0.0633 Ry
        Total length         46.3494 bohr
 

     total cpu time spent up to now is      603.4 secs

     total energy              =   -2977.81423760 Ry
     estimated scf accuracy    <       1.88402325 Ry

     iteration # 31     ecut=    29.40 Ry     beta= 0.05
     Davidson diagonalization with overlap
     ethr =  3.35E-04,  avg # of iterations =  1.3

     negative rho (up, down):  1.849E-05 0.000E+00
 
     Adding external electric field

     Computed dipole along edir(3) : 
        Dipole                0.7345 Ry au,          1.8670 Debye
        Dipole field          0.0014 Ry au, 
 
        Potential amp.       -0.1285 Ry
        Total length         46.3494 bohr
 

     total cpu time spent up to now is      613.8 secs

     total energy              =   -2977.57928143 Ry
     estimated scf accuracy    <       1.37439384 Ry

     iteration # 32     ecut=    29.40 Ry     beta= 0.05
     Davidson diagonalization with overlap
     c_bands:  4 eigenvalues not converged
     c_bands:  1 eigenvalues not converged
     c_bands:  2 eigenvalues not converged
     c_bands:  1 eigenvalues not converged
     c_bands:  1 eigenvalues not converged
     c_bands:  2 eigenvalues not converged
     ethr =  3.35E-04,  avg # of iterations = 18.7

     negative rho (up, down):  2.180E-05 0.000E+00
 
     Adding external electric field

     Computed dipole along edir(3) : 
        Dipole                0.7391 Ry au,          1.8787 Debye
        Dipole field          0.0014 Ry au, 
 
        Potential amp.       -0.1293 Ry
        Total length         46.3494 bohr
 

     total cpu time spent up to now is      633.9 secs

     total energy              =   -2977.79444769 Ry
     estimated scf accuracy    <       2.03099494 Ry

     iteration # 33     ecut=    29.40 Ry     beta= 0.05
     Davidson diagonalization with overlap
     ethr =  3.35E-04,  avg # of iterations =  1.2

     negative rho (up, down):  8.627E-05 0.000E+00
 
     Adding external electric field

     Computed dipole along edir(3) : 
        Dipole                0.5353 Ry au,          1.3606 Debye
        Dipole field          0.0010 Ry au, 
 
        Potential amp.       -0.0936 Ry
        Total length         46.3494 bohr
 

     total cpu time spent up to now is      644.2 secs

     total energy              =   -2977.62751965 Ry
     estimated scf accuracy    <       0.82821323 Ry

     iteration # 34     ecut=    29.40 Ry     beta= 0.05
     Davidson diagonalization with overlap
     c_bands:  2 eigenvalues not converged
     c_bands:  1 eigenvalues not converged
     c_bands:  1 eigenvalues not converged
     ethr =  2.04E-04,  avg # of iterations = 16.7

     negative rho (up, down):  2.892E-04 0.000E+00
 
     Adding external electric field

     Computed dipole along edir(3) : 
        Dipole                0.3017 Ry au,          0.7668 Debye
        Dipole field          0.0006 Ry au, 
 
        Potential amp.       -0.0528 Ry
        Total length         46.3494 bohr
 

     total cpu time spent up to now is      662.0 secs

     total energy              =   -2977.73528381 Ry
     estimated scf accuracy    <       0.35576827 Ry

     iteration # 35     ecut=    29.40 Ry     beta= 0.05
     Davidson diagonalization with overlap
     c_bands:  3 eigenvalues not converged
     c_bands:  1 eigenvalues not converged
     c_bands:  3 eigenvalues not converged
     c_bands:  3 eigenvalues not converged
     c_bands:  2 eigenvalues not converged
     c_bands:  2 eigenvalues not converged
     ethr =  8.76E-05,  avg # of iterations = 19.1

     negative rho (up, down):  2.175E-04 0.000E+00
 
     Adding external electric field

     Computed dipole along edir(3) : 
        Dipole                0.3383 Ry au,          0.8599 Debye
        Dipole field          0.0006 Ry au, 
 
        Potential amp.       -0.0592 Ry
        Total length         46.3494 bohr
 

     total cpu time spent up to now is      684.5 secs

     total energy              =   -2977.70457082 Ry
     estimated scf accuracy    <       1.62862085 Ry

     iteration # 36     ecut=    29.40 Ry     beta= 0.05
     Davidson diagonalization with overlap
     c_bands:  1 eigenvalues not converged
     c_bands:  2 eigenvalues not converged
     c_bands:  1 eigenvalues not converged
     ethr =  8.76E-05,  avg # of iterations = 14.4

     negative rho (up, down):  1.649E-04 0.000E+00
 
     Adding external electric field

     Computed dipole along edir(3) : 
        Dipole                0.3712 Ry au,          0.9434 Debye
        Dipole field          0.0007 Ry au, 
 
        Potential amp.       -0.0649 Ry
        Total length         46.3494 bohr
 

     total cpu time spent up to now is      699.8 secs

     total energy              =   -2977.70262632 Ry
     estimated scf accuracy    <       0.71983542 Ry

     iteration # 37     ecut=    29.40 Ry     beta= 0.05
     Davidson diagonalization with overlap
     c_bands:  2 eigenvalues not converged
     c_bands:  4 eigenvalues not converged
     c_bands:  4 eigenvalues not converged
     c_bands:  1 eigenvalues not converged
     c_bands:  4 eigenvalues not converged
     c_bands:  4 eigenvalues not converged
     ethr =  8.76E-05,  avg # of iterations = 19.7

     negative rho (up, down):  1.483E-04 0.000E+00
 
     Adding external electric field

     Computed dipole along edir(3) : 
        Dipole                0.3717 Ry au,          0.9447 Debye
        Dipole field          0.0007 Ry au, 
 
        Potential amp.       -0.0650 Ry
        Total length         46.3494 bohr
 

     total cpu time spent up to now is      719.2 secs

     total energy              =   -2977.76189149 Ry
     estimated scf accuracy    <       1.68262705 Ry

     iteration # 38     ecut=    29.40 Ry     beta= 0.05
     Davidson diagonalization with overlap
     c_bands:  2 eigenvalues not converged
     c_bands:  3 eigenvalues not converged
     c_bands:  4 eigenvalues not converged
     ethr =  8.76E-05,  avg # of iterations = 14.7

     negative rho (up, down):  2.026E-04 0.000E+00
 
     Adding external electric field

     Computed dipole along edir(3) : 
        Dipole                0.5460 Ry au,          1.3877 Debye
        Dipole field          0.0010 Ry au, 
 
        Potential amp.       -0.0955 Ry
        Total length         46.3494 bohr
 

     total cpu time spent up to now is      734.9 secs

     total energy              =   -2977.67677870 Ry
     estimated scf accuracy    <       2.46517946 Ry

     iteration # 39     ecut=    29.40 Ry     beta= 0.05
     Davidson diagonalization with overlap
     c_bands:  2 eigenvalues not converged
     ethr =  8.76E-05,  avg # of iterations = 10.2

     negative rho (up, down):  2.082E-04 0.000E+00
 
     Adding external electric field

     Computed dipole along edir(3) : 
        Dipole                0.7491 Ry au,          1.9040 Debye
        Dipole field          0.0014 Ry au, 
 
        Potential amp.       -0.1310 Ry
        Total length         46.3494 bohr
 

     total cpu time spent up to now is      748.6 secs

     total energy              =   -2977.67359007 Ry
     estimated scf accuracy    <       0.38269776 Ry

     iteration # 40     ecut=    29.40 Ry     beta= 0.05
     Davidson diagonalization with overlap
     c_bands:  1 eigenvalues not converged
     c_bands:  3 eigenvalues not converged
     ethr =  8.76E-05,  avg # of iterations = 15.5

     negative rho (up, down):  1.831E-04 0.000E+00
 
     Adding external electric field

     Computed dipole along edir(3) : 
        Dipole                0.7566 Ry au,          1.9230 Debye
        Dipole field          0.0014 Ry au, 
 
        Potential amp.       -0.1324 Ry
        Total length         46.3494 bohr
 

     total cpu time spent up to now is      764.5 secs

     total energy              =   -2977.68765048 Ry
     estimated scf accuracy    <       0.15387706 Ry

     iteration # 41     ecut=    29.40 Ry     beta= 0.05
     Davidson diagonalization with overlap
     c_bands:  2 eigenvalues not converged
     c_bands:  3 eigenvalues not converged
     c_bands:  2 eigenvalues not converged
     ethr =  3.79E-05,  avg # of iterations = 13.3

     negative rho (up, down):  2.666E-04 0.000E+00
 
     Adding external electric field

     Computed dipole along edir(3) : 
        Dipole                1.0361 Ry au,          2.6335 Debye
        Dipole field          0.0020 Ry au, 
 
        Potential amp.       -0.1812 Ry
        Total length         46.3494 bohr
 

     total cpu time spent up to now is      779.3 secs

     total energy              =   -2977.68206141 Ry
     estimated scf accuracy    <       0.79026691 Ry

     iteration # 42     ecut=    29.40 Ry     beta= 0.05
     Davidson diagonalization with overlap
     c_bands:  1 eigenvalues not converged
     c_bands:  4 eigenvalues not converged
     c_bands:  3 eigenvalues not converged
     c_bands:  2 eigenvalues not converged
     c_bands:  2 eigenvalues not converged
     ethr =  3.79E-05,  avg # of iterations = 14.8

     negative rho (up, down):  4.759E-04 0.000E+00
 
     Adding external electric field

     Computed dipole along edir(3) : 
        Dipole                1.1742 Ry au,          2.9845 Debye
        Dipole field          0.0022 Ry au, 
 
        Potential amp.       -0.2054 Ry
        Total length         46.3494 bohr
 

     total cpu time spent up to now is      794.8 secs

     total energy              =   -2977.67027062 Ry
     estimated scf accuracy    <       0.30907216 Ry

     iteration # 43     ecut=    29.40 Ry     beta= 0.05
     Davidson diagonalization with overlap
     c_bands:  3 eigenvalues not converged
     c_bands:  3 eigenvalues not converged
     c_bands:  3 eigenvalues not converged
     c_bands:  5 eigenvalues not converged
     c_bands:  5 eigenvalues not converged
     c_bands:  3 eigenvalues not converged
     c_bands:  1 eigenvalues not converged
     c_bands:  3 eigenvalues not converged
     c_bands:  3 eigenvalues not converged
     ethr =  3.79E-05,  avg # of iterations = 21.4

     negative rho (up, down):  4.270E-04 0.000E+00
 
     Adding external electric field

     Computed dipole along edir(3) : 
        Dipole                1.1877 Ry au,          3.0189 Debye
        Dipole field          0.0022 Ry au, 
 
        Potential amp.       -0.2078 Ry
        Total length         46.3494 bohr
 

     total cpu time spent up to now is      816.0 secs

     total energy              =   -2977.69115247 Ry
     estimated scf accuracy    <       0.81699115 Ry

     iteration # 44     ecut=    29.40 Ry     beta= 0.05
     Davidson diagonalization with overlap
     c_bands:  1 eigenvalues not converged
     ethr =  3.79E-05,  avg # of iterations = 10.2

     negative rho (up, down):  3.806E-04 0.000E+00
 
     Adding external electric field

     Computed dipole along edir(3) : 
        Dipole                1.1831 Ry au,          3.0071 Debye
        Dipole field          0.0022 Ry au, 
 
        Potential amp.       -0.2070 Ry
        Total length         46.3494 bohr
 

     total cpu time spent up to now is      829.5 secs

     total energy              =   -2977.70439910 Ry
     estimated scf accuracy    <       1.25252032 Ry

     iteration # 45     ecut=    29.40 Ry     beta= 0.05
     Davidson diagonalization with overlap
     c_bands:  3 eigenvalues not converged
     ethr =  3.79E-05,  avg # of iterations =  3.6

     negative rho (up, down):  1.471E-03 0.000E+00
 
     Adding external electric field

     Computed dipole along edir(3) : 
        Dipole                1.2119 Ry au,          3.0804 Debye
        Dipole field          0.0023 Ry au, 
 
        Potential amp.       -0.2120 Ry
        Total length         46.3494 bohr
 

     total cpu time spent up to now is      840.9 secs

     total energy              =   -2977.66831316 Ry
     estimated scf accuracy    <       1.33755457 Ry

     iteration # 46     ecut=    29.40 Ry     beta= 0.05
     Davidson diagonalization with overlap
     c_bands:  2 eigenvalues not converged
     c_bands:  3 eigenvalues not converged
     c_bands:  1 eigenvalues not converged
     c_bands:  1 eigenvalues not converged
     ethr =  3.79E-05,  avg # of iterations = 14.0

     negative rho (up, down):  1.929E-03 0.000E+00
 
     Adding external electric field

     Computed dipole along edir(3) : 
        Dipole                1.1428 Ry au,          2.9047 Debye
        Dipole field          0.0022 Ry au, 
 
        Potential amp.       -0.1999 Ry
        Total length         46.3494 bohr
 

     total cpu time spent up to now is      856.4 secs

     total energy              =   -2977.68749452 Ry
     estimated scf accuracy    <       0.17428592 Ry

     iteration # 47     ecut=    29.40 Ry     beta= 0.05
     Davidson diagonalization with overlap
     c_bands:  1 eigenvalues not converged
     c_bands:  4 eigenvalues not converged
     c_bands:  3 eigenvalues not converged
     ethr =  3.79E-05,  avg # of iterations = 13.5

     negative rho (up, down):  1.719E-03 0.000E+00
 
     Adding external electric field

     Computed dipole along edir(3) : 
        Dipole                1.1537 Ry au,          2.9323 Debye
        Dipole field          0.0022 Ry au, 
 
        Potential amp.       -0.2018 Ry
        Total length         46.3494 bohr
 

     total cpu time spent up to now is      871.2 secs

     total energy              =   -2977.68919811 Ry
     estimated scf accuracy    <       0.13226775 Ry

     iteration # 48     ecut=    29.40 Ry     beta= 0.05
     Davidson diagonalization with overlap
     ethr =  3.26E-05,  avg # of iterations =  3.3

     negative rho (up, down):  1.918E-03 0.000E+00
 
     Adding external electric field

     Computed dipole along edir(3) : 
        Dipole                1.1340 Ry au,          2.8823 Debye
        Dipole field          0.0021 Ry au, 
 
        Potential amp.       -0.1984 Ry
        Total length         46.3494 bohr
 

     total cpu time spent up to now is      882.1 secs

     total energy              =   -2977.68737678 Ry
     estimated scf accuracy    <       0.16862366 Ry

     iteration # 49     ecut=    29.40 Ry     beta= 0.05
     Davidson diagonalization with overlap
     ethr =  3.26E-05,  avg # of iterations =  1.2

     negative rho (up, down):  1.127E-03 0.000E+00
 
     Adding external electric field

     Computed dipole along edir(3) : 
        Dipole                1.0455 Ry au,          2.6573 Debye
        Dipole field          0.0020 Ry au, 
 
        Potential amp.       -0.1829 Ry
        Total length         46.3494 bohr
 

     total cpu time spent up to now is      892.4 secs

     total energy              =   -2977.67911330 Ry
     estimated scf accuracy    <       0.12965518 Ry

     iteration # 50     ecut=    29.40 Ry     beta= 0.05
     Davidson diagonalization with overlap
     c_bands:  2 eigenvalues not converged
     ethr =  3.19E-05,  avg # of iterations =  9.3

     negative rho (up, down):  7.583E-04 0.000E+00
 
     Adding external electric field

     Computed dipole along edir(3) : 
        Dipole                1.0099 Ry au,          2.5669 Debye
        Dipole field          0.0019 Ry au, 
 
        Potential amp.       -0.1767 Ry
        Total length         46.3494 bohr
 

     total cpu time spent up to now is      905.4 secs

     total energy              =   -2977.67634296 Ry
     estimated scf accuracy    <       0.05124936 Ry

     iteration # 51     ecut=    29.40 Ry     beta= 0.05
     Davidson diagonalization with overlap
     c_bands:  4 eigenvalues not converged
     c_bands:  3 eigenvalues not converged
     c_bands:  2 eigenvalues not converged
     c_bands:  1 eigenvalues not converged
     c_bands:  2 eigenvalues not converged
     c_bands:  1 eigenvalues not converged
     ethr =  1.26E-05,  avg # of iterations = 18.9

     negative rho (up, down):  3.252E-03 0.000E+00
 
     Adding external electric field

     Computed dipole along edir(3) : 
        Dipole                1.0319 Ry au,          2.6229 Debye
        Dipole field          0.0019 Ry au, 
 
        Potential amp.       -0.1805 Ry
        Total length         46.3494 bohr
 

     total cpu time spent up to now is      928.0 secs

     total energy              =   -2977.66921295 Ry
     estimated scf accuracy    <       0.17515099 Ry

     iteration # 52     ecut=    29.40 Ry     beta= 0.05
     Davidson diagonalization with overlap
     c_bands:  1 eigenvalues not converged
     c_bands:  2 eigenvalues not converged
     c_bands:  1 eigenvalues not converged
     c_bands:  1 eigenvalues not converged
     c_bands:  1 eigenvalues not converged
     c_bands:  1 eigenvalues not converged
     c_bands:  1 eigenvalues not converged
     c_bands:  1 eigenvalues not converged
     c_bands:  1 eigenvalues not converged
     ethr =  1.26E-05,  avg # of iterations = 19.7

     negative rho (up, down):  5.724E-03 0.000E+00
 
     Adding external electric field

     Computed dipole along edir(3) : 
        Dipole                1.0868 Ry au,          2.7624 Debye
        Dipole field          0.0021 Ry au, 
 
        Potential amp.       -0.1901 Ry
        Total length         46.3494 bohr
 

     total cpu time spent up to now is      950.8 secs

     total energy              =   -2977.68272547 Ry
     estimated scf accuracy    <       0.03033937 Ry

     iteration # 53     ecut=    29.40 Ry     beta= 0.05
     Davidson diagonalization with overlap
     c_bands:  1 eigenvalues not converged
     ethr =  7.47E-06,  avg # of iterations =  7.0

     negative rho (up, down):  7.516E-03 0.000E+00
 
     Adding external electric field

     Computed dipole along edir(3) : 
        Dipole                1.0407 Ry au,          2.6452 Debye
        Dipole field          0.0020 Ry au, 
 
        Potential amp.       -0.1821 Ry
        Total length         46.3494 bohr
 

     total cpu time spent up to now is      963.1 secs

     total energy              =   -2977.68070298 Ry
     estimated scf accuracy    <       0.01315213 Ry

     iteration # 54     ecut=    29.40 Ry     beta= 0.05
     Davidson diagonalization with overlap
     c_bands:  1 eigenvalues not converged
     c_bands:  3 eigenvalues not converged
     c_bands:  1 eigenvalues not converged
     c_bands:  2 eigenvalues not converged
     c_bands:  1 eigenvalues not converged
     c_bands:  2 eigenvalues not converged
     c_bands:  1 eigenvalues not converged
     ethr =  3.24E-06,  avg # of iterations = 19.1

     negative rho (up, down):  7.015E-03 0.000E+00
 
     Adding external electric field

     Computed dipole along edir(3) : 
        Dipole                1.0506 Ry au,          2.6704 Debye
        Dipole field          0.0020 Ry au, 
 
        Potential amp.       -0.1838 Ry
        Total length         46.3494 bohr
 

     total cpu time spent up to now is      985.9 secs

     total energy              =   -2977.68352522 Ry
     estimated scf accuracy    <       0.04135899 Ry

     iteration # 55     ecut=    29.40 Ry     beta= 0.05
     Davidson diagonalization with overlap
     ethr =  3.24E-06,  avg # of iterations =  7.4

     negative rho (up, down):  6.699E-03 0.000E+00
 
     Adding external electric field

     Computed dipole along edir(3) : 
        Dipole                1.0566 Ry au,          2.6856 Debye
        Dipole field          0.0020 Ry au, 
 
        Potential amp.       -0.1848 Ry
        Total length         46.3494 bohr
 

     total cpu time spent up to now is      998.2 secs

     total energy              =   -2977.68288008 Ry
     estimated scf accuracy    <       0.01260772 Ry

     iteration # 56     ecut=    29.40 Ry     beta= 0.05
     Davidson diagonalization with overlap
     c_bands:  1 eigenvalues not converged
     ethr =  3.11E-06,  avg # of iterations = 14.3

     negative rho (up, down):  7.321E-03 0.000E+00
 
     Adding external electric field

     Computed dipole along edir(3) : 
        Dipole                1.0603 Ry au,          2.6950 Debye
        Dipole field          0.0020 Ry au, 
 
        Potential amp.       -0.1855 Ry
        Total length         46.3494 bohr
 

     total cpu time spent up to now is     1014.0 secs

     total energy              =   -2977.68336383 Ry
     estimated scf accuracy    <       0.00256270 Ry

     iteration # 57     ecut=    29.40 Ry     beta= 0.05
     Davidson diagonalization with overlap
     c_bands:  1 eigenvalues not converged
     ethr =  6.31E-07,  avg # of iterations = 10.4

     negative rho (up, down):  1.071E-02 0.000E+00
 
     Adding external electric field

     Computed dipole along edir(3) : 
        Dipole                1.0610 Ry au,          2.6968 Debye
        Dipole field          0.0020 Ry au, 
 
        Potential amp.       -0.1856 Ry
        Total length         46.3494 bohr
 

     total cpu time spent up to now is     1027.9 secs

     total energy              =   -2977.68362483 Ry
     estimated scf accuracy    <       0.00203397 Ry

     iteration # 58     ecut=    29.40 Ry     beta= 0.05
     Davidson diagonalization with overlap
     ethr =  5.01E-07,  avg # of iterations =  6.4

     negative rho (up, down):  1.133E-02 0.000E+00
 
     Adding external electric field

     Computed dipole along edir(3) : 
        Dipole                1.0604 Ry au,          2.6952 Debye
        Dipole field          0.0020 Ry au, 
 
        Potential amp.       -0.1855 Ry
        Total length         46.3494 bohr
 

     total cpu time spent up to now is     1040.8 secs

     total energy              =   -2977.68361596 Ry
     estimated scf accuracy    <       0.00225083 Ry

     iteration # 59     ecut=    29.40 Ry     beta= 0.05
     Davidson diagonalization with overlap
     ethr =  5.01E-07,  avg # of iterations = 11.7

     negative rho (up, down):  1.122E-02 0.000E+00
 
     Adding external electric field

     Computed dipole along edir(3) : 
        Dipole                1.0472 Ry au,          2.6616 Debye
        Dipole field          0.0020 Ry au, 
 
        Potential amp.       -0.1832 Ry
        Total length         46.3494 bohr
 

     total cpu time spent up to now is     1054.5 secs

     total energy              =   -2977.68354451 Ry
     estimated scf accuracy    <       0.00070276 Ry

     iteration # 60     ecut=    29.40 Ry     beta= 0.05
     Davidson diagonalization with overlap
     c_bands:  2 eigenvalues not converged
     c_bands:  1 eigenvalues not converged
     ethr =  1.73E-07,  avg # of iterations = 14.2

     negative rho (up, down):  1.221E-02 0.000E+00
 
     Adding external electric field

     Computed dipole along edir(3) : 
        Dipole                1.0417 Ry au,          2.6476 Debye
        Dipole field          0.0020 Ry au, 
 
        Potential amp.       -0.1822 Ry
        Total length         46.3494 bohr
 

     total cpu time spent up to now is     1071.7 secs

     total energy              =   -2977.68363457 Ry
     estimated scf accuracy    <       0.00023254 Ry

     iteration # 61     ecut=    29.40 Ry     beta= 0.05
     Davidson diagonalization with overlap
     c_bands:  1 eigenvalues not converged
     ethr =  5.73E-08,  avg # of iterations = 10.5

     negative rho (up, down):  1.248E-02 0.000E+00
 
     Adding external electric field

     Computed dipole along edir(3) : 
        Dipole                1.0327 Ry au,          2.6249 Debye
        Dipole field          0.0019 Ry au, 
 
        Potential amp.       -0.1807 Ry
        Total length         46.3494 bohr
 

     total cpu time spent up to now is     1085.6 secs

     total energy              =   -2977.68362126 Ry
     estimated scf accuracy    <       0.00015700 Ry

     iteration # 62     ecut=    29.40 Ry     beta= 0.05
     Davidson diagonalization with overlap
     c_bands:  1 eigenvalues not converged
     ethr =  3.87E-08,  avg # of iterations = 13.7

     negative rho (up, down):  1.232E-02 0.000E+00
 
     Adding external electric field

     Computed dipole along edir(3) : 
        Dipole                1.0293 Ry au,          2.6161 Debye
        Dipole field          0.0019 Ry au, 
 
        Potential amp.       -0.1801 Ry
        Total length         46.3494 bohr
 

     total cpu time spent up to now is     1104.1 secs

     total energy              =   -2977.68363580 Ry
     estimated scf accuracy    <       0.00014549 Ry

     iteration # 63     ecut=    29.40 Ry     beta= 0.05
     Davidson diagonalization with overlap
     ethr =  3.58E-08,  avg # of iterations = 12.2

     negative rho (up, down):  1.316E-02 0.000E+00
 
     Adding external electric field

     Computed dipole along edir(3) : 
        Dipole                1.0281 Ry au,          2.6131 Debye
        Dipole field          0.0019 Ry au, 
 
        Potential amp.       -0.1798 Ry
        Total length         46.3494 bohr
 

     total cpu time spent up to now is     1119.5 secs

     total energy              =   -2977.68364911 Ry
     estimated scf accuracy    <       0.00011105 Ry

     iteration # 64     ecut=    29.40 Ry     beta= 0.05
     Davidson diagonalization with overlap
     ethr =  2.74E-08,  avg # of iterations = 11.7

     negative rho (up, down):  1.326E-02 0.000E+00
 
     Adding external electric field

     Computed dipole along edir(3) : 
        Dipole                1.0266 Ry au,          2.6094 Debye
        Dipole field          0.0019 Ry au, 
 
        Potential amp.       -0.1796 Ry
        Total length         46.3494 bohr
 

     total cpu time spent up to now is     1134.5 secs

     total energy              =   -2977.68366506 Ry
     estimated scf accuracy    <       0.00002625 Ry

     iteration # 65     ecut=    29.40 Ry     beta= 0.05
     Davidson diagonalization with overlap
     ethr =  6.47E-09,  avg # of iterations = 12.7

     negative rho (up, down):  1.336E-02 0.000E+00
 
     Adding external electric field

     Computed dipole along edir(3) : 
        Dipole                1.0261 Ry au,          2.6080 Debye
        Dipole field          0.0019 Ry au, 
 
        Potential amp.       -0.1795 Ry
        Total length         46.3494 bohr
 

     total cpu time spent up to now is     1151.6 secs

     total energy              =   -2977.68367292 Ry
     estimated scf accuracy    <       0.00002219 Ry

     iteration # 66     ecut=    29.40 Ry     beta= 0.05
     Davidson diagonalization with overlap
     ethr =  5.47E-09,  avg # of iterations =  9.3

     negative rho (up, down):  1.396E-02 0.000E+00
 
     Adding external electric field

     Computed dipole along edir(3) : 
        Dipole                1.0245 Ry au,          2.6040 Debye
        Dipole field          0.0019 Ry au, 
 
        Potential amp.       -0.1792 Ry
        Total length         46.3494 bohr
 

     total cpu time spent up to now is     1165.2 secs

     total energy              =   -2977.68368071 Ry
     estimated scf accuracy    <       0.00001421 Ry

     iteration # 67     ecut=    29.40 Ry     beta= 0.05
     Davidson diagonalization with overlap
     c_bands:  1 eigenvalues not converged
     c_bands:  1 eigenvalues not converged
     ethr =  3.50E-09,  avg # of iterations = 13.1

     negative rho (up, down):  1.407E-02 0.000E+00
 
     Adding external electric field

     Computed dipole along edir(3) : 
        Dipole                1.0236 Ry au,          2.6017 Debye
        Dipole field          0.0019 Ry au, 
 
        Potential amp.       -0.1791 Ry
        Total length         46.3494 bohr
 

     total cpu time spent up to now is     1182.0 secs

     total energy              =   -2977.68368706 Ry
     estimated scf accuracy    <       0.00000687 Ry

     iteration # 68     ecut=    29.40 Ry     beta= 0.05
     Davidson diagonalization with overlap
     ethr =  1.69E-09,  avg # of iterations =  9.1

     negative rho (up, down):  1.400E-02 0.000E+00
 
     Adding external electric field

     Computed dipole along edir(3) : 
        Dipole                1.0235 Ry au,          2.6014 Debye
        Dipole field          0.0019 Ry au, 
 
        Potential amp.       -0.1790 Ry
        Total length         46.3494 bohr
 

     total cpu time spent up to now is     1195.5 secs

     total energy              =   -2977.68369133 Ry
     estimated scf accuracy    <       0.00000458 Ry

     iteration # 69     ecut=    29.40 Ry     beta= 0.05
     Davidson diagonalization with overlap
     ethr =  1.13E-09,  avg # of iterations = 11.2

     negative rho (up, down):  1.412E-02 0.000E+00
 
     Adding external electric field

     Computed dipole along edir(3) : 
        Dipole                1.0232 Ry au,          2.6008 Debye
        Dipole field          0.0019 Ry au, 
 
        Potential amp.       -0.1790 Ry
        Total length         46.3494 bohr
 

     total cpu time spent up to now is     1210.9 secs

     total energy              =   -2977.68369577 Ry
     estimated scf accuracy    <       0.00000332 Ry

     iteration # 70     ecut=    29.40 Ry     beta= 0.05
     Davidson diagonalization with overlap
     ethr =  8.18E-10,  avg # of iterations =  4.4

     negative rho (up, down):  1.431E-02 0.000E+00
 
     Adding external electric field

     Computed dipole along edir(3) : 
        Dipole                1.0227 Ry au,          2.5995 Debye
        Dipole field          0.0019 Ry au, 
 
        Potential amp.       -0.1789 Ry
        Total length         46.3494 bohr
 

     total cpu time spent up to now is     1222.7 secs

     total energy              =   -2977.68369924 Ry
     estimated scf accuracy    <       0.00000207 Ry

     iteration # 71     ecut=    29.40 Ry     beta= 0.05
     Davidson diagonalization with overlap
     ethr =  5.09E-10,  avg # of iterations = 14.2

     negative rho (up, down):  1.433E-02 0.000E+00
 
     Adding external electric field

     Computed dipole along edir(3) : 
        Dipole                1.0224 Ry au,          2.5986 Debye
        Dipole field          0.0019 Ry au, 
 
        Potential amp.       -0.1788 Ry
        Total length         46.3494 bohr
 

     total cpu time spent up to now is     1243.2 secs

     total energy              =   -2977.68370286 Ry
     estimated scf accuracy    <       0.00000109 Ry

     iteration # 72     ecut=    29.40 Ry     beta= 0.05
     Davidson diagonalization with overlap
     ethr =  2.67E-10,  avg # of iterations =  9.5

     negative rho (up, down):  1.430E-02 0.000E+00
 
     Adding external electric field

     Computed dipole along edir(3) : 
        Dipole                1.0218 Ry au,          2.5971 Debye
        Dipole field          0.0019 Ry au, 
 
        Potential amp.       -0.1787 Ry
        Total length         46.3494 bohr
 

     total cpu time spent up to now is     1256.9 secs

     total energy              =   -2977.68370559 Ry
     estimated scf accuracy    <       0.00000101 Ry

     iteration # 73     ecut=    29.40 Ry     beta= 0.05
     Davidson diagonalization with overlap
     c_bands:  1 eigenvalues not converged
     ethr =  2.49E-10,  avg # of iterations = 11.6

     negative rho (up, down):  1.431E-02 0.000E+00
 
     Adding external electric field

     Computed dipole along edir(3) : 
        Dipole                1.0218 Ry au,          2.5971 Debye
        Dipole field          0.0019 Ry au, 
 
        Potential amp.       -0.1787 Ry
        Total length         46.3494 bohr
 

     total cpu time spent up to now is     1274.8 secs

     total energy              =   -2977.68370834 Ry
     estimated scf accuracy    <       0.00000064 Ry

     iteration # 74     ecut=    29.40 Ry     beta= 0.05
     Davidson diagonalization with overlap
     ethr =  1.57E-10,  avg # of iterations =  8.7

     negative rho (up, down):  1.435E-02 0.000E+00
 
     Adding external electric field

     Computed dipole along edir(3) : 
        Dipole                1.0216 Ry au,          2.5966 Debye
        Dipole field          0.0019 Ry au, 
 
        Potential amp.       -0.1787 Ry
        Total length         46.3494 bohr
 

     total cpu time spent up to now is     1288.4 secs

     total energy              =   -2977.68371066 Ry
     estimated scf accuracy    <       0.00000033 Ry

     iteration # 75     ecut=    29.40 Ry     beta= 0.05
     Davidson diagonalization with overlap
     ethr =  8.01E-11,  avg # of iterations = 10.0

     negative rho (up, down):  1.436E-02 0.000E+00
 
     Adding external electric field

     Computed dipole along edir(3) : 
        Dipole                1.0213 Ry au,          2.5960 Debye
        Dipole field          0.0019 Ry au, 
 
        Potential amp.       -0.1787 Ry
        Total length         46.3494 bohr
 

     total cpu time spent up to now is     1304.8 secs

     total energy              =   -2977.68371281 Ry
     estimated scf accuracy    <       0.00000018 Ry

     iteration # 76     ecut=    29.40 Ry     beta= 0.05
     Davidson diagonalization with overlap
     ethr =  4.38E-11,  avg # of iterations =  6.2

     negative rho (up, down):  1.435E-02 0.000E+00
 
     Adding external electric field

     Computed dipole along edir(3) : 
        Dipole                1.0209 Ry au,          2.5949 Debye
        Dipole field          0.0019 Ry au, 
 
        Potential amp.       -0.1786 Ry
        Total length         46.3494 bohr
 

     total cpu time spent up to now is     1317.4 secs

     total energy              =   -2977.68371476 Ry
     estimated scf accuracy    <       0.00000009 Ry

     iteration # 77     ecut=    29.40 Ry     beta= 0.05
     Davidson diagonalization with overlap
     c_bands:  2 eigenvalues not converged
     ethr =  2.28E-11,  avg # of iterations = 12.5

     negative rho (up, down):  1.435E-02 0.000E+00
 
     Adding external electric field

     Computed dipole along edir(3) : 
        Dipole                1.0209 Ry au,          2.5950 Debye
        Dipole field          0.0019 Ry au, 
 
        Potential amp.       -0.1786 Ry
        Total length         46.3494 bohr
 

     total cpu time spent up to now is     1336.2 secs

     total energy              =   -2977.68371689 Ry
     estimated scf accuracy    <       0.00000012 Ry

     iteration # 78     ecut=    29.40 Ry     beta= 0.05
     Davidson diagonalization with overlap
     ethr =  2.28E-11,  avg # of iterations =  2.8

     negative rho (up, down):  1.438E-02 0.000E+00
 
     Adding external electric field

     Computed dipole along edir(3) : 
        Dipole                1.0191 Ry au,          2.5903 Debye
        Dipole field          0.0019 Ry au, 
 
        Potential amp.       -0.1783 Ry
        Total length         46.3494 bohr
 

     total cpu time spent up to now is     1347.3 secs

     End of self-consistent calculation

          k = 0.0000 0.0000 0.0000 ( 18029 PWs)   bands (ev):

   -55.3587 -55.3215 -55.3093 -55.2921 -55.2752 -55.2399 -55.2380 -55.2033
   -55.1819 -55.1805 -55.1475 -55.1416 -55.1079 -55.0171 -54.3413 -54.3073
   -31.9251 -31.8077 -31.8022 -31.7268 -31.6750 -31.6711 -31.6710 -31.6480
   -31.5982 -31.5941 -31.5709 -31.5685 -31.5543 -31.5382 -31.5293 -31.5257
   -31.5132 -31.5063 -31.4957 -31.4781 -31.4634 -31.4619 -31.4342 -31.4236
   -31.4165 -31.4125 -31.3919 -31.3844 -31.3684 -31.3665 -31.3618 -31.3529
   -31.3408 -31.3400 -31.3310 -31.3284 -31.2954 -31.2923 -31.2700 -31.2528
   -31.2293 -31.2272 -30.7508 -30.6563 -30.6342 -30.5672 -30.4804 -30.3695
   -18.0026 -17.5870 -16.1924 -15.9317 -15.7863 -15.6578 -15.5602 -15.4321
   -15.4127 -15.2908 -15.2206 -15.1168 -15.0656 -15.0471 -15.0115 -15.0012
   -14.9781 -14.9074 -14.9013 -14.8874 -14.8634 -14.8545 -14.8085 -14.8006
   -14.7594 -14.7350 -14.7108 -14.6120 -14.5219 -14.4470 -14.3398 -13.1840
   -12.8441 -12.7266  -9.3996  -6.2844  -5.8742  -5.7152  -4.2792  -3.5310
    -3.3823  -3.3138  -3.2773  -3.2518  -3.1184  -2.9612  -2.9260  -2.8057
    -2.7878  -2.6818  -2.6438  -2.5723  -2.5551  -2.5405  -2.3943  -2.3720
    -2.3458  -2.2800  -2.2532  -2.1866  -2.1644  -2.1542  -2.1441  -2.1210
    -2.0931  -2.0509  -1.9919  -1.9323  -1.8391  -1.8113  -1.7633  -1.7315
    -1.7128  -1.6956  -1.6502  -1.6391  -1.5997  -1.5851  -1.5633  -1.5509
    -1.3868  -1.3615  -1.2635  -1.2010  -1.1023  -0.9990  -0.9634  -0.9489
    -0.8518  -0.8333  -0.7794  -0.7396  -0.7369  -0.7024  -0.5906  -0.5280
    -0.4757  -0.4120  -0.3890  -0.3492  -0.2814  -0.1982  -0.1422  -0.1282
    -0.1126  -0.0962   0.0142   0.0265   0.0783   0.1531   0.1626   0.1688
     0.2430   0.2990   0.3692   0.3942   0.4119   0.5170   0.5326   0.5648
     0.5707   0.6004   0.6213   0.6462   0.7064   0.7368   0.8199   0.9416
     1.1322   1.2220   1.2501   1.3304   1.5731   1.5857   1.6813   1.8645
     2.2576   2.3060   3.7382   3.8093   3.8842   3.8882   3.9108   3.9746
     4.2114   4.2285   4.2431   4.2468   4.2708

          k = 0.0000 0.0419 0.0000 ( 17933 PWs)   bands (ev):

   -55.3537 -55.3264 -55.3043 -55.2914 -55.2801 -55.2353 -55.2352 -55.2079
   -55.1831 -55.1768 -55.1524 -55.1366 -55.1128 -55.0176 -54.3363 -54.3122
   -31.8681 -31.7693 -31.7482 -31.6722 -31.6595 -31.6234 -31.6180 -31.6048
   -31.6033 -31.5932 -31.5897 -31.5573 -31.5507 -31.5501 -31.5338 -31.5301
   -31.5230 -31.5055 -31.5023 -31.4802 -31.4669 -31.4635 -31.4480 -31.4332
   -31.4107 -31.4082 -31.4014 -31.3969 -31.3879 -31.3845 -31.3803 -31.3754
   -31.3612 -31.3514 -31.3476 -31.3318 -31.3276 -31.3235 -31.3075 -31.2799
   -31.2635 -31.2274 -30.6966 -30.6528 -30.6372 -30.5545 -30.4930 -30.4267
   -17.9975 -17.5910 -16.0617 -15.8141 -15.6828 -15.5870 -15.4544 -15.4046
   -15.3727 -15.2712 -15.2213 -15.1768 -15.1139 -15.0584 -15.0398 -15.0090
   -14.9745 -14.9416 -14.9376 -14.8778 -14.8604 -14.8458 -14.8442 -14.8181
   -14.7950 -14.7516 -14.7310 -14.6676 -14.5769 -14.5068 -14.4547 -13.1851
   -12.8476 -12.7658  -9.4053  -6.3007  -5.8981  -5.6532  -4.2722  -3.3405
    -3.2147  -3.1586  -3.1180  -3.0755  -2.9751  -2.9257  -2.7744  -2.7162
    -2.6908  -2.6394  -2.6017  -2.5427  -2.5049  -2.4626  -2.4395  -2.4089
    -2.3798  -2.3452  -2.3342  -2.3172  -2.2741  -2.2571  -2.1605  -2.1480
    -2.1329  -2.0927  -2.0768  -2.0018  -1.9691  -1.9256  -1.9067  -1.8798
    -1.8541  -1.8077  -1.7844  -1.6642  -1.6566  -1.5177  -1.4738  -1.3421
    -1.3069  -1.2781  -1.1824  -1.1236  -1.0876  -1.0379  -0.9402  -0.8187
    -0.7496  -0.7094  -0.6960  -0.6851  -0.5949  -0.5663  -0.5378  -0.5282
    -0.3866  -0.3668  -0.3596  -0.2918  -0.2843  -0.2181  -0.2026  -0.1839
    -0.1747  -0.1490  -0.0692   0.0167   0.0347   0.0365   0.1278   0.1372
     0.1874   0.2389   0.2801   0.3582   0.3753   0.3872   0.4086   0.4456
     0.4691   0.5671   0.5852   0.6219   0.6682   0.7396   0.8145   0.9349
     0.9436   0.9835   1.0998   1.2886   1.3366   1.4478   1.8645   1.9399
     2.2126   2.2162   3.9313   3.9409   3.9740   4.0294   4.1078   4.1126
     4.1534   4.1660   4.2197   4.2395   4.3095

          k = 0.0000-0.0839 0.0000 ( 17884 PWs)   bands (ev):

   -55.3450 -55.3350 -55.2924 -55.2919 -55.2908 -55.2323 -55.2277 -55.2153
   -55.1860 -55.1660 -55.1632 -55.1249 -55.1243 -55.0181 -54.3244 -54.3240
   -31.7326 -31.7248 -31.7227 -31.6384 -31.6184 -31.6159 -31.6156 -31.5834
   -31.5832 -31.5572 -31.5489 -31.5460 -31.5330 -31.5317 -31.5294 -31.5257
   -31.5161 -31.5030 -31.5014 -31.4908 -31.4869 -31.4828 -31.4617 -31.4355
   -31.4322 -31.4318 -31.4279 -31.4248 -31.4144 -31.4144 -31.4140 -31.4001
   -31.3987 -31.3964 -31.3872 -31.3699 -31.3243 -31.3217 -31.3060 -31.3056
   -31.3003 -31.2262 -30.6449 -30.6446 -30.5635 -30.5633 -30.5238 -30.5236
   -17.9923 -17.5951 -15.7893 -15.6963 -15.5543 -15.5080 -15.4581 -15.3718
   -15.3658 -15.2641 -15.2311 -15.2205 -15.1777 -15.1482 -15.1162 -14.9889
   -14.9696 -14.9548 -14.9536 -14.9048 -14.8403 -14.8190 -14.8061 -14.7870
   -14.7686 -14.7668 -14.7190 -14.7030 -14.6628 -14.6530 -14.6486 -13.1862
   -12.8285 -12.8285  -9.4111  -6.3166  -5.9139  -5.6001  -4.2653  -2.9659
    -2.9194  -2.8865  -2.8499  -2.8043  -2.7948  -2.7801  -2.7733  -2.7222
    -2.7081  -2.6677  -2.6331  -2.6310  -2.5743  -2.5634  -2.5155  -2.5100
    -2.4846  -2.4455  -2.3987  -2.3669  -2.3332  -2.2502  -2.2379  -2.2219
    -2.1892  -2.1801  -2.1485  -2.0811  -2.0016  -1.9942  -1.9191  -1.9082
    -1.7842  -1.7617  -1.7315  -1.7095  -1.5392  -1.4604  -1.4046  -1.3102
    -1.2776  -1.1790  -1.1364  -1.1232  -0.9910  -0.8825  -0.8702  -0.8622
    -0.8265  -0.8177  -0.7850  -0.7504  -0.7367  -0.6575  -0.6032  -0.5710
    -0.5275  -0.4508  -0.4129  -0.2099  -0.2010  -0.1489  -0.1079  -0.0861
    -0.0693  -0.0088   0.0148   0.0278   0.0351   0.0838   0.1237   0.1592
     0.1641   0.1954   0.2334   0.2530   0.2690   0.2832   0.3218   0.3606
     0.3959   0.4280   0.4285   0.4549   0.4626   0.7724   0.8301   0.8489
     0.8540   0.9924   1.0152   1.1924   1.2026   1.3490   2.0064   2.0069
     2.1481   2.1484   3.9938   3.9982   4.0501   4.0629   4.1235   4.1717
     4.2204   4.2235   4.3116   4.3251   4.3359

          k = 0.0380 0.0000 0.0000 ( 17913 PWs)   bands (ev):

   -55.3586 -55.3214 -55.3092 -55.2919 -55.2751 -55.2398 -55.2379 -55.2032
   -55.1816 -55.1804 -55.1474 -55.1416 -55.1078 -55.0170 -54.3412 -54.3072
   -31.9252 -31.8077 -31.8031 -31.7322 -31.6787 -31.6751 -31.6709 -31.6484
   -31.5980 -31.5940 -31.5708 -31.5543 -31.5514 -31.5380 -31.5256 -31.5140
   -31.5128 -31.5061 -31.4893 -31.4633 -31.4605 -31.4569 -31.4417 -31.4340
   -31.4233 -31.4122 -31.3918 -31.3844 -31.3678 -31.3662 -31.3544 -31.3524
   -31.3500 -31.3406 -31.3398 -31.3309 -31.2941 -31.2919 -31.2699 -31.2531
   -31.2315 -31.2275 -30.7503 -30.6598 -30.6322 -30.5670 -30.4803 -30.3693
   -18.0020 -17.5869 -16.1128 -15.8452 -15.7693 -15.6322 -15.4630 -15.4430
   -15.4169 -15.3077 -15.2292 -15.1676 -15.1466 -15.1297 -15.0673 -15.0582
   -15.0280 -14.9994 -14.9580 -14.8803 -14.8625 -14.8040 -14.7647 -14.7473
   -14.7337 -14.6864 -14.6199 -14.5968 -14.5801 -14.5330 -14.3385 -13.1860
   -12.8408 -12.7263  -9.3951  -6.2915  -5.8626  -5.7264  -4.2727  -3.4109
    -3.2583  -3.1521  -3.0941  -3.0122  -2.9671  -2.9405  -2.9298  -2.8908
    -2.8194  -2.7858  -2.7528  -2.6963  -2.5966  -2.5083  -2.4347  -2.4274
    -2.3364  -2.3050  -2.1768  -2.1508  -2.1350  -2.1277  -2.0794  -2.0384
    -2.0055  -1.9625  -1.9474  -1.8880  -1.7999  -1.7492  -1.7261  -1.7175
    -1.7013  -1.6731  -1.6604  -1.6009  -1.5629  -1.4809  -1.4438  -1.4175
    -1.3383  -1.3006  -1.2889  -1.1652  -1.1359  -1.0278  -0.9938  -0.9709
    -0.9113  -0.8723  -0.8166  -0.7730  -0.7684  -0.7151  -0.7095  -0.6813
    -0.4575  -0.4242  -0.3816  -0.3048  -0.2625  -0.2453  -0.2240  -0.1950
    -0.1048  -0.0585  -0.0469  -0.0081   0.0296   0.0584   0.1280   0.1658
     0.1812   0.2352   0.2878   0.3259   0.3537   0.3737   0.3961   0.4566
     0.4922   0.5444   0.5836   0.6017   0.6416   0.6555   0.7357   0.8222
     0.8850   1.0560   1.3022   1.3244   1.4341   1.5910   1.6932   1.8333
     2.1449   2.2232   3.7540   3.8441   4.0176   4.0318   4.0718   4.1297
     4.1777   4.1885   4.2283   4.2344   4.2465

          k = 0.0380 0.0419 0.0000 ( 17878 PWs)   bands (ev):

   -55.3536 -55.3264 -55.3042 -55.2913 -55.2801 -55.2352 -55.2351 -55.2079
   -55.1830 -55.1766 -55.1524 -55.1366 -55.1128 -55.0176 -54.3362 -54.3122
   -31.8682 -31.7694 -31.7491 -31.6785 -31.6594 -31.6276 -31.6222 -31.6051
   -31.6035 -31.5930 -31.5899 -31.5509 -31.5508 -31.5431 -31.5336 -31.5302
   -31.5096 -31.5022 -31.4959 -31.4803 -31.4670 -31.4474 -31.4442 -31.4376
   -31.4271 -31.4078 -31.4011 -31.3947 -31.3881 -31.3800 -31.3780 -31.3721
   -31.3618 -31.3606 -31.3473 -31.3362 -31.3313 -31.3299 -31.3073 -31.2799
   -31.2633 -31.2303 -30.6962 -30.6556 -30.6362 -30.5544 -30.4930 -30.4265
   -17.9971 -17.5909 -15.9886 -15.7344 -15.6877 -15.5386 -15.4072 -15.3816
   -15.3497 -15.2843 -15.2369 -15.1758 -15.1448 -15.1146 -15.0745 -15.0403
   -15.0220 -15.0061 -14.9439 -14.9226 -14.8939 -14.8383 -14.8161 -14.7822
   -14.7749 -14.7387 -14.6862 -14.6523 -14.6444 -14.5870 -14.4536 -13.1872
   -12.8453 -12.7661  -9.4008  -6.3093  -5.8878  -5.6614  -4.2666  -3.2345
    -3.1002  -2.9854  -2.9688  -2.9009  -2.8528  -2.7927  -2.7677  -2.7448
    -2.6995  -2.6608  -2.6166  -2.5550  -2.4918  -2.4480  -2.4152  -2.3922
    -2.3617  -2.3188  -2.2815  -2.2378  -2.2093  -2.1776  -2.1631  -2.1372
    -2.0998  -2.0677  -2.0562  -1.9960  -1.9642  -1.9465  -1.8743  -1.8574
    -1.8096  -1.7612  -1.7441  -1.6498  -1.5774  -1.4544  -1.4124  -1.3670
    -1.3536  -1.2142  -1.1716  -1.1505  -1.0892  -0.9676  -0.9244  -0.8619
    -0.8427  -0.7979  -0.7627  -0.7130  -0.6899  -0.6555  -0.6195  -0.5468
    -0.5058  -0.4810  -0.4471  -0.3386  -0.3167  -0.3046  -0.2696  -0.2005
    -0.1659  -0.1378  -0.1019  -0.0771  -0.0557  -0.0236   0.0099   0.0226
     0.0520   0.1109   0.1852   0.2024   0.2436   0.2874   0.3542   0.3732
     0.4381   0.5105   0.5768   0.6128   0.6994   0.7379   0.7863   0.8540
     0.9067   1.0459   1.0596   1.2323   1.3291   1.4061   1.8754   1.9433
     2.1347   2.1980   3.9249   3.9368   3.9671   4.0757   4.0987   4.1438
     4.1715   4.2523   4.2773   4.3133   4.3339

          k = 0.0380-0.0839 0.0000 ( 17916 PWs)   bands (ev):

   -55.3450 -55.3350 -55.2924 -55.2919 -55.2908 -55.2324 -55.2277 -55.2153
   -55.1860 -55.1659 -55.1632 -55.1250 -55.1244 -55.0182 -54.3244 -54.3240
   -31.7328 -31.7250 -31.7230 -31.6386 -31.6187 -31.6167 -31.6163 -31.5834
   -31.5833 -31.5646 -31.5574 -31.5503 -31.5483 -31.5302 -31.5176 -31.5076
   -31.5057 -31.4979 -31.4975 -31.4935 -31.4909 -31.4885 -31.4564 -31.4373
   -31.4342 -31.4308 -31.4156 -31.4135 -31.4131 -31.4094 -31.4071 -31.4046
   -31.3986 -31.3963 -31.3956 -31.3722 -31.3360 -31.3334 -31.3060 -31.3056
   -31.2999 -31.2296 -30.6460 -30.6457 -30.5634 -30.5632 -30.5238 -30.5237
   -17.9923 -17.5946 -15.7436 -15.6483 -15.5354 -15.4609 -15.4504 -15.3316
   -15.3099 -15.2567 -15.2244 -15.2150 -15.1708 -15.1100 -15.0741 -14.9921
   -14.9880 -14.9823 -14.9638 -14.9460 -14.9253 -14.8704 -14.8406 -14.7993
   -14.7916 -14.7769 -14.7377 -14.7238 -14.7030 -14.7020 -14.6465 -13.1883
   -12.8283 -12.8283  -9.4079  -6.3144  -5.9010  -5.6207  -4.2610  -2.9459
    -2.8618  -2.8413  -2.8326  -2.7031  -2.6614  -2.6179  -2.6140  -2.5719
    -2.5566  -2.5418  -2.5197  -2.4921  -2.4741  -2.4442  -2.4367  -2.4189
    -2.4096  -2.3834  -2.3412  -2.3210  -2.2864  -2.2674  -2.2471  -2.1956
    -2.1681  -2.1140  -2.0923  -2.0775  -2.0298  -2.0056  -1.9508  -1.9095
    -1.8297  -1.7353  -1.6236  -1.5623  -1.5555  -1.4366  -1.3959  -1.3239
    -1.2988  -1.2849  -1.2262  -1.2060  -1.1284  -1.1009  -1.0482  -1.0401
    -1.0179  -0.9265  -0.8521  -0.7992  -0.7298  -0.7080  -0.6792  -0.6509
    -0.6002  -0.4450  -0.4091  -0.3855  -0.3290  -0.2944  -0.2177  -0.1950
    -0.1666  -0.1580  -0.1273  -0.1123  -0.0619  -0.0076  -0.0021   0.0227
     0.0586   0.1074   0.1123   0.1485   0.1674   0.2808   0.3577   0.3721
     0.3875   0.4995   0.5296   0.6965   0.6994   0.7217   0.7654   0.8555
     0.8764   0.9520   0.9572   1.1838   1.1926   1.3411   2.0199   2.0203
     2.1387   2.1394   3.9053   4.0023   4.0264   4.0530   4.1359   4.1718
     4.1968   4.2262   4.3221   4.3421   4.3878

          k = 0.0380-0.0419 0.0000 ( 17876 PWs)   bands (ev):

   -55.3536 -55.3264 -55.3042 -55.2913 -55.2801 -55.2352 -55.2351 -55.2079
   -55.1830 -55.1766 -55.1524 -55.1366 -55.1127 -55.0176 -54.3362 -54.3122
   -31.8682 -31.7694 -31.7490 -31.6785 -31.6594 -31.6277 -31.6222 -31.6051
   -31.6035 -31.5930 -31.5899 -31.5509 -31.5508 -31.5430 -31.5336 -31.5302
   -31.5091 -31.5022 -31.4959 -31.4803 -31.4671 -31.4473 -31.4442 -31.4379
   -31.4271 -31.4078 -31.4011 -31.3946 -31.3881 -31.3800 -31.3780 -31.3721
   -31.3622 -31.3608 -31.3470 -31.3360 -31.3314 -31.3299 -31.3073 -31.2799
   -31.2633 -31.2301 -30.6962 -30.6556 -30.6362 -30.5544 -30.4930 -30.4265
   -17.9973 -17.5906 -15.9885 -15.7341 -15.6873 -15.5385 -15.4081 -15.3812
   -15.3495 -15.2842 -15.2368 -15.1765 -15.1454 -15.1164 -15.0757 -15.0396
   -15.0225 -15.0066 -14.9408 -14.9223 -14.8940 -14.8382 -14.8160 -14.7822
   -14.7751 -14.7386 -14.6855 -14.6521 -14.6448 -14.5873 -14.4537 -13.1872
   -12.8453 -12.7661  -9.4021  -6.2963  -5.8834  -5.6776  -4.2669  -3.2343
    -3.1009  -2.9855  -2.9676  -2.8787  -2.8538  -2.7982  -2.7808  -2.7288
    -2.6971  -2.6547  -2.6288  -2.5556  -2.4960  -2.4491  -2.4054  -2.3983
    -2.3595  -2.3122  -2.2772  -2.2485  -2.2086  -2.1928  -2.1702  -2.1420
    -2.1093  -2.0650  -2.0559  -2.0053  -1.9610  -1.9421  -1.8703  -1.8375
    -1.7976  -1.7722  -1.7410  -1.6476  -1.5807  -1.4696  -1.4272  -1.3661
    -1.3472  -1.2156  -1.1648  -1.1449  -1.0864  -0.9807  -0.9342  -0.8495
    -0.8288  -0.7883  -0.7617  -0.7158  -0.6996  -0.6707  -0.6255  -0.5464
    -0.5140  -0.4686  -0.4410  -0.3386  -0.3228  -0.3059  -0.2706  -0.1983
    -0.1714  -0.1393  -0.0957  -0.0699  -0.0541  -0.0216   0.0113   0.0207
     0.0543   0.1075   0.1906   0.2053   0.2458   0.2846   0.3530   0.3702
     0.4417   0.5070   0.5831   0.6027   0.6956   0.7339   0.7856   0.8589
     0.9070   1.0463   1.0593   1.2325   1.3357   1.4064   1.8754   1.9433
     2.1345   2.1986   3.9275   3.9354   3.9666   4.0762   4.1011   4.1444
     4.1685   4.2497   4.2899   4.3101   4.3406

          k =-0.0760-0.0000 0.0000 ( 17886 PWs)   bands (ev):

   -55.3585 -55.3214 -55.3092 -55.2918 -55.2751 -55.2398 -55.2379 -55.2032
   -55.1814 -55.1804 -55.1474 -55.1417 -55.1078 -55.0170 -54.3412 -54.3072
   -31.9254 -31.8080 -31.8041 -31.7372 -31.6824 -31.6791 -31.6707 -31.6487
   -31.5978 -31.5940 -31.5709 -31.5543 -31.5387 -31.5257 -31.5255 -31.5128
   -31.5056 -31.4921 -31.4838 -31.4633 -31.4599 -31.4564 -31.4560 -31.4243
   -31.4233 -31.4125 -31.3917 -31.3844 -31.3842 -31.3677 -31.3665 -31.3525
   -31.3457 -31.3408 -31.3400 -31.3347 -31.2933 -31.2917 -31.2698 -31.2538
   -31.2340 -31.2277 -30.7499 -30.6633 -30.6308 -30.5669 -30.4801 -30.3693
   -18.0016 -17.5869 -15.9774 -15.8624 -15.6900 -15.5745 -15.4279 -15.4156
   -15.4026 -15.2755 -15.2660 -15.2234 -15.2026 -15.1758 -15.1414 -15.1114
   -15.0763 -15.0665 -14.9820 -14.8625 -14.8256 -14.7956 -14.7820 -14.7715
   -14.7695 -14.6942 -14.6527 -14.6046 -14.5294 -14.4917 -14.3377 -13.1881
   -12.8377 -12.7260  -9.3907  -6.2984  -5.8489  -5.7399  -4.2665  -3.3750
    -3.2356  -3.0069  -2.9711  -2.9306  -2.9146  -2.8675  -2.8593  -2.8503
    -2.7858  -2.7445  -2.6778  -2.6340  -2.6054  -2.5895  -2.4284  -2.2999
    -2.2971  -2.2077  -2.1673  -2.1288  -2.0854  -2.0085  -1.9664  -1.9459
    -1.9185  -1.9026  -1.8453  -1.8392  -1.8309  -1.7848  -1.7265  -1.7127
    -1.6963  -1.6778  -1.6629  -1.6511  -1.5772  -1.5624  -1.5302  -1.4325
    -1.3150  -1.1891  -1.1707  -1.0701  -1.0565  -1.0082  -1.0010  -0.9755
    -0.9675  -0.9239  -0.8934  -0.8710  -0.7992  -0.7738  -0.7106  -0.6821
    -0.6550  -0.6327  -0.5606  -0.3675  -0.2977  -0.2882  -0.2637  -0.2318
    -0.1477  -0.1159  -0.0816  -0.0584  -0.0215   0.0352   0.0577   0.0814
     0.1332   0.1389   0.1998   0.2185   0.2935   0.3225   0.3797   0.4256
     0.4364   0.4729   0.4801   0.4945   0.5620   0.6037   0.7604   0.8643
     0.8689   1.1187   1.1604   1.3237   1.3292   1.5956   1.7146   1.8083
     2.0147   2.1682   3.7539   3.8011   3.8837   4.0088   4.0826   4.1237
     4.1799   4.2021   4.2276   4.2489   4.3215

          k =-0.0760 0.0419 0.0000 ( 17914 PWs)   bands (ev):

   -55.3535 -55.3264 -55.3042 -55.2913 -55.2801 -55.2353 -55.2352 -55.2079
   -55.1831 -55.1765 -55.1524 -55.1368 -55.1128 -55.0176 -54.3362 -54.3122
   -31.8685 -31.7697 -31.7501 -31.6845 -31.6596 -31.6318 -31.6266 -31.6057
   -31.6036 -31.5930 -31.5899 -31.5511 -31.5507 -31.5346 -31.5303 -31.5248
   -31.5019 -31.4918 -31.4868 -31.4806 -31.4671 -31.4478 -31.4469 -31.4434
   -31.4124 -31.4086 -31.4013 -31.3940 -31.3912 -31.3882 -31.3809 -31.3798
   -31.3621 -31.3496 -31.3477 -31.3472 -31.3380 -31.3317 -31.3079 -31.2800
   -31.2633 -31.2332 -30.6960 -30.6586 -30.6355 -30.5544 -30.4930 -30.4266
   -17.9970 -17.5905 -15.8606 -15.7732 -15.6060 -15.4822 -15.3880 -15.3365
   -15.3214 -15.2784 -15.2348 -15.1751 -15.1639 -15.1536 -15.1315 -15.0916
   -15.0614 -15.0524 -14.9795 -14.9217 -14.9166 -14.8352 -14.8259 -14.8013
   -14.7889 -14.7519 -14.7419 -14.6489 -14.6170 -14.5988 -14.4531 -13.1893
   -12.8432 -12.7664  -9.3977  -6.3049  -5.8720  -5.6873  -4.2615  -3.2088
    -3.0805  -2.9461  -2.7979  -2.7782  -2.7200  -2.6943  -2.6674  -2.6281
    -2.5836  -2.5734  -2.5587  -2.5099  -2.4679  -2.3907  -2.3706  -2.3494
    -2.3231  -2.3069  -2.2545  -2.2237  -2.1804  -2.1585  -2.0818  -2.0753
    -2.0420  -2.0335  -1.9603  -1.9471  -1.9203  -1.9063  -1.8765  -1.8310
    -1.8120  -1.7804  -1.5949  -1.5757  -1.5343  -1.5168  -1.4352  -1.4105
    -1.3347  -1.1635  -1.1300  -1.1122  -1.1004  -1.0034  -0.9910  -0.9533
    -0.9314  -0.8616  -0.8004  -0.7737  -0.7613  -0.7258  -0.6991  -0.6552
    -0.6335  -0.6094  -0.5660  -0.5479  -0.5193  -0.4568  -0.4270  -0.3592
    -0.3444  -0.2531  -0.1713  -0.1593  -0.1403  -0.1224  -0.0918  -0.0646
    -0.0362   0.0843   0.0956   0.1776   0.1927   0.2574   0.3622   0.3899
     0.4587   0.5151   0.5306   0.5917   0.6980   0.7955   0.8551   0.9068
     0.9574   1.0491   1.1366   1.1501   1.2910   1.3283   1.8907   1.9454
     2.0568   2.1872   3.9132   3.9369   3.9606   3.9791   4.0542   4.0942
     4.1413   4.2018   4.2752   4.3267   4.3695

          k =-0.0760-0.0839 0.0000 ( 17948 PWs)   bands (ev):

   -55.3450 -55.3350 -55.2924 -55.2919 -55.2908 -55.2324 -55.2278 -55.2154
   -55.1860 -55.1658 -55.1631 -55.1251 -55.1245 -55.0182 -54.3244 -54.3241
   -31.7332 -31.7253 -31.7233 -31.6388 -31.6190 -31.6175 -31.6171 -31.5835
   -31.5834 -31.5725 -31.5582 -31.5570 -31.5502 -31.5305 -31.5187 -31.5053
   -31.4987 -31.4956 -31.4941 -31.4927 -31.4859 -31.4785 -31.4461 -31.4386
   -31.4355 -31.4353 -31.4215 -31.4166 -31.4121 -31.4116 -31.4065 -31.3986
   -31.3963 -31.3790 -31.3759 -31.3736 -31.3589 -31.3557 -31.3060 -31.3057
   -31.2996 -31.2331 -30.6470 -30.6467 -30.5634 -30.5632 -30.5239 -30.5237
   -17.9923 -17.5942 -15.6732 -15.5880 -15.5671 -15.4120 -15.3603 -15.3338
   -15.3229 -15.2074 -15.1649 -15.1459 -15.1313 -15.1095 -15.0712 -15.0616
   -15.0549 -14.9917 -14.9714 -14.9625 -14.9366 -14.8826 -14.8751 -14.8671
   -14.8594 -14.8094 -14.8055 -14.7659 -14.7148 -14.7113 -14.6361 -13.1904
   -12.8281 -12.8280  -9.4047  -6.3118  -5.8868  -5.6429  -4.2566  -2.9367
    -2.8461  -2.8352  -2.8290  -2.6912  -2.6254  -2.5499  -2.5278  -2.5061
    -2.4204  -2.4082  -2.3777  -2.3525  -2.3221  -2.2838  -2.2458  -2.2400
    -2.2034  -2.1949  -2.1791  -2.1624  -2.1404  -2.1254  -2.0916  -2.0809
    -2.0677  -2.0236  -1.9974  -1.9832  -1.9622  -1.9421  -1.9338  -1.9153
    -1.8413  -1.7502  -1.7259  -1.6402  -1.5695  -1.5683  -1.5606  -1.5016
    -1.4582  -1.4196  -1.3947  -1.3772  -1.2370  -1.1669  -1.1229  -1.1087
    -1.0941  -0.9633  -0.9565  -0.8808  -0.8585  -0.8520  -0.7550  -0.7136
    -0.6754  -0.6685  -0.5818  -0.5693  -0.4938  -0.3952  -0.3734  -0.3596
    -0.3144  -0.3126  -0.2752  -0.2623  -0.1659  -0.1304  -0.1086  -0.0965
    -0.0798  -0.0383   0.1124   0.1618   0.1683   0.3012   0.3331   0.4716
     0.5015   0.5656   0.6454   0.6944   0.7467   0.7795   0.8660   0.9408
     0.9440   1.0073   1.0229   1.0890   1.1012   1.3337   2.0375   2.0380
     2.1258   2.1262   3.8862   4.0013   4.0049   4.0341   4.1563   4.1796
     4.2560   4.2836   4.3230   4.3261   4.3841

     the Fermi energy is     3.8023 ev

!    total energy              =   -2977.68373269 Ry
     estimated scf accuracy    <       0.00000006 Ry
     smearing contrib. (-TS)   =      -0.03717740 Ry
     internal energy E=F+TS    =   -2977.64655528 Ry

     The total energy is F=E-TS. E is the sum of the following terms:
     one-electron contribution =  -22681.72294205 Ry
     hartree contribution      =   11438.23827575 Ry
     xc contribution           =    -496.60965453 Ry
     ewald contribution        =    8762.44580559 Ry
     electric field correction =       0.00195996 Ry

     convergence has been achieved in  78 iterations

     Forces acting on atoms (cartesian axes, Ry/au):

     atom    1 type  1   force =     0.00024640   -0.00037605    0.09320910
     atom    2 type  1   force =     0.00001629   -0.00038044   -0.17817088
     atom    3 type  2   force =     0.00004818   -0.00041229   -0.02001505
     atom    4 type  2   force =     0.00001086   -0.00190221    0.05911337
     atom    5 type  2   force =    -0.01035412   -0.00059156    0.00859243
     atom    6 type  2   force =     0.01130178    0.00009816    0.00626308
     atom    7 type  1   force =    -0.00097187    0.00197525   -0.01427504
     atom    8 type  1   force =     0.00097504   -0.00256410   -0.00598559
     atom    9 type  2   force =     0.00016774   -0.00001656    0.00007203
     atom   10 type  2   force =    -0.00230929    0.00309836    0.00258539
     atom   11 type  2   force =     0.00042812   -0.00043055   -0.00057481
     atom   12 type  2   force =     0.00002283   -0.00040955   -0.00058222
     atom   13 type  1   force =     0.00034782   -0.00028406   -0.00019156
     atom   14 type  1   force =     0.00005577   -0.00008212   -0.00005925
     atom   15 type  2   force =    -0.00000883    0.00059816   -0.00006298
     atom   16 type  2   force =     0.00030865    0.00027363   -0.00014453
     atom   17 type  2   force =     0.00039588    0.00024167    0.00038323
     atom   18 type  2   force =    -0.00051661    0.00018535   -0.00011655
     atom   19 type  1   force =    -0.00017054    0.00005705    0.00037731
     atom   20 type  1   force =    -0.00008994   -0.00006773    0.00059635
     atom   21 type  2   force =     0.00011861   -0.00010991    0.10403992
     atom   22 type  2   force =     0.00016640   -0.00023691    0.00062590
     atom   23 type  2   force =    -0.07029321   -0.00018868   -0.02687002
     atom   24 type  2   force =     0.07027458    0.00025553   -0.02687029
     atom   25 type  1   force =     0.00017440   -0.00031266    0.09241297
     atom   26 type  1   force =     0.00006532   -0.00055018   -0.17849651
     atom   27 type  2   force =     0.00008303   -0.00021762   -0.01908455
     atom   28 type  2   force =     0.00005963   -0.00173477    0.05853347
     atom   29 type  2   force =    -0.01102492   -0.00114277    0.00942925
     atom   30 type  2   force =     0.01188136   -0.00069792    0.00721053
     atom   31 type  1   force =    -0.00087720    0.00646983   -0.01494024
     atom   32 type  1   force =     0.00101800    0.00219802   -0.00638677
     atom   33 type  2   force =     0.00025746    0.00009360    0.00000309
     atom   34 type  2   force =    -0.00214595   -0.00244036   -0.00034530
     atom   35 type  2   force =     0.00029246    0.00012532   -0.00001704
     atom   36 type  2   force =     0.00024224    0.00003470    0.00050071
     atom   37 type  1   force =    -0.00009701    0.00002570   -0.00003607
     atom   38 type  1   force =     0.00015701   -0.00007685    0.00001094
     atom   39 type  2   force =    -0.00010870   -0.00021457    0.00039681
     atom   40 type  2   force =    -0.00014107    0.00008310    0.00004841
     atom   41 type  2   force =    -0.00046123    0.00015491    0.00027982
     atom   42 type  2   force =     0.00026927   -0.00007303   -0.00015196
     atom   43 type  1   force =     0.00035921    0.00032297   -0.00005189
     atom   44 type  1   force =    -0.00003532   -0.00025967    0.00014772
     atom   45 type  2   force =     0.00012487   -0.00011269    0.10398010
     atom   46 type  2   force =    -0.07025789   -0.00013839   -0.02680889
     atom   47 type  2   force =     0.07024999    0.00027142   -0.02687448
     atom   48 type  3   force =    -0.01365744   -0.00509231   -0.00109538
     atom   49 type  3   force =     0.00473992   -0.00040146   -0.00072145
     atom   50 type  4   force =     0.00286421    0.00267726    0.00137499
     atom   51 type  5   force =    -0.00104952   -0.00001219    0.00034185
     atom   52 type  5   force =     0.00092735    0.00077295    0.00075753
     atom   53 type  5   force =     0.00022750    0.00062285   -0.00024084
     atom   54 type  5   force =     0.00354485    0.00244412   -0.00300016
     atom   55 type  5   force =     0.00143931    0.00003988    0.00034917
     atom   56 type  5   force =     0.00049058   -0.00119168    0.00127303
     atom   57 type  2   force =    -0.00098975   -0.00068322    0.00090283
     atom   58 type  5   force =     0.00009119   -0.00024295   -0.00020128
     atom   59 type  5   force =     0.00111628    0.00052819   -0.00143977

     Total force =     0.366677     Total SCF correction =     0.000917
  @ DRIVER MODE: Message from server: STATUS
  @ DRIVER MODE: Message from server: GETFORCE
  @ DRIVER MODE: Returning v,forces,stress,ensemble 

     Writing output data file ./calc.save/
  @ DRIVER MODE: Message from server: EXIT
  @ DRIVE MODE: Exiting  
 
     init_run     :     10.99s CPU     11.22s WALL (       1 calls)
     electrons    :   1317.59s CPU   1335.86s WALL (       1 calls)
     forces       :      2.51s CPU      2.59s WALL (       1 calls)

     Called by init_run:
     wfcinit      :      4.94s CPU      5.02s WALL (       1 calls)
     potinit      :      5.39s CPU      5.45s WALL (       1 calls)
     hinit0       :      0.30s CPU      0.31s WALL (       1 calls)

     Called by electrons:
     c_bands      :   1127.35s CPU   1135.03s WALL (      78 calls)
     sum_band     :    128.89s CPU    133.12s WALL (      78 calls)
     v_of_rho     :     45.24s CPU     47.45s WALL (      79 calls)
     newd         :     18.79s CPU     22.97s WALL (      79 calls)
     mix_rho      :      1.75s CPU      1.77s WALL (      78 calls)
     vdW_kernel   :      4.54s CPU      4.56s WALL (       1 calls)

     Called by c_bands:
     init_us_2    :      9.03s CPU      9.06s WALL (    1580 calls)
     cegterg      :   1104.47s CPU   1111.82s WALL (     796 calls)

     Called by *egterg:
     cdiaghg      :    188.70s CPU    189.50s WALL (    8798 calls)
     h_psi        :    572.41s CPU    577.48s WALL (    8811 calls)
     s_psi        :     81.31s CPU     81.56s WALL (    8811 calls)
     g_psi        :      2.28s CPU      2.29s WALL (    8005 calls)

     Called by h_psi:
     h_psi:calbec :     75.50s CPU     75.83s WALL (    8811 calls)
     vloc_psi     :    410.64s CPU    414.67s WALL (    8811 calls)
     add_vuspsi   :     81.89s CPU     82.34s WALL (    8811 calls)

     General routines
     calbec       :     98.28s CPU     98.69s WALL (    9631 calls)
     fft          :     23.10s CPU     23.26s WALL (    4977 calls)
     ffts         :      0.15s CPU      0.15s WALL (     157 calls)
     fftw         :    459.10s CPU    463.59s WALL ( 1103934 calls)
     interpolate  :      0.48s CPU      0.49s WALL (      79 calls)
     davcio       :      0.00s CPU      2.08s WALL (      10 calls)
 
     Parallel routines
 
     PWSCF        :  22m11.30s CPU  22m34.61s WALL

 
   This run was terminated on:  16:37:39  15Sep2021            

=------------------------------------------------------------------------------=
   JOB DONE.
=------------------------------------------------------------------------------=
