
     Program PWSCF v.6.7GPU starts on 25Aug2021 at 15:15:13 

     This program is part of the open-source Quantum ESPRESSO suite
     for quantum simulation of materials; please cite
         "P. Giannozzi et al., J. Phys.:Condens. Matter 21 395502 (2009);
         "P. Giannozzi et al., J. Phys.:Condens. Matter 29 465901 (2017);
         "P. Giannozzi et al., J. Chem. Phys. 152 154105 (2020);
          URL http://www.quantum-espresso.org", 
     in publications or presentations arising from this work. More details at
     http://www.quantum-espresso.org/quote

     Parallel version (MPI), running on     6 processors

     MPI processes distributed on     1 nodes
     R & G space division:  proc/nbgrp/npool/nimage =       6
     Reading input from /storage/home/hcoda1/3/ntian30/research/carbon/CH3_vib_end_on/ads_slab/CH3NHNH2_a/out_0041/pw.inp
Warning: card &CELL ignored
Warning: card   CELL_DYNAMICS='IPI', ignored
Warning: card / ignored

     Current dimensions of program PWSCF are:
     Max number of different atomic species (ntypx) = 10
     Max number of k-points (npk) =  40000
     Max angular momentum in pseudopotentials (lmaxx) =  3
     Presently no symmetry can be used with electric field

     Message from routine cell_base_init:
     DEPRECATED: use true lattice parameter, not A to a.u. conversion factor

     **************************************************************************
     Initializing libbeef V0.1.2 with the BEEF-vdW functional.
     Citation: Wellendorff et al., PRB 85, 235149 (2012).
     **************************************************************************


     IMPORTANT: XC functional enforced from input :
     Exchange-correlation= BEEF-VDW
                           (   1   4  43  14   2   0   0)
     Any further DFT definition will be discarded
     Please, verify this is what you really want


     Subspace diagonalization in iterative solution of the eigenvalue problem:
     one sub-group per band group will be used
     scalapack distributed-memory algorithm (size of sub-group:  2*  2 procs)

  @ DRIVER MODE: Connecting to 
 qe_1139763_2643871.sched-torque.pace.gatech.educat0ar1d_scratch
  using UNIX socket
  @ DRIVER MODE: Message from server: STATUS
  @ DRIVER MODE: Message from server: INIT
  @ DRIVER MODE: Receiving replica           0          -1
  @ DRIVER MODE: Receiving encoded integer          25
  @ DRIVER MODE:  SCF:  T  FORCE:  T  STRESS:  F  VC:  F  ENSEMBLE:  F
  @ DRIVER MODE:  SCF:  T  FORCE:  T  STRESS:  F  VC:  F  ENSEMBLE:  F
 
     Parallelization info
     --------------------
     sticks:   dense  smooth     PW     G-vecs:    dense   smooth      PW
     Min         545     219     63                94473    23902    3663
     Max         546     222     64                94484    23905    3665
     Sum        3275    1317    379               566857   143421   21985
 
     Using Slab Decomposition
 


     bravais-lattice index     =            0
     lattice parameter (alat)  =       1.8897  a.u.
     unit-cell volume          =    6658.9804 (a.u.)^3
     number of atoms/cell      =           56
     number of atomic types    =            5
     number of electrons       =       398.00
     number of Kohn-Sham states=          209
     kinetic-energy cutoff     =      29.3995  Ry
     charge density cutoff     =     293.9946  Ry
     scf convergence threshold =      7.3E-08
     mixing beta               =       0.0500
     number of iterations used =            8  plain     mixing
     Exchange-correlation= BEEF-VDW
                           (   1   4  43  14   2   0   0)

     celldm(1)=   1.889726  celldm(2)=   0.000000  celldm(3)=   0.000000
     celldm(4)=   0.000000  celldm(5)=   0.000000  celldm(6)=   0.000000

     crystal axes: (cart. coord. in units of alat)
               a(1) = (   6.579727   0.000000   0.000000 )  
               a(2) = (  -0.000775   5.961596   0.000000 )  
               a(3) = (   0.000000   0.000000  25.155947 )  

     reciprocal axes: (cart. coord. in units 2 pi/alat)
               b(1) = (  0.151982  0.000020  0.000000 )  
               b(2) = (  0.000000  0.167740  0.000000 )  
               b(3) = (  0.000000  0.000000  0.039752 )  


     PseudoPot. # 1 for Ti read from file:
     /storage/coda1/p-amedford6/0/shared/rich_project_chbe-medford/medford-share/data/pseudos_module/espresso/nninc/pbe/van/Ti.UPF
     MD5 check sum: 8e4df49b7f0d34bbd5052bf3f5ea0213
     Pseudo is Ultrasoft, Zval = 12.0
     Generated by new atomic code, or converted to UPF format
     Using radial grid of  851 points,  6 beta functions with: 
                l(1) =   0
                l(2) =   0
                l(3) =   1
                l(4) =   1
                l(5) =   2
                l(6) =   2
     Q(r) pseudized with  8 coefficients,  rinner =    1.000   1.000   1.000
                                                       1.000   1.000

     PseudoPot. # 2 for O  read from file:
     /storage/coda1/p-amedford6/0/shared/rich_project_chbe-medford/medford-share/data/pseudos_module/espresso/nninc/pbe/van/O.UPF
     MD5 check sum: 78c19812648e8988a0fe644b0f25305e
     Pseudo is Ultrasoft, Zval =  6.0
     Generated by new atomic code, or converted to UPF format
     Using radial grid of  737 points,  4 beta functions with: 
                l(1) =   0
                l(2) =   0
                l(3) =   1
                l(4) =   1
     Q(r) pseudized with  8 coefficients,  rinner =    0.800   0.800   0.800


     PseudoPot. # 3 for N  read from file:
     /storage/coda1/p-amedford6/0/shared/rich_project_chbe-medford/medford-share/data/pseudos_module/espresso/nninc/pbe/van/N.UPF
     MD5 check sum: 90d10febe142ad51ac9d5be1deb811c4
     Pseudo is Ultrasoft, Zval =  5.0
     Generated by new atomic code, or converted to UPF format
     Using radial grid of  729 points,  4 beta functions with: 
                l(1) =   0
                l(2) =   0
                l(3) =   1
                l(4) =   1
     Q(r) pseudized with  8 coefficients,  rinner =    0.800   0.800   0.800


     PseudoPot. # 4 for C  read from file:
     /storage/coda1/p-amedford6/0/shared/rich_project_chbe-medford/medford-share/data/pseudos_module/espresso/nninc/pbe/van/C.UPF
     MD5 check sum: 1a69bf6b8db32088f5b2163dbdb77a27
     Pseudo is Ultrasoft, Zval =  4.0
     Generated by new atomic code, or converted to UPF format
     Using radial grid of  721 points,  4 beta functions with: 
                l(1) =   0
                l(2) =   0
                l(3) =   1
                l(4) =   1
     Q(r) pseudized with  8 coefficients,  rinner =    0.800   0.800   0.800


     PseudoPot. # 5 for H  read from file:
     /storage/coda1/p-amedford6/0/shared/rich_project_chbe-medford/medford-share/data/pseudos_module/espresso/nninc/pbe/van/H.UPF
     MD5 check sum: b5ee9d7bfd3a09ee7748110bda690ff7
     Pseudo is Ultrasoft, Zval =  1.0
     Generated by new atomic code, or converted to UPF format
     Using radial grid of  615 points,  1 beta functions with: 
                l(1) =   0
     Q(r) pseudized with  8 coefficients,  rinner =    0.800

     atomic species   valence    mass     pseudopotential
        Ti1           12.00    47.86700     Ti( 1.00)
        O1             6.00    15.99900     O ( 1.00)
        N1             5.00    14.00700     N ( 1.00)
        C1             4.00    12.01100     C ( 1.00)
        H1             1.00     1.00800     H ( 1.00)

     No symmetry found



   Cartesian axes

     site n.     atom                  positions (alat units)
         1           Ti1 tau(   1) = (   0.0004258   2.9801865   6.0000000  )
         2           Ti1 tau(   2) = (   3.2906075   1.4906267   6.0002472  )
         3           O1  tau(   3) = (   0.0006271   0.0005054   7.9858123  )
         4           O1  tau(   4) = (   3.2906025   0.0005020   7.3038282  )
         5           O1  tau(   5) = (   4.5942328   1.4918067   9.2879030  )
         6           O1  tau(   6) = (   1.9868534   1.4903216   9.2879459  )
         7           Ti1 tau(   7) = (   3.2907910   2.8959150   9.1758416  )
         8           Ti1 tau(   8) = (   0.0015273   1.4827037   9.2680791  )
         9           O1  tau(   9) = (   3.2714441   0.0289406  11.3813764  )
        10           O1  tau(  10) = (   0.0116148   5.9584955  10.6183126  )
        11           O1  tau(  11) = (   1.2692032   1.5162281  12.7122965  )
        12           O1  tau(  12) = (   5.2779133   1.5159715  12.6811497  )
        13           Ti1 tau(  13) = (   6.5579218   3.0031650  12.5037829  )
        14           Ti1 tau(  14) = (   3.2791490   1.5128154  12.5375672  )
        15           O1  tau(  15) = (   6.5208524   5.8954130  14.6845636  )
        16           O1  tau(  16) = (   3.2849572   0.0099931  14.0031570  )
        17           O1  tau(  17) = (   4.4884262   1.5607690  16.1641467  )
        18           O1  tau(  18) = (   1.9729656   1.5430890  16.0903287  )
        19           Ti1 tau(  19) = (   3.2372663   3.0309179  15.7728032  )
        20           Ti1 tau(  20) = (   6.5553692   1.3539605  15.8053163  )
        21           O1  tau(  21) = (   3.2904802   0.0005063   4.7018136  )
        22           O1  tau(  22) = (   6.5123495   0.2165906  17.2215032  )
        23           O1  tau(  23) = (   1.3043587   1.4918075   6.0039043  )
        24           O1  tau(  24) = (   5.2767064   1.4903225   6.0039473  )
        25           Ti1 tau(  25) = (   0.0000382   5.9609847   6.0000000  )
        26           Ti1 tau(  26) = (   3.2902200   4.4714249   6.0002472  )
        27           O1  tau(  27) = (   0.0002396   2.9813036   7.9858123  )
        28           O1  tau(  28) = (   3.2902150   2.9813002   7.3038282  )
        29           O1  tau(  29) = (   4.5938453   4.4726049   9.2879030  )
        30           O1  tau(  30) = (   1.9864658   4.4711199   9.2879459  )
        31           Ti1 tau(  31) = (   3.2891106   5.8743827   9.1763621  )
        32           Ti1 tau(  32) = (   0.0006254   4.4649316   9.2693709  )
        33           O1  tau(  33) = (   3.2699379   2.9911670  11.3762017  )
        34           O1  tau(  34) = (   0.0092240   2.9805883  10.6323155  )
        35           O1  tau(  35) = (   1.2730946   4.4825978  12.6662957  )
        36           O1  tau(  36) = (   5.2742290   4.4829497  12.6320226  )
        37           Ti1 tau(  37) = (   6.5783117   0.0079037  12.5026730  )
        38           Ti1 tau(  38) = (   3.2784283   4.4905194  12.5286134  )
        39           O1  tau(  39) = (   6.5033290   3.0824797  14.9867588  )
        40           O1  tau(  40) = (   3.2824109   3.0350539  13.9807796  )
        41           O1  tau(  41) = (   4.4804250   4.5097483  16.2808085  )
        42           O1  tau(  42) = (   1.9642025   4.5165872  16.2225063  )
        43           Ti1 tau(  43) = (   3.2609991   0.0502580  15.7998297  )
        44           Ti1 tau(  44) = (   6.5501253   4.5826093  16.0954727  )
        45           O1  tau(  45) = (   3.2900926   2.9813045   4.7018136  )
        46           O1  tau(  46) = (   1.3039711   4.4726057   6.0039043  )
        47           O1  tau(  47) = (   5.2763189   4.4711207   6.0039473  )
        48           N1  tau(  48) = (   0.8845045   3.2634721  19.1145209  )
        49           N1  tau(  49) = (   6.3504243   3.3997271  18.1887592  )
        50           C1  tau(  50) = (   1.2927081   4.5631590  19.6429350  )
        51           H1  tau(  51) = (   0.4658632   5.1229972  20.1056819  )
        52           H1  tau(  52) = (   2.0600825   4.3818216  20.3958833  )
        53           H1  tau(  53) = (   1.7018904   5.1738364  18.8453250  )
        54           H1  tau(  54) = (   0.5628611   2.6866381  19.8788112  )
        55           H1  tau(  55) = (   5.6051421   3.9827062  18.5884547  )
        56           H1  tau(  56) = (   5.9567982   2.4624696  18.0937858  )

     number of k points=    10  Fermi-Dirac smearing, width (Ry)=  0.0073
                       cart. coord. in units 2pi/alat
        k(    1) = (   0.0000000   0.0000000   0.0000000), wk =   0.1250000
        k(    2) = (   0.0000000   0.0419351   0.0000000), wk =   0.2500000
        k(    3) = (   0.0000000  -0.0838702   0.0000000), wk =   0.1250000
        k(    4) = (   0.0379955   0.0000049   0.0000000), wk =   0.2500000
        k(    5) = (   0.0379955   0.0419400   0.0000000), wk =   0.2500000
        k(    6) = (   0.0379955  -0.0838652   0.0000000), wk =   0.2500000
        k(    7) = (   0.0379955  -0.0419301   0.0000000), wk =   0.2500000
        k(    8) = (  -0.0759910  -0.0000099   0.0000000), wk =   0.1250000
        k(    9) = (  -0.0759910   0.0419252   0.0000000), wk =   0.2500000
        k(   10) = (  -0.0759910  -0.0838800   0.0000000), wk =   0.1250000

     Dense  grid:   566857 G-vectors     FFT dimensions: (  72,  64, 270)

     Smooth grid:   143421 G-vectors     FFT dimensions: (  45,  40, 180)

     Estimated max dynamical RAM per process >     602.13 MB

     Estimated total dynamical RAM >       3.53 GB
     Cannot read rho : file not found

     Initial potential from superposition of free atoms

     starting charge  381.99914, renormalised to  398.00000

     negative rho (up, down):  1.416E-02 0.000E+00


     %%%%%%%%%%%%%%%%%%%%%%%%%%%%%%%%%%%%%%%%%%%%%%%%%%%%%%%%%%%%%%%%%%%%%%%%
     %                                                                      %
     % You are using vdW-DF, which was implemented by the Thonhauser group. %
     % Please cite the following two papers that made this development      %
     % possible and the two reviews that describe the various versions:     %
     %                                                                      %
     %   T. Thonhauser et al., PRL 115, 136402 (2015).                      %
     %   T. Thonhauser et al., PRB 76, 125112 (2007).                       %
     %   K. Berland et al., Rep. Prog. Phys. 78, 066501 (2015).             %
     %   D.C. Langreth et al., J. Phys.: Condens. Matter 21, 084203 (2009). %
     %                                                                      %
     %                                                                      %
     % If you are calculating the stress with vdW-DF, please also cite:     %
     %                                                                      %
     %   R. Sabatini et al., J. Phys.: Condens. Matter 24, 424209 (2012).   %
     %                                                                      %
     %%%%%%%%%%%%%%%%%%%%%%%%%%%%%%%%%%%%%%%%%%%%%%%%%%%%%%%%%%%%%%%%%%%%%%%%


 
     Adding external electric field

     Computed dipole along edir(3) : 
        Dipole              -11.7163 Ry au,        -29.7798 Debye
        Dipole field         -0.0221 Ry au, 
 
        Potential amp.        2.0496 Ry
        Total length         46.3494 bohr
 
     Starting wfcs are  302 atomic wfcs
  @ DRIVER MODE: Message from server: STATUS
  @ DRIVER MODE: Message from server: POSDATA
  @ DRIVER MODE: Reading and sharing cell 
  @ DRIVER MODE: Reading and sharing positions 
  @ DRIVER MODE: Received positions 

     total cpu time spent up to now is       18.9 secs

     Self-consistent Calculation

     iteration #  1     ecut=    29.40 Ry     beta= 0.05
     Davidson diagonalization with overlap
     c_bands:  3 eigenvalues not converged
     c_bands:  1 eigenvalues not converged
     c_bands:  1 eigenvalues not converged
     c_bands:  4 eigenvalues not converged
     c_bands:  1 eigenvalues not converged
     c_bands:  4 eigenvalues not converged
     c_bands:  5 eigenvalues not converged
     c_bands:  2 eigenvalues not converged
     ethr =  1.00E-05,  avg # of iterations = 21.9

     negative rho (up, down):  9.998E-03 0.000E+00
 
     Adding external electric field

     Computed dipole along edir(3) : 
        Dipole               48.9585 Ry au,        124.4400 Debye
        Dipole field          0.0924 Ry au, 
 
        Potential amp.       -8.5645 Ry
        Total length         46.3494 bohr
 

     total cpu time spent up to now is       90.9 secs

     total energy              =   -2424.60215327 Ry
     estimated scf accuracy    <    5829.65759902 Ry

     iteration #  2     ecut=    29.40 Ry     beta= 0.05
     Davidson diagonalization with overlap
     ethr =  1.00E-02,  avg # of iterations = 22.5

     negative rho (up, down):  1.865E-03 0.000E+00
 
     Adding external electric field

     Computed dipole along edir(3) : 
        Dipole               -1.8452 Ry au,         -4.6899 Debye
        Dipole field         -0.0035 Ry au, 
 
        Potential amp.        0.3228 Ry
        Total length         46.3494 bohr
 

     total cpu time spent up to now is      223.1 secs

     total energy              =   -2427.64288263 Ry
     estimated scf accuracy    <   71924.53083332 Ry

     iteration #  3     ecut=    29.40 Ry     beta= 0.05
     Davidson diagonalization with overlap
     ethr =  1.00E-02,  avg # of iterations = 15.7

     negative rho (up, down):  1.928E-03 0.000E+00
 
     Adding external electric field

     Computed dipole along edir(3) : 
        Dipole               -4.2916 Ry au,        -10.9082 Debye
        Dipole field         -0.0081 Ry au, 
 
        Potential amp.        0.7508 Ry
        Total length         46.3494 bohr
 

     total cpu time spent up to now is      304.4 secs

     total energy              =   -2931.30999824 Ry
     estimated scf accuracy    <    5130.06413094 Ry

     iteration #  4     ecut=    29.40 Ry     beta= 0.05
     Davidson diagonalization with overlap
     ethr =  1.00E-02,  avg # of iterations = 12.0

     negative rho (up, down):  1.973E-03 0.000E+00
 
     Adding external electric field

     Computed dipole along edir(3) : 
        Dipole               -6.1157 Ry au,        -15.5445 Debye
        Dipole field         -0.0115 Ry au, 
 
        Potential amp.        1.0698 Ry
        Total length         46.3494 bohr
 

     total cpu time spent up to now is      336.1 secs

     total energy              =   -2927.69183080 Ry
     estimated scf accuracy    <    2110.44833905 Ry

     iteration #  5     ecut=    29.40 Ry     beta= 0.05
     Davidson diagonalization with overlap
     c_bands:  4 eigenvalues not converged
     ethr =  1.00E-02,  avg # of iterations = 15.4

     negative rho (up, down):  2.003E-03 0.000E+00
 
     Adding external electric field

     Computed dipole along edir(3) : 
        Dipole               -5.8007 Ry au,        -14.7440 Debye
        Dipole field         -0.0109 Ry au, 
 
        Potential amp.        1.0148 Ry
        Total length         46.3494 bohr
 

     total cpu time spent up to now is      369.2 secs

     total energy              =   -2942.27159277 Ry
     estimated scf accuracy    <     187.08220387 Ry

     iteration #  6     ecut=    29.40 Ry     beta= 0.05
     Davidson diagonalization with overlap
     ethr =  1.00E-02,  avg # of iterations =  4.7

     negative rho (up, down):  2.000E-03 0.000E+00
 
     Adding external electric field

     Computed dipole along edir(3) : 
        Dipole               -5.5512 Ry au,        -14.1098 Debye
        Dipole field         -0.0105 Ry au, 
 
        Potential amp.        0.9711 Ry
        Total length         46.3494 bohr
 

     total cpu time spent up to now is      389.1 secs

     total energy              =   -2944.84748745 Ry
     estimated scf accuracy    <      55.52405200 Ry

     iteration #  7     ecut=    29.40 Ry     beta= 0.05
     Davidson diagonalization with overlap
     ethr =  1.00E-02,  avg # of iterations =  1.7

     negative rho (up, down):  2.278E-03 0.000E+00
 
     Adding external electric field

     Computed dipole along edir(3) : 
        Dipole               -2.1330 Ry au,         -5.4215 Debye
        Dipole field         -0.0040 Ry au, 
 
        Potential amp.        0.3731 Ry
        Total length         46.3494 bohr
 

     total cpu time spent up to now is      406.8 secs

     total energy              =   -2942.32686890 Ry
     estimated scf accuracy    <      54.05089109 Ry

     iteration #  8     ecut=    29.40 Ry     beta= 0.05
     Davidson diagonalization with overlap
     ethr =  1.00E-02,  avg # of iterations =  1.2

     negative rho (up, down):  2.504E-03 0.000E+00
 
     Adding external electric field

     Computed dipole along edir(3) : 
        Dipole               -1.3328 Ry au,         -3.3877 Debye
        Dipole field         -0.0025 Ry au, 
 
        Potential amp.        0.2332 Ry
        Total length         46.3494 bohr
 

     total cpu time spent up to now is      424.3 secs

     total energy              =   -2942.79627907 Ry
     estimated scf accuracy    <     423.11426415 Ry

     iteration #  9     ecut=    29.40 Ry     beta= 0.05
     Davidson diagonalization with overlap
     ethr =  1.00E-02,  avg # of iterations =  1.5

     negative rho (up, down):  2.602E-03 0.000E+00
 
     Adding external electric field

     Computed dipole along edir(3) : 
        Dipole               -1.3004 Ry au,         -3.3053 Debye
        Dipole field         -0.0025 Ry au, 
 
        Potential amp.        0.2275 Ry
        Total length         46.3494 bohr
 

     total cpu time spent up to now is      442.1 secs

     total energy              =   -2941.44415139 Ry
     estimated scf accuracy    <     383.24931462 Ry

     iteration # 10     ecut=    29.40 Ry     beta= 0.05
     Davidson diagonalization with overlap
     ethr =  1.00E-02,  avg # of iterations =  1.9

     negative rho (up, down):  2.813E-03 0.000E+00
 
     Adding external electric field

     Computed dipole along edir(3) : 
        Dipole               -0.5593 Ry au,         -1.4217 Debye
        Dipole field         -0.0011 Ry au, 
 
        Potential amp.        0.0978 Ry
        Total length         46.3494 bohr
 

     total cpu time spent up to now is      460.2 secs

     total energy              =   -2942.38654902 Ry
     estimated scf accuracy    <     123.06062713 Ry

     iteration # 11     ecut=    29.40 Ry     beta= 0.05
     Davidson diagonalization with overlap
     ethr =  1.00E-02,  avg # of iterations =  2.8

     negative rho (up, down):  2.600E-03 0.000E+00
 
     Adding external electric field

     Computed dipole along edir(3) : 
        Dipole               -2.1189 Ry au,         -5.3858 Debye
        Dipole field         -0.0040 Ry au, 
 
        Potential amp.        0.3707 Ry
        Total length         46.3494 bohr
 

     total cpu time spent up to now is      479.3 secs

     total energy              =   -2940.10730779 Ry
     estimated scf accuracy    <     183.00626682 Ry

     iteration # 12     ecut=    29.40 Ry     beta= 0.05
     Davidson diagonalization with overlap
     ethr =  1.00E-02,  avg # of iterations =  2.9

     negative rho (up, down):  2.640E-03 0.000E+00
 
     Adding external electric field

     Computed dipole along edir(3) : 
        Dipole               -2.3936 Ry au,         -6.0839 Debye
        Dipole field         -0.0045 Ry au, 
 
        Potential amp.        0.4187 Ry
        Total length         46.3494 bohr
 

     total cpu time spent up to now is      497.9 secs

     total energy              =   -2941.13766232 Ry
     estimated scf accuracy    <      57.35980213 Ry

     iteration # 13     ecut=    29.40 Ry     beta= 0.05
     Davidson diagonalization with overlap
     ethr =  1.00E-02,  avg # of iterations =  1.8

     negative rho (up, down):  2.917E-03 0.000E+00
 
     Adding external electric field

     Computed dipole along edir(3) : 
        Dipole               -2.1345 Ry au,         -5.4254 Debye
        Dipole field         -0.0040 Ry au, 
 
        Potential amp.        0.3734 Ry
        Total length         46.3494 bohr
 

     total cpu time spent up to now is      515.6 secs

     total energy              =   -2941.00750575 Ry
     estimated scf accuracy    <      41.16576130 Ry

     iteration # 14     ecut=    29.40 Ry     beta= 0.05
     Davidson diagonalization with overlap
     ethr =  1.00E-02,  avg # of iterations =  3.4

     negative rho (up, down):  3.057E-03 0.000E+00
 
     Adding external electric field

     Computed dipole along edir(3) : 
        Dipole               -3.5965 Ry au,         -9.1413 Debye
        Dipole field         -0.0068 Ry au, 
 
        Potential amp.        0.6291 Ry
        Total length         46.3494 bohr
 

     total cpu time spent up to now is      534.3 secs

     total energy              =   -2940.21454525 Ry
     estimated scf accuracy    <      25.46426552 Ry

     iteration # 15     ecut=    29.40 Ry     beta= 0.05
     Davidson diagonalization with overlap
     c_bands:  1 eigenvalues not converged
     ethr =  6.40E-03,  avg # of iterations =  9.1

     negative rho (up, down):  2.947E-03 0.000E+00
 
     Adding external electric field

     Computed dipole along edir(3) : 
        Dipole               -3.4475 Ry au,         -8.7627 Debye
        Dipole field         -0.0065 Ry au, 
 
        Potential amp.        0.6031 Ry
        Total length         46.3494 bohr
 

     total cpu time spent up to now is      558.9 secs

     total energy              =   -2943.76047875 Ry
     estimated scf accuracy    <      26.37869018 Ry

     iteration # 16     ecut=    29.40 Ry     beta= 0.05
     Davidson diagonalization with overlap
     ethr =  6.40E-03,  avg # of iterations =  1.7

     negative rho (up, down):  3.065E-03 0.000E+00
 
     Adding external electric field

     Computed dipole along edir(3) : 
        Dipole               -4.0148 Ry au,        -10.2046 Debye
        Dipole field         -0.0076 Ry au, 
 
        Potential amp.        0.7023 Ry
        Total length         46.3494 bohr
 

     total cpu time spent up to now is      576.7 secs

     total energy              =   -2944.48016511 Ry
     estimated scf accuracy    <      26.78496581 Ry

     iteration # 17     ecut=    29.40 Ry     beta= 0.05
     Davidson diagonalization with overlap
     ethr =  6.40E-03,  avg # of iterations =  2.9

     negative rho (up, down):  3.134E-03 0.000E+00
 
     Adding external electric field

     Computed dipole along edir(3) : 
        Dipole               -4.3811 Ry au,        -11.1356 Debye
        Dipole field         -0.0083 Ry au, 
 
        Potential amp.        0.7664 Ry
        Total length         46.3494 bohr
 

     total cpu time spent up to now is      595.0 secs

     total energy              =   -2945.11656039 Ry
     estimated scf accuracy    <      41.73951207 Ry

     iteration # 18     ecut=    29.40 Ry     beta= 0.05
     Davidson diagonalization with overlap
     ethr =  6.40E-03,  avg # of iterations =  1.6

     negative rho (up, down):  3.077E-03 0.000E+00
 
     Adding external electric field

     Computed dipole along edir(3) : 
        Dipole               -4.5736 Ry au,        -11.6249 Debye
        Dipole field         -0.0086 Ry au, 
 
        Potential amp.        0.8001 Ry
        Total length         46.3494 bohr
 

     total cpu time spent up to now is      612.9 secs

     total energy              =   -2945.51916326 Ry
     estimated scf accuracy    <      51.36942642 Ry

     iteration # 19     ecut=    29.40 Ry     beta= 0.05
     Davidson diagonalization with overlap
     ethr =  6.40E-03,  avg # of iterations =  5.5

     negative rho (up, down):  3.047E-03 0.000E+00
 
     Adding external electric field

     Computed dipole along edir(3) : 
        Dipole               -4.2128 Ry au,        -10.7078 Debye
        Dipole field         -0.0080 Ry au, 
 
        Potential amp.        0.7370 Ry
        Total length         46.3494 bohr
 

     total cpu time spent up to now is      633.0 secs

     total energy              =   -2945.52285937 Ry
     estimated scf accuracy    <     143.43840354 Ry

     iteration # 20     ecut=    29.40 Ry     beta= 0.05
     Davidson diagonalization with overlap
     ethr =  6.40E-03,  avg # of iterations =  1.6

     negative rho (up, down):  3.076E-03 0.000E+00
 
     Adding external electric field

     Computed dipole along edir(3) : 
        Dipole               -2.0182 Ry au,         -5.1298 Debye
        Dipole field         -0.0038 Ry au, 
 
        Potential amp.        0.3531 Ry
        Total length         46.3494 bohr
 

     total cpu time spent up to now is      650.7 secs

     total energy              =   -2941.36981723 Ry
     estimated scf accuracy    <     142.74783334 Ry

     iteration # 21     ecut=    29.40 Ry     beta= 0.05
     Davidson diagonalization with overlap
     ethr =  6.40E-03,  avg # of iterations =  2.2

     negative rho (up, down):  3.053E-03 0.000E+00
 
     Adding external electric field

     Computed dipole along edir(3) : 
        Dipole               -1.7273 Ry au,         -4.3904 Debye
        Dipole field         -0.0033 Ry au, 
 
        Potential amp.        0.3022 Ry
        Total length         46.3494 bohr
 

     total cpu time spent up to now is      671.1 secs

     total energy              =   -2943.11281868 Ry
     estimated scf accuracy    <       7.42272127 Ry

     iteration # 22     ecut=    29.40 Ry     beta= 0.05
     Davidson diagonalization with overlap
     ethr =  1.87E-03,  avg # of iterations =  4.9

     negative rho (up, down):  3.187E-03 0.000E+00
 
     Adding external electric field

     Computed dipole along edir(3) : 
        Dipole               -1.3311 Ry au,         -3.3834 Debye
        Dipole field         -0.0025 Ry au, 
 
        Potential amp.        0.2329 Ry
        Total length         46.3494 bohr
 

     total cpu time spent up to now is      690.9 secs

     total energy              =   -2942.87776704 Ry
     estimated scf accuracy    <       5.25808523 Ry

     iteration # 23     ecut=    29.40 Ry     beta= 0.05
     Davidson diagonalization with overlap
     ethr =  1.32E-03,  avg # of iterations =  4.1

     negative rho (up, down):  3.694E-03 0.000E+00
 
     Adding external electric field

     Computed dipole along edir(3) : 
        Dipole               -0.4480 Ry au,         -1.1388 Debye
        Dipole field         -0.0008 Ry au, 
 
        Potential amp.        0.0784 Ry
        Total length         46.3494 bohr
 

     total cpu time spent up to now is      710.3 secs

     total energy              =   -2942.63649681 Ry
     estimated scf accuracy    <       3.15236351 Ry

     iteration # 24     ecut=    29.40 Ry     beta= 0.05
     Davidson diagonalization with overlap
     c_bands:  3 eigenvalues not converged
     ethr =  7.92E-04,  avg # of iterations = 14.2

     negative rho (up, down):  3.699E-03 0.000E+00
 
     Adding external electric field

     Computed dipole along edir(3) : 
        Dipole               -0.1588 Ry au,         -0.4037 Debye
        Dipole field         -0.0003 Ry au, 
 
        Potential amp.        0.0278 Ry
        Total length         46.3494 bohr
 

     total cpu time spent up to now is      736.7 secs

     total energy              =   -2942.63271293 Ry
     estimated scf accuracy    <       8.01539433 Ry

     iteration # 25     ecut=    29.40 Ry     beta= 0.05
     Davidson diagonalization with overlap
     ethr =  7.92E-04,  avg # of iterations =  2.6

     negative rho (up, down):  3.661E-03 0.000E+00
 
     Adding external electric field

     Computed dipole along edir(3) : 
        Dipole               -0.8866 Ry au,         -2.2535 Debye
        Dipole field         -0.0017 Ry au, 
 
        Potential amp.        0.1551 Ry
        Total length         46.3494 bohr
 

     total cpu time spent up to now is      755.6 secs

     total energy              =   -2942.81530694 Ry
     estimated scf accuracy    <       0.64080604 Ry

     iteration # 26     ecut=    29.40 Ry     beta= 0.05
     Davidson diagonalization with overlap
     c_bands:  2 eigenvalues not converged
     c_bands:  3 eigenvalues not converged
     c_bands:  2 eigenvalues not converged
     c_bands:  1 eigenvalues not converged
     c_bands:  1 eigenvalues not converged
     ethr =  1.61E-04,  avg # of iterations = 18.1

     negative rho (up, down):  3.887E-03 0.000E+00
 
     Adding external electric field

     Computed dipole along edir(3) : 
        Dipole               -0.3993 Ry au,         -1.0150 Debye
        Dipole field         -0.0008 Ry au, 
 
        Potential amp.        0.0699 Ry
        Total length         46.3494 bohr
 

     total cpu time spent up to now is      785.6 secs

     total energy              =   -2942.85651222 Ry
     estimated scf accuracy    <       2.23976831 Ry

     iteration # 27     ecut=    29.40 Ry     beta= 0.05
     Davidson diagonalization with overlap
     ethr =  1.61E-04,  avg # of iterations =  4.6

     negative rho (up, down):  4.343E-03 0.000E+00
 
     Adding external electric field

     Computed dipole along edir(3) : 
        Dipole               -0.2080 Ry au,         -0.5286 Debye
        Dipole field         -0.0004 Ry au, 
 
        Potential amp.        0.0364 Ry
        Total length         46.3494 bohr
 

     total cpu time spent up to now is      805.2 secs

     total energy              =   -2942.86060725 Ry
     estimated scf accuracy    <       0.89066699 Ry

     iteration # 28     ecut=    29.40 Ry     beta= 0.05
     Davidson diagonalization with overlap
     c_bands:  1 eigenvalues not converged
     ethr =  1.61E-04,  avg # of iterations =  4.5

     negative rho (up, down):  5.655E-03 0.000E+00
 
     Adding external electric field

     Computed dipole along edir(3) : 
        Dipole                0.6193 Ry au,          1.5741 Debye
        Dipole field          0.0012 Ry au, 
 
        Potential amp.       -0.1083 Ry
        Total length         46.3494 bohr
 

     total cpu time spent up to now is      824.8 secs

     total energy              =   -2942.80314554 Ry
     estimated scf accuracy    <       1.46610490 Ry

     iteration # 29     ecut=    29.40 Ry     beta= 0.05
     Davidson diagonalization with overlap
     c_bands:  1 eigenvalues not converged
     c_bands:  3 eigenvalues not converged
     c_bands:  4 eigenvalues not converged
     c_bands:  4 eigenvalues not converged
     c_bands:  1 eigenvalues not converged
     c_bands:  1 eigenvalues not converged
     c_bands:  2 eigenvalues not converged
     ethr =  1.61E-04,  avg # of iterations = 17.7

     negative rho (up, down):  5.237E-03 0.000E+00
 
     Adding external electric field

     Computed dipole along edir(3) : 
        Dipole                0.5110 Ry au,          1.2987 Debye
        Dipole field          0.0010 Ry au, 
 
        Potential amp.       -0.0894 Ry
        Total length         46.3494 bohr
 

     total cpu time spent up to now is      854.5 secs

     total energy              =   -2942.89177864 Ry
     estimated scf accuracy    <       0.80560648 Ry

     iteration # 30     ecut=    29.40 Ry     beta= 0.05
     Davidson diagonalization with overlap
     c_bands:  5 eigenvalues not converged
     ethr =  1.61E-04,  avg # of iterations =  4.8

     negative rho (up, down):  5.490E-03 0.000E+00
 
     Adding external electric field

     Computed dipole along edir(3) : 
        Dipole                0.4203 Ry au,          1.0683 Debye
        Dipole field          0.0008 Ry au, 
 
        Potential amp.       -0.0735 Ry
        Total length         46.3494 bohr
 

     total cpu time spent up to now is      874.0 secs

     total energy              =   -2942.87407209 Ry
     estimated scf accuracy    <       0.81554771 Ry

     iteration # 31     ecut=    29.40 Ry     beta= 0.05
     Davidson diagonalization with overlap
     ethr =  1.61E-04,  avg # of iterations =  3.3

     negative rho (up, down):  6.462E-03 0.000E+00
 
     Adding external electric field

     Computed dipole along edir(3) : 
        Dipole                0.4006 Ry au,          1.0182 Debye
        Dipole field          0.0008 Ry au, 
 
        Potential amp.       -0.0701 Ry
        Total length         46.3494 bohr
 

     total cpu time spent up to now is      893.3 secs

     total energy              =   -2942.84366710 Ry
     estimated scf accuracy    <       0.63994545 Ry

     iteration # 32     ecut=    29.40 Ry     beta= 0.05
     Davidson diagonalization with overlap
     ethr =  1.61E-04,  avg # of iterations =  6.5

     negative rho (up, down):  6.025E-03 0.000E+00
 
     Adding external electric field

     Computed dipole along edir(3) : 
        Dipole                0.4862 Ry au,          1.2359 Debye
        Dipole field          0.0009 Ry au, 
 
        Potential amp.       -0.0851 Ry
        Total length         46.3494 bohr
 

     total cpu time spent up to now is      914.0 secs

     total energy              =   -2942.85138339 Ry
     estimated scf accuracy    <       0.20244491 Ry

     iteration # 33     ecut=    29.40 Ry     beta= 0.05
     Davidson diagonalization with overlap
     c_bands:  1 eigenvalues not converged
     c_bands:  1 eigenvalues not converged
     ethr =  5.09E-05,  avg # of iterations = 10.9

     negative rho (up, down):  5.679E-03 0.000E+00
 
     Adding external electric field

     Computed dipole along edir(3) : 
        Dipole                0.8361 Ry au,          2.1251 Debye
        Dipole field          0.0016 Ry au, 
 
        Potential amp.       -0.1463 Ry
        Total length         46.3494 bohr
 

     total cpu time spent up to now is      937.3 secs

     total energy              =   -2942.82576867 Ry
     estimated scf accuracy    <       0.14779513 Ry

     iteration # 34     ecut=    29.40 Ry     beta= 0.05
     Davidson diagonalization with overlap
     c_bands:  4 eigenvalues not converged
     c_bands:  2 eigenvalues not converged
     c_bands:  1 eigenvalues not converged
     c_bands:  1 eigenvalues not converged
     c_bands:  2 eigenvalues not converged
     ethr =  3.71E-05,  avg # of iterations = 20.7

     negative rho (up, down):  5.714E-03 0.000E+00
 
     Adding external electric field

     Computed dipole along edir(3) : 
        Dipole                0.6254 Ry au,          1.5896 Debye
        Dipole field          0.0012 Ry au, 
 
        Potential amp.       -0.1094 Ry
        Total length         46.3494 bohr
 

     total cpu time spent up to now is      975.2 secs

     total energy              =   -2942.83477662 Ry
     estimated scf accuracy    <       0.51641056 Ry

     iteration # 35     ecut=    29.40 Ry     beta= 0.05
     Davidson diagonalization with overlap
     c_bands:  3 eigenvalues not converged
     ethr =  3.71E-05,  avg # of iterations =  9.3

     negative rho (up, down):  6.194E-03 0.000E+00
 
     Adding external electric field

     Computed dipole along edir(3) : 
        Dipole                0.7572 Ry au,          1.9246 Debye
        Dipole field          0.0014 Ry au, 
 
        Potential amp.       -0.1325 Ry
        Total length         46.3494 bohr
 

     total cpu time spent up to now is      996.7 secs

     total energy              =   -2942.83973055 Ry
     estimated scf accuracy    <       0.07438802 Ry

     iteration # 36     ecut=    29.40 Ry     beta= 0.05
     Davidson diagonalization with overlap
     c_bands:  3 eigenvalues not converged
     c_bands:  1 eigenvalues not converged
     c_bands:  3 eigenvalues not converged
     c_bands:  2 eigenvalues not converged
     c_bands:  1 eigenvalues not converged
     c_bands:  1 eigenvalues not converged
     ethr =  1.87E-05,  avg # of iterations = 18.1

     negative rho (up, down):  6.758E-03 0.000E+00
 
     Adding external electric field

     Computed dipole along edir(3) : 
        Dipole                1.0780 Ry au,          2.7401 Debye
        Dipole field          0.0020 Ry au, 
 
        Potential amp.       -0.1886 Ry
        Total length         46.3494 bohr
 

     total cpu time spent up to now is     1026.5 secs

     total energy              =   -2942.83796799 Ry
     estimated scf accuracy    <       0.05677730 Ry

     iteration # 37     ecut=    29.40 Ry     beta= 0.05
     Davidson diagonalization with overlap
     ethr =  1.43E-05,  avg # of iterations =  4.2

     negative rho (up, down):  9.161E-03 0.000E+00
 
     Adding external electric field

     Computed dipole along edir(3) : 
        Dipole                1.3232 Ry au,          3.3633 Debye
        Dipole field          0.0025 Ry au, 
 
        Potential amp.       -0.2315 Ry
        Total length         46.3494 bohr
 

     total cpu time spent up to now is     1046.3 secs

     total energy              =   -2942.84054889 Ry
     estimated scf accuracy    <       0.01940699 Ry

     iteration # 38     ecut=    29.40 Ry     beta= 0.05
     Davidson diagonalization with overlap
     c_bands:  1 eigenvalues not converged
     c_bands:  1 eigenvalues not converged
     c_bands:  1 eigenvalues not converged
     c_bands:  4 eigenvalues not converged
     c_bands:  2 eigenvalues not converged
     c_bands:  4 eigenvalues not converged
     c_bands:  3 eigenvalues not converged
     c_bands:  1 eigenvalues not converged
     ethr =  4.88E-06,  avg # of iterations = 19.3

     negative rho (up, down):  9.728E-03 0.000E+00
 
     Adding external electric field

     Computed dipole along edir(3) : 
        Dipole                1.3993 Ry au,          3.5566 Debye
        Dipole field          0.0026 Ry au, 
 
        Potential amp.       -0.2448 Ry
        Total length         46.3494 bohr
 

     total cpu time spent up to now is     1082.7 secs

     total energy              =   -2942.84301832 Ry
     estimated scf accuracy    <       0.17185976 Ry

     iteration # 39     ecut=    29.40 Ry     beta= 0.05
     Davidson diagonalization with overlap
     c_bands:  1 eigenvalues not converged
     ethr =  4.88E-06,  avg # of iterations = 12.7

     negative rho (up, down):  9.140E-03 0.000E+00
 
     Adding external electric field

     Computed dipole along edir(3) : 
        Dipole                1.3953 Ry au,          3.5464 Debye
        Dipole field          0.0026 Ry au, 
 
        Potential amp.       -0.2441 Ry
        Total length         46.3494 bohr
 

     total cpu time spent up to now is     1106.2 secs

     total energy              =   -2942.84030699 Ry
     estimated scf accuracy    <       0.06021418 Ry

     iteration # 40     ecut=    29.40 Ry     beta= 0.05
     Davidson diagonalization with overlap
     c_bands:  1 eigenvalues not converged
     c_bands:  3 eigenvalues not converged
     c_bands:  3 eigenvalues not converged
     c_bands:  3 eigenvalues not converged
     c_bands:  3 eigenvalues not converged
     ethr =  4.88E-06,  avg # of iterations = 19.3

     negative rho (up, down):  1.028E-02 0.000E+00
 
     Adding external electric field

     Computed dipole along edir(3) : 
        Dipole                1.4129 Ry au,          3.5913 Debye
        Dipole field          0.0027 Ry au, 
 
        Potential amp.       -0.2472 Ry
        Total length         46.3494 bohr
 

     total cpu time spent up to now is     1138.4 secs

     total energy              =   -2942.84264065 Ry
     estimated scf accuracy    <       0.01074209 Ry

     iteration # 41     ecut=    29.40 Ry     beta= 0.05
     Davidson diagonalization with overlap
     ethr =  2.70E-06,  avg # of iterations = 10.1

     negative rho (up, down):  1.194E-02 0.000E+00
 
     Adding external electric field

     Computed dipole along edir(3) : 
        Dipole                1.3751 Ry au,          3.4953 Debye
        Dipole field          0.0026 Ry au, 
 
        Potential amp.       -0.2406 Ry
        Total length         46.3494 bohr
 

     total cpu time spent up to now is     1160.8 secs

     total energy              =   -2942.84273396 Ry
     estimated scf accuracy    <       0.00441071 Ry

     iteration # 42     ecut=    29.40 Ry     beta= 0.05
     Davidson diagonalization with overlap
     c_bands:  2 eigenvalues not converged
     c_bands:  1 eigenvalues not converged
     c_bands:  1 eigenvalues not converged
     ethr =  1.11E-06,  avg # of iterations = 18.1

     negative rho (up, down):  1.221E-02 0.000E+00
 
     Adding external electric field

     Computed dipole along edir(3) : 
        Dipole                1.4125 Ry au,          3.5902 Debye
        Dipole field          0.0027 Ry au, 
 
        Potential amp.       -0.2471 Ry
        Total length         46.3494 bohr
 

     total cpu time spent up to now is     1196.1 secs

     total energy              =   -2942.84292969 Ry
     estimated scf accuracy    <       0.00730499 Ry

     iteration # 43     ecut=    29.40 Ry     beta= 0.05
     Davidson diagonalization with overlap
     ethr =  1.11E-06,  avg # of iterations = 14.5

     negative rho (up, down):  1.357E-02 0.000E+00
 
     Adding external electric field

     Computed dipole along edir(3) : 
        Dipole                1.4664 Ry au,          3.7271 Debye
        Dipole field          0.0028 Ry au, 
 
        Potential amp.       -0.2565 Ry
        Total length         46.3494 bohr
 

     total cpu time spent up to now is     1222.7 secs

     total energy              =   -2942.84345317 Ry
     estimated scf accuracy    <       0.00140555 Ry

     iteration # 44     ecut=    29.40 Ry     beta= 0.05
     Davidson diagonalization with overlap
     ethr =  3.53E-07,  avg # of iterations =  9.0

     negative rho (up, down):  1.353E-02 0.000E+00
 
     Adding external electric field

     Computed dipole along edir(3) : 
        Dipole                1.4661 Ry au,          3.7265 Debye
        Dipole field          0.0028 Ry au, 
 
        Potential amp.       -0.2565 Ry
        Total length         46.3494 bohr
 

     total cpu time spent up to now is     1246.3 secs

     total energy              =   -2942.84353989 Ry
     estimated scf accuracy    <       0.00090471 Ry

     iteration # 45     ecut=    29.40 Ry     beta= 0.05
     Davidson diagonalization with overlap
     ethr =  2.27E-07,  avg # of iterations =  1.6

     negative rho (up, down):  1.432E-02 0.000E+00
 
     Adding external electric field

     Computed dipole along edir(3) : 
        Dipole                1.4926 Ry au,          3.7937 Debye
        Dipole field          0.0028 Ry au, 
 
        Potential amp.       -0.2611 Ry
        Total length         46.3494 bohr
 

     total cpu time spent up to now is     1264.5 secs

     total energy              =   -2942.84351511 Ry
     estimated scf accuracy    <       0.00066253 Ry

     iteration # 46     ecut=    29.40 Ry     beta= 0.05
     Davidson diagonalization with overlap
     ethr =  1.66E-07,  avg # of iterations = 11.9

     negative rho (up, down):  1.521E-02 0.000E+00
 
     Adding external electric field

     Computed dipole along edir(3) : 
        Dipole                1.5074 Ry au,          3.8314 Debye
        Dipole field          0.0028 Ry au, 
 
        Potential amp.       -0.2637 Ry
        Total length         46.3494 bohr
 

     total cpu time spent up to now is     1292.6 secs

     total energy              =   -2942.84365547 Ry
     estimated scf accuracy    <       0.00037676 Ry

     iteration # 47     ecut=    29.40 Ry     beta= 0.05
     Davidson diagonalization with overlap
     ethr =  9.47E-08,  avg # of iterations =  4.1

     negative rho (up, down):  1.521E-02 0.000E+00
 
     Adding external electric field

     Computed dipole along edir(3) : 
        Dipole                1.5041 Ry au,          3.8230 Debye
        Dipole field          0.0028 Ry au, 
 
        Potential amp.       -0.2631 Ry
        Total length         46.3494 bohr
 

     total cpu time spent up to now is     1312.1 secs

     total energy              =   -2942.84366666 Ry
     estimated scf accuracy    <       0.00023053 Ry

     iteration # 48     ecut=    29.40 Ry     beta= 0.05
     Davidson diagonalization with overlap
     c_bands:  2 eigenvalues not converged
     c_bands:  1 eigenvalues not converged
     ethr =  5.79E-08,  avg # of iterations = 15.2

     negative rho (up, down):  1.495E-02 0.000E+00
 
     Adding external electric field

     Computed dipole along edir(3) : 
        Dipole                1.4856 Ry au,          3.7761 Debye
        Dipole field          0.0028 Ry au, 
 
        Potential amp.       -0.2599 Ry
        Total length         46.3494 bohr
 

     total cpu time spent up to now is     1338.7 secs

     total energy              =   -2942.84365732 Ry
     estimated scf accuracy    <       0.00015624 Ry

     iteration # 49     ecut=    29.40 Ry     beta= 0.05
     Davidson diagonalization with overlap
     ethr =  3.93E-08,  avg # of iterations = 12.7

     negative rho (up, down):  1.510E-02 0.000E+00
 
     Adding external electric field

     Computed dipole along edir(3) : 
        Dipole                1.4959 Ry au,          3.8021 Debye
        Dipole field          0.0028 Ry au, 
 
        Potential amp.       -0.2617 Ry
        Total length         46.3494 bohr
 

     total cpu time spent up to now is     1366.5 secs

     total energy              =   -2942.84368789 Ry
     estimated scf accuracy    <       0.00009224 Ry

     iteration # 50     ecut=    29.40 Ry     beta= 0.05
     Davidson diagonalization with overlap
     ethr =  2.32E-08,  avg # of iterations =  5.6

     negative rho (up, down):  1.506E-02 0.000E+00
 
     Adding external electric field

     Computed dipole along edir(3) : 
        Dipole                1.5017 Ry au,          3.8170 Debye
        Dipole field          0.0028 Ry au, 
 
        Potential amp.       -0.2627 Ry
        Total length         46.3494 bohr
 

     total cpu time spent up to now is     1387.3 secs

     total energy              =   -2942.84369627 Ry
     estimated scf accuracy    <       0.00005217 Ry

     iteration # 51     ecut=    29.40 Ry     beta= 0.05
     Davidson diagonalization with overlap
     c_bands:  1 eigenvalues not converged
     ethr =  1.31E-08,  avg # of iterations = 14.6

     negative rho (up, down):  1.502E-02 0.000E+00
 
     Adding external electric field

     Computed dipole along edir(3) : 
        Dipole                1.4981 Ry au,          3.8079 Debye
        Dipole field          0.0028 Ry au, 
 
        Potential amp.       -0.2621 Ry
        Total length         46.3494 bohr
 

     total cpu time spent up to now is     1419.2 secs

     total energy              =   -2942.84371525 Ry
     estimated scf accuracy    <       0.00004385 Ry

     iteration # 52     ecut=    29.40 Ry     beta= 0.05
     Davidson diagonalization with overlap
     ethr =  1.10E-08,  avg # of iterations =  2.3

     negative rho (up, down):  1.506E-02 0.000E+00
 
     Adding external electric field

     Computed dipole along edir(3) : 
        Dipole                1.4886 Ry au,          3.7835 Debye
        Dipole field          0.0028 Ry au, 
 
        Potential amp.       -0.2604 Ry
        Total length         46.3494 bohr
 

     total cpu time spent up to now is     1437.6 secs

     total energy              =   -2942.84371970 Ry
     estimated scf accuracy    <       0.00003300 Ry

     iteration # 53     ecut=    29.40 Ry     beta= 0.05
     Davidson diagonalization with overlap
     c_bands:  1 eigenvalues not converged
     ethr =  8.29E-09,  avg # of iterations = 11.0

     negative rho (up, down):  1.507E-02 0.000E+00
 
     Adding external electric field

     Computed dipole along edir(3) : 
        Dipole                1.4952 Ry au,          3.8005 Debye
        Dipole field          0.0028 Ry au, 
 
        Potential amp.       -0.2616 Ry
        Total length         46.3494 bohr
 

     total cpu time spent up to now is     1468.8 secs

     total energy              =   -2942.84373467 Ry
     estimated scf accuracy    <       0.00004743 Ry

     iteration # 54     ecut=    29.40 Ry     beta= 0.05
     Davidson diagonalization with overlap
     ethr =  8.29E-09,  avg # of iterations =  6.5

     negative rho (up, down):  1.508E-02 0.000E+00
 
     Adding external electric field

     Computed dipole along edir(3) : 
        Dipole                1.4990 Ry au,          3.8100 Debye
        Dipole field          0.0028 Ry au, 
 
        Potential amp.       -0.2622 Ry
        Total length         46.3494 bohr
 

     total cpu time spent up to now is     1490.4 secs

     total energy              =   -2942.84374442 Ry
     estimated scf accuracy    <       0.00001081 Ry

     iteration # 55     ecut=    29.40 Ry     beta= 0.05
     Davidson diagonalization with overlap
     ethr =  2.72E-09,  avg # of iterations = 11.4

     negative rho (up, down):  1.505E-02 0.000E+00
 
     Adding external electric field

     Computed dipole along edir(3) : 
        Dipole                1.4974 Ry au,          3.8060 Debye
        Dipole field          0.0028 Ry au, 
 
        Potential amp.       -0.2619 Ry
        Total length         46.3494 bohr
 

     total cpu time spent up to now is     1520.8 secs

     total energy              =   -2942.84375473 Ry
     estimated scf accuracy    <       0.00000538 Ry

     iteration # 56     ecut=    29.40 Ry     beta= 0.05
     Davidson diagonalization with overlap
     ethr =  1.35E-09,  avg # of iterations =  8.6

     negative rho (up, down):  1.506E-02 0.000E+00
 
     Adding external electric field

     Computed dipole along edir(3) : 
        Dipole                1.4968 Ry au,          3.8045 Debye
        Dipole field          0.0028 Ry au, 
 
        Potential amp.       -0.2618 Ry
        Total length         46.3494 bohr
 

     total cpu time spent up to now is     1542.5 secs

     total energy              =   -2942.84376216 Ry
     estimated scf accuracy    <       0.00000380 Ry

     iteration # 57     ecut=    29.40 Ry     beta= 0.05
     Davidson diagonalization with overlap
     ethr =  9.55E-10,  avg # of iterations =  9.6

     negative rho (up, down):  1.507E-02 0.000E+00
 
     Adding external electric field

     Computed dipole along edir(3) : 
        Dipole                1.4976 Ry au,          3.8065 Debye
        Dipole field          0.0028 Ry au, 
 
        Potential amp.       -0.2620 Ry
        Total length         46.3494 bohr
 

     total cpu time spent up to now is     1565.9 secs

     total energy              =   -2942.84376888 Ry
     estimated scf accuracy    <       0.00000202 Ry

     iteration # 58     ecut=    29.40 Ry     beta= 0.05
     Davidson diagonalization with overlap
     ethr =  5.07E-10,  avg # of iterations =  7.6

     negative rho (up, down):  1.508E-02 0.000E+00
 
     Adding external electric field

     Computed dipole along edir(3) : 
        Dipole                1.4978 Ry au,          3.8070 Debye
        Dipole field          0.0028 Ry au, 
 
        Potential amp.       -0.2620 Ry
        Total length         46.3494 bohr
 

     total cpu time spent up to now is     1588.9 secs

     total energy              =   -2942.84377490 Ry
     estimated scf accuracy    <       0.00000140 Ry

     iteration # 59     ecut=    29.40 Ry     beta= 0.05
     Davidson diagonalization with overlap
     ethr =  3.51E-10,  avg # of iterations =  5.3

     negative rho (up, down):  1.507E-02 0.000E+00
 
     Adding external electric field

     Computed dipole along edir(3) : 
        Dipole                1.4967 Ry au,          3.8042 Debye
        Dipole field          0.0028 Ry au, 
 
        Potential amp.       -0.2618 Ry
        Total length         46.3494 bohr
 

     total cpu time spent up to now is     1609.0 secs

     total energy              =   -2942.84378008 Ry
     estimated scf accuracy    <       0.00000117 Ry

     iteration # 60     ecut=    29.40 Ry     beta= 0.05
     Davidson diagonalization with overlap
     c_bands:  1 eigenvalues not converged
     ethr =  2.95E-10,  avg # of iterations = 13.5

     negative rho (up, down):  1.509E-02 0.000E+00
 
     Adding external electric field

     Computed dipole along edir(3) : 
        Dipole                1.4968 Ry au,          3.8045 Debye
        Dipole field          0.0028 Ry au, 
 
        Potential amp.       -0.2618 Ry
        Total length         46.3494 bohr
 

     total cpu time spent up to now is     1634.3 secs

     total energy              =   -2942.84378487 Ry
     estimated scf accuracy    <       0.00000060 Ry

     iteration # 61     ecut=    29.40 Ry     beta= 0.05
     Davidson diagonalization with overlap
     ethr =  1.51E-10,  avg # of iterations =  7.3

     negative rho (up, down):  1.509E-02 0.000E+00
 
     Adding external electric field

     Computed dipole along edir(3) : 
        Dipole                1.4969 Ry au,          3.8046 Debye
        Dipole field          0.0028 Ry au, 
 
        Potential amp.       -0.2619 Ry
        Total length         46.3494 bohr
 

     total cpu time spent up to now is     1655.9 secs

     total energy              =   -2942.84378918 Ry
     estimated scf accuracy    <       0.00000031 Ry

     iteration # 62     ecut=    29.40 Ry     beta= 0.05
     Davidson diagonalization with overlap
     c_bands:  1 eigenvalues not converged
     c_bands:  1 eigenvalues not converged
     ethr =  7.69E-11,  avg # of iterations = 13.8

     negative rho (up, down):  1.509E-02 0.000E+00
 
     Adding external electric field

     Computed dipole along edir(3) : 
        Dipole                1.4967 Ry au,          3.8043 Debye
        Dipole field          0.0028 Ry au, 
 
        Potential amp.       -0.2618 Ry
        Total length         46.3494 bohr
 

     total cpu time spent up to now is     1682.8 secs

     total energy              =   -2942.84379305 Ry
     estimated scf accuracy    <       0.00000019 Ry

     iteration # 63     ecut=    29.40 Ry     beta= 0.05
     Davidson diagonalization with overlap
     ethr =  4.84E-11,  avg # of iterations =  6.0

     negative rho (up, down):  1.507E-02 0.000E+00
 
     Adding external electric field

     Computed dipole along edir(3) : 
        Dipole                1.4966 Ry au,          3.8039 Debye
        Dipole field          0.0028 Ry au, 
 
        Potential amp.       -0.2618 Ry
        Total length         46.3494 bohr
 

     total cpu time spent up to now is     1702.9 secs

     total energy              =   -2942.84379654 Ry
     estimated scf accuracy    <       0.00000014 Ry

     iteration # 64     ecut=    29.40 Ry     beta= 0.05
     Davidson diagonalization with overlap
     ethr =  3.61E-11,  avg # of iterations = 15.0

     negative rho (up, down):  1.508E-02 0.000E+00
 
     Adding external electric field

     Computed dipole along edir(3) : 
        Dipole                1.4964 Ry au,          3.8035 Debye
        Dipole field          0.0028 Ry au, 
 
        Potential amp.       -0.2618 Ry
        Total length         46.3494 bohr
 

     total cpu time spent up to now is     1734.4 secs

     total energy              =   -2942.84379969 Ry
     estimated scf accuracy    <       0.00000010 Ry

     iteration # 65     ecut=    29.40 Ry     beta= 0.05
     Davidson diagonalization with overlap
     ethr =  2.45E-11,  avg # of iterations =  9.5

     negative rho (up, down):  1.513E-02 0.000E+00
 
     Adding external electric field

     Computed dipole along edir(3) : 
        Dipole                1.4957 Ry au,          3.8017 Debye
        Dipole field          0.0028 Ry au, 
 
        Potential amp.       -0.2617 Ry
        Total length         46.3494 bohr
 

     total cpu time spent up to now is     1758.0 secs

     End of self-consistent calculation

          k = 0.0000 0.0000 0.0000 ( 18029 PWs)   bands (ev):

   -55.2009 -55.1638 -55.1530 -55.1244 -55.1189 -55.0824 -55.0793 -55.0444
   -55.0252 -55.0122 -54.9908 -54.9858 -54.9522 -54.8558 -54.1853 -54.1513
   -31.7673 -31.6512 -31.6460 -31.5674 -31.5144 -31.5133 -31.5106 -31.4919
   -31.4420 -31.4386 -31.4106 -31.4085 -31.3981 -31.3813 -31.3682 -31.3626
   -31.3554 -31.3457 -31.3383 -31.3215 -31.3057 -31.3030 -31.2713 -31.2673
   -31.2568 -31.2559 -31.2375 -31.2278 -31.2103 -31.2097 -31.2054 -31.1847
   -31.1846 -31.1813 -31.1744 -31.1719 -31.1386 -31.1289 -31.1142 -31.0973
   -31.0690 -31.0497 -30.5948 -30.5003 -30.4782 -30.4112 -30.3244 -30.2135
   -17.9725 -16.0346 -15.7723 -15.6270 -15.5147 -15.4033 -15.2839 -15.2531
   -15.1334 -15.0573 -14.9234 -14.8971 -14.8746 -14.8510 -14.8392 -14.8265
   -14.7507 -14.7442 -14.7283 -14.7000 -14.6980 -14.6529 -14.6431 -14.6037
   -14.5787 -14.5575 -14.4529 -14.3647 -14.2906 -14.0744 -13.4464 -12.6881
   -12.5706  -9.7324  -6.6094  -6.0884  -4.5974  -3.3730  -3.2593  -3.2248
    -3.1383  -3.1056  -3.0954  -3.0062  -2.9510  -2.7914  -2.6493  -2.6238
    -2.4923  -2.4173  -2.4009  -2.3765  -2.2467  -2.2117  -2.1605  -2.1216
    -2.0623  -2.0321  -2.0079  -1.9922  -1.9612  -1.9521  -1.9269  -1.8382
    -1.7784  -1.6857  -1.6684  -1.6007  -1.5929  -1.5600  -1.5389  -1.4936
    -1.4832  -1.4339  -1.4264  -1.4139  -1.3939  -1.2661  -1.2225  -1.1126
    -1.0514  -0.9639  -0.8429  -0.8029  -0.7888  -0.6982  -0.6893  -0.6575
    -0.5807  -0.5779  -0.5469  -0.4388  -0.3739  -0.3102  -0.2513  -0.2252
    -0.1917  -0.1144  -0.0237   0.0126   0.0294   0.0524   0.1526   0.1877
     0.2433   0.3102   0.3217   0.3349   0.4143   0.4557   0.5310   0.5675
     0.5851   0.6739   0.7002   0.7282   0.7287   0.7664   0.7808   0.8203
     0.8691   0.8959   0.9824   1.0463   1.1034   1.3480   1.4005   1.4068
     1.7328   1.7408   1.8372   2.0206   2.4137   2.4621   3.8955   3.9642
     4.0400   4.0450   4.0674   4.1312   4.3691   4.3923   4.4012   4.4034
     4.4301

          k = 0.0000 0.0419 0.0000 ( 17933 PWs)   bands (ev):

   -55.1959 -55.1687 -55.1480 -55.1239 -55.1237 -55.0802 -55.0743 -55.0493
   -55.0201 -55.0142 -54.9957 -54.9808 -54.9570 -54.8563 -54.1803 -54.1562
   -31.7102 -31.6156 -31.5919 -31.5128 -31.5017 -31.4613 -31.4603 -31.4485
   -31.4466 -31.4370 -31.4299 -31.3993 -31.3942 -31.3912 -31.3743 -31.3717
   -31.3560 -31.3480 -31.3412 -31.3240 -31.3071 -31.3068 -31.2918 -31.2713
   -31.2516 -31.2507 -31.2459 -31.2385 -31.2313 -31.2280 -31.2241 -31.2171
   -31.1945 -31.1924 -31.1837 -31.1759 -31.1711 -31.1670 -31.1515 -31.1244
   -31.0865 -31.0676 -30.5406 -30.4968 -30.4812 -30.3986 -30.3370 -30.2707
   -17.9711 -15.9055 -15.6568 -15.5329 -15.4425 -15.2969 -15.2422 -15.2164
   -15.1131 -15.0631 -15.0175 -14.9475 -14.8924 -14.8813 -14.8210 -14.8086
   -14.7804 -14.7675 -14.7194 -14.7040 -14.6886 -14.6869 -14.6614 -14.6385
   -14.5974 -14.5749 -14.5086 -14.4197 -14.3504 -14.1938 -13.4472 -12.6917
   -12.6098  -9.7424  -6.6017  -6.0833  -4.5876  -3.2463  -3.1815  -3.0578
    -2.9927  -2.9806  -2.9461  -2.9189  -2.8133  -2.5747  -2.5548  -2.5190
    -2.4475  -2.3775  -2.3515  -2.3053  -2.2832  -2.2230  -2.2164  -2.1801
    -2.1604  -2.1429  -2.1005  -2.0757  -2.0032  -1.9862  -1.9520  -1.9258
    -1.8793  -1.8208  -1.8002  -1.7611  -1.7517  -1.7048  -1.6818  -1.6294
    -1.5113  -1.5022  -1.3746  -1.3422  -1.1966  -1.1603  -1.1329  -1.0180
    -0.9693  -0.9411  -0.8824  -0.7853  -0.6633  -0.5870  -0.5504  -0.5348
    -0.5262  -0.4410  -0.4094  -0.3749  -0.3705  -0.2325  -0.2131  -0.2028
    -0.1354  -0.1254  -0.0480  -0.0355  -0.0253  -0.0045   0.0819   0.1697
     0.1936   0.1955   0.2814   0.2873   0.3474   0.3916   0.4419   0.5220
     0.5314   0.5461   0.5791   0.6033   0.6261   0.7296   0.7498   0.7954
     0.8258   0.9029   0.9759   1.0522   1.0916   1.1043   1.1862   1.2687
     1.4448   1.6073   2.0205   2.0954   2.3686   2.3723   4.0915   4.1009
     4.1308   4.1858   4.2680   4.2746   4.3101   4.3288   4.3794   4.3968
     4.4646

          k = 0.0000-0.0839 0.0000 ( 17884 PWs)   bands (ev):

   -55.1871 -55.1774 -55.1361 -55.1356 -55.1231 -55.0780 -55.0648 -55.0587
   -55.0164 -55.0094 -55.0063 -54.9691 -54.9687 -54.8569 -54.1684 -54.1680
   -31.5749 -31.5740 -31.5671 -31.4827 -31.4596 -31.4593 -31.4575 -31.4272
   -31.4271 -31.3992 -31.3873 -31.3871 -31.3747 -31.3727 -31.3716 -31.3633
   -31.3485 -31.3427 -31.3401 -31.3331 -31.3298 -31.3258 -31.2932 -31.2792
   -31.2757 -31.2715 -31.2713 -31.2683 -31.2582 -31.2579 -31.2578 -31.2424
   -31.2395 -31.2374 -31.2315 -31.2002 -31.1677 -31.1653 -31.1499 -31.1497
   -31.1265 -31.0662 -30.4890 -30.4886 -30.4076 -30.4073 -30.3679 -30.3677
   -17.9697 -15.6528 -15.5368 -15.4058 -15.3482 -15.3021 -15.2108 -15.2039
   -15.1006 -15.0693 -15.0601 -15.0259 -14.9881 -14.9576 -14.8216 -14.8139
   -14.7995 -14.7975 -14.7450 -14.6767 -14.6530 -14.6319 -14.6157 -14.6117
   -14.6043 -14.5611 -14.5466 -14.4965 -14.4924 -14.3969 -13.4479 -12.6725
   -12.6725  -9.7522  -6.5947  -6.0784  -4.5784  -3.2368  -2.9729  -2.7699
    -2.7362  -2.6868  -2.6480  -2.6293  -2.6175  -2.6121  -2.5559  -2.5201
    -2.4768  -2.4749  -2.4054  -2.4041  -2.3577  -2.3527  -2.3218  -2.2613
    -2.2085  -2.1882  -2.1483  -2.0916  -2.0733  -2.0579  -2.0374  -2.0277
    -1.9371  -1.9191  -1.8385  -1.8181  -1.7999  -1.6634  -1.6324  -1.6016
    -1.5745  -1.3749  -1.3093  -1.2592  -1.1471  -1.1162  -1.0167  -0.9776
    -0.9647  -0.8314  -0.7257  -0.7107  -0.7017  -0.6654  -0.6523  -0.6224
    -0.5921  -0.5760  -0.5209  -0.4363  -0.4147  -0.3703  -0.2767  -0.2649
    -0.0487  -0.0286   0.0185   0.0473   0.0868   0.1498   0.1728   0.1872
     0.1888   0.2403   0.2763   0.3154   0.3206   0.3643   0.3981   0.4146
     0.4320   0.4513   0.4826   0.5344   0.5752   0.5846   0.5852   0.6112
     0.6394   0.9347   0.9923   1.0053   1.0099   1.0626   1.1554   1.1898
     1.3522   1.3598   2.1622   2.1627   2.3043   2.3044   4.1537   4.1644
     4.2061   4.2205   4.3003   4.3320   4.3766   4.3797   4.4712   4.4830
     4.4940

          k = 0.0380 0.0000 0.0000 ( 17913 PWs)   bands (ev):

   -55.2008 -55.1637 -55.1529 -55.1242 -55.1188 -55.0823 -55.0792 -55.0443
   -55.0249 -55.0121 -54.9907 -54.9859 -54.9521 -54.8557 -54.1852 -54.1512
   -31.7674 -31.6513 -31.6469 -31.5728 -31.5184 -31.5149 -31.5125 -31.4922
   -31.4418 -31.4385 -31.4085 -31.3980 -31.3936 -31.3811 -31.3681 -31.3550
   -31.3473 -31.3452 -31.3318 -31.3041 -31.3029 -31.3004 -31.2793 -31.2743
   -31.2670 -31.2557 -31.2374 -31.2278 -31.2100 -31.2090 -31.1979 -31.1936
   -31.1846 -31.1841 -31.1811 -31.1743 -31.1373 -31.1285 -31.1141 -31.0976
   -31.0715 -31.0497 -30.5943 -30.5038 -30.4762 -30.4110 -30.3243 -30.2133
   -17.9721 -15.9548 -15.6856 -15.6232 -15.4751 -15.3108 -15.2895 -15.2534
   -15.1530 -15.0609 -14.9937 -14.9860 -14.9500 -14.9078 -14.8998 -14.8719
   -14.8393 -14.8012 -14.7225 -14.6999 -14.6484 -14.6089 -14.5871 -14.5722
   -14.5278 -14.4626 -14.4397 -14.4239 -14.3769 -14.0726 -13.4475 -12.6848
   -12.5703  -9.7304  -6.6093  -6.0935  -4.5944  -3.2578  -3.2440  -3.1106
    -3.0055  -2.9860  -2.9026  -2.8516  -2.8079  -2.7703  -2.7349  -2.6530
    -2.6265  -2.5446  -2.4943  -2.3555  -2.2788  -2.2684  -2.1938  -2.1405
    -2.0054  -1.9840  -1.9699  -1.9178  -1.8767  -1.8662  -1.8113  -1.7922
    -1.7272  -1.7090  -1.6089  -1.5749  -1.5560  -1.5410  -1.5158  -1.5069
    -1.4448  -1.3897  -1.3346  -1.2961  -1.2660  -1.2103  -1.1607  -1.1391
    -1.0092  -0.9942  -0.8745  -0.8375  -0.8116  -0.7490  -0.7162  -0.6648
    -0.6173  -0.6141  -0.5596  -0.5521  -0.5251  -0.3004  -0.2661  -0.2155
    -0.1472  -0.0975  -0.0858  -0.0598  -0.0353   0.0992   0.1050   0.1569
     0.1899   0.2174   0.2849   0.3233   0.3449   0.4043   0.4512   0.4855
     0.5244   0.5328   0.5567   0.6139   0.6514   0.7207   0.7421   0.7635
     0.8031   0.8228   0.8991   0.9782   1.0318   1.1385   1.2246   1.4587
     1.5936   1.7461   1.8491   1.9895   2.3010   2.3793   3.9112   3.9990
     4.1562   4.1916   4.2278   4.2863   4.3356   4.3503   4.3855   4.3981
     4.4072

          k = 0.0380 0.0419 0.0000 ( 17878 PWs)   bands (ev):

   -55.1958 -55.1687 -55.1479 -55.1238 -55.1236 -55.0802 -55.0743 -55.0493
   -55.0199 -55.0142 -54.9956 -54.9809 -54.9570 -54.8563 -54.1802 -54.1561
   -31.7104 -31.6157 -31.5928 -31.5191 -31.5016 -31.4655 -31.4643 -31.4489
   -31.4468 -31.4368 -31.4300 -31.3945 -31.3919 -31.3852 -31.3741 -31.3719
   -31.3428 -31.3407 -31.3382 -31.3241 -31.3072 -31.2909 -31.2878 -31.2765
   -31.2671 -31.2513 -31.2457 -31.2361 -31.2315 -31.2238 -31.2194 -31.2156
   -31.2039 -31.1928 -31.1834 -31.1796 -31.1753 -31.1734 -31.1512 -31.1245
   -31.0863 -31.0704 -30.5402 -30.4996 -30.4802 -30.3984 -30.3371 -30.2705
   -17.9708 -15.8327 -15.5813 -15.5449 -15.3807 -15.2501 -15.2213 -15.1920
   -15.1237 -15.0804 -15.0149 -14.9780 -14.9542 -14.8919 -14.8787 -14.8556
   -14.8486 -14.7852 -14.7633 -14.7361 -14.6814 -14.6560 -14.6249 -14.6078
   -14.5799 -14.5293 -14.4957 -14.4875 -14.4308 -14.1923 -13.4484 -12.6893
   -12.6101  -9.7403  -6.6016  -6.0876  -4.5854  -3.2434  -3.0724  -2.9937
    -2.9359  -2.8251  -2.7463  -2.6978  -2.6364  -2.6048  -2.5558  -2.5226
    -2.4648  -2.4009  -2.3282  -2.2911  -2.2467  -2.2246  -2.2065  -2.1531
    -2.1076  -2.0814  -2.0332  -2.0094  -1.9931  -1.9644  -1.9109  -1.9015
    -1.8547  -1.8241  -1.8029  -1.7748  -1.7117  -1.6677  -1.6383  -1.5945
    -1.4958  -1.4191  -1.3301  -1.2658  -1.2144  -1.1981  -1.0756  -1.0187
    -0.9910  -0.9300  -0.8197  -0.7689  -0.7021  -0.6866  -0.6311  -0.6058
    -0.5578  -0.5398  -0.4947  -0.4643  -0.3873  -0.3454  -0.3132  -0.2879
    -0.1805  -0.1568  -0.1445  -0.1054  -0.0349   0.0129   0.0268   0.0805
     0.0991   0.1375   0.1682   0.1811   0.2109   0.2675   0.3375   0.3562
     0.4094   0.4469   0.5142   0.5363   0.6025   0.6752   0.7399   0.7801
     0.8661   0.8993   0.9441   1.0238   1.0599   1.1107   1.2148   1.2166
     1.3891   1.5647   2.0314   2.0988   2.2908   2.3541   4.0779   4.0958
     4.1215   4.2347   4.2621   4.3022   4.3263   4.4073   4.4425   4.4711
     4.4905

          k = 0.0380-0.0839 0.0000 ( 17916 PWs)   bands (ev):

   -55.1871 -55.1774 -55.1361 -55.1357 -55.1231 -55.0780 -55.0648 -55.0588
   -55.0164 -55.0094 -55.0062 -54.9692 -54.9688 -54.8569 -54.1684 -54.1680
   -31.5751 -31.5743 -31.5673 -31.4829 -31.4604 -31.4601 -31.4577 -31.4273
   -31.4271 -31.4040 -31.3993 -31.3934 -31.3890 -31.3650 -31.3534 -31.3479
   -31.3462 -31.3384 -31.3360 -31.3347 -31.3337 -31.3309 -31.2894 -31.2810
   -31.2776 -31.2708 -31.2590 -31.2573 -31.2569 -31.2509 -31.2480 -31.2461
   -31.2423 -31.2400 -31.2393 -31.2021 -31.1794 -31.1770 -31.1499 -31.1497
   -31.1260 -31.0698 -30.4900 -30.4897 -30.4075 -30.4072 -30.3679 -30.3677
   -17.9695 -15.6127 -15.4897 -15.3871 -15.3006 -15.2886 -15.1685 -15.1481
   -15.0925 -15.0634 -15.0554 -15.0172 -14.9489 -14.9161 -14.8324 -14.8287
   -14.8225 -14.8000 -14.7912 -14.7603 -14.7060 -14.6853 -14.6420 -14.6352
   -14.5843 -14.5778 -14.5670 -14.5468 -14.5459 -14.3849 -13.4488 -12.6723
   -12.6722  -9.7503  -6.5940  -6.0833  -4.5776  -3.2339  -2.9696  -2.7090
    -2.6915  -2.6615  -2.4992  -2.4701  -2.4594  -2.4163  -2.3945  -2.3821
    -2.3511  -2.3261  -2.3161  -2.2836  -2.2793  -2.2521  -2.2474  -2.1943
    -2.1830  -2.1340  -2.1192  -2.0904  -2.0614  -2.0343  -1.9779  -1.9646
    -1.9294  -1.8896  -1.8698  -1.8399  -1.7753  -1.7188  -1.6635  -1.4748
    -1.4106  -1.3960  -1.2805  -1.2355  -1.1638  -1.1407  -1.1294  -1.0725
    -1.0499  -0.9690  -0.9443  -0.8891  -0.8829  -0.8563  -0.7707  -0.6879
    -0.6463  -0.5899  -0.5544  -0.5215  -0.4962  -0.4468  -0.2876  -0.2481
    -0.2308  -0.1749  -0.1362  -0.0621  -0.0337  -0.0088   0.0001   0.0314
     0.0870   0.1495   0.1563   0.1803   0.2223   0.2658   0.2749   0.3055
     0.3250   0.4882   0.5184   0.5303   0.5607   0.6709   0.6956   0.8540
     0.8582   0.8868   0.9375   1.0158   1.0388   1.0664   1.1218   1.1299
     1.3431   1.3497   2.1757   2.1762   2.2948   2.2955   4.0656   4.1537
     4.1856   4.2115   4.2985   4.3398   4.3535   4.3793   4.4806   4.5001
     4.5457

          k = 0.0380-0.0419 0.0000 ( 17876 PWs)   bands (ev):

   -55.1958 -55.1687 -55.1479 -55.1238 -55.1236 -55.0802 -55.0743 -55.0492
   -55.0199 -55.0142 -54.9956 -54.9809 -54.9570 -54.8563 -54.1802 -54.1561
   -31.7104 -31.6157 -31.5928 -31.5191 -31.5016 -31.4655 -31.4644 -31.4489
   -31.4468 -31.4368 -31.4300 -31.3945 -31.3919 -31.3852 -31.3741 -31.3718
   -31.3422 -31.3408 -31.3381 -31.3240 -31.3072 -31.2909 -31.2877 -31.2768
   -31.2673 -31.2513 -31.2457 -31.2360 -31.2315 -31.2238 -31.2195 -31.2155
   -31.2041 -31.1936 -31.1828 -31.1794 -31.1754 -31.1734 -31.1512 -31.1245
   -31.0863 -31.0703 -30.5402 -30.4996 -30.4802 -30.3984 -30.3371 -30.2705
   -17.9708 -15.8326 -15.5812 -15.5445 -15.3800 -15.2507 -15.2208 -15.1918
   -15.1235 -15.0804 -15.0153 -14.9798 -14.9553 -14.8936 -14.8778 -14.8570
   -14.8490 -14.7818 -14.7631 -14.7362 -14.6812 -14.6560 -14.6249 -14.6075
   -14.5800 -14.5286 -14.4955 -14.4879 -14.4311 -14.1921 -13.4482 -12.6893
   -12.6101  -9.7404  -6.6010  -6.0889  -4.5859  -3.2414  -3.0732  -2.9962
    -2.9402  -2.8249  -2.7382  -2.6964  -2.6356  -2.6002  -2.5565  -2.5247
    -2.4654  -2.3998  -2.3276  -2.2903  -2.2432  -2.2282  -2.2114  -2.1530
    -2.1068  -2.0843  -2.0356  -2.0112  -2.0016  -1.9643  -1.9110  -1.9015
    -1.8545  -1.8213  -1.7974  -1.7696  -1.7098  -1.6482  -1.6273  -1.5974
    -1.4980  -1.4285  -1.3613  -1.2697  -1.2138  -1.1958  -1.0720  -1.0114
    -0.9883  -0.9295  -0.8348  -0.7741  -0.6975  -0.6747  -0.6258  -0.5993
    -0.5584  -0.5443  -0.5061  -0.4692  -0.3870  -0.3503  -0.3100  -0.2833
    -0.1820  -0.1602  -0.1446  -0.1052  -0.0209   0.0047   0.0367   0.0856
     0.1013   0.1395   0.1727   0.1793   0.2110   0.2647   0.3347   0.3577
     0.4082   0.4461   0.5150   0.5319   0.6064   0.6718   0.7459   0.7734
     0.8602   0.8972   0.9443   1.0291   1.0576   1.1139   1.2149   1.2159
     1.3893   1.5647   2.0314   2.0988   2.2906   2.3547   4.0795   4.0944
     4.1211   4.2343   4.2640   4.3037   4.3257   4.4080   4.4478   4.4700
     4.4951

          k =-0.0760-0.0000 0.0000 ( 17886 PWs)   bands (ev):

   -55.2007 -55.1637 -55.1529 -55.1241 -55.1188 -55.0823 -55.0792 -55.0443
   -55.0247 -55.0121 -54.9907 -54.9859 -54.9521 -54.8557 -54.1852 -54.1511
   -31.7675 -31.6515 -31.6478 -31.5779 -31.5223 -31.5183 -31.5125 -31.4925
   -31.4416 -31.4385 -31.4087 -31.3980 -31.3816 -31.3683 -31.3680 -31.3549
   -31.3451 -31.3262 -31.3224 -31.3030 -31.3001 -31.2997 -31.2969 -31.2676
   -31.2670 -31.2559 -31.2373 -31.2279 -31.2276 -31.2103 -31.2088 -31.1894
   -31.1849 -31.1842 -31.1813 -31.1779 -31.1364 -31.1284 -31.1140 -31.0983
   -31.0740 -31.0498 -30.5939 -30.5073 -30.4748 -30.4109 -30.3242 -30.2133
   -17.9718 -15.8143 -15.7200 -15.5411 -15.4118 -15.2704 -15.2502 -15.2439
   -15.1104 -15.0978 -15.0642 -15.0397 -15.0087 -14.9842 -14.9552 -14.9200
   -14.9061 -14.8233 -14.7000 -14.6671 -14.6393 -14.6174 -14.6139 -14.6101
   -14.5370 -14.4910 -14.4486 -14.3721 -14.3356 -14.0712 -13.4487 -12.6817
   -12.5700  -9.7284  -6.6093  -6.0988  -4.5918  -3.2527  -3.2098  -3.0937
    -3.0034  -2.8465  -2.7549  -2.7084  -2.7006  -2.6891  -2.6621  -2.6333
    -2.6042  -2.5199  -2.4493  -2.4334  -2.2698  -2.1627  -2.1328  -2.0504
    -1.9921  -1.9209  -1.8535  -1.8150  -1.7978  -1.7788  -1.7476  -1.7305
    -1.6971  -1.6837  -1.6347  -1.5853  -1.5563  -1.5392  -1.5202  -1.5012
    -1.4951  -1.4818  -1.4062  -1.3458  -1.2861  -1.1683  -1.0391  -1.0213
    -0.9081  -0.9014  -0.8519  -0.8431  -0.8175  -0.8075  -0.7678  -0.7376
    -0.7120  -0.6430  -0.6185  -0.5610  -0.5201  -0.4951  -0.4743  -0.4073
    -0.2064  -0.1510  -0.1267  -0.0961  -0.0692   0.0226   0.0746   0.0952
     0.1344   0.1910   0.2303   0.2584   0.2921   0.3029   0.3648   0.3832
     0.4514   0.4795   0.5374   0.5691   0.5944   0.6363   0.6384   0.6727
     0.7419   0.7921   0.9185   1.0091   1.0343   1.1142   1.2791   1.3182
     1.4853   1.7507   1.8705   1.9645   2.1707   2.3243   3.9111   3.9562
     4.0380   4.1667   4.2165   4.2801   4.3374   4.3705   4.3856   4.4080
     4.4775

          k =-0.0760 0.0419 0.0000 ( 17914 PWs)   bands (ev):

   -55.1957 -55.1687 -55.1479 -55.1238 -55.1236 -55.0803 -55.0743 -55.0493
   -55.0198 -55.0142 -54.9956 -54.9810 -54.9571 -54.8563 -54.1802 -54.1562
   -31.7107 -31.6159 -31.5938 -31.5252 -31.5017 -31.4698 -31.4684 -31.4495
   -31.4469 -31.4368 -31.4301 -31.3947 -31.3917 -31.3752 -31.3720 -31.3672
   -31.3410 -31.3290 -31.3243 -31.3223 -31.3072 -31.2891 -31.2873 -31.2867
   -31.2557 -31.2521 -31.2459 -31.2354 -31.2347 -31.2316 -31.2236 -31.2221
   -31.1932 -31.1932 -31.1909 -31.1832 -31.1813 -31.1759 -31.1519 -31.1245
   -31.0863 -31.0734 -30.5400 -30.5026 -30.4795 -30.3984 -30.3371 -30.2706
   -17.9705 -15.6979 -15.6408 -15.4558 -15.3202 -15.2248 -15.1757 -15.1644
   -15.1196 -15.0587 -15.0115 -15.0032 -14.9967 -14.9619 -14.9337 -14.9036
   -14.8946 -14.8218 -14.7635 -14.7575 -14.6775 -14.6678 -14.6330 -14.6274
   -14.5864 -14.5842 -14.4929 -14.4599 -14.4427 -14.1911 -13.4494 -12.6872
   -12.6104  -9.7385  -6.6010  -6.0934  -4.5839  -3.2409  -3.0451  -2.9939
    -2.9206  -2.6298  -2.5845  -2.5486  -2.5013  -2.4703  -2.4369  -2.4237
    -2.4091  -2.3527  -2.3039  -2.2336  -2.2077  -2.1793  -2.1688  -2.1502
    -2.0916  -2.0244  -2.0233  -1.9537  -1.9255  -1.9007  -1.8856  -1.8345
    -1.8020  -1.7635  -1.7507  -1.7471  -1.6986  -1.6656  -1.6463  -1.4548
    -1.4265  -1.3773  -1.3634  -1.3183  -1.2651  -1.1830  -1.0055  -0.9741
    -0.9529  -0.9441  -0.8458  -0.8308  -0.8010  -0.7680  -0.7074  -0.6388
    -0.6168  -0.6020  -0.5701  -0.5404  -0.4913  -0.4758  -0.4523  -0.4098
    -0.3897  -0.3622  -0.2956  -0.2716  -0.1895  -0.1780  -0.0976  -0.0082
     0.0004   0.0270   0.0531   0.0932   0.1189   0.2402   0.2728   0.3178
     0.3505   0.4360   0.5204   0.5447   0.6151   0.6677   0.7081   0.7603
     0.8810   0.9859   1.0084   1.0637   1.0942   1.1324   1.2065   1.2929
     1.3069   1.4480   2.0467   2.1010   2.2129   2.3433   4.0689   4.0968
     4.1141   4.1263   4.2113   4.2567   4.2977   4.3600   4.4245   4.4932
     4.5267

          k =-0.0760-0.0839 0.0000 ( 17948 PWs)   bands (ev):

   -55.1871 -55.1774 -55.1362 -55.1357 -55.1231 -55.0781 -55.0649 -55.0588
   -55.0165 -55.0093 -55.0062 -54.9693 -54.9689 -54.8570 -54.1684 -54.1680
   -31.5754 -31.5746 -31.5676 -31.4830 -31.4612 -31.4609 -31.4580 -31.4273
   -31.4272 -31.4119 -31.4010 -31.3994 -31.3907 -31.3651 -31.3558 -31.3428
   -31.3418 -31.3380 -31.3348 -31.3292 -31.3272 -31.3212 -31.2822 -31.2790
   -31.2787 -31.2774 -31.2597 -31.2582 -31.2559 -31.2555 -31.2509 -31.2424
   -31.2394 -31.2224 -31.2191 -31.2032 -31.2023 -31.1995 -31.1500 -31.1497
   -31.1256 -31.0734 -30.4911 -30.4907 -30.4075 -30.4072 -30.3679 -30.3677
   -17.9693 -15.5596 -15.4296 -15.4005 -15.2441 -15.2079 -15.1746 -15.1612
   -15.0404 -15.0031 -14.9784 -14.9690 -14.9514 -14.9110 -14.9053 -14.8984
   -14.8279 -14.8087 -14.8044 -14.7821 -14.7239 -14.7150 -14.7111 -14.7035
   -14.6529 -14.6493 -14.5689 -14.5585 -14.5553 -14.3758 -13.4498 -12.6721
   -12.6720  -9.7485  -6.5933  -6.0883  -4.5767  -3.2311  -2.9661  -2.6920
    -2.6876  -2.6591  -2.4580  -2.3953  -2.3646  -2.3594  -2.2619  -2.2252
    -2.2008  -2.1973  -2.1321  -2.1172  -2.0866  -2.0563  -2.0401  -2.0263
    -2.0110  -1.9968  -1.9710  -1.9335  -1.9255  -1.9173  -1.8858  -1.8636
    -1.8406  -1.8185  -1.8048  -1.7865  -1.7604  -1.7381  -1.6013  -1.5696
    -1.4993  -1.4570  -1.4128  -1.4085  -1.3368  -1.3003  -1.2502  -1.2379
    -1.2210  -1.0815  -1.0229  -0.9720  -0.9519  -0.9410  -0.8122  -0.7978
    -0.7251  -0.7072  -0.6908  -0.6165  -0.5653  -0.5270  -0.5134  -0.4201
    -0.4047  -0.3383  -0.2362  -0.2135  -0.1996  -0.1588  -0.1558  -0.1087
    -0.1016  -0.0174   0.0268   0.0618   0.0727   0.1084   0.3011   0.3171
     0.3272   0.4803   0.4959   0.6377   0.6813   0.7477   0.8066   0.8455
     0.9073   0.9446   1.0565   1.0876   1.1024   1.1103   1.1720   1.1839
     1.2467   1.2574   2.1933   2.1939   2.2820   2.2822   4.0415   4.1487
     4.1564   4.1980   4.3180   4.3480   4.4104   4.4377   4.4796   4.4827
     4.5425

     the Fermi energy is     3.9588 ev

!    total energy              =   -2942.84382832 Ry
     estimated scf accuracy    <       0.00000004 Ry
     smearing contrib. (-TS)   =      -0.03707784 Ry
     internal energy E=F+TS    =   -2942.80675048 Ry

     The total energy is F=E-TS. E is the sum of the following terms:
     one-electron contribution =  -23367.15527117 Ry
     hartree contribution      =   11777.75743271 Ry
     xc contribution           =    -487.74735845 Ry
     ewald contribution        =    9134.33422469 Ry
     electric field correction =       0.00422174 Ry

     convergence has been achieved in  65 iterations

     Forces acting on atoms (cartesian axes, Ry/au):

     atom    1 type  1   force =     0.00017712   -0.00032511    0.09330412
     atom    2 type  1   force =    -0.00006380   -0.00042047   -0.17823217
     atom    3 type  2   force =     0.00002735   -0.00032100   -0.02003409
     atom    4 type  2   force =     0.00002134   -0.00183357    0.05923026
     atom    5 type  2   force =    -0.01046673   -0.00026181    0.00864336
     atom    6 type  2   force =     0.01148204    0.00040955    0.00645445
     atom    7 type  1   force =    -0.00100389    0.00213327   -0.01399708
     atom    8 type  1   force =     0.00081654   -0.00094238   -0.00573422
     atom    9 type  2   force =    -0.00009837    0.00012564    0.00000013
     atom   10 type  2   force =    -0.00185563    0.00411501    0.00027073
     atom   11 type  2   force =    -0.00007141   -0.00064295    0.00028166
     atom   12 type  2   force =    -0.00000573   -0.00041155    0.00053888
     atom   13 type  1   force =     0.00004423    0.00008669    0.00030888
     atom   14 type  1   force =    -0.00037673   -0.00000491    0.00006370
     atom   15 type  2   force =     0.00051761    0.00024692   -0.00033231
     atom   16 type  2   force =     0.00032112   -0.00034921   -0.00005955
     atom   17 type  2   force =    -0.00059021   -0.00001757   -0.00001761
     atom   18 type  2   force =     0.00054253   -0.00019072    0.00002565
     atom   19 type  1   force =    -0.00002044   -0.00052982    0.00021716
     atom   20 type  1   force =     0.00068845    0.00011899    0.00089256
     atom   21 type  2   force =     0.00012523   -0.00012520    0.10403270
     atom   22 type  2   force =    -0.00038697    0.00022253   -0.00021645
     atom   23 type  2   force =    -0.07026952   -0.00021626   -0.02686493
     atom   24 type  2   force =     0.07026077    0.00022127   -0.02688928
     atom   25 type  1   force =     0.00007707   -0.00032031    0.09262075
     atom   26 type  1   force =    -0.00003694   -0.00059757   -0.17834478
     atom   27 type  2   force =     0.00013023   -0.00016642   -0.01909002
     atom   28 type  2   force =     0.00005124   -0.00163236    0.05858885
     atom   29 type  2   force =    -0.01106803   -0.00055722    0.00932111
     atom   30 type  2   force =     0.01198800   -0.00002015    0.00721075
     atom   31 type  1   force =    -0.00093304    0.00647417   -0.01506338
     atom   32 type  1   force =     0.00085979    0.00101403   -0.00587883
     atom   33 type  2   force =     0.00017631   -0.00057193   -0.00003456
     atom   34 type  2   force =    -0.00185911   -0.00052133   -0.00048959
     atom   35 type  2   force =    -0.00045614    0.00006439   -0.00043520
     atom   36 type  2   force =     0.00035548   -0.00011600    0.00018102
     atom   37 type  1   force =    -0.00050998   -0.00025005    0.00018467
     atom   38 type  1   force =    -0.00004806   -0.00015164   -0.00009856
     atom   39 type  2   force =     0.00030070   -0.00060363   -0.00000809
     atom   40 type  2   force =    -0.00060316   -0.00051349    0.00026740
     atom   41 type  2   force =    -0.00024522   -0.00072717   -0.00069958
     atom   42 type  2   force =     0.00046232   -0.00008926   -0.00010181
     atom   43 type  1   force =     0.00023697   -0.00021498   -0.00021254
     atom   44 type  1   force =     0.00050726   -0.00002060    0.00086604
     atom   45 type  2   force =     0.00013545   -0.00014192    0.10399871
     atom   46 type  2   force =    -0.07027056   -0.00016371   -0.02683916
     atom   47 type  2   force =     0.07024128    0.00025699   -0.02689540
     atom   48 type  3   force =     0.00391990    0.00800811   -0.00992692
     atom   49 type  3   force =    -0.00015181   -0.00063501   -0.00100136
     atom   50 type  4   force =     0.00028296   -0.00228292    0.00043639
     atom   51 type  5   force =    -0.00079767    0.00145594    0.00068225
     atom   52 type  5   force =     0.00038565   -0.00020767   -0.00017076
     atom   53 type  5   force =     0.00078164    0.00032378   -0.00122255
     atom   54 type  5   force =    -0.00273225   -0.00792732    0.01066176
     atom   55 type  5   force =     0.00007711   -0.00052629   -0.00011090
     atom   56 type  5   force =    -0.00107227    0.00027418   -0.00028225

     Total force =     0.366824     Total SCF correction =     0.000386
  @ DRIVER MODE: Message from server: STATUS
  @ DRIVER MODE: Message from server: GETFORCE
  @ DRIVER MODE: Returning v,forces,stress,ensemble 

     Writing output data file ./calc.save/
  @ DRIVER MODE: Message from server: EXIT
  @ DRIVE MODE: Exiting  
 
     init_run     :     18.32s CPU     18.68s WALL (       1 calls)
     electrons    :   1700.68s CPU   1739.08s WALL (       1 calls)
     forces       :      3.74s CPU      3.91s WALL (       1 calls)

     Called by init_run:
     wfcinit      :      8.25s CPU      8.37s WALL (       1 calls)
     potinit      :      9.04s CPU      9.14s WALL (       1 calls)
     hinit0       :      0.49s CPU      0.50s WALL (       1 calls)

     Called by electrons:
     c_bands      :   1425.63s CPU   1446.28s WALL (      65 calls)
     sum_band     :    185.51s CPU    194.01s WALL (      65 calls)
     v_of_rho     :     68.09s CPU     70.45s WALL (      66 calls)
     newd         :     26.82s CPU     33.75s WALL (      66 calls)
     mix_rho      :      2.55s CPU      2.60s WALL (      65 calls)
     vdW_kernel   :      7.62s CPU      7.64s WALL (       1 calls)

     Called by c_bands:
     init_us_2    :     10.02s CPU     10.07s WALL (    1320 calls)
     cegterg      :   1396.83s CPU   1416.67s WALL (     664 calls)

     Called by *egterg:
     cdiaghg      :    179.33s CPU    181.11s WALL (    6449 calls)
     h_psi        :    786.74s CPU    798.19s WALL (    6460 calls)
     s_psi        :    105.26s CPU    105.61s WALL (    6460 calls)
     g_psi        :      2.81s CPU      2.83s WALL (    5786 calls)

     Called by h_psi:
     h_psi:calbec :     99.00s CPU    100.39s WALL (    6460 calls)
     vloc_psi     :    578.39s CPU    583.66s WALL (    6460 calls)
     add_vuspsi   :    105.30s CPU    107.29s WALL (    6460 calls)

     General routines
     calbec       :    131.26s CPU    132.72s WALL (    7150 calls)
     fft          :     37.17s CPU     37.35s WALL (    4158 calls)
     ffts         :      0.23s CPU      0.23s WALL (     131 calls)
     fftw         :    633.69s CPU    639.30s WALL (  880556 calls)
     interpolate  :      0.71s CPU      0.71s WALL (      66 calls)
     davcio       :      0.00s CPU      0.10s WALL (      10 calls)
 
     Parallel routines
 
     PWSCF        :  28m43.02s CPU  29m22.34s WALL

 
   This run was terminated on:  15:44:36  25Aug2021            

=------------------------------------------------------------------------------=
   JOB DONE.
=------------------------------------------------------------------------------=
