
     Program PWSCF v.6.7GPU starts on  3Aug2021 at 19: 4:15 

     This program is part of the open-source Quantum ESPRESSO suite
     for quantum simulation of materials; please cite
         "P. Giannozzi et al., J. Phys.:Condens. Matter 21 395502 (2009);
         "P. Giannozzi et al., J. Phys.:Condens. Matter 29 465901 (2017);
         "P. Giannozzi et al., J. Chem. Phys. 152 154105 (2020);
          URL http://www.quantum-espresso.org", 
     in publications or presentations arising from this work. More details at
     http://www.quantum-espresso.org/quote

     Parallel version (MPI), running on    16 processors

     MPI processes distributed on     1 nodes
     R & G space division:  proc/nbgrp/npool/nimage =      16
     Reading input from /storage/home/hcoda1/3/ntian30/research/carbon/02Aug_vib_paired/ads_slab/CH3NH3NH3_a/out_0014/pw.inp
Warning: card &CELL ignored
Warning: card   CELL_DYNAMICS='IPI', ignored
Warning: card / ignored

     Current dimensions of program PWSCF are:
     Max number of different atomic species (ntypx) = 10
     Max number of k-points (npk) =  40000
     Max angular momentum in pseudopotentials (lmaxx) =  3
     Presently no symmetry can be used with electric field

     Message from routine cell_base_init:
     DEPRECATED: use true lattice parameter, not A to a.u. conversion factor

     **************************************************************************
     Initializing libbeef V0.1.2 with the BEEF-vdW functional.
     Citation: Wellendorff et al., PRB 85, 235149 (2012).
     **************************************************************************


     IMPORTANT: XC functional enforced from input :
     Exchange-correlation= BEEF-VDW
                           (   1   4  43  14   2   0   0)
     Any further DFT definition will be discarded
     Please, verify this is what you really want


     Subspace diagonalization in iterative solution of the eigenvalue problem:
     one sub-group per band group will be used
     scalapack distributed-memory algorithm (size of sub-group:  4*  4 procs)

  @ DRIVER MODE: Connecting to 
 qe_1139763_2492108.sched-torque.pace.gatech.edu1mhcx3pf_scratch
  using UNIX socket
  @ DRIVER MODE: Message from server: STATUS
  @ DRIVER MODE: Message from server: INIT
  @ DRIVER MODE: Receiving replica           0          -1
  @ DRIVER MODE: Receiving encoded integer          25
  @ DRIVER MODE:  SCF:  T  FORCE:  T  STRESS:  F  VC:  F  ENSEMBLE:  F
  @ DRIVER MODE:  SCF:  T  FORCE:  T  STRESS:  F  VC:  F  ENSEMBLE:  F
 
     Parallelization info
     --------------------
     sticks:   dense  smooth     PW     G-vecs:    dense   smooth      PW
     Min         204      82     23                35422     8962    1367
     Max         205      84     24                35435     8968    1382
     Sum        3275    1317    379               566857   143421   21985
 
     Using Slab Decomposition
 


     bravais-lattice index     =            0
     lattice parameter (alat)  =       1.8897  a.u.
     unit-cell volume          =    6658.9804 (a.u.)^3
     number of atoms/cell      =           59
     number of atomic types    =            5
     number of electrons       =       401.00
     number of Kohn-Sham states=          210
     kinetic-energy cutoff     =      29.3995  Ry
     charge density cutoff     =     293.9946  Ry
     scf convergence threshold =      7.3E-08
     mixing beta               =       0.0500
     number of iterations used =            8  plain     mixing
     Exchange-correlation= BEEF-VDW
                           (   1   4  43  14   2   0   0)

     celldm(1)=   1.889726  celldm(2)=   0.000000  celldm(3)=   0.000000
     celldm(4)=   0.000000  celldm(5)=   0.000000  celldm(6)=   0.000000

     crystal axes: (cart. coord. in units of alat)
               a(1) = (   6.579727   0.000000   0.000000 )  
               a(2) = (  -0.000775   5.961596   0.000000 )  
               a(3) = (   0.000000   0.000000  25.155947 )  

     reciprocal axes: (cart. coord. in units 2 pi/alat)
               b(1) = (  0.151982  0.000020  0.000000 )  
               b(2) = (  0.000000  0.167740  0.000000 )  
               b(3) = (  0.000000  0.000000  0.039752 )  


     PseudoPot. # 1 for Ti read from file:
     /storage/coda1/p-amedford6/0/shared/rich_project_chbe-medford/medford-share/data/pseudos_module/espresso/nninc/pbe/van/Ti.UPF
     MD5 check sum: 8e4df49b7f0d34bbd5052bf3f5ea0213
     Pseudo is Ultrasoft, Zval = 12.0
     Generated by new atomic code, or converted to UPF format
     Using radial grid of  851 points,  6 beta functions with: 
                l(1) =   0
                l(2) =   0
                l(3) =   1
                l(4) =   1
                l(5) =   2
                l(6) =   2
     Q(r) pseudized with  8 coefficients,  rinner =    1.000   1.000   1.000
                                                       1.000   1.000

     PseudoPot. # 2 for O  read from file:
     /storage/coda1/p-amedford6/0/shared/rich_project_chbe-medford/medford-share/data/pseudos_module/espresso/nninc/pbe/van/O.UPF
     MD5 check sum: 78c19812648e8988a0fe644b0f25305e
     Pseudo is Ultrasoft, Zval =  6.0
     Generated by new atomic code, or converted to UPF format
     Using radial grid of  737 points,  4 beta functions with: 
                l(1) =   0
                l(2) =   0
                l(3) =   1
                l(4) =   1
     Q(r) pseudized with  8 coefficients,  rinner =    0.800   0.800   0.800


     PseudoPot. # 3 for C  read from file:
     /storage/coda1/p-amedford6/0/shared/rich_project_chbe-medford/medford-share/data/pseudos_module/espresso/nninc/pbe/van/C.UPF
     MD5 check sum: 1a69bf6b8db32088f5b2163dbdb77a27
     Pseudo is Ultrasoft, Zval =  4.0
     Generated by new atomic code, or converted to UPF format
     Using radial grid of  721 points,  4 beta functions with: 
                l(1) =   0
                l(2) =   0
                l(3) =   1
                l(4) =   1
     Q(r) pseudized with  8 coefficients,  rinner =    0.800   0.800   0.800


     PseudoPot. # 4 for H  read from file:
     /storage/coda1/p-amedford6/0/shared/rich_project_chbe-medford/medford-share/data/pseudos_module/espresso/nninc/pbe/van/H.UPF
     MD5 check sum: b5ee9d7bfd3a09ee7748110bda690ff7
     Pseudo is Ultrasoft, Zval =  1.0
     Generated by new atomic code, or converted to UPF format
     Using radial grid of  615 points,  1 beta functions with: 
                l(1) =   0
     Q(r) pseudized with  8 coefficients,  rinner =    0.800

     PseudoPot. # 5 for N  read from file:
     /storage/coda1/p-amedford6/0/shared/rich_project_chbe-medford/medford-share/data/pseudos_module/espresso/nninc/pbe/van/N.UPF
     MD5 check sum: 90d10febe142ad51ac9d5be1deb811c4
     Pseudo is Ultrasoft, Zval =  5.0
     Generated by new atomic code, or converted to UPF format
     Using radial grid of  729 points,  4 beta functions with: 
                l(1) =   0
                l(2) =   0
                l(3) =   1
                l(4) =   1
     Q(r) pseudized with  8 coefficients,  rinner =    0.800   0.800   0.800


     atomic species   valence    mass     pseudopotential
        Ti1           12.00    47.86700     Ti( 1.00)
        O1             6.00    15.99900     O ( 1.00)
        C1             4.00    12.01100     C ( 1.00)
        H1             1.00     1.00800     H ( 1.00)
        N1             5.00    14.00700     N ( 1.00)

     No symmetry found



   Cartesian axes

     site n.     atom                  positions (alat units)
         1           Ti1 tau(   1) = (   0.0004258   2.9801865   6.0000000  )
         2           Ti1 tau(   2) = (   3.2906075   1.4906267   6.0002472  )
         3           O1  tau(   3) = (   0.0006271   0.0005054   7.9858123  )
         4           O1  tau(   4) = (   3.2906025   0.0005020   7.3038282  )
         5           O1  tau(   5) = (   4.5942328   1.4918067   9.2879030  )
         6           O1  tau(   6) = (   1.9868534   1.4903216   9.2879459  )
         7           Ti1 tau(   7) = (   3.2907910   2.8959150   9.1758416  )
         8           Ti1 tau(   8) = (   0.0015273   1.4827037   9.2680791  )
         9           O1  tau(   9) = (   3.3006472   5.9526327  11.3326431  )
        10           O1  tau(  10) = (   0.0116148   5.9584955  10.6183126  )
        11           O1  tau(  11) = (   1.2986171   1.4856602  12.6180737  )
        12           O1  tau(  12) = (   5.2832837   1.4869688  12.6136912  )
        13           Ti1 tau(  13) = (   0.0716907   2.9700601  12.6329626  )
        14           Ti1 tau(  14) = (   3.3921379   1.4824266  12.4783935  )
        15           O1  tau(  15) = (   0.0098915   0.0277142  14.6273811  )
        16           O1  tau(  16) = (   3.2980527   0.0034327  13.9214941  )
        17           O1  tau(  17) = (   4.5491770   1.5035522  16.0668258  )
        18           O1  tau(  18) = (   2.0540802   1.5011373  16.0688643  )
        19           Ti1 tau(  19) = (   3.2973159   2.9845483  15.7023000  )
        20           Ti1 tau(  20) = (   6.5754392   1.4353193  15.8239573  )
        21           O1  tau(  21) = (   3.2904802   0.0005063   4.7018136  )
        22           O1  tau(  22) = (   0.0048264   5.9571524  17.1588256  )
        23           O1  tau(  23) = (   1.3043587   1.4918075   6.0039043  )
        24           O1  tau(  24) = (   5.2767064   1.4903225   6.0039473  )
        25           Ti1 tau(  25) = (   0.0000382   5.9609847   6.0000000  )
        26           Ti1 tau(  26) = (   3.2902200   4.4714249   6.0002472  )
        27           O1  tau(  27) = (   0.0002396   2.9813036   7.9858123  )
        28           O1  tau(  28) = (   3.2902150   2.9813002   7.3038282  )
        29           O1  tau(  29) = (   4.5938453   4.4726049   9.2879030  )
        30           O1  tau(  30) = (   1.9864658   4.4711199   9.2879459  )
        31           Ti1 tau(  31) = (   3.2891106   5.8743827   9.1763621  )
        32           Ti1 tau(  32) = (   0.0006254   4.4649316   9.2693709  )
        33           O1  tau(  33) = (   3.3024910   2.9811918  11.3312481  )
        34           O1  tau(  34) = (   0.0092240   2.9805883  10.6323155  )
        35           O1  tau(  35) = (   1.2967186   4.4682081  12.6345707  )
        36           O1  tau(  36) = (   5.2888097   4.4704914  12.6297389  )
        37           Ti1 tau(  37) = (   0.0778612   5.9457776  12.5489457  )
        38           Ti1 tau(  38) = (   3.3928769   4.4622707  12.4864817  )
        39           O1  tau(  39) = (   0.0140712   2.9461142  14.6842920  )
        40           O1  tau(  40) = (   3.2991745   2.9776924  13.9065265  )
        41           O1  tau(  41) = (   4.5418516   4.4678888  16.0645815  )
        42           O1  tau(  42) = (   2.0574864   4.4691885  16.0636024  )
        43           Ti1 tau(  43) = (   3.2861726   0.0051191  15.7195692  )
        44           Ti1 tau(  44) = (   6.5761434   4.5285208  16.1368719  )
        45           O1  tau(  45) = (   3.2900926   2.9813045   4.7018136  )
        46           O1  tau(  46) = (   1.3039711   4.4726057   6.0039043  )
        47           O1  tau(  47) = (   5.2763189   4.4711207   6.0039473  )
        48           C1  tau(  48) = (   0.0175971   3.0427671  17.7901079  )
        49           H1  tau(  49) = (   5.6823727   3.3959267  18.2745233  )
        50           H1  tau(  50) = (   0.1100020   1.9921885  18.0671921  )
        51           H1  tau(  51) = (   0.8707680   3.5346006  18.2680029  )
        52           N1  tau(  52) = (   6.1495222   1.5591847  21.8098380  )
        53           H1  tau(  53) = (   6.1693786   2.4848735  21.3946126  )
        54           H1  tau(  54) = (   6.2462200   0.9013766  21.0428083  )
        55           H1  tau(  55) = (   5.2088654   1.4380024  22.1828036  )
        56           N1  tau(  56) = (   2.8510371   0.9663425  23.1735989  )
        57           H1  tau(  57) = (   2.8683653   5.9129692  23.1556095  )
        58           H1  tau(  58) = (   1.9074079   1.2374795  22.9038124  )
        59           H1  tau(  59) = (   2.9640119   1.2328864  24.1466208  )

     number of k points=    10  Fermi-Dirac smearing, width (Ry)=  0.0073
                       cart. coord. in units 2pi/alat
        k(    1) = (   0.0000000   0.0000000   0.0000000), wk =   0.1250000
        k(    2) = (   0.0000000   0.0419351   0.0000000), wk =   0.2500000
        k(    3) = (   0.0000000  -0.0838702   0.0000000), wk =   0.1250000
        k(    4) = (   0.0379955   0.0000049   0.0000000), wk =   0.2500000
        k(    5) = (   0.0379955   0.0419400   0.0000000), wk =   0.2500000
        k(    6) = (   0.0379955  -0.0838652   0.0000000), wk =   0.2500000
        k(    7) = (   0.0379955  -0.0419301   0.0000000), wk =   0.2500000
        k(    8) = (  -0.0759910  -0.0000099   0.0000000), wk =   0.1250000
        k(    9) = (  -0.0759910   0.0419252   0.0000000), wk =   0.2500000
        k(   10) = (  -0.0759910  -0.0838800   0.0000000), wk =   0.1250000

     Dense  grid:   566857 G-vectors     FFT dimensions: (  72,  64, 270)

     Smooth grid:   143421 G-vectors     FFT dimensions: (  45,  40, 180)

     Estimated max dynamical RAM per process >     230.48 MB

     Estimated total dynamical RAM >       3.60 GB
     Cannot read rho : file not found

     Initial potential from superposition of free atoms

     starting charge  384.99911, renormalised to  401.00000

     negative rho (up, down):  4.921E-03 0.000E+00


     %%%%%%%%%%%%%%%%%%%%%%%%%%%%%%%%%%%%%%%%%%%%%%%%%%%%%%%%%%%%%%%%%%%%%%%%
     %                                                                      %
     % You are using vdW-DF, which was implemented by the Thonhauser group. %
     % Please cite the following two papers that made this development      %
     % possible and the two reviews that describe the various versions:     %
     %                                                                      %
     %   T. Thonhauser et al., PRL 115, 136402 (2015).                      %
     %   T. Thonhauser et al., PRB 76, 125112 (2007).                       %
     %   K. Berland et al., Rep. Prog. Phys. 78, 066501 (2015).             %
     %   D.C. Langreth et al., J. Phys.: Condens. Matter 21, 084203 (2009). %
     %                                                                      %
     %                                                                      %
     % If you are calculating the stress with vdW-DF, please also cite:     %
     %                                                                      %
     %   R. Sabatini et al., J. Phys.: Condens. Matter 24, 424209 (2012).   %
     %                                                                      %
     %%%%%%%%%%%%%%%%%%%%%%%%%%%%%%%%%%%%%%%%%%%%%%%%%%%%%%%%%%%%%%%%%%%%%%%%


 
     Adding external electric field

     Computed dipole along edir(3) : 
        Dipole              -16.7053 Ry au,        -42.4606 Debye
        Dipole field         -0.0315 Ry au, 
 
        Potential amp.        2.9223 Ry
        Total length         46.3494 bohr
 
     Starting wfcs are  305 atomic wfcs
  @ DRIVER MODE: Message from server: STATUS
  @ DRIVER MODE: Message from server: POSDATA
  @ DRIVER MODE: Reading and sharing cell 
  @ DRIVER MODE: Reading and sharing positions 
  @ DRIVER MODE: Received positions 

     total cpu time spent up to now is        9.1 secs

     Self-consistent Calculation

     iteration #  1     ecut=    29.40 Ry     beta= 0.05
     Davidson diagonalization with overlap
     c_bands:  2 eigenvalues not converged
     c_bands:  3 eigenvalues not converged
     c_bands:  1 eigenvalues not converged
     c_bands:  4 eigenvalues not converged
     c_bands:  4 eigenvalues not converged
     c_bands:  2 eigenvalues not converged
     c_bands:  3 eigenvalues not converged
     c_bands:  3 eigenvalues not converged
     c_bands:  4 eigenvalues not converged
     ethr =  1.00E-05,  avg # of iterations = 19.8

     negative rho (up, down):  4.370E-03 0.000E+00
 
     Adding external electric field

     Computed dipole along edir(3) : 
        Dipole               52.7504 Ry au,        134.0781 Debye
        Dipole field          0.0995 Ry au, 
 
        Potential amp.       -9.2279 Ry
        Total length         46.3494 bohr
 

     total cpu time spent up to now is       44.3 secs

     total energy              =   -2364.26312800 Ry
     estimated scf accuracy    <    6692.63249977 Ry

     iteration #  2     ecut=    29.40 Ry     beta= 0.05
     Davidson diagonalization with overlap
     ethr =  1.00E-02,  avg # of iterations = 22.3

     negative rho (up, down):  1.618E-04 0.000E+00
 
     Adding external electric field

     Computed dipole along edir(3) : 
        Dipole               -4.9501 Ry au,        -12.5819 Debye
        Dipole field         -0.0093 Ry au, 
 
        Potential amp.        0.8659 Ry
        Total length         46.3494 bohr
 

     total cpu time spent up to now is      106.9 secs

     total energy              =   -2340.11835980 Ry
     estimated scf accuracy    <   83417.18477364 Ry

     iteration #  3     ecut=    29.40 Ry     beta= 0.05
     Davidson diagonalization with overlap
     c_bands:  3 eigenvalues not converged
     ethr =  1.00E-02,  avg # of iterations = 17.6

     negative rho (up, down):  1.862E-04 0.000E+00
 
     Adding external electric field

     Computed dipole along edir(3) : 
        Dipole               -6.3590 Ry au,        -16.1630 Debye
        Dipole field         -0.0120 Ry au, 
 
        Potential amp.        1.1124 Ry
        Total length         46.3494 bohr
 

     total cpu time spent up to now is      143.9 secs

     total energy              =   -2942.96658749 Ry
     estimated scf accuracy    <    5930.29946631 Ry

     iteration #  4     ecut=    29.40 Ry     beta= 0.05
     Davidson diagonalization with overlap
     ethr =  1.00E-02,  avg # of iterations = 11.7

     negative rho (up, down):  1.872E-04 0.000E+00
 
     Adding external electric field

     Computed dipole along edir(3) : 
        Dipole               -6.6628 Ry au,        -16.9352 Debye
        Dipole field         -0.0126 Ry au, 
 
        Potential amp.        1.1656 Ry
        Total length         46.3494 bohr
 

     total cpu time spent up to now is      160.1 secs

     total energy              =   -2944.49551250 Ry
     estimated scf accuracy    <    2097.17518926 Ry

     iteration #  5     ecut=    29.40 Ry     beta= 0.05
     Davidson diagonalization with overlap
     c_bands:  3 eigenvalues not converged
     ethr =  1.00E-02,  avg # of iterations =  3.8

     negative rho (up, down):  1.951E-04 0.000E+00
 
     Adding external electric field

     Computed dipole along edir(3) : 
        Dipole               -6.6022 Ry au,        -16.7812 Debye
        Dipole field         -0.0125 Ry au, 
 
        Potential amp.        1.1550 Ry
        Total length         46.3494 bohr
 

     total cpu time spent up to now is      168.3 secs

     total energy              =   -2904.43627703 Ry
     estimated scf accuracy    <    1718.44212166 Ry

     iteration #  6     ecut=    29.40 Ry     beta= 0.05
     Davidson diagonalization with overlap
     c_bands:  1 eigenvalues not converged
     ethr =  1.00E-02,  avg # of iterations = 16.4

     negative rho (up, down):  1.278E-04 0.000E+00
 
     Adding external electric field

     Computed dipole along edir(3) : 
        Dipole               -5.0848 Ry au,        -12.9242 Debye
        Dipole field         -0.0096 Ry au, 
 
        Potential amp.        0.8895 Ry
        Total length         46.3494 bohr
 

     total cpu time spent up to now is      189.3 secs

     total energy              =   -2949.34229747 Ry
     estimated scf accuracy    <      77.70661769 Ry

     iteration #  7     ecut=    29.40 Ry     beta= 0.05
     Davidson diagonalization with overlap
     ethr =  1.00E-02,  avg # of iterations =  3.4

     negative rho (up, down):  1.702E-04 0.000E+00
 
     Adding external electric field

     Computed dipole along edir(3) : 
        Dipole               -4.0136 Ry au,        -10.2016 Debye
        Dipole field         -0.0076 Ry au, 
 
        Potential amp.        0.7021 Ry
        Total length         46.3494 bohr
 

     total cpu time spent up to now is      197.3 secs

     total energy              =   -2950.40884855 Ry
     estimated scf accuracy    <      32.99592332 Ry

     iteration #  8     ecut=    29.40 Ry     beta= 0.05
     Davidson diagonalization with overlap
     ethr =  8.23E-03,  avg # of iterations =  9.6

     negative rho (up, down):  1.670E-04 0.000E+00
 
     Adding external electric field

     Computed dipole along edir(3) : 
        Dipole               -3.9257 Ry au,         -9.9781 Debye
        Dipole field         -0.0074 Ry au, 
 
        Potential amp.        0.6867 Ry
        Total length         46.3494 bohr
 

     total cpu time spent up to now is      208.6 secs

     total energy              =   -2957.61288883 Ry
     estimated scf accuracy    <     408.88808592 Ry

     iteration #  9     ecut=    29.40 Ry     beta= 0.05
     Davidson diagonalization with overlap
     ethr =  8.23E-03,  avg # of iterations =  2.5

     negative rho (up, down):  1.560E-04 0.000E+00
 
     Adding external electric field

     Computed dipole along edir(3) : 
        Dipole               -4.8285 Ry au,        -12.2728 Debye
        Dipole field         -0.0091 Ry au, 
 
        Potential amp.        0.8447 Ry
        Total length         46.3494 bohr
 

     total cpu time spent up to now is      216.4 secs

     total energy              =   -2947.99919276 Ry
     estimated scf accuracy    <     478.01066574 Ry

     iteration # 10     ecut=    29.40 Ry     beta= 0.05
     Davidson diagonalization with overlap
     ethr =  8.23E-03,  avg # of iterations =  4.3

     negative rho (up, down):  1.165E-04 0.000E+00
 
     Adding external electric field

     Computed dipole along edir(3) : 
        Dipole               -5.5690 Ry au,        -14.1551 Debye
        Dipole field         -0.0105 Ry au, 
 
        Potential amp.        0.9742 Ry
        Total length         46.3494 bohr
 

     total cpu time spent up to now is      224.5 secs

     total energy              =   -2941.88172901 Ry
     estimated scf accuracy    <      86.37673317 Ry

     iteration # 11     ecut=    29.40 Ry     beta= 0.05
     Davidson diagonalization with overlap
     ethr =  8.23E-03,  avg # of iterations =  7.6

     negative rho (up, down):  9.720E-05 0.000E+00
 
     Adding external electric field

     Computed dipole along edir(3) : 
        Dipole               -4.5428 Ry au,        -11.5466 Debye
        Dipole field         -0.0086 Ry au, 
 
        Potential amp.        0.7947 Ry
        Total length         46.3494 bohr
 

     total cpu time spent up to now is      236.1 secs

     total energy              =   -2948.91216971 Ry
     estimated scf accuracy    <      55.82150311 Ry

     iteration # 12     ecut=    29.40 Ry     beta= 0.05
     Davidson diagonalization with overlap
     ethr =  8.23E-03,  avg # of iterations =  1.8

     negative rho (up, down):  9.539E-05 0.000E+00
 
     Adding external electric field

     Computed dipole along edir(3) : 
        Dipole               -2.8614 Ry au,         -7.2729 Debye
        Dipole field         -0.0054 Ry au, 
 
        Potential amp.        0.5006 Ry
        Total length         46.3494 bohr
 

     total cpu time spent up to now is      243.7 secs

     total energy              =   -2942.68341652 Ry
     estimated scf accuracy    <     109.21728949 Ry

     iteration # 13     ecut=    29.40 Ry     beta= 0.05
     Davidson diagonalization with overlap
     ethr =  8.23E-03,  avg # of iterations = 13.0

     negative rho (up, down):  8.802E-05 0.000E+00
 
     Adding external electric field

     Computed dipole along edir(3) : 
        Dipole               -1.5953 Ry au,         -4.0548 Debye
        Dipole field         -0.0030 Ry au, 
 
        Potential amp.        0.2791 Ry
        Total length         46.3494 bohr
 

     total cpu time spent up to now is      254.8 secs

     total energy              =   -2947.13883266 Ry
     estimated scf accuracy    <      25.67904743 Ry

     iteration # 14     ecut=    29.40 Ry     beta= 0.05
     Davidson diagonalization with overlap
     ethr =  6.40E-03,  avg # of iterations =  1.7

     negative rho (up, down):  8.903E-05 0.000E+00
 
     Adding external electric field

     Computed dipole along edir(3) : 
        Dipole               -2.1719 Ry au,         -5.5203 Debye
        Dipole field         -0.0041 Ry au, 
 
        Potential amp.        0.3799 Ry
        Total length         46.3494 bohr
 

     total cpu time spent up to now is      262.2 secs

     total energy              =   -2946.73242332 Ry
     estimated scf accuracy    <      13.45715668 Ry

     iteration # 15     ecut=    29.40 Ry     beta= 0.05
     Davidson diagonalization with overlap
     ethr =  3.36E-03,  avg # of iterations =  3.9

     negative rho (up, down):  9.797E-05 0.000E+00
 
     Adding external electric field

     Computed dipole along edir(3) : 
        Dipole               -2.1941 Ry au,         -5.5769 Debye
        Dipole field         -0.0041 Ry au, 
 
        Potential amp.        0.3838 Ry
        Total length         46.3494 bohr
 

     total cpu time spent up to now is      270.5 secs

     total energy              =   -2947.21374851 Ry
     estimated scf accuracy    <       5.73405037 Ry

     iteration # 16     ecut=    29.40 Ry     beta= 0.05
     Davidson diagonalization with overlap
     c_bands:  1 eigenvalues not converged
     c_bands:  2 eigenvalues not converged
     c_bands:  3 eigenvalues not converged
     c_bands:  3 eigenvalues not converged
     c_bands:  2 eigenvalues not converged
     c_bands:  1 eigenvalues not converged
     ethr =  1.43E-03,  avg # of iterations = 19.0

     negative rho (up, down):  1.021E-04 0.000E+00
 
     Adding external electric field

     Computed dipole along edir(3) : 
        Dipole               -2.2723 Ry au,         -5.7756 Debye
        Dipole field         -0.0043 Ry au, 
 
        Potential amp.        0.3975 Ry
        Total length         46.3494 bohr
 

     total cpu time spent up to now is      286.8 secs

     total energy              =   -2945.80673693 Ry
     estimated scf accuracy    <     281.42967131 Ry

     iteration # 17     ecut=    29.40 Ry     beta= 0.05
     Davidson diagonalization with overlap
     ethr =  1.43E-03,  avg # of iterations =  1.4

     negative rho (up, down):  1.152E-04 0.000E+00
 
     Adding external electric field

     Computed dipole along edir(3) : 
        Dipole               -2.1841 Ry au,         -5.5514 Debye
        Dipole field         -0.0041 Ry au, 
 
        Potential amp.        0.3821 Ry
        Total length         46.3494 bohr
 

     total cpu time spent up to now is      294.0 secs

     total energy              =   -2947.44926437 Ry
     estimated scf accuracy    <       9.60713799 Ry

     iteration # 18     ecut=    29.40 Ry     beta= 0.05
     Davidson diagonalization with overlap
     ethr =  1.43E-03,  avg # of iterations =  1.0

     negative rho (up, down):  2.761E-04 0.000E+00
 
     Adding external electric field

     Computed dipole along edir(3) : 
        Dipole               -1.2986 Ry au,         -3.3008 Debye
        Dipole field         -0.0025 Ry au, 
 
        Potential amp.        0.2272 Ry
        Total length         46.3494 bohr
 

     total cpu time spent up to now is      300.9 secs

     total energy              =   -2946.13583566 Ry
     estimated scf accuracy    <       8.64013075 Ry

     iteration # 19     ecut=    29.40 Ry     beta= 0.05
     Davidson diagonalization with overlap
     ethr =  1.43E-03,  avg # of iterations = 14.1

     negative rho (up, down):  3.194E-04 0.000E+00
 
     Adding external electric field

     Computed dipole along edir(3) : 
        Dipole                0.1004 Ry au,          0.2553 Debye
        Dipole field          0.0002 Ry au, 
 
        Potential amp.       -0.0176 Ry
        Total length         46.3494 bohr
 

     total cpu time spent up to now is      314.7 secs

     total energy              =   -2946.91153560 Ry
     estimated scf accuracy    <      13.17531866 Ry

     iteration # 20     ecut=    29.40 Ry     beta= 0.05
     Davidson diagonalization with overlap
     ethr =  1.43E-03,  avg # of iterations =  4.0

     negative rho (up, down):  3.027E-04 0.000E+00
 
     Adding external electric field

     Computed dipole along edir(3) : 
        Dipole                0.9277 Ry au,          2.3580 Debye
        Dipole field          0.0018 Ry au, 
 
        Potential amp.       -0.1623 Ry
        Total length         46.3494 bohr
 

     total cpu time spent up to now is      322.8 secs

     total energy              =   -2946.63901915 Ry
     estimated scf accuracy    <       4.66440120 Ry

     iteration # 21     ecut=    29.40 Ry     beta= 0.05
     Davidson diagonalization with overlap
     c_bands:  2 eigenvalues not converged
     c_bands:  1 eigenvalues not converged
     c_bands:  2 eigenvalues not converged
     ethr =  1.16E-03,  avg # of iterations = 17.1

     negative rho (up, down):  2.854E-04 0.000E+00
 
     Adding external electric field

     Computed dipole along edir(3) : 
        Dipole                0.3820 Ry au,          0.9710 Debye
        Dipole field          0.0007 Ry au, 
 
        Potential amp.       -0.0668 Ry
        Total length         46.3494 bohr
 

     total cpu time spent up to now is      335.2 secs

     total energy              =   -2946.38996171 Ry
     estimated scf accuracy    <      37.58746735 Ry

     iteration # 22     ecut=    29.40 Ry     beta= 0.05
     Davidson diagonalization with overlap
     ethr =  1.16E-03,  avg # of iterations =  1.6

     negative rho (up, down):  3.154E-04 0.000E+00
 
     Adding external electric field

     Computed dipole along edir(3) : 
        Dipole                0.7896 Ry au,          2.0069 Debye
        Dipole field          0.0015 Ry au, 
 
        Potential amp.       -0.1381 Ry
        Total length         46.3494 bohr
 

     total cpu time spent up to now is      342.5 secs

     total energy              =   -2946.78344676 Ry
     estimated scf accuracy    <       1.79962167 Ry

     iteration # 23     ecut=    29.40 Ry     beta= 0.05
     Davidson diagonalization with overlap
     c_bands:  4 eigenvalues not converged
     c_bands:  2 eigenvalues not converged
     c_bands:  1 eigenvalues not converged
     ethr =  4.49E-04,  avg # of iterations = 10.8

     negative rho (up, down):  3.138E-04 0.000E+00
 
     Adding external electric field

     Computed dipole along edir(3) : 
        Dipole                0.2830 Ry au,          0.7192 Debye
        Dipole field          0.0005 Ry au, 
 
        Potential amp.       -0.0495 Ry
        Total length         46.3494 bohr
 

     total cpu time spent up to now is      366.0 secs

     total energy              =   -2946.29709698 Ry
     estimated scf accuracy    <      21.50088532 Ry

     iteration # 24     ecut=    29.40 Ry     beta= 0.05
     Davidson diagonalization with overlap
     ethr =  4.49E-04,  avg # of iterations =  7.3

     negative rho (up, down):  3.640E-04 0.000E+00
 
     Adding external electric field

     Computed dipole along edir(3) : 
        Dipole               -0.1264 Ry au,         -0.3213 Debye
        Dipole field         -0.0002 Ry au, 
 
        Potential amp.        0.0221 Ry
        Total length         46.3494 bohr
 

     total cpu time spent up to now is      375.1 secs

     total energy              =   -2946.50742941 Ry
     estimated scf accuracy    <       1.10093487 Ry

     iteration # 25     ecut=    29.40 Ry     beta= 0.05
     Davidson diagonalization with overlap
     c_bands:  2 eigenvalues not converged
     c_bands:  1 eigenvalues not converged
     c_bands:  1 eigenvalues not converged
     c_bands:  3 eigenvalues not converged
     c_bands:  2 eigenvalues not converged
     c_bands:  2 eigenvalues not converged
     c_bands:  1 eigenvalues not converged
     ethr =  2.75E-04,  avg # of iterations = 19.4

     negative rho (up, down):  3.653E-04 0.000E+00
 
     Adding external electric field

     Computed dipole along edir(3) : 
        Dipole               -0.2514 Ry au,         -0.6390 Debye
        Dipole field         -0.0005 Ry au, 
 
        Potential amp.        0.0440 Ry
        Total length         46.3494 bohr
 

     total cpu time spent up to now is      396.6 secs

     total energy              =   -2946.62399063 Ry
     estimated scf accuracy    <       0.65011345 Ry

     iteration # 26     ecut=    29.40 Ry     beta= 0.05
     Davidson diagonalization with overlap
     ethr =  1.62E-04,  avg # of iterations =  4.1

     negative rho (up, down):  4.021E-04 0.000E+00
 
     Adding external electric field

     Computed dipole along edir(3) : 
        Dipole               -0.1356 Ry au,         -0.3447 Debye
        Dipole field         -0.0003 Ry au, 
 
        Potential amp.        0.0237 Ry
        Total length         46.3494 bohr
 

     total cpu time spent up to now is      404.8 secs

     total energy              =   -2946.52344666 Ry
     estimated scf accuracy    <       0.72946138 Ry

     iteration # 27     ecut=    29.40 Ry     beta= 0.05
     Davidson diagonalization with overlap
     ethr =  1.62E-04,  avg # of iterations =  6.9

     negative rho (up, down):  4.521E-04 0.000E+00
 
     Adding external electric field

     Computed dipole along edir(3) : 
        Dipole               -0.0680 Ry au,         -0.1729 Debye
        Dipole field         -0.0001 Ry au, 
 
        Potential amp.        0.0119 Ry
        Total length         46.3494 bohr
 

     total cpu time spent up to now is      414.4 secs

     total energy              =   -2946.58414817 Ry
     estimated scf accuracy    <       0.24050885 Ry

     iteration # 28     ecut=    29.40 Ry     beta= 0.05
     Davidson diagonalization with overlap
     ethr =  6.00E-05,  avg # of iterations = 10.3

     negative rho (up, down):  6.442E-04 0.000E+00
 
     Adding external electric field

     Computed dipole along edir(3) : 
        Dipole                0.1132 Ry au,          0.2878 Debye
        Dipole field          0.0002 Ry au, 
 
        Potential amp.       -0.0198 Ry
        Total length         46.3494 bohr
 

     total cpu time spent up to now is      424.3 secs

     total energy              =   -2946.57064104 Ry
     estimated scf accuracy    <       0.17774868 Ry

     iteration # 29     ecut=    29.40 Ry     beta= 0.05
     Davidson diagonalization with overlap
     c_bands:  3 eigenvalues not converged
     c_bands:  4 eigenvalues not converged
     ethr =  4.43E-05,  avg # of iterations = 13.7

     negative rho (up, down):  6.333E-04 0.000E+00
 
     Adding external electric field

     Computed dipole along edir(3) : 
        Dipole                0.0769 Ry au,          0.1955 Debye
        Dipole field          0.0001 Ry au, 
 
        Potential amp.       -0.0135 Ry
        Total length         46.3494 bohr
 

     total cpu time spent up to now is      440.0 secs

     total energy              =   -2946.58526158 Ry
     estimated scf accuracy    <       0.10848587 Ry

     iteration # 30     ecut=    29.40 Ry     beta= 0.05
     Davidson diagonalization with overlap
     ethr =  2.71E-05,  avg # of iterations = 10.1

     negative rho (up, down):  7.967E-04 0.000E+00
 
     Adding external electric field

     Computed dipole along edir(3) : 
        Dipole                0.0078 Ry au,          0.0199 Debye
        Dipole field          0.0000 Ry au, 
 
        Potential amp.       -0.0014 Ry
        Total length         46.3494 bohr
 

     total cpu time spent up to now is      449.4 secs

     total energy              =   -2946.57974675 Ry
     estimated scf accuracy    <       0.09931127 Ry

     iteration # 31     ecut=    29.40 Ry     beta= 0.05
     Davidson diagonalization with overlap
     c_bands:  3 eigenvalues not converged
     c_bands:  1 eigenvalues not converged
     c_bands:  2 eigenvalues not converged
     c_bands:  2 eigenvalues not converged
     c_bands:  1 eigenvalues not converged
     ethr =  2.48E-05,  avg # of iterations = 18.5

     negative rho (up, down):  1.311E-03 0.000E+00
 
     Adding external electric field

     Computed dipole along edir(3) : 
        Dipole                0.1142 Ry au,          0.2903 Debye
        Dipole field          0.0002 Ry au, 
 
        Potential amp.       -0.0200 Ry
        Total length         46.3494 bohr
 

     total cpu time spent up to now is      463.2 secs

     total energy              =   -2946.58228285 Ry
     estimated scf accuracy    <       0.09696574 Ry

     iteration # 32     ecut=    29.40 Ry     beta= 0.05
     Davidson diagonalization with overlap
     ethr =  2.42E-05,  avg # of iterations =  5.4

     negative rho (up, down):  2.473E-03 0.000E+00
 
     Adding external electric field

     Computed dipole along edir(3) : 
        Dipole                0.2606 Ry au,          0.6625 Debye
        Dipole field          0.0005 Ry au, 
 
        Potential amp.       -0.0456 Ry
        Total length         46.3494 bohr
 

     total cpu time spent up to now is      473.4 secs

     total energy              =   -2946.58174793 Ry
     estimated scf accuracy    <       0.06088695 Ry

     iteration # 33     ecut=    29.40 Ry     beta= 0.05
     Davidson diagonalization with overlap
     c_bands:  1 eigenvalues not converged
     c_bands:  1 eigenvalues not converged
     c_bands:  2 eigenvalues not converged
     c_bands:  2 eigenvalues not converged
     ethr =  1.52E-05,  avg # of iterations = 16.0

     negative rho (up, down):  2.081E-03 0.000E+00
 
     Adding external electric field

     Computed dipole along edir(3) : 
        Dipole                0.2222 Ry au,          0.5649 Debye
        Dipole field          0.0004 Ry au, 
 
        Potential amp.       -0.0389 Ry
        Total length         46.3494 bohr
 

     total cpu time spent up to now is      488.3 secs

     total energy              =   -2946.58152223 Ry
     estimated scf accuracy    <       0.04853181 Ry

     iteration # 34     ecut=    29.40 Ry     beta= 0.05
     Davidson diagonalization with overlap
     ethr =  1.21E-05,  avg # of iterations =  5.5

     negative rho (up, down):  4.662E-03 0.000E+00
 
     Adding external electric field

     Computed dipole along edir(3) : 
        Dipole                0.3415 Ry au,          0.8680 Debye
        Dipole field          0.0006 Ry au, 
 
        Potential amp.       -0.0597 Ry
        Total length         46.3494 bohr
 

     total cpu time spent up to now is      506.0 secs

     total energy              =   -2946.57804943 Ry
     estimated scf accuracy    <       0.05178163 Ry

     iteration # 35     ecut=    29.40 Ry     beta= 0.05
     Davidson diagonalization with overlap
     c_bands:  2 eigenvalues not converged
     c_bands:  2 eigenvalues not converged
     c_bands:  2 eigenvalues not converged
     c_bands:  1 eigenvalues not converged
     ethr =  1.21E-05,  avg # of iterations = 15.5

     negative rho (up, down):  5.938E-03 0.000E+00
 
     Adding external electric field

     Computed dipole along edir(3) : 
        Dipole                0.3330 Ry au,          0.8464 Debye
        Dipole field          0.0006 Ry au, 
 
        Potential amp.       -0.0583 Ry
        Total length         46.3494 bohr
 

     total cpu time spent up to now is      519.1 secs

     total energy              =   -2946.57819938 Ry
     estimated scf accuracy    <       0.03557827 Ry

     iteration # 36     ecut=    29.40 Ry     beta= 0.05
     Davidson diagonalization with overlap
     ethr =  8.87E-06,  avg # of iterations =  9.3

     negative rho (up, down):  5.337E-03 0.000E+00
 
     Adding external electric field

     Computed dipole along edir(3) : 
        Dipole                0.3304 Ry au,          0.8397 Debye
        Dipole field          0.0006 Ry au, 
 
        Potential amp.       -0.0578 Ry
        Total length         46.3494 bohr
 

     total cpu time spent up to now is      529.3 secs

     total energy              =   -2946.58193075 Ry
     estimated scf accuracy    <       0.01064575 Ry

     iteration # 37     ecut=    29.40 Ry     beta= 0.05
     Davidson diagonalization with overlap
     c_bands:  1 eigenvalues not converged
     c_bands:  1 eigenvalues not converged
     c_bands:  4 eigenvalues not converged
     c_bands:  1 eigenvalues not converged
     c_bands:  4 eigenvalues not converged
     c_bands:  1 eigenvalues not converged
     c_bands:  2 eigenvalues not converged
     ethr =  2.65E-06,  avg # of iterations = 18.3

     negative rho (up, down):  5.619E-03 0.000E+00
 
     Adding external electric field

     Computed dipole along edir(3) : 
        Dipole                0.3327 Ry au,          0.8456 Debye
        Dipole field          0.0006 Ry au, 
 
        Potential amp.       -0.0582 Ry
        Total length         46.3494 bohr
 

     total cpu time spent up to now is      542.2 secs

     total energy              =   -2946.58193905 Ry
     estimated scf accuracy    <       0.00978188 Ry

     iteration # 38     ecut=    29.40 Ry     beta= 0.05
     Davidson diagonalization with overlap
     c_bands:  2 eigenvalues not converged
     c_bands:  1 eigenvalues not converged
     ethr =  2.44E-06,  avg # of iterations = 10.6

     negative rho (up, down):  6.339E-03 0.000E+00
 
     Adding external electric field

     Computed dipole along edir(3) : 
        Dipole                0.3026 Ry au,          0.7691 Debye
        Dipole field          0.0006 Ry au, 
 
        Potential amp.       -0.0529 Ry
        Total length         46.3494 bohr
 

     total cpu time spent up to now is      552.4 secs

     total energy              =   -2946.58191805 Ry
     estimated scf accuracy    <       0.00521275 Ry

     iteration # 39     ecut=    29.40 Ry     beta= 0.05
     Davidson diagonalization with overlap
     ethr =  1.30E-06,  avg # of iterations =  9.0

     negative rho (up, down):  6.309E-03 0.000E+00
 
     Adding external electric field

     Computed dipole along edir(3) : 
        Dipole                0.2958 Ry au,          0.7519 Debye
        Dipole field          0.0006 Ry au, 
 
        Potential amp.       -0.0518 Ry
        Total length         46.3494 bohr
 

     total cpu time spent up to now is      564.9 secs

     total energy              =   -2946.58198108 Ry
     estimated scf accuracy    <       0.00306705 Ry

     iteration # 40     ecut=    29.40 Ry     beta= 0.05
     Davidson diagonalization with overlap
     c_bands:  1 eigenvalues not converged
     c_bands:  1 eigenvalues not converged
     ethr =  7.65E-07,  avg # of iterations = 14.4

     negative rho (up, down):  6.576E-03 0.000E+00
 
     Adding external electric field

     Computed dipole along edir(3) : 
        Dipole                0.3154 Ry au,          0.8016 Debye
        Dipole field          0.0006 Ry au, 
 
        Potential amp.       -0.0552 Ry
        Total length         46.3494 bohr
 

     total cpu time spent up to now is      582.7 secs

     total energy              =   -2946.58182790 Ry
     estimated scf accuracy    <       0.00328669 Ry

     iteration # 41     ecut=    29.40 Ry     beta= 0.05
     Davidson diagonalization with overlap
     ethr =  7.65E-07,  avg # of iterations = 11.8

     negative rho (up, down):  6.792E-03 0.000E+00
 
     Adding external electric field

     Computed dipole along edir(3) : 
        Dipole                0.3196 Ry au,          0.8123 Debye
        Dipole field          0.0006 Ry au, 
 
        Potential amp.       -0.0559 Ry
        Total length         46.3494 bohr
 

     total cpu time spent up to now is      594.3 secs

     total energy              =   -2946.58213129 Ry
     estimated scf accuracy    <       0.00119286 Ry

     iteration # 42     ecut=    29.40 Ry     beta= 0.05
     Davidson diagonalization with overlap
     c_bands:  1 eigenvalues not converged
     ethr =  2.97E-07,  avg # of iterations =  9.0

     negative rho (up, down):  6.602E-03 0.000E+00
 
     Adding external electric field

     Computed dipole along edir(3) : 
        Dipole                0.3149 Ry au,          0.8003 Debye
        Dipole field          0.0006 Ry au, 
 
        Potential amp.       -0.0551 Ry
        Total length         46.3494 bohr
 

     total cpu time spent up to now is      605.8 secs

     total energy              =   -2946.58222049 Ry
     estimated scf accuracy    <       0.00078665 Ry

     iteration # 43     ecut=    29.40 Ry     beta= 0.05
     Davidson diagonalization with overlap
     c_bands:  1 eigenvalues not converged
     ethr =  1.96E-07,  avg # of iterations =  7.8

     negative rho (up, down):  6.508E-03 0.000E+00
 
     Adding external electric field

     Computed dipole along edir(3) : 
        Dipole                0.3118 Ry au,          0.7926 Debye
        Dipole field          0.0006 Ry au, 
 
        Potential amp.       -0.0546 Ry
        Total length         46.3494 bohr
 

     total cpu time spent up to now is      617.0 secs

     total energy              =   -2946.58222916 Ry
     estimated scf accuracy    <       0.00032282 Ry

     iteration # 44     ecut=    29.40 Ry     beta= 0.05
     Davidson diagonalization with overlap
     c_bands:  1 eigenvalues not converged
     c_bands:  1 eigenvalues not converged
     ethr =  8.05E-08,  avg # of iterations = 13.0

     negative rho (up, down):  6.747E-03 0.000E+00
 
     Adding external electric field

     Computed dipole along edir(3) : 
        Dipole                0.3130 Ry au,          0.7956 Debye
        Dipole field          0.0006 Ry au, 
 
        Potential amp.       -0.0548 Ry
        Total length         46.3494 bohr
 

     total cpu time spent up to now is      631.8 secs

     total energy              =   -2946.58230045 Ry
     estimated scf accuracy    <       0.00038876 Ry

     iteration # 45     ecut=    29.40 Ry     beta= 0.05
     Davidson diagonalization with overlap
     ethr =  8.05E-08,  avg # of iterations =  9.2

     negative rho (up, down):  6.958E-03 0.000E+00
 
     Adding external electric field

     Computed dipole along edir(3) : 
        Dipole                0.3190 Ry au,          0.8107 Debye
        Dipole field          0.0006 Ry au, 
 
        Potential amp.       -0.0558 Ry
        Total length         46.3494 bohr
 

     total cpu time spent up to now is      641.6 secs

     total energy              =   -2946.58228854 Ry
     estimated scf accuracy    <       0.00016865 Ry

     iteration # 46     ecut=    29.40 Ry     beta= 0.05
     Davidson diagonalization with overlap
     ethr =  4.21E-08,  avg # of iterations = 14.1

     negative rho (up, down):  6.986E-03 0.000E+00
 
     Adding external electric field

     Computed dipole along edir(3) : 
        Dipole                0.3165 Ry au,          0.8045 Debye
        Dipole field          0.0006 Ry au, 
 
        Potential amp.       -0.0554 Ry
        Total length         46.3494 bohr
 

     total cpu time spent up to now is      658.4 secs

     total energy              =   -2946.58236689 Ry
     estimated scf accuracy    <       0.00029723 Ry

     iteration # 47     ecut=    29.40 Ry     beta= 0.05
     Davidson diagonalization with overlap
     ethr =  4.21E-08,  avg # of iterations =  3.7

     negative rho (up, down):  6.973E-03 0.000E+00
 
     Adding external electric field

     Computed dipole along edir(3) : 
        Dipole                0.3121 Ry au,          0.7933 Debye
        Dipole field          0.0006 Ry au, 
 
        Potential amp.       -0.0546 Ry
        Total length         46.3494 bohr
 

     total cpu time spent up to now is      666.4 secs

     total energy              =   -2946.58233187 Ry
     estimated scf accuracy    <       0.00016420 Ry

     iteration # 48     ecut=    29.40 Ry     beta= 0.05
     Davidson diagonalization with overlap
     ethr =  4.09E-08,  avg # of iterations = 12.7

     negative rho (up, down):  6.941E-03 0.000E+00
 
     Adding external electric field

     Computed dipole along edir(3) : 
        Dipole                0.3134 Ry au,          0.7967 Debye
        Dipole field          0.0006 Ry au, 
 
        Potential amp.       -0.0548 Ry
        Total length         46.3494 bohr
 

     total cpu time spent up to now is      680.8 secs

     total energy              =   -2946.58239013 Ry
     estimated scf accuracy    <       0.00007794 Ry

     iteration # 49     ecut=    29.40 Ry     beta= 0.05
     Davidson diagonalization with overlap
     ethr =  1.94E-08,  avg # of iterations =  5.5

     negative rho (up, down):  6.940E-03 0.000E+00
 
     Adding external electric field

     Computed dipole along edir(3) : 
        Dipole                0.3141 Ry au,          0.7983 Debye
        Dipole field          0.0006 Ry au, 
 
        Potential amp.       -0.0549 Ry
        Total length         46.3494 bohr
 

     total cpu time spent up to now is      689.6 secs

     total energy              =   -2946.58239901 Ry
     estimated scf accuracy    <       0.00003988 Ry

     iteration # 50     ecut=    29.40 Ry     beta= 0.05
     Davidson diagonalization with overlap
     ethr =  9.94E-09,  avg # of iterations = 11.1

     negative rho (up, down):  6.984E-03 0.000E+00
 
     Adding external electric field

     Computed dipole along edir(3) : 
        Dipole                0.3137 Ry au,          0.7973 Debye
        Dipole field          0.0006 Ry au, 
 
        Potential amp.       -0.0549 Ry
        Total length         46.3494 bohr
 

     total cpu time spent up to now is      701.5 secs

     total energy              =   -2946.58241239 Ry
     estimated scf accuracy    <       0.00001532 Ry

     iteration # 51     ecut=    29.40 Ry     beta= 0.05
     Davidson diagonalization with overlap
     ethr =  3.82E-09,  avg # of iterations =  6.0

     negative rho (up, down):  6.976E-03 0.000E+00
 
     Adding external electric field

     Computed dipole along edir(3) : 
        Dipole                0.3136 Ry au,          0.7972 Debye
        Dipole field          0.0006 Ry au, 
 
        Potential amp.       -0.0549 Ry
        Total length         46.3494 bohr
 

     total cpu time spent up to now is      711.0 secs

     total energy              =   -2946.58242314 Ry
     estimated scf accuracy    <       0.00000492 Ry

     iteration # 52     ecut=    29.40 Ry     beta= 0.05
     Davidson diagonalization with overlap
     ethr =  1.23E-09,  avg # of iterations =  9.5

     negative rho (up, down):  6.912E-03 0.000E+00
 
     Adding external electric field

     Computed dipole along edir(3) : 
        Dipole                0.3140 Ry au,          0.7980 Debye
        Dipole field          0.0006 Ry au, 
 
        Potential amp.       -0.0549 Ry
        Total length         46.3494 bohr
 

     total cpu time spent up to now is      725.0 secs

     total energy              =   -2946.58243280 Ry
     estimated scf accuracy    <       0.00000480 Ry

     iteration # 53     ecut=    29.40 Ry     beta= 0.05
     Davidson diagonalization with overlap
     ethr =  1.20E-09,  avg # of iterations =  7.9

     negative rho (up, down):  6.898E-03 0.000E+00
 
     Adding external electric field

     Computed dipole along edir(3) : 
        Dipole                0.3129 Ry au,          0.7953 Debye
        Dipole field          0.0006 Ry au, 
 
        Potential amp.       -0.0547 Ry
        Total length         46.3494 bohr
 

     total cpu time spent up to now is      741.7 secs

     total energy              =   -2946.58243936 Ry
     estimated scf accuracy    <       0.00000614 Ry

     iteration # 54     ecut=    29.40 Ry     beta= 0.05
     Davidson diagonalization with overlap
     ethr =  1.20E-09,  avg # of iterations = 11.2

     negative rho (up, down):  6.894E-03 0.000E+00
 
     Adding external electric field

     Computed dipole along edir(3) : 
        Dipole                0.3132 Ry au,          0.7960 Debye
        Dipole field          0.0006 Ry au, 
 
        Potential amp.       -0.0548 Ry
        Total length         46.3494 bohr
 

     total cpu time spent up to now is      755.7 secs

     total energy              =   -2946.58244831 Ry
     estimated scf accuracy    <       0.00000518 Ry

     iteration # 55     ecut=    29.40 Ry     beta= 0.05
     Davidson diagonalization with overlap
     ethr =  1.20E-09,  avg # of iterations =  3.0

     negative rho (up, down):  6.896E-03 0.000E+00
 
     Adding external electric field

     Computed dipole along edir(3) : 
        Dipole                0.3133 Ry au,          0.7964 Debye
        Dipole field          0.0006 Ry au, 
 
        Potential amp.       -0.0548 Ry
        Total length         46.3494 bohr
 

     total cpu time spent up to now is      763.7 secs

     total energy              =   -2946.58245464 Ry
     estimated scf accuracy    <       0.00000346 Ry

     iteration # 56     ecut=    29.40 Ry     beta= 0.05
     Davidson diagonalization with overlap
     ethr =  8.63E-10,  avg # of iterations =  5.3

     negative rho (up, down):  6.901E-03 0.000E+00
 
     Adding external electric field

     Computed dipole along edir(3) : 
        Dipole                0.3134 Ry au,          0.7967 Debye
        Dipole field          0.0006 Ry au, 
 
        Potential amp.       -0.0548 Ry
        Total length         46.3494 bohr
 

     total cpu time spent up to now is      772.4 secs

     total energy              =   -2946.58246056 Ry
     estimated scf accuracy    <       0.00000150 Ry

     iteration # 57     ecut=    29.40 Ry     beta= 0.05
     Davidson diagonalization with overlap
     ethr =  3.75E-10,  avg # of iterations =  7.6

     negative rho (up, down):  6.888E-03 0.000E+00
 
     Adding external electric field

     Computed dipole along edir(3) : 
        Dipole                0.3133 Ry au,          0.7964 Debye
        Dipole field          0.0006 Ry au, 
 
        Potential amp.       -0.0548 Ry
        Total length         46.3494 bohr
 

     total cpu time spent up to now is      781.9 secs

     total energy              =   -2946.58246632 Ry
     estimated scf accuracy    <       0.00000147 Ry

     iteration # 58     ecut=    29.40 Ry     beta= 0.05
     Davidson diagonalization with overlap
     ethr =  3.68E-10,  avg # of iterations =  8.5

     negative rho (up, down):  6.892E-03 0.000E+00
 
     Adding external electric field

     Computed dipole along edir(3) : 
        Dipole                0.3133 Ry au,          0.7965 Debye
        Dipole field          0.0006 Ry au, 
 
        Potential amp.       -0.0548 Ry
        Total length         46.3494 bohr
 

     total cpu time spent up to now is      793.5 secs

     total energy              =   -2946.58247132 Ry
     estimated scf accuracy    <       0.00000456 Ry

     iteration # 59     ecut=    29.40 Ry     beta= 0.05
     Davidson diagonalization with overlap
     ethr =  3.68E-10,  avg # of iterations =  1.0

     negative rho (up, down):  6.895E-03 0.000E+00
 
     Adding external electric field

     Computed dipole along edir(3) : 
        Dipole                0.3133 Ry au,          0.7964 Debye
        Dipole field          0.0006 Ry au, 
 
        Potential amp.       -0.0548 Ry
        Total length         46.3494 bohr
 

     total cpu time spent up to now is      800.5 secs

     total energy              =   -2946.58247569 Ry
     estimated scf accuracy    <       0.00000453 Ry

     iteration # 60     ecut=    29.40 Ry     beta= 0.05
     Davidson diagonalization with overlap
     ethr =  3.68E-10,  avg # of iterations =  1.0

     negative rho (up, down):  6.897E-03 0.000E+00
 
     Adding external electric field

     Computed dipole along edir(3) : 
        Dipole                0.3137 Ry au,          0.7972 Debye
        Dipole field          0.0006 Ry au, 
 
        Potential amp.       -0.0549 Ry
        Total length         46.3494 bohr
 

     total cpu time spent up to now is      807.4 secs

     total energy              =   -2946.58247884 Ry
     estimated scf accuracy    <       0.00000451 Ry

     iteration # 61     ecut=    29.40 Ry     beta= 0.05
     Davidson diagonalization with overlap
     ethr =  3.68E-10,  avg # of iterations =  7.8

     negative rho (up, down):  6.895E-03 0.000E+00
 
     Adding external electric field

     Computed dipole along edir(3) : 
        Dipole                0.3136 Ry au,          0.7971 Debye
        Dipole field          0.0006 Ry au, 
 
        Potential amp.       -0.0549 Ry
        Total length         46.3494 bohr
 

     total cpu time spent up to now is      817.3 secs

     total energy              =   -2946.58248258 Ry
     estimated scf accuracy    <       0.00000070 Ry

     iteration # 62     ecut=    29.40 Ry     beta= 0.05
     Davidson diagonalization with overlap
     ethr =  1.74E-10,  avg # of iterations = 11.9

     negative rho (up, down):  6.897E-03 0.000E+00
 
     Adding external electric field

     Computed dipole along edir(3) : 
        Dipole                0.3136 Ry au,          0.7971 Debye
        Dipole field          0.0006 Ry au, 
 
        Potential amp.       -0.0549 Ry
        Total length         46.3494 bohr
 

     total cpu time spent up to now is      829.7 secs

     total energy              =   -2946.58248594 Ry
     estimated scf accuracy    <       0.00000020 Ry

     iteration # 63     ecut=    29.40 Ry     beta= 0.05
     Davidson diagonalization with overlap
     ethr =  4.90E-11,  avg # of iterations =  9.4

     negative rho (up, down):  6.900E-03 0.000E+00
 
     Adding external electric field

     Computed dipole along edir(3) : 
        Dipole                0.3136 Ry au,          0.7970 Debye
        Dipole field          0.0006 Ry au, 
 
        Potential amp.       -0.0549 Ry
        Total length         46.3494 bohr
 

     total cpu time spent up to now is      840.1 secs

     total energy              =   -2946.58248896 Ry
     estimated scf accuracy    <       0.00000015 Ry

     iteration # 64     ecut=    29.40 Ry     beta= 0.05
     Davidson diagonalization with overlap
     ethr =  3.69E-11,  avg # of iterations = 12.1

     negative rho (up, down):  6.910E-03 0.000E+00
 
     Adding external electric field

     Computed dipole along edir(3) : 
        Dipole                0.3137 Ry au,          0.7973 Debye
        Dipole field          0.0006 Ry au, 
 
        Potential amp.       -0.0549 Ry
        Total length         46.3494 bohr
 

     total cpu time spent up to now is      854.2 secs

     total energy              =   -2946.58249158 Ry
     estimated scf accuracy    <       0.00000032 Ry

     iteration # 65     ecut=    29.40 Ry     beta= 0.05
     Davidson diagonalization with overlap
     ethr =  3.69E-11,  avg # of iterations =  6.0

     negative rho (up, down):  6.998E-03 0.000E+00
 
     Adding external electric field

     Computed dipole along edir(3) : 
        Dipole                0.3142 Ry au,          0.7987 Debye
        Dipole field          0.0006 Ry au, 
 
        Potential amp.       -0.0550 Ry
        Total length         46.3494 bohr
 

     total cpu time spent up to now is      863.7 secs

     End of self-consistent calculation

          k = 0.0000 0.0000 0.0000 ( 18029 PWs)   bands (ev):

   -55.9983 -55.9882 -55.9642 -55.9511 -55.8788 -55.8544 -55.8334 -55.8153
   -55.8054 -55.7717 -55.7713 -55.7380 -55.6127 -55.3907 -54.9790 -54.9450
   -32.5421 -32.4808 -32.3533 -32.3332 -32.3047 -32.3023 -32.2910 -32.2622
   -32.2403 -32.2169 -32.2100 -32.1954 -32.1680 -32.1504 -32.1412 -32.1272
   -32.1110 -32.1027 -32.0874 -32.0592 -32.0555 -32.0553 -32.0273 -32.0081
   -32.0075 -32.0025 -31.9935 -31.9895 -31.9762 -31.9739 -31.9658 -31.9459
   -31.9439 -31.9374 -31.9245 -31.9110 -31.8836 -31.8660 -31.8285 -31.6675
   -31.6411 -31.5285 -31.3861 -31.2974 -31.2750 -31.2027 -31.1162 -31.0054
   -16.7433 -16.4740 -16.2476 -16.1516 -16.1244 -16.0052 -15.8399 -15.7180
   -15.6697 -15.5694 -15.5600 -15.5353 -15.5024 -15.4785 -15.4778 -15.4436
   -15.4406 -15.4215 -15.4099 -15.3597 -15.3366 -15.3250 -15.2098 -15.1761
   -15.1337 -15.1125 -15.0549 -15.0423 -14.6197 -13.4821 -13.3657 -13.0414
   -12.9291  -9.1023  -4.1165  -3.9597  -3.9055  -3.8604  -3.8297  -3.6127
    -3.5467  -3.2490  -3.1849  -3.1703  -3.1529  -3.1288  -3.1204  -3.0722
    -3.0340  -2.9874  -2.9020  -2.8334  -2.8238  -2.8096  -2.8067  -2.7773
    -2.7676  -2.7555  -2.7148  -2.6892  -2.6631  -2.6130  -2.5580  -2.4960
    -2.4126  -2.3947  -2.3130  -2.2905  -2.2844  -2.2415  -2.2271  -2.2192
    -2.2002  -2.1751  -2.1620  -1.9786  -1.9399  -1.8372  -1.7812  -1.7791
    -1.6077  -1.5077  -1.4660  -1.4550  -1.4257  -1.3920  -1.3853  -1.2991
    -1.1822  -1.1511  -1.1181  -1.0461  -1.0025  -0.9707  -0.8732  -0.8457
    -0.7627  -0.7605  -0.7383  -0.6503  -0.5966  -0.4831  -0.4351  -0.4250
    -0.3871  -0.3580  -0.2887  -0.2744  -0.2175  -0.1452  -0.1244  -0.0616
    -0.0311  -0.0170  -0.0059   0.0110   0.0374   0.0678   0.1718   0.2022
     0.2816   0.3494   0.4447   0.5422   0.6481   0.6569   0.7583   0.9675
     1.0412   1.1395   1.1984   1.2353   1.6144   1.6603   1.7429   2.1833
     3.1388   3.2228   3.2703   3.2812   3.3723   3.3886   3.5890   3.6134
     3.6343   3.6864

          k = 0.0000 0.0419 0.0000 ( 17933 PWs)   bands (ev):

   -55.9932 -55.9831 -55.9691 -55.9561 -55.8752 -55.8501 -55.8368 -55.8195
   -55.8004 -55.7762 -55.7667 -55.7428 -55.6121 -55.3911 -54.9739 -54.9499
   -32.4847 -32.4268 -32.2986 -32.2891 -32.2863 -32.2788 -32.2781 -32.2243
   -32.2188 -32.2161 -32.2071 -32.2017 -32.1710 -32.1679 -32.1593 -32.1507
   -32.1366 -32.0981 -32.0740 -32.0692 -32.0554 -32.0475 -32.0237 -32.0214
   -32.0143 -32.0095 -32.0077 -32.0015 -31.9977 -31.9860 -31.9775 -31.9705
   -31.9639 -31.9423 -31.9417 -31.9377 -31.9268 -31.8624 -31.8276 -31.6673
   -31.6555 -31.5519 -31.3320 -31.2939 -31.2780 -31.1901 -31.1288 -31.0625
   -16.6073 -16.3538 -16.1379 -16.0426 -16.0235 -15.9701 -15.8646 -15.7784
   -15.7536 -15.5945 -15.5585 -15.5326 -15.5188 -15.5035 -15.4761 -15.4627
   -15.4561 -15.4243 -15.4140 -15.3843 -15.3449 -15.2970 -15.2314 -15.2033
   -15.1919 -15.1658 -15.1111 -15.0628 -14.7136 -13.4862 -13.4053 -13.0409
   -12.9288  -9.1114  -3.9245  -3.7937  -3.7288  -3.7001  -3.6603  -3.4546
    -3.3175  -3.2282  -3.1703  -3.1348  -3.0821  -3.0756  -3.0545  -3.0428
    -3.0364  -3.0032  -2.9546  -2.9467  -2.8885  -2.8761  -2.8660  -2.8282
    -2.8211  -2.7625  -2.7502  -2.7081  -2.7007  -2.6905  -2.6584  -2.5890
    -2.5772  -2.4919  -2.4902  -2.4380  -2.4177  -2.3695  -2.2613  -2.2475
    -2.1592  -2.1099  -1.9462  -1.9263  -1.8882  -1.7761  -1.7414  -1.6741
    -1.5940  -1.5880  -1.4198  -1.3395  -1.3088  -1.2866  -1.2050  -1.1909
    -1.0673  -1.0210  -0.9847  -0.9508  -0.9059  -0.9014  -0.8910  -0.8417
    -0.8125  -0.7892  -0.7396  -0.6643  -0.6348  -0.5472  -0.5064  -0.5026
    -0.4892  -0.4677  -0.4403  -0.3000  -0.2718  -0.2284  -0.1952  -0.1727
    -0.1603  -0.1363  -0.1130  -0.0293   0.0334   0.0574   0.1341   0.1839
     0.2326   0.2728   0.3349   0.3387   0.4001   0.5603   0.6611   0.6922
     1.0139   1.2310   1.2542   1.3151   1.5684   1.5723   1.7446   2.1814
     3.3323   3.3716   3.3866   3.4374   3.4905   3.5351   3.5971   3.6208
     3.6586   3.6881

          k = 0.0000-0.0839 0.0000 ( 17884 PWs)   bands (ev):

   -55.9817 -55.9806 -55.9741 -55.9650 -55.8708 -55.8440 -55.8411 -55.8254
   -55.7895 -55.7870 -55.7560 -55.7535 -55.6115 -55.3916 -54.9619 -54.9618
   -32.3491 -32.3405 -32.2949 -32.2942 -32.2767 -32.2758 -32.2595 -32.2505
   -32.1870 -32.1840 -32.1794 -32.1730 -32.1714 -32.1550 -32.1437 -32.1265
   -32.1080 -32.1035 -32.1023 -32.1004 -32.0770 -32.0764 -32.0735 -32.0436
   -32.0424 -32.0415 -32.0407 -32.0295 -32.0242 -32.0125 -31.9882 -31.9862
   -31.9660 -31.9621 -31.9345 -31.9344 -31.9333 -31.8572 -31.8267 -31.6812
   -31.6669 -31.5729 -31.2858 -31.2857 -31.1991 -31.1990 -31.1595 -31.1595
   -16.2647 -16.2586 -16.0700 -16.0680 -15.9073 -15.8996 -15.8042 -15.7851
   -15.7767 -15.7529 -15.7173 -15.7128 -15.5597 -15.5546 -15.4261 -15.3804
   -15.3779 -15.3750 -15.3543 -15.3344 -15.3328 -15.3072 -15.2977 -15.2917
   -15.2528 -15.2427 -15.1760 -15.0215 -14.8713 -13.4680 -13.4678 -13.0405
   -12.9286  -9.1202  -3.4779  -3.4530  -3.4059  -3.3883  -3.3719  -3.3639
    -3.2902  -3.2898  -3.2656  -3.2210  -3.1438  -3.1402  -3.1176  -3.1044
    -3.0782  -3.0769  -3.0552  -3.0398  -2.9863  -2.9516  -2.9427  -2.8540
    -2.8286  -2.8079  -2.7952  -2.7854  -2.7459  -2.7242  -2.7057  -2.6832
    -2.6144  -2.5683  -2.5115  -2.4013  -2.3742  -2.3549  -2.3151  -2.0660
    -1.9867  -1.9462  -1.8913  -1.8070  -1.7207  -1.7146  -1.6846  -1.6213
    -1.6004  -1.4636  -1.4286  -1.4165  -1.3839  -1.3722  -1.2980  -1.2772
    -1.1958  -1.1701  -1.1166  -1.1073  -1.0568  -0.8625  -0.7447  -0.7196
    -0.6684  -0.6311  -0.6220  -0.6121  -0.5827  -0.5562  -0.5309  -0.4979
    -0.4701  -0.4453  -0.4191  -0.4034  -0.3321  -0.3004  -0.2703  -0.2505
    -0.2236  -0.2077  -0.1851  -0.1636  -0.1386  -0.1099  -0.0392   0.0091
     0.1452   0.2405   0.2424   0.2520   0.2853   0.6123   0.6407   0.6987
     0.7537   1.3062   1.3744   1.3745   1.5054   1.5064   1.7463   2.1794
     3.4507   3.4687   3.4765   3.4996   3.5700   3.5802   3.6564   3.6867
     3.7286   3.7384

          k = 0.0380 0.0000 0.0000 ( 17913 PWs)   bands (ev):

   -55.9982 -55.9881 -55.9641 -55.9510 -55.8787 -55.8543 -55.8332 -55.8152
   -55.8051 -55.7717 -55.7712 -55.7379 -55.6126 -55.3906 -54.9789 -54.9449
   -32.5422 -32.4817 -32.3591 -32.3348 -32.3048 -32.3021 -32.2908 -32.2668
   -32.2403 -32.2130 -32.1991 -32.1932 -32.1679 -32.1475 -32.1344 -32.1268
   -32.1053 -32.1024 -32.0756 -32.0670 -32.0556 -32.0552 -32.0312 -32.0075
   -32.0043 -32.0020 -31.9896 -31.9865 -31.9750 -31.9738 -31.9669 -31.9656
   -31.9436 -31.9373 -31.9247 -31.9099 -31.8840 -31.8658 -31.8313 -31.6680
   -31.6410 -31.5283 -31.3857 -31.3007 -31.2730 -31.2025 -31.1161 -31.0051
   -16.6708 -16.3889 -16.1681 -16.1390 -16.0486 -16.0046 -15.8844 -15.7161
   -15.7061 -15.6907 -15.6666 -15.6166 -15.6002 -15.5667 -15.5487 -15.5265
   -15.3618 -15.3467 -15.3080 -15.2702 -15.2509 -15.2440 -15.2200 -15.1905
   -15.1769 -15.1538 -15.1398 -15.0275 -14.6183 -13.4788 -13.3654 -13.0275
   -12.9433  -9.0998  -4.0359  -3.7465  -3.6962  -3.6269  -3.6115  -3.5407
    -3.5315  -3.4644  -3.2453  -3.2404  -3.1195  -3.1134  -3.0911  -3.0734
    -3.0520  -3.0379  -3.0294  -2.9567  -2.8716  -2.8630  -2.8451  -2.7513
    -2.7128  -2.7092  -2.6495  -2.6043  -2.5886  -2.5552  -2.4679  -2.4392
    -2.3555  -2.3469  -2.3402  -2.2728  -2.2528  -2.2002  -2.1824  -2.1556
    -2.0703  -2.0271  -1.9626  -1.9200  -1.8576  -1.8320  -1.7788  -1.7326
    -1.7089  -1.6037  -1.5449  -1.5217  -1.4333  -1.4221  -1.3690  -1.2836
    -1.2793  -1.2669  -1.2190  -1.1309  -1.0778  -0.9970  -0.8879  -0.8255
    -0.8179  -0.7901  -0.7733  -0.7205  -0.6654  -0.5148  -0.4552  -0.4273
    -0.4081  -0.3855  -0.3297  -0.2904  -0.2603  -0.2153  -0.1943  -0.1616
    -0.1465  -0.1231  -0.1078  -0.0894  -0.0176   0.0843   0.1209   0.1607
     0.2295   0.2734   0.3687   0.4181   0.4666   0.6423   0.6908   0.9712
     1.0039   1.0531   1.2047   1.2239   1.5029   1.5773   1.8031   2.1138
     3.1732   3.1965   3.4821   3.5033   3.5197   3.5548   3.5684   3.5889
     3.6067   3.6538

          k = 0.0380 0.0419 0.0000 ( 17878 PWs)   bands (ev):

   -55.9931 -55.9830 -55.9691 -55.9561 -55.8751 -55.8500 -55.8368 -55.8195
   -55.8001 -55.7762 -55.7668 -55.7428 -55.6120 -55.3911 -54.9739 -54.9498
   -32.4849 -32.4277 -32.3056 -32.2889 -32.2861 -32.2804 -32.2783 -32.2243
   -32.2191 -32.2169 -32.2108 -32.1890 -32.1708 -32.1679 -32.1594 -32.1407
   -32.1341 -32.0933 -32.0700 -32.0689 -32.0567 -32.0474 -32.0245 -32.0213
   -32.0168 -32.0074 -32.0019 -31.9973 -31.9965 -31.9861 -31.9775 -31.9703
   -31.9653 -31.9622 -31.9398 -31.9348 -31.9316 -31.8624 -31.8301 -31.6682
   -31.6553 -31.5518 -31.3317 -31.2966 -31.2770 -31.1900 -31.1289 -31.0623
   -16.5414 -16.2756 -16.0664 -16.0322 -15.9689 -15.9444 -15.8666 -15.8153
   -15.7555 -15.6547 -15.6175 -15.6000 -15.5889 -15.5817 -15.4966 -15.4799
   -15.4169 -15.3872 -15.3831 -15.3271 -15.3214 -15.2932 -15.2470 -15.2428
   -15.2312 -15.1973 -15.1556 -15.0486 -14.7126 -13.4839 -13.4055 -13.0271
   -12.9431  -9.1098  -3.8590  -3.5744  -3.5310  -3.4533  -3.4363  -3.3862
    -3.3174  -3.2966  -3.1541  -3.1242  -3.0983  -3.0542  -3.0344  -3.0327
    -3.0008  -2.9831  -2.9515  -2.9007  -2.8746  -2.8638  -2.8521  -2.8174
    -2.7978  -2.7635  -2.7321  -2.7109  -2.6801  -2.6478  -2.6277  -2.5796
    -2.5194  -2.5020  -2.4702  -2.4316  -2.3358  -2.2822  -2.2239  -2.1620
    -2.1333  -2.0234  -1.9937  -1.9517  -1.8917  -1.7824  -1.7393  -1.6457
    -1.5837  -1.5546  -1.4552  -1.4173  -1.3938  -1.3166  -1.2730  -1.2607
    -1.2156  -1.1418  -1.1014  -1.0677  -0.9925  -0.9646  -0.9268  -0.9000
    -0.8460  -0.8138  -0.7838  -0.7370  -0.7076  -0.6637  -0.6242  -0.6065
    -0.5931  -0.5097  -0.4654  -0.4363  -0.3817  -0.3359  -0.3172  -0.2932
    -0.2501  -0.1896  -0.1472  -0.0600  -0.0270   0.0759   0.1464   0.2099
     0.2426   0.3156   0.3399   0.3973   0.4360   0.4680   0.5917   0.6603
     0.9480   1.2419   1.2630   1.3195   1.4908   1.5529   1.8060   2.1109
     3.3198   3.3847   3.4400   3.5174   3.5398   3.5777   3.6430   3.6771
     3.7082   3.7242

          k = 0.0380-0.0839 0.0000 ( 17916 PWs)   bands (ev):

   -55.9817 -55.9806 -55.9742 -55.9650 -55.8708 -55.8441 -55.8411 -55.8255
   -55.7895 -55.7869 -55.7561 -55.7536 -55.6115 -55.3917 -54.9620 -54.9618
   -32.3494 -32.3408 -32.2957 -32.2949 -32.2768 -32.2758 -32.2596 -32.2506
   -32.1971 -32.1875 -32.1859 -32.1825 -32.1459 -32.1448 -32.1358 -32.1279
   -32.1086 -32.1024 -32.1014 -32.1010 -32.0873 -32.0842 -32.0735 -32.0501
   -32.0412 -32.0324 -32.0294 -32.0187 -32.0181 -32.0125 -31.9881 -31.9860
   -31.9661 -31.9622 -31.9463 -31.9453 -31.9339 -31.8571 -31.8292 -31.6812
   -31.6681 -31.5728 -31.2868 -31.2867 -31.1990 -31.1989 -31.1595 -31.1595
   -16.2213 -16.2168 -16.0191 -16.0168 -15.8803 -15.8706 -15.8087 -15.7537
   -15.7322 -15.7225 -15.6986 -15.6894 -15.5742 -15.5672 -15.4694 -15.4374
   -15.4183 -15.4116 -15.3960 -15.3766 -15.3714 -15.3540 -15.3362 -15.3017
   -15.2952 -15.2727 -15.1546 -15.0147 -14.8659 -13.4678 -13.4676 -13.0267
   -12.9429  -9.1195  -3.4683  -3.4419  -3.2485  -3.2256  -3.1907  -3.1764
    -3.1449  -3.1320  -3.1026  -3.0813  -3.0664  -3.0566  -3.0499  -3.0358
    -3.0112  -3.0055  -2.9913  -2.9753  -2.9320  -2.8655  -2.8472  -2.8422
    -2.8290  -2.8038  -2.7868  -2.7271  -2.7198  -2.7147  -2.6980  -2.6319
    -2.6176  -2.6054  -2.5587  -2.4688  -2.4465  -2.1217  -2.1084  -2.0787
    -2.0037  -1.9296  -1.8994  -1.8827  -1.8298  -1.8219  -1.7782  -1.7657
    -1.6862  -1.6741  -1.6375  -1.6271  -1.5166  -1.4671  -1.4015  -1.3833
    -1.2329  -1.1983  -1.1472  -1.1006  -1.0187  -0.9857  -0.9190  -0.8606
    -0.8075  -0.7933  -0.7600  -0.7535  -0.7065  -0.6876  -0.6622  -0.6123
    -0.5885  -0.5678  -0.5512  -0.5438  -0.5290  -0.4229  -0.4003  -0.3453
    -0.2512  -0.1634  -0.1101  -0.0322   0.0278   0.0809   0.1045   0.1189
     0.1595   0.1776   0.2529   0.3446   0.3840   0.5500   0.5760   0.6732
     0.7501   1.3073   1.3876   1.3879   1.4945   1.4954   1.8063   2.1119
     3.4186   3.4298   3.5047   3.5208   3.5566   3.5664   3.7155   3.7364
     3.7646   3.7683

          k = 0.0380-0.0419 0.0000 ( 17876 PWs)   bands (ev):

   -55.9931 -55.9830 -55.9691 -55.9561 -55.8751 -55.8500 -55.8368 -55.8195
   -55.8001 -55.7762 -55.7668 -55.7428 -55.6120 -55.3911 -54.9739 -54.9498
   -32.4848 -32.4277 -32.3056 -32.2889 -32.2861 -32.2804 -32.2783 -32.2243
   -32.2192 -32.2169 -32.2108 -32.1889 -32.1707 -32.1680 -32.1594 -32.1407
   -32.1341 -32.0932 -32.0700 -32.0689 -32.0565 -32.0474 -32.0245 -32.0217
   -32.0164 -32.0072 -32.0020 -31.9973 -31.9964 -31.9862 -31.9775 -31.9702
   -31.9655 -31.9623 -31.9398 -31.9346 -31.9316 -31.8623 -31.8301 -31.6681
   -31.6554 -31.5518 -31.3316 -31.2966 -31.2770 -31.1900 -31.1289 -31.0623
   -16.5415 -16.2755 -16.0663 -16.0323 -15.9689 -15.9444 -15.8663 -15.8151
   -15.7558 -15.6552 -15.6170 -15.6008 -15.5888 -15.5821 -15.4967 -15.4801
   -15.4170 -15.3868 -15.3825 -15.3257 -15.3191 -15.2964 -15.2471 -15.2422
   -15.2310 -15.1976 -15.1557 -15.0488 -14.7126 -13.4839 -13.4055 -13.0271
   -12.9431  -9.1097  -3.8588  -3.5754  -3.5318  -3.4527  -3.4370  -3.3857
    -3.3218  -3.2917  -3.1560  -3.1247  -3.0967  -3.0537  -3.0332  -3.0297
    -2.9994  -2.9824  -2.9536  -2.8973  -2.8750  -2.8650  -2.8538  -2.8248
    -2.7966  -2.7584  -2.7328  -2.7084  -2.6858  -2.6478  -2.6302  -2.5775
    -2.5183  -2.5059  -2.4714  -2.4276  -2.3386  -2.2876  -2.2258  -2.1672
    -2.1293  -2.0175  -1.9986  -1.9533  -1.8854  -1.7774  -1.7337  -1.6426
    -1.5860  -1.5547  -1.4544  -1.4161  -1.3946  -1.3180  -1.2801  -1.2625
    -1.2047  -1.1350  -1.1063  -1.0699  -0.9929  -0.9542  -0.9266  -0.8981
    -0.8492  -0.8135  -0.7820  -0.7219  -0.6992  -0.6823  -0.6307  -0.6084
    -0.5849  -0.5150  -0.4623  -0.4403  -0.3945  -0.3356  -0.3142  -0.2890
    -0.2470  -0.1999  -0.1450  -0.0564  -0.0323   0.0746   0.1411   0.2114
     0.2373   0.3157   0.3414   0.4009   0.4372   0.4654   0.5922   0.6594
     0.9484   1.2419   1.2618   1.3197   1.4906   1.5536   1.8034   2.1146
     3.3194   3.3850   3.4412   3.5053   3.5577   3.5838   3.6460   3.6820
     3.7098   3.7232

          k =-0.0760-0.0000 0.0000 ( 17886 PWs)   bands (ev):

   -55.9981 -55.9880 -55.9641 -55.9510 -55.8786 -55.8543 -55.8332 -55.8152
   -55.8049 -55.7718 -55.7712 -55.7379 -55.6125 -55.3906 -54.9788 -54.9448
   -32.5423 -32.4826 -32.3645 -32.3364 -32.3050 -32.3019 -32.2906 -32.2713
   -32.2404 -32.2126 -32.1961 -32.1730 -32.1678 -32.1446 -32.1285 -32.1267
   -32.1024 -32.0999 -32.0991 -32.0555 -32.0555 -32.0343 -32.0206 -32.0147
   -32.0075 -32.0022 -32.0009 -31.9897 -31.9803 -31.9739 -31.9736 -31.9657
   -31.9436 -31.9371 -31.9256 -31.9091 -31.8848 -31.8658 -31.8347 -31.6687
   -31.6409 -31.5283 -31.3853 -31.3040 -31.2717 -31.2025 -31.1160 -31.0052
   -16.5757 -16.3061 -16.1011 -16.0964 -16.0045 -15.9621 -15.8588 -15.7862
   -15.7738 -15.7122 -15.6991 -15.6793 -15.6626 -15.6587 -15.6456 -15.5404
   -15.3637 -15.3580 -15.3382 -15.2786 -15.2492 -15.2468 -15.1978 -15.1823
   -15.1565 -15.1545 -15.0887 -15.0241 -14.6172 -13.4758 -13.3651 -13.0053
   -12.9659  -9.0974  -4.0149  -3.6770  -3.5942  -3.5169  -3.3997  -3.3911
    -3.3444  -3.2603  -3.2485  -3.2470  -3.2311  -3.2196  -3.1061  -3.0515
    -3.0230  -2.9943  -2.9662  -2.9342  -2.9199  -2.8621  -2.7990  -2.7248
    -2.6405  -2.6196  -2.5587  -2.5475  -2.4993  -2.4860  -2.4469  -2.4242
    -2.3262  -2.3160  -2.3059  -2.2693  -2.2303  -2.2283  -2.2079  -2.1708
    -2.1168  -2.0063  -1.9307  -1.9116  -1.8594  -1.7876  -1.7347  -1.6400
    -1.6233  -1.6072  -1.5944  -1.5823  -1.5618  -1.4656  -1.4611  -1.3777
    -1.3058  -1.2732  -1.2478  -1.2181  -1.1798  -1.1528  -1.1455  -1.0549
    -0.8418  -0.7750  -0.7172  -0.6910  -0.6624  -0.6377  -0.6220  -0.5141
    -0.4788  -0.4439  -0.3936  -0.3369  -0.3277  -0.2834  -0.2655  -0.2499
    -0.1869  -0.1653  -0.1177  -0.1052  -0.0347   0.0257   0.0499   0.1247
     0.2547   0.2783   0.4013   0.4664   0.4977   0.5827   0.6914   0.7388
     0.9824   1.0743   1.1803   1.2467   1.3734   1.5214   1.9360   1.9718
     3.1773   3.1791   3.3026   3.4172   3.4695   3.5591   3.5886   3.6305
     3.6469   3.6717

          k =-0.0760 0.0419 0.0000 ( 17914 PWs)   bands (ev):

   -55.9932 -55.9830 -55.9691 -55.9561 -55.8751 -55.8501 -55.8368 -55.8195
   -55.8000 -55.7762 -55.7669 -55.7429 -55.6120 -55.3911 -54.9739 -54.9499
   -32.4852 -32.4287 -32.3122 -32.2890 -32.2861 -32.2821 -32.2785 -32.2249
   -32.2196 -32.2191 -32.2128 -32.1725 -32.1706 -32.1680 -32.1597 -32.1320
   -32.1312 -32.0888 -32.0882 -32.0688 -32.0475 -32.0261 -32.0224 -32.0214
   -32.0190 -32.0058 -32.0041 -32.0028 -31.9965 -31.9853 -31.9838 -31.9773
   -31.9681 -31.9616 -31.9393 -31.9386 -31.9352 -31.8624 -31.8330 -31.6692
   -31.6553 -31.5518 -31.3314 -31.2994 -31.2763 -31.1900 -31.1289 -31.0624
   -16.4566 -16.1927 -16.0157 -15.9907 -15.9658 -15.8697 -15.8650 -15.7612
   -15.7496 -15.7356 -15.6521 -15.6486 -15.6446 -15.6242 -15.5781 -15.5481
   -15.4324 -15.3918 -15.3835 -15.3575 -15.3319 -15.2845 -15.2707 -15.2580
   -15.2301 -15.1798 -15.1454 -15.0442 -14.7120 -13.4818 -13.4059 -13.0050
   -12.9657  -9.1083  -3.8442  -3.5126  -3.3365  -3.3029  -3.2119  -3.1562
    -3.1208  -3.1142  -3.1122  -3.0790  -3.0552  -3.0473  -3.0253  -3.0194
    -2.9732  -2.9549  -2.9483  -2.9368  -2.9184  -2.8955  -2.8601  -2.7877
    -2.7806  -2.7125  -2.6940  -2.6806  -2.6583  -2.6031  -2.5763  -2.4893
    -2.4768  -2.4745  -2.4187  -2.3612  -2.3527  -2.2691  -2.1233  -2.1173
    -2.0759  -1.9982  -1.9916  -1.9382  -1.8511  -1.8256  -1.7844  -1.6507
    -1.5908  -1.5589  -1.5376  -1.4737  -1.4359  -1.4226  -1.3958  -1.3080
    -1.2744  -1.2686  -1.2220  -1.2109  -1.1792  -1.1581  -1.0945  -1.0464
    -1.0035  -0.9712  -0.9584  -0.8835  -0.7972  -0.7659  -0.7300  -0.6835
    -0.6315  -0.6194  -0.5762  -0.5542  -0.5137  -0.4097  -0.3456  -0.2956
    -0.2785  -0.1697  -0.1555  -0.0442   0.0125   0.1224   0.2256   0.2571
     0.3100   0.3606   0.3940   0.4559   0.4578   0.5176   0.5769   0.5980
     0.7929   1.2568   1.2660   1.3229   1.4143   1.5421   1.9392   1.9701
     3.3043   3.3684   3.3817   3.4489   3.4863   3.4985   3.6260   3.6396
     3.7299   3.7829

          k =-0.0760-0.0839 0.0000 ( 17948 PWs)   bands (ev):

   -55.9817 -55.9806 -55.9741 -55.9650 -55.8708 -55.8441 -55.8412 -55.8255
   -55.7894 -55.7868 -55.7562 -55.7537 -55.6115 -55.3917 -54.9620 -54.9618
   -32.3497 -32.3411 -32.2965 -32.2957 -32.2768 -32.2759 -32.2598 -32.2508
   -32.2044 -32.1927 -32.1865 -32.1838 -32.1460 -32.1301 -32.1284 -32.1191
   -32.1086 -32.1012 -32.1010 -32.1000 -32.0944 -32.0916 -32.0708 -32.0609
   -32.0418 -32.0388 -32.0294 -32.0124 -31.9893 -31.9884 -31.9869 -31.9851
   -31.9705 -31.9691 -31.9661 -31.9621 -31.9335 -31.8571 -31.8317 -31.6811
   -31.6693 -31.5728 -31.2877 -31.2877 -31.1990 -31.1989 -31.1595 -31.1595
   -16.1761 -16.1567 -15.9490 -15.9123 -15.9093 -15.9001 -15.7884 -15.7033
   -15.6934 -15.6927 -15.6102 -15.5980 -15.5818 -15.5376 -15.5334 -15.5241
   -15.5145 -15.5025 -15.4593 -15.4543 -15.4354 -15.4279 -15.3460 -15.3156
   -15.3119 -15.2735 -15.1414 -15.0100 -14.8615 -13.4676 -13.4674 -13.0046
   -12.9655  -9.1188  -3.4681  -3.4425  -3.1923  -3.1561  -3.1468  -3.1217
    -3.0827  -3.0591  -2.9722  -2.9390  -2.9223  -2.8960  -2.8812  -2.8765
    -2.8402  -2.8279  -2.8180  -2.8061  -2.7879  -2.7536  -2.7447  -2.7123
    -2.7014  -2.6813  -2.6680  -2.6525  -2.6279  -2.6152  -2.6089  -2.5778
    -2.5636  -2.5467  -2.5261  -2.5032  -2.4201  -2.2309  -2.2012  -2.1364
    -2.1273  -2.0968  -2.0854  -2.0619  -2.0475  -2.0290  -1.9822  -1.8292
    -1.7272  -1.7010  -1.6732  -1.5980  -1.5772  -1.5293  -1.4154  -1.3807
    -1.3533  -1.3274  -1.2774  -1.2263  -1.2089  -1.1859  -1.1170  -1.1034
    -1.0257  -0.9823  -0.9598  -0.9554  -0.8905  -0.8476  -0.7656  -0.7603
    -0.7163  -0.6807  -0.6332  -0.5930  -0.5882  -0.5012  -0.4756  -0.3590
    -0.3043  -0.0446   0.0051   0.0563   0.0826   0.1414   0.1918   0.2066
     0.3156   0.3199   0.3564   0.4002   0.4409   0.5284   0.5476   0.5825
     0.7286   1.3027   1.4058   1.4064   1.4797   1.4801   1.9425   1.9684
     3.4237   3.4391   3.4695   3.5019   3.6433   3.6471   3.6685   3.6703
     3.7965   3.8105

     the Fermi energy is     3.1365 ev

!    total energy              =   -2946.58251583 Ry
     estimated scf accuracy    <       0.00000005 Ry
     smearing contrib. (-TS)   =      -0.02178938 Ry
     internal energy E=F+TS    =   -2946.56072645 Ry

     The total energy is F=E-TS. E is the sum of the following terms:
     one-electron contribution =  -22199.63596468 Ry
     hartree contribution      =   11188.81657471 Ry
     xc contribution           =    -489.84747707 Ry
     ewald contribution        =    8554.10595425 Ry
     electric field correction =       0.00018635 Ry

     convergence has been achieved in  65 iterations

     Forces acting on atoms (cartesian axes, Ry/au):

     atom    1 type  1   force =     0.00012955   -0.00025752    0.09668920
     atom    2 type  1   force =    -0.00013996   -0.00055169   -0.17510809
     atom    3 type  2   force =    -0.00000106   -0.00002855   -0.02502162
     atom    4 type  2   force =     0.00007586   -0.00144084    0.05270405
     atom    5 type  2   force =    -0.01209516   -0.00083753    0.00339678
     atom    6 type  2   force =     0.01401061   -0.00015333    0.00290442
     atom    7 type  1   force =    -0.00082398    0.00069358   -0.01134401
     atom    8 type  1   force =     0.00025745    0.01149166    0.02860093
     atom    9 type  2   force =    -0.00010228    0.00008721   -0.00002842
     atom   10 type  2   force =    -0.00084994    0.00077119   -0.01662390
     atom   11 type  2   force =    -0.00031224    0.00010516    0.00003112
     atom   12 type  2   force =     0.00000259    0.00021366    0.00005060
     atom   13 type  1   force =    -0.00011804   -0.00019968    0.00009896
     atom   14 type  1   force =    -0.00021894    0.00000915   -0.00003617
     atom   15 type  2   force =    -0.00003155    0.00004923   -0.00010033
     atom   16 type  2   force =    -0.00012310   -0.00004058    0.00002259
     atom   17 type  2   force =    -0.00002666   -0.00015563   -0.00001523
     atom   18 type  2   force =    -0.00020079   -0.00017342   -0.00001971
     atom   19 type  1   force =     0.00000584   -0.00020547    0.00014840
     atom   20 type  1   force =     0.00009945   -0.00036573   -0.00004615
     atom   21 type  2   force =     0.00006523    0.00001015    0.10294469
     atom   22 type  2   force =    -0.00010958   -0.00008361   -0.00041280
     atom   23 type  2   force =    -0.07141182   -0.00010214   -0.02772158
     atom   24 type  2   force =     0.07137098    0.00030458   -0.02775509
     atom   25 type  1   force =     0.00001092   -0.00030491    0.09646450
     atom   26 type  1   force =    -0.00018065   -0.00027005   -0.17528945
     atom   27 type  2   force =     0.00009485   -0.00019955   -0.02392348
     atom   28 type  2   force =     0.00011504   -0.00119994    0.05274175
     atom   29 type  2   force =    -0.01212802    0.00045500    0.00287709
     atom   30 type  2   force =     0.01396227    0.00080030    0.00242415
     atom   31 type  1   force =    -0.00076539    0.00311583   -0.01226400
     atom   32 type  1   force =     0.00027191   -0.01311474    0.02917797
     atom   33 type  2   force =    -0.00009730   -0.00003105    0.00002782
     atom   34 type  2   force =    -0.00028720    0.00077303   -0.02207045
     atom   35 type  2   force =    -0.00016575    0.00007559   -0.00004060
     atom   36 type  2   force =    -0.00009493    0.00019693   -0.00003049
     atom   37 type  1   force =    -0.00001964   -0.00031572   -0.00017122
     atom   38 type  1   force =     0.00002509    0.00000420    0.00001424
     atom   39 type  2   force =    -0.00008115    0.00013709    0.00028363
     atom   40 type  2   force =    -0.00013435   -0.00001300   -0.00006654
     atom   41 type  2   force =     0.00001259   -0.00021489    0.00001314
     atom   42 type  2   force =    -0.00020513   -0.00022213    0.00018045
     atom   43 type  1   force =     0.00031652   -0.00016200   -0.00016844
     atom   44 type  1   force =     0.00018328   -0.00026867    0.00019492
     atom   45 type  2   force =     0.00006369   -0.00007110    0.10293404
     atom   46 type  2   force =    -0.07142354   -0.00009010   -0.02773182
     atom   47 type  2   force =     0.07138212    0.00036786   -0.02774012
     atom   48 type  3   force =    -0.00018049    0.00038153    0.00003522
     atom   49 type  4   force =    -0.00008724    0.00042633    0.00021383
     atom   50 type  4   force =    -0.00007718    0.00012316    0.00005670
     atom   51 type  4   force =     0.00008757    0.00029545    0.00038902
     atom   52 type  5   force =    -0.00171253    0.00042960    0.00200087
     atom   53 type  4   force =     0.00143111    0.00105787   -0.00140323
     atom   54 type  4   force =    -0.00050299   -0.00027506   -0.00151399
     atom   55 type  4   force =     0.00054571   -0.00116642    0.00005022
     atom   56 type  5   force =     0.00065485    0.00036654   -0.00063785
     atom   57 type  4   force =     0.00006594   -0.00033342    0.00032466
     atom   58 type  4   force =    -0.00050114   -0.00000430   -0.00059589
     atom   59 type  4   force =    -0.00003127    0.00011088   -0.00011528

     Total force =     0.367746     Total SCF correction =     0.000410
  @ DRIVER MODE: Message from server: STATUS
  @ DRIVER MODE: Message from server: GETFORCE
  @ DRIVER MODE: Returning v,forces,stress,ensemble 

     Writing output data file ./calc.save/
  @ DRIVER MODE: Message from server: EXIT
  @ DRIVE MODE: Exiting  
 
     init_run     :      7.62s CPU      7.75s WALL (       1 calls)
     electrons    :    845.42s CPU    854.58s WALL (       1 calls)
     forces       :      6.22s CPU      6.28s WALL (       1 calls)

     Called by init_run:
     wfcinit      :      3.39s CPU      3.43s WALL (       1 calls)
     potinit      :      3.74s CPU      3.78s WALL (       1 calls)
     hinit0       :      0.21s CPU      0.22s WALL (       1 calls)

     Called by electrons:
     c_bands      :    735.93s CPU    740.09s WALL (      65 calls)
     sum_band     :     78.16s CPU     80.31s WALL (      65 calls)
     v_of_rho     :     23.31s CPU     23.92s WALL (      66 calls)
     newd         :      9.66s CPU     11.81s WALL (      66 calls)
     mix_rho      :      1.32s CPU      1.35s WALL (      65 calls)
     vdW_kernel   :      3.12s CPU      3.13s WALL (       1 calls)

     Called by c_bands:
     init_us_2    :      4.28s CPU      4.31s WALL (    1320 calls)
     cegterg      :    723.92s CPU    727.84s WALL (     660 calls)

     Called by *egterg:
     cdiaghg      :    171.09s CPU    171.69s WALL (    6748 calls)
     h_psi        :    341.36s CPU    344.04s WALL (    6758 calls)
     s_psi        :     42.60s CPU     42.74s WALL (    6758 calls)
     g_psi        :      1.09s CPU      1.09s WALL (    6088 calls)

     Called by h_psi:
     h_psi:calbec :     44.55s CPU     44.74s WALL (    6758 calls)
     vloc_psi     :    251.85s CPU    254.20s WALL (    6758 calls)
     add_vuspsi   :     42.72s CPU     42.87s WALL (    6758 calls)

     General routines
     calbec       :     63.08s CPU     63.32s WALL (    7448 calls)
     fft          :     11.37s CPU     11.48s WALL (    4158 calls)
     ffts         :      0.10s CPU      0.10s WALL (     131 calls)
     fftw         :    286.49s CPU    289.10s WALL (  915312 calls)
     interpolate  :      0.28s CPU      0.28s WALL (      66 calls)
     davcio       :      0.00s CPU      0.18s WALL (      10 calls)
 
     Parallel routines
 
     PWSCF        :  14m20.65s CPU  14m30.31s WALL

 
   This run was terminated on:  19:18:45   3Aug2021            

=------------------------------------------------------------------------------=
   JOB DONE.
=------------------------------------------------------------------------------=
