
     Program PWSCF v.6.7GPU starts on 14Sep2021 at 16:25:45 

     This program is part of the open-source Quantum ESPRESSO suite
     for quantum simulation of materials; please cite
         "P. Giannozzi et al., J. Phys.:Condens. Matter 21 395502 (2009);
         "P. Giannozzi et al., J. Phys.:Condens. Matter 29 465901 (2017);
         "P. Giannozzi et al., J. Chem. Phys. 152 154105 (2020);
          URL http://www.quantum-espresso.org", 
     in publications or presentations arising from this work. More details at
     http://www.quantum-espresso.org/quote

     Parallel version (MPI), running on    10 processors

     MPI processes distributed on     1 nodes
     R & G space division:  proc/nbgrp/npool/nimage =      10
     Reading input from /storage/home/hcoda1/3/ntian30/research/carbon/CxH_vib/CH2_calc/ads_slab/CH2OHN2_a/out_0008/pw.inp
Warning: card &CELL ignored
Warning: card   CELL_DYNAMICS='IPI', ignored
Warning: card / ignored

     Current dimensions of program PWSCF are:
     Max number of different atomic species (ntypx) = 10
     Max number of k-points (npk) =  40000
     Max angular momentum in pseudopotentials (lmaxx) =  3
     Presently no symmetry can be used with electric field

     Message from routine cell_base_init:
     DEPRECATED: use true lattice parameter, not A to a.u. conversion factor

     **************************************************************************
     Initializing libbeef V0.1.2 with the BEEF-vdW functional.
     Citation: Wellendorff et al., PRB 85, 235149 (2012).
     **************************************************************************


     IMPORTANT: XC functional enforced from input :
     Exchange-correlation= BEEF-VDW
                           (   1   4  43  14   2   0   0)
     Any further DFT definition will be discarded
     Please, verify this is what you really want


     Subspace diagonalization in iterative solution of the eigenvalue problem:
     one sub-group per band group will be used
     scalapack distributed-memory algorithm (size of sub-group:  3*  3 procs)

  @ DRIVER MODE: Connecting to 
 qe_1139763_2840440.sched-torque.pace.gatech.edumqyvwhbm_scratch
  using UNIX socket
  @ DRIVER MODE: Message from server: STATUS
  @ DRIVER MODE: Message from server: INIT
  @ DRIVER MODE: Receiving replica           0          -1
  @ DRIVER MODE: Receiving encoded integer          25
  @ DRIVER MODE:  SCF:  T  FORCE:  T  STRESS:  F  VC:  F  ENSEMBLE:  F
  @ DRIVER MODE:  SCF:  T  FORCE:  T  STRESS:  F  VC:  F  ENSEMBLE:  F
 
     Parallelization info
     --------------------
     sticks:   dense  smooth     PW     G-vecs:    dense   smooth      PW
     Min         327     131     37                56683    14340    2191
     Max         328     133     38                56694    14346    2206
     Sum        3275    1317    379               566857   143421   21985
 
     Using Slab Decomposition
 


     bravais-lattice index     =            0
     lattice parameter (alat)  =       1.8897  a.u.
     unit-cell volume          =    6658.9804 (a.u.)^3
     number of atoms/cell      =           54
     number of atomic types    =            5
     number of electrons       =       401.00
     number of Kohn-Sham states=          210
     kinetic-energy cutoff     =      29.3995  Ry
     charge density cutoff     =     293.9946  Ry
     scf convergence threshold =      7.3E-08
     mixing beta               =       0.0500
     number of iterations used =            8  plain     mixing
     Exchange-correlation= BEEF-VDW
                           (   1   4  43  14   2   0   0)

     celldm(1)=   1.889726  celldm(2)=   0.000000  celldm(3)=   0.000000
     celldm(4)=   0.000000  celldm(5)=   0.000000  celldm(6)=   0.000000

     crystal axes: (cart. coord. in units of alat)
               a(1) = (   6.579727   0.000000   0.000000 )  
               a(2) = (  -0.000775   5.961596   0.000000 )  
               a(3) = (   0.000000   0.000000  25.155947 )  

     reciprocal axes: (cart. coord. in units 2 pi/alat)
               b(1) = (  0.151982  0.000020  0.000000 )  
               b(2) = (  0.000000  0.167740  0.000000 )  
               b(3) = (  0.000000  0.000000  0.039752 )  


     PseudoPot. # 1 for C  read from file:
     /storage/coda1/p-amedford6/0/shared/rich_project_chbe-medford/medford-share/data/pseudos_module/espresso/nninc/pbe/van/C.UPF
     MD5 check sum: 1a69bf6b8db32088f5b2163dbdb77a27
     Pseudo is Ultrasoft, Zval =  4.0
     Generated by new atomic code, or converted to UPF format
     Using radial grid of  721 points,  4 beta functions with: 
                l(1) =   0
                l(2) =   0
                l(3) =   1
                l(4) =   1
     Q(r) pseudized with  8 coefficients,  rinner =    0.800   0.800   0.800


     PseudoPot. # 2 for H  read from file:
     /storage/coda1/p-amedford6/0/shared/rich_project_chbe-medford/medford-share/data/pseudos_module/espresso/nninc/pbe/van/H.UPF
     MD5 check sum: b5ee9d7bfd3a09ee7748110bda690ff7
     Pseudo is Ultrasoft, Zval =  1.0
     Generated by new atomic code, or converted to UPF format
     Using radial grid of  615 points,  1 beta functions with: 
                l(1) =   0
     Q(r) pseudized with  8 coefficients,  rinner =    0.800

     PseudoPot. # 3 for O  read from file:
     /storage/coda1/p-amedford6/0/shared/rich_project_chbe-medford/medford-share/data/pseudos_module/espresso/nninc/pbe/van/O.UPF
     MD5 check sum: 78c19812648e8988a0fe644b0f25305e
     Pseudo is Ultrasoft, Zval =  6.0
     Generated by new atomic code, or converted to UPF format
     Using radial grid of  737 points,  4 beta functions with: 
                l(1) =   0
                l(2) =   0
                l(3) =   1
                l(4) =   1
     Q(r) pseudized with  8 coefficients,  rinner =    0.800   0.800   0.800


     PseudoPot. # 4 for Ti read from file:
     /storage/coda1/p-amedford6/0/shared/rich_project_chbe-medford/medford-share/data/pseudos_module/espresso/nninc/pbe/van/Ti.UPF
     MD5 check sum: 8e4df49b7f0d34bbd5052bf3f5ea0213
     Pseudo is Ultrasoft, Zval = 12.0
     Generated by new atomic code, or converted to UPF format
     Using radial grid of  851 points,  6 beta functions with: 
                l(1) =   0
                l(2) =   0
                l(3) =   1
                l(4) =   1
                l(5) =   2
                l(6) =   2
     Q(r) pseudized with  8 coefficients,  rinner =    1.000   1.000   1.000
                                                       1.000   1.000

     PseudoPot. # 5 for N  read from file:
     /storage/coda1/p-amedford6/0/shared/rich_project_chbe-medford/medford-share/data/pseudos_module/espresso/nninc/pbe/van/N.UPF
     MD5 check sum: 90d10febe142ad51ac9d5be1deb811c4
     Pseudo is Ultrasoft, Zval =  5.0
     Generated by new atomic code, or converted to UPF format
     Using radial grid of  729 points,  4 beta functions with: 
                l(1) =   0
                l(2) =   0
                l(3) =   1
                l(4) =   1
     Q(r) pseudized with  8 coefficients,  rinner =    0.800   0.800   0.800


     atomic species   valence    mass     pseudopotential
        C1             4.00    12.01100     C ( 1.00)
        H1             1.00     1.00800     H ( 1.00)
        O1             6.00    15.99900     O ( 1.00)
        Ti1           12.00    47.86700     Ti( 1.00)
        N1             5.00    14.00700     N ( 1.00)

     No symmetry found



   Cartesian axes

     site n.     atom                  positions (alat units)
         1           C1  tau(   1) = (   5.1764158   1.5385028  19.8564928  )
         2           H1  tau(   2) = (   4.2418317   1.4168958  19.3325039  )
         3           H1  tau(   3) = (   6.1328006   2.9100337  18.2018079  )
         4           H1  tau(   4) = (   6.0297582   0.9181690  19.6386741  )
         5           O1  tau(   5) = (   0.0006271   0.0005054   7.9858123  )
         6           O1  tau(   6) = (   3.2906025   0.0005020   7.3038282  )
         7           O1  tau(   7) = (   4.5942328   1.4918067   9.2879030  )
         8           O1  tau(   8) = (   1.9868534   1.4903216   9.2879459  )
         9           O1  tau(   9) = (   3.2696825   0.0177092  11.3460806  )
        10           O1  tau(  10) = (   6.5743896   0.0111799  10.6115589  )
        11           O1  tau(  11) = (   1.2770957   1.5070501  12.6511825  )
        12           O1  tau(  12) = (   5.2749141   1.5057152  12.6378801  )
        13           O1  tau(  13) = (   6.5263050   0.0247340  14.7317399  )
        14           O1  tau(  14) = (   3.2747511   0.0213673  13.9312909  )
        15           O1  tau(  15) = (   4.4933390   1.5239927  16.1070736  )
        16           O1  tau(  16) = (   2.0026543   1.5217075  16.0711130  )
        17           O1  tau(  17) = (   3.2904802   0.0005063   4.7018136  )
        18           O1  tau(  18) = (   6.5469758   0.0421337  17.2556835  )
        19           O1  tau(  19) = (   1.3043587   1.4918075   6.0039043  )
        20           O1  tau(  20) = (   5.2767064   1.4903225   6.0039473  )
        21           O1  tau(  21) = (   0.0002396   2.9813036   7.9858123  )
        22           O1  tau(  22) = (   3.2902150   2.9813002   7.3038282  )
        23           O1  tau(  23) = (   4.5938453   4.4726049   9.2879030  )
        24           O1  tau(  24) = (   1.9864658   4.4711199   9.2879459  )
        25           O1  tau(  25) = (   3.2722311   3.0011533  11.3472759  )
        26           O1  tau(  26) = (   6.5787409   2.9955660  10.5677177  )
        27           O1  tau(  27) = (   1.2755865   4.4883074  12.6550720  )
        28           O1  tau(  28) = (   5.2773609   4.4903743  12.6413705  )
        29           O1  tau(  29) = (   6.5451067   2.9841024  14.7029789  )
        30           O1  tau(  30) = (   3.2773495   3.0062142  13.9304278  )
        31           O1  tau(  31) = (   4.4941242   4.5002890  16.1165364  )
        32           O1  tau(  32) = (   2.0016379   4.5015838  16.0818063  )
        33           O1  tau(  33) = (   3.2900926   2.9813045   4.7018136  )
        34           O1  tau(  34) = (   1.3039711   4.4726057   6.0039043  )
        35           O1  tau(  35) = (   5.2763189   4.4711207   6.0039473  )
        36           O1  tau(  36) = (   6.5536212   3.0044252  17.3297899  )
        37           Ti1 tau(  37) = (   0.0004258   2.9801865   6.0000000  )
        38           Ti1 tau(  38) = (   3.2906075   1.4906267   6.0002472  )
        39           Ti1 tau(  39) = (   3.3348906   3.0327224   9.1579215  )
        40           Ti1 tau(  40) = (   0.0203972   1.6099837   9.3624797  )
        41           Ti1 tau(  41) = (   6.5380572   3.0081639  12.8251979  )
        42           Ti1 tau(  42) = (   3.2225065   1.5141752  12.4854623  )
        43           Ti1 tau(  43) = (   3.2525775   3.0161725  15.7233172  )
        44           Ti1 tau(  44) = (   6.5465844   1.4469101  15.9770741  )
        45           Ti1 tau(  45) = (   0.0000382   5.9609847   6.0000000  )
        46           Ti1 tau(  46) = (   3.2902200   4.4714249   6.0002472  )
        47           Ti1 tau(  47) = (   3.2831171   0.0558662   9.1532617  )
        48           Ti1 tau(  48) = (   0.0294011   4.5318189   9.2743274  )
        49           Ti1 tau(  49) = (   6.5260019   0.0223579  12.5245727  )
        50           Ti1 tau(  50) = (   3.2207252   4.4944464  12.4919313  )
        51           Ti1 tau(  51) = (   3.2545639   0.0336594  15.7221480  )
        52           Ti1 tau(  52) = (   6.5427997   4.6104004  16.1309301  )
        53           N1  tau(  53) = (   5.0796009   2.6163306  22.0446247  )
        54           N1  tau(  54) = (   5.1188049   2.0915644  21.0330699  )

     number of k points=    10  Fermi-Dirac smearing, width (Ry)=  0.0073
                       cart. coord. in units 2pi/alat
        k(    1) = (   0.0000000   0.0000000   0.0000000), wk =   0.1250000
        k(    2) = (   0.0000000   0.0419351   0.0000000), wk =   0.2500000
        k(    3) = (   0.0000000  -0.0838702   0.0000000), wk =   0.1250000
        k(    4) = (   0.0379955   0.0000049   0.0000000), wk =   0.2500000
        k(    5) = (   0.0379955   0.0419400   0.0000000), wk =   0.2500000
        k(    6) = (   0.0379955  -0.0838652   0.0000000), wk =   0.2500000
        k(    7) = (   0.0379955  -0.0419301   0.0000000), wk =   0.2500000
        k(    8) = (  -0.0759910  -0.0000099   0.0000000), wk =   0.1250000
        k(    9) = (  -0.0759910   0.0419252   0.0000000), wk =   0.2500000
        k(   10) = (  -0.0759910  -0.0838800   0.0000000), wk =   0.1250000

     Dense  grid:   566857 G-vectors     FFT dimensions: (  72,  64, 270)

     Smooth grid:   143421 G-vectors     FFT dimensions: (  45,  40, 180)

     Estimated max dynamical RAM per process >     367.12 MB

     Estimated total dynamical RAM >       3.59 GB
     Cannot read rho : file not found

     Initial potential from superposition of free atoms

     starting charge  384.99916, renormalised to  401.00000

     negative rho (up, down):  1.196E-02 0.000E+00


     %%%%%%%%%%%%%%%%%%%%%%%%%%%%%%%%%%%%%%%%%%%%%%%%%%%%%%%%%%%%%%%%%%%%%%%%
     %                                                                      %
     % You are using vdW-DF, which was implemented by the Thonhauser group. %
     % Please cite the following two papers that made this development      %
     % possible and the two reviews that describe the various versions:     %
     %                                                                      %
     %   T. Thonhauser et al., PRL 115, 136402 (2015).                      %
     %   T. Thonhauser et al., PRB 76, 125112 (2007).                       %
     %   K. Berland et al., Rep. Prog. Phys. 78, 066501 (2015).             %
     %   D.C. Langreth et al., J. Phys.: Condens. Matter 21, 084203 (2009). %
     %                                                                      %
     %                                                                      %
     % If you are calculating the stress with vdW-DF, please also cite:     %
     %                                                                      %
     %   R. Sabatini et al., J. Phys.: Condens. Matter 24, 424209 (2012).   %
     %                                                                      %
     %%%%%%%%%%%%%%%%%%%%%%%%%%%%%%%%%%%%%%%%%%%%%%%%%%%%%%%%%%%%%%%%%%%%%%%%


 
     Adding external electric field

     Computed dipole along edir(3) : 
        Dipole              -14.0962 Ry au,        -35.8290 Debye
        Dipole field         -0.0266 Ry au, 
 
        Potential amp.        2.4659 Ry
        Total length         46.3494 bohr
 
     Starting wfcs are  303 atomic wfcs
  @ DRIVER MODE: Message from server: STATUS
  @ DRIVER MODE: Message from server: POSDATA
  @ DRIVER MODE: Reading and sharing cell 
  @ DRIVER MODE: Reading and sharing positions 
  @ DRIVER MODE: Received positions 

     total cpu time spent up to now is       11.4 secs

     Self-consistent Calculation

     iteration #  1     ecut=    29.40 Ry     beta= 0.05
     Davidson diagonalization with overlap
     c_bands:  5 eigenvalues not converged
     c_bands:  4 eigenvalues not converged
     c_bands:  5 eigenvalues not converged
     c_bands:  2 eigenvalues not converged
     c_bands:  4 eigenvalues not converged
     c_bands:  4 eigenvalues not converged
     c_bands:  4 eigenvalues not converged
     c_bands:  4 eigenvalues not converged
     c_bands:  5 eigenvalues not converged
     ethr =  1.00E-05,  avg # of iterations = 22.0

     negative rho (up, down):  9.146E-03 0.000E+00
 
     Adding external electric field

     Computed dipole along edir(3) : 
        Dipole               51.5466 Ry au,        131.0185 Debye
        Dipole field          0.0973 Ry au, 
 
        Potential amp.       -9.0173 Ry
        Total length         46.3494 bohr
 

     total cpu time spent up to now is       54.7 secs

     total energy              =   -2410.43006356 Ry
     estimated scf accuracy    <    6378.96911591 Ry

     iteration #  2     ecut=    29.40 Ry     beta= 0.05
     Davidson diagonalization with overlap
     ethr =  1.00E-02,  avg # of iterations = 23.8

     negative rho (up, down):  9.288E-04 0.000E+00
 
     Adding external electric field

     Computed dipole along edir(3) : 
        Dipole               -2.9337 Ry au,         -7.4566 Debye
        Dipole field         -0.0055 Ry au, 
 
        Potential amp.        0.5132 Ry
        Total length         46.3494 bohr
 

     total cpu time spent up to now is      137.2 secs

     total energy              =   -2422.34742588 Ry
     estimated scf accuracy    <   76718.51386587 Ry

     iteration #  3     ecut=    29.40 Ry     beta= 0.05
     Davidson diagonalization with overlap
     c_bands:  1 eigenvalues not converged
     c_bands:  1 eigenvalues not converged
     ethr =  1.00E-02,  avg # of iterations = 18.4

     negative rho (up, down):  9.882E-04 0.000E+00
 
     Adding external electric field

     Computed dipole along edir(3) : 
        Dipole               -5.0005 Ry au,        -12.7100 Debye
        Dipole field         -0.0094 Ry au, 
 
        Potential amp.        0.8748 Ry
        Total length         46.3494 bohr
 

     total cpu time spent up to now is      187.6 secs

     total energy              =   -2965.15891459 Ry
     estimated scf accuracy    <    5524.82507269 Ry

     iteration #  4     ecut=    29.40 Ry     beta= 0.05
     Davidson diagonalization with overlap
     ethr =  1.00E-02,  avg # of iterations = 11.5

     negative rho (up, down):  1.005E-03 0.000E+00
 
     Adding external electric field

     Computed dipole along edir(3) : 
        Dipole               -6.0615 Ry au,        -15.4068 Debye
        Dipole field         -0.0114 Ry au, 
 
        Potential amp.        1.0604 Ry
        Total length         46.3494 bohr
 

     total cpu time spent up to now is      207.3 secs

     total energy              =   -2963.63260602 Ry
     estimated scf accuracy    <    1980.32524745 Ry

     iteration #  5     ecut=    29.40 Ry     beta= 0.05
     Davidson diagonalization with overlap
     c_bands:  5 eigenvalues not converged
     ethr =  1.00E-02,  avg # of iterations =  5.6

     negative rho (up, down):  1.036E-03 0.000E+00
 
     Adding external electric field

     Computed dipole along edir(3) : 
        Dipole               -6.5675 Ry au,        -16.6930 Debye
        Dipole field         -0.0124 Ry au, 
 
        Potential amp.        1.1489 Ry
        Total length         46.3494 bohr
 

     total cpu time spent up to now is      219.3 secs

     total energy              =   -2950.52084298 Ry
     estimated scf accuracy    <    1298.76724114 Ry

     iteration #  6     ecut=    29.40 Ry     beta= 0.05
     Davidson diagonalization with overlap
     ethr =  1.00E-02,  avg # of iterations = 12.3

     negative rho (up, down):  1.013E-03 0.000E+00
 
     Adding external electric field

     Computed dipole along edir(3) : 
        Dipole               -5.6031 Ry au,        -14.2417 Debye
        Dipole field         -0.0106 Ry au, 
 
        Potential amp.        0.9802 Ry
        Total length         46.3494 bohr
 

     total cpu time spent up to now is      240.1 secs

     total energy              =   -2974.24653117 Ry
     estimated scf accuracy    <      38.41862996 Ry

     iteration #  7     ecut=    29.40 Ry     beta= 0.05
     Davidson diagonalization with overlap
     ethr =  9.58E-03,  avg # of iterations =  1.5

     negative rho (up, down):  1.024E-03 0.000E+00
 
     Adding external electric field

     Computed dipole along edir(3) : 
        Dipole               -4.0620 Ry au,        -10.3246 Debye
        Dipole field         -0.0077 Ry au, 
 
        Potential amp.        0.7106 Ry
        Total length         46.3494 bohr
 

     total cpu time spent up to now is      250.1 secs

     total energy              =   -2974.54296923 Ry
     estimated scf accuracy    <      28.75745457 Ry

     iteration #  8     ecut=    29.40 Ry     beta= 0.05
     Davidson diagonalization with overlap
     ethr =  7.17E-03,  avg # of iterations =  3.1

     negative rho (up, down):  1.046E-03 0.000E+00
 
     Adding external electric field

     Computed dipole along edir(3) : 
        Dipole               -1.8697 Ry au,         -4.7522 Debye
        Dipole field         -0.0035 Ry au, 
 
        Potential amp.        0.3271 Ry
        Total length         46.3494 bohr
 

     total cpu time spent up to now is      260.9 secs

     total energy              =   -2975.45754094 Ry
     estimated scf accuracy    <      28.89136000 Ry

     iteration #  9     ecut=    29.40 Ry     beta= 0.05
     Davidson diagonalization with overlap
     ethr =  7.17E-03,  avg # of iterations =  2.3

     negative rho (up, down):  1.078E-03 0.000E+00
 
     Adding external electric field

     Computed dipole along edir(3) : 
        Dipole               -1.2438 Ry au,         -3.1614 Debye
        Dipole field         -0.0023 Ry au, 
 
        Potential amp.        0.2176 Ry
        Total length         46.3494 bohr
 

     total cpu time spent up to now is      271.6 secs

     total energy              =   -2984.22834313 Ry
     estimated scf accuracy    <     564.46685258 Ry

     iteration # 10     ecut=    29.40 Ry     beta= 0.05
     Davidson diagonalization with overlap
     c_bands:  2 eigenvalues not converged
     ethr =  7.17E-03,  avg # of iterations =  3.6

     negative rho (up, down):  1.244E-03 0.000E+00
 
     Adding external electric field

     Computed dipole along edir(3) : 
        Dipole               -2.6382 Ry au,         -6.7055 Debye
        Dipole field         -0.0050 Ry au, 
 
        Potential amp.        0.4615 Ry
        Total length         46.3494 bohr
 

     total cpu time spent up to now is      282.4 secs

     total energy              =   -2963.60762722 Ry
     estimated scf accuracy    <     643.75779187 Ry

     iteration # 11     ecut=    29.40 Ry     beta= 0.05
     Davidson diagonalization with overlap
     ethr =  7.17E-03,  avg # of iterations =  4.4

     negative rho (up, down):  1.333E-03 0.000E+00
 
     Adding external electric field

     Computed dipole along edir(3) : 
        Dipole               -1.1042 Ry au,         -2.8066 Debye
        Dipole field         -0.0021 Ry au, 
 
        Potential amp.        0.1932 Ry
        Total length         46.3494 bohr
 

     total cpu time spent up to now is      294.5 secs

     total energy              =   -2971.75019942 Ry
     estimated scf accuracy    <      39.14558283 Ry

     iteration # 12     ecut=    29.40 Ry     beta= 0.05
     Davidson diagonalization with overlap
     ethr =  7.17E-03,  avg # of iterations =  1.5

     negative rho (up, down):  1.375E-03 0.000E+00
 
     Adding external electric field

     Computed dipole along edir(3) : 
        Dipole               -2.5475 Ry au,         -6.4752 Debye
        Dipole field         -0.0048 Ry au, 
 
        Potential amp.        0.4457 Ry
        Total length         46.3494 bohr
 

     total cpu time spent up to now is      304.7 secs

     total energy              =   -2966.93889871 Ry
     estimated scf accuracy    <     143.92069654 Ry

     iteration # 13     ecut=    29.40 Ry     beta= 0.05
     Davidson diagonalization with overlap
     c_bands:  1 eigenvalues not converged
     ethr =  7.17E-03,  avg # of iterations =  4.5

     negative rho (up, down):  1.466E-03 0.000E+00
 
     Adding external electric field

     Computed dipole along edir(3) : 
        Dipole               -0.8961 Ry au,         -2.2776 Debye
        Dipole field         -0.0017 Ry au, 
 
        Potential amp.        0.1568 Ry
        Total length         46.3494 bohr
 

     total cpu time spent up to now is      316.2 secs

     total energy              =   -2971.22038259 Ry
     estimated scf accuracy    <       4.49548140 Ry

     iteration # 14     ecut=    29.40 Ry     beta= 0.05
     Davidson diagonalization with overlap
     c_bands:  4 eigenvalues not converged
     ethr =  1.12E-03,  avg # of iterations = 12.0

     negative rho (up, down):  1.435E-03 0.000E+00
 
     Adding external electric field

     Computed dipole along edir(3) : 
        Dipole               -1.2076 Ry au,         -3.0694 Debye
        Dipole field         -0.0023 Ry au, 
 
        Potential amp.        0.2113 Ry
        Total length         46.3494 bohr
 

     total cpu time spent up to now is      333.8 secs

     total energy              =   -2971.66412375 Ry
     estimated scf accuracy    <      13.42880645 Ry

     iteration # 15     ecut=    29.40 Ry     beta= 0.05
     Davidson diagonalization with overlap
     ethr =  1.12E-03,  avg # of iterations =  1.6

     negative rho (up, down):  1.476E-03 0.000E+00
 
     Adding external electric field

     Computed dipole along edir(3) : 
        Dipole               -1.2218 Ry au,         -3.1054 Debye
        Dipole field         -0.0023 Ry au, 
 
        Potential amp.        0.2137 Ry
        Total length         46.3494 bohr
 

     total cpu time spent up to now is      344.1 secs

     total energy              =   -2971.77407866 Ry
     estimated scf accuracy    <       4.19943906 Ry

     iteration # 16     ecut=    29.40 Ry     beta= 0.05
     Davidson diagonalization with overlap
     ethr =  1.05E-03,  avg # of iterations =  1.0

     negative rho (up, down):  1.744E-03 0.000E+00
 
     Adding external electric field

     Computed dipole along edir(3) : 
        Dipole               -1.3235 Ry au,         -3.3639 Debye
        Dipole field         -0.0025 Ry au, 
 
        Potential amp.        0.2315 Ry
        Total length         46.3494 bohr
 

     total cpu time spent up to now is      353.9 secs

     total energy              =   -2971.32294631 Ry
     estimated scf accuracy    <       3.38733216 Ry

     iteration # 17     ecut=    29.40 Ry     beta= 0.05
     Davidson diagonalization with overlap
     c_bands:  2 eigenvalues not converged
     c_bands:  3 eigenvalues not converged
     ethr =  8.45E-04,  avg # of iterations =  8.6

     negative rho (up, down):  1.829E-03 0.000E+00
 
     Adding external electric field

     Computed dipole along edir(3) : 
        Dipole               -1.1415 Ry au,         -2.9014 Debye
        Dipole field         -0.0022 Ry au, 
 
        Potential amp.        0.1997 Ry
        Total length         46.3494 bohr
 

     total cpu time spent up to now is      366.6 secs

     total energy              =   -2971.53173105 Ry
     estimated scf accuracy    <       1.50334616 Ry

     iteration # 18     ecut=    29.40 Ry     beta= 0.05
     Davidson diagonalization with overlap
     c_bands:  2 eigenvalues not converged
     c_bands:  3 eigenvalues not converged
     c_bands:  3 eigenvalues not converged
     ethr =  3.75E-04,  avg # of iterations = 15.9

     negative rho (up, down):  1.808E-03 0.000E+00
 
     Adding external electric field

     Computed dipole along edir(3) : 
        Dipole               -1.0528 Ry au,         -2.6758 Debye
        Dipole field         -0.0020 Ry au, 
 
        Potential amp.        0.1842 Ry
        Total length         46.3494 bohr
 

     total cpu time spent up to now is      384.8 secs

     total energy              =   -2971.62986691 Ry
     estimated scf accuracy    <       1.19739942 Ry

     iteration # 19     ecut=    29.40 Ry     beta= 0.05
     Davidson diagonalization with overlap
     c_bands:  3 eigenvalues not converged
     c_bands:  2 eigenvalues not converged
     ethr =  2.99E-04,  avg # of iterations =  9.8

     negative rho (up, down):  1.866E-03 0.000E+00
 
     Adding external electric field

     Computed dipole along edir(3) : 
        Dipole               -0.5748 Ry au,         -1.4611 Debye
        Dipole field         -0.0011 Ry au, 
 
        Potential amp.        0.1006 Ry
        Total length         46.3494 bohr
 

     total cpu time spent up to now is      397.5 secs

     total energy              =   -2971.57156058 Ry
     estimated scf accuracy    <       1.21350712 Ry

     iteration # 20     ecut=    29.40 Ry     beta= 0.05
     Davidson diagonalization with overlap
     c_bands:  1 eigenvalues not converged
     ethr =  2.99E-04,  avg # of iterations =  6.0

     negative rho (up, down):  2.349E-03 0.000E+00
 
     Adding external electric field

     Computed dipole along edir(3) : 
        Dipole               -0.3754 Ry au,         -0.9541 Debye
        Dipole field         -0.0007 Ry au, 
 
        Potential amp.        0.0657 Ry
        Total length         46.3494 bohr
 

     total cpu time spent up to now is      409.5 secs

     total energy              =   -2971.42885283 Ry
     estimated scf accuracy    <       0.99883185 Ry

     iteration # 21     ecut=    29.40 Ry     beta= 0.05
     Davidson diagonalization with overlap
     c_bands:  2 eigenvalues not converged
     c_bands:  1 eigenvalues not converged
     c_bands:  1 eigenvalues not converged
     c_bands:  1 eigenvalues not converged
     c_bands:  1 eigenvalues not converged
     ethr =  2.49E-04,  avg # of iterations = 15.6

     negative rho (up, down):  2.555E-03 0.000E+00
 
     Adding external electric field

     Computed dipole along edir(3) : 
        Dipole               -0.4722 Ry au,         -1.2001 Debye
        Dipole field         -0.0009 Ry au, 
 
        Potential amp.        0.0826 Ry
        Total length         46.3494 bohr
 

     total cpu time spent up to now is      426.2 secs

     total energy              =   -2971.63105241 Ry
     estimated scf accuracy    <       0.60688194 Ry

     iteration # 22     ecut=    29.40 Ry     beta= 0.05
     Davidson diagonalization with overlap
     c_bands:  3 eigenvalues not converged
     ethr =  1.51E-04,  avg # of iterations = 11.6

     negative rho (up, down):  2.446E-03 0.000E+00
 
     Adding external electric field

     Computed dipole along edir(3) : 
        Dipole               -0.5298 Ry au,         -1.3467 Debye
        Dipole field         -0.0010 Ry au, 
 
        Potential amp.        0.0927 Ry
        Total length         46.3494 bohr
 

     total cpu time spent up to now is      442.4 secs

     total energy              =   -2971.65502472 Ry
     estimated scf accuracy    <       1.84745906 Ry

     iteration # 23     ecut=    29.40 Ry     beta= 0.05
     Davidson diagonalization with overlap
     ethr =  1.51E-04,  avg # of iterations =  4.6

     negative rho (up, down):  2.803E-03 0.000E+00
 
     Adding external electric field

     Computed dipole along edir(3) : 
        Dipole               -0.3995 Ry au,         -1.0155 Debye
        Dipole field         -0.0008 Ry au, 
 
        Potential amp.        0.0699 Ry
        Total length         46.3494 bohr
 

     total cpu time spent up to now is      453.3 secs

     total energy              =   -2971.60927864 Ry
     estimated scf accuracy    <       1.13550506 Ry

     iteration # 24     ecut=    29.40 Ry     beta= 0.05
     Davidson diagonalization with overlap
     c_bands:  4 eigenvalues not converged
     ethr =  1.51E-04,  avg # of iterations =  9.3

     negative rho (up, down):  3.403E-03 0.000E+00
 
     Adding external electric field

     Computed dipole along edir(3) : 
        Dipole               -0.1648 Ry au,         -0.4188 Debye
        Dipole field         -0.0003 Ry au, 
 
        Potential amp.        0.0288 Ry
        Total length         46.3494 bohr
 

     total cpu time spent up to now is      466.1 secs

     total energy              =   -2971.59774268 Ry
     estimated scf accuracy    <       0.88353245 Ry

     iteration # 25     ecut=    29.40 Ry     beta= 0.05
     Davidson diagonalization with overlap
     c_bands:  1 eigenvalues not converged
     ethr =  1.51E-04,  avg # of iterations =  8.2

     negative rho (up, down):  3.217E-03 0.000E+00
 
     Adding external electric field

     Computed dipole along edir(3) : 
        Dipole               -0.2268 Ry au,         -0.5765 Debye
        Dipole field         -0.0004 Ry au, 
 
        Potential amp.        0.0397 Ry
        Total length         46.3494 bohr
 

     total cpu time spent up to now is      478.4 secs

     total energy              =   -2971.68818988 Ry
     estimated scf accuracy    <       2.17924641 Ry

     iteration # 26     ecut=    29.40 Ry     beta= 0.05
     Davidson diagonalization with overlap
     ethr =  1.51E-04,  avg # of iterations =  1.7

     negative rho (up, down):  3.470E-03 0.000E+00
 
     Adding external electric field

     Computed dipole along edir(3) : 
        Dipole               -0.2131 Ry au,         -0.5416 Debye
        Dipole field         -0.0004 Ry au, 
 
        Potential amp.        0.0373 Ry
        Total length         46.3494 bohr
 

     total cpu time spent up to now is      488.5 secs

     total energy              =   -2971.72762737 Ry
     estimated scf accuracy    <       5.68002369 Ry

     iteration # 27     ecut=    29.40 Ry     beta= 0.05
     Davidson diagonalization with overlap
     ethr =  1.51E-04,  avg # of iterations =  3.1

     negative rho (up, down):  3.473E-03 0.000E+00
 
     Adding external electric field

     Computed dipole along edir(3) : 
        Dipole               -0.1644 Ry au,         -0.4180 Debye
        Dipole field         -0.0003 Ry au, 
 
        Potential amp.        0.0288 Ry
        Total length         46.3494 bohr
 

     total cpu time spent up to now is      499.1 secs

     total energy              =   -2971.21706060 Ry
     estimated scf accuracy    <      10.02739295 Ry

     iteration # 28     ecut=    29.40 Ry     beta= 0.05
     Davidson diagonalization with overlap
     c_bands:  1 eigenvalues not converged
     c_bands:  1 eigenvalues not converged
     c_bands:  1 eigenvalues not converged
     c_bands:  3 eigenvalues not converged
     c_bands:  1 eigenvalues not converged
     ethr =  1.51E-04,  avg # of iterations = 16.8

     negative rho (up, down):  3.105E-03 0.000E+00
 
     Adding external electric field

     Computed dipole along edir(3) : 
        Dipole               -0.1536 Ry au,         -0.3904 Debye
        Dipole field         -0.0003 Ry au, 
 
        Potential amp.        0.0269 Ry
        Total length         46.3494 bohr
 

     total cpu time spent up to now is      519.8 secs

     total energy              =   -2971.52395138 Ry
     estimated scf accuracy    <       0.52353658 Ry

     iteration # 29     ecut=    29.40 Ry     beta= 0.05
     Davidson diagonalization with overlap
     ethr =  1.31E-04,  avg # of iterations =  4.4

     negative rho (up, down):  3.104E-03 0.000E+00
 
     Adding external electric field

     Computed dipole along edir(3) : 
        Dipole               -0.1431 Ry au,         -0.3636 Debye
        Dipole field         -0.0003 Ry au, 
 
        Potential amp.        0.0250 Ry
        Total length         46.3494 bohr
 

     total cpu time spent up to now is      531.0 secs

     total energy              =   -2971.52051826 Ry
     estimated scf accuracy    <       0.26810812 Ry

     iteration # 30     ecut=    29.40 Ry     beta= 0.05
     Davidson diagonalization with overlap
     ethr =  6.69E-05,  avg # of iterations = 12.6

     negative rho (up, down):  3.378E-03 0.000E+00
 
     Adding external electric field

     Computed dipole along edir(3) : 
        Dipole               -0.0616 Ry au,         -0.1565 Debye
        Dipole field         -0.0001 Ry au, 
 
        Potential amp.        0.0108 Ry
        Total length         46.3494 bohr
 

     total cpu time spent up to now is      545.6 secs

     total energy              =   -2971.52471869 Ry
     estimated scf accuracy    <       0.15274357 Ry

     iteration # 31     ecut=    29.40 Ry     beta= 0.05
     Davidson diagonalization with overlap
     c_bands:  1 eigenvalues not converged
     c_bands:  4 eigenvalues not converged
     c_bands:  1 eigenvalues not converged
     c_bands:  1 eigenvalues not converged
     c_bands:  3 eigenvalues not converged
     c_bands:  1 eigenvalues not converged
     ethr =  3.81E-05,  avg # of iterations = 18.6

     negative rho (up, down):  3.956E-03 0.000E+00
 
     Adding external electric field

     Computed dipole along edir(3) : 
        Dipole                0.0046 Ry au,          0.0117 Debye
        Dipole field          0.0000 Ry au, 
 
        Potential amp.       -0.0008 Ry
        Total length         46.3494 bohr
 

     total cpu time spent up to now is      562.6 secs

     total energy              =   -2971.53620939 Ry
     estimated scf accuracy    <       0.04382620 Ry

     iteration # 32     ecut=    29.40 Ry     beta= 0.05
     Davidson diagonalization with overlap
     c_bands:  2 eigenvalues not converged
     c_bands:  1 eigenvalues not converged
     c_bands:  1 eigenvalues not converged
     ethr =  1.09E-05,  avg # of iterations = 14.7

     negative rho (up, down):  4.634E-03 0.000E+00
 
     Adding external electric field

     Computed dipole along edir(3) : 
        Dipole                0.0474 Ry au,          0.1205 Debye
        Dipole field          0.0001 Ry au, 
 
        Potential amp.       -0.0083 Ry
        Total length         46.3494 bohr
 

     total cpu time spent up to now is      577.6 secs

     total energy              =   -2971.54008136 Ry
     estimated scf accuracy    <       0.04949489 Ry

     iteration # 33     ecut=    29.40 Ry     beta= 0.05
     Davidson diagonalization with overlap
     ethr =  1.09E-05,  avg # of iterations =  1.6

     negative rho (up, down):  6.781E-03 0.000E+00
 
     Adding external electric field

     Computed dipole along edir(3) : 
        Dipole                0.1049 Ry au,          0.2665 Debye
        Dipole field          0.0002 Ry au, 
 
        Potential amp.       -0.0183 Ry
        Total length         46.3494 bohr
 

     total cpu time spent up to now is      587.9 secs

     total energy              =   -2971.53916948 Ry
     estimated scf accuracy    <       0.04149796 Ry

     iteration # 34     ecut=    29.40 Ry     beta= 0.05
     Davidson diagonalization with overlap
     c_bands:  1 eigenvalues not converged
     ethr =  1.03E-05,  avg # of iterations = 13.8

     negative rho (up, down):  6.261E-03 0.000E+00
 
     Adding external electric field

     Computed dipole along edir(3) : 
        Dipole                0.0539 Ry au,          0.1371 Debye
        Dipole field          0.0001 Ry au, 
 
        Potential amp.       -0.0094 Ry
        Total length         46.3494 bohr
 

     total cpu time spent up to now is      602.5 secs

     total energy              =   -2971.53867558 Ry
     estimated scf accuracy    <       0.02740648 Ry

     iteration # 35     ecut=    29.40 Ry     beta= 0.05
     Davidson diagonalization with overlap
     c_bands:  4 eigenvalues not converged
     c_bands:  1 eigenvalues not converged
     ethr =  6.83E-06,  avg # of iterations = 10.3

     negative rho (up, down):  8.144E-03 0.000E+00
 
     Adding external electric field

     Computed dipole along edir(3) : 
        Dipole                0.0368 Ry au,          0.0936 Debye
        Dipole field          0.0001 Ry au, 
 
        Potential amp.       -0.0064 Ry
        Total length         46.3494 bohr
 

     total cpu time spent up to now is      615.6 secs

     total energy              =   -2971.53974574 Ry
     estimated scf accuracy    <       0.04546697 Ry

     iteration # 36     ecut=    29.40 Ry     beta= 0.05
     Davidson diagonalization with overlap
     c_bands:  1 eigenvalues not converged
     c_bands:  1 eigenvalues not converged
     ethr =  6.83E-06,  avg # of iterations = 14.7

     negative rho (up, down):  5.993E-03 0.000E+00
 
     Adding external electric field

     Computed dipole along edir(3) : 
        Dipole                0.0537 Ry au,          0.1365 Debye
        Dipole field          0.0001 Ry au, 
 
        Potential amp.       -0.0094 Ry
        Total length         46.3494 bohr
 

     total cpu time spent up to now is      630.5 secs

     total energy              =   -2971.53837081 Ry
     estimated scf accuracy    <       0.04136466 Ry

     iteration # 37     ecut=    29.40 Ry     beta= 0.05
     Davidson diagonalization with overlap
     ethr =  6.83E-06,  avg # of iterations = 12.7

     negative rho (up, down):  5.670E-03 0.000E+00
 
     Adding external electric field

     Computed dipole along edir(3) : 
        Dipole                0.1669 Ry au,          0.4242 Debye
        Dipole field          0.0003 Ry au, 
 
        Potential amp.       -0.0292 Ry
        Total length         46.3494 bohr
 

     total cpu time spent up to now is      644.4 secs

     total energy              =   -2971.53630198 Ry
     estimated scf accuracy    <       0.01522896 Ry

     iteration # 38     ecut=    29.40 Ry     beta= 0.05
     Davidson diagonalization with overlap
     c_bands:  1 eigenvalues not converged
     ethr =  3.80E-06,  avg # of iterations = 13.8

     negative rho (up, down):  7.224E-03 0.000E+00
 
     Adding external electric field

     Computed dipole along edir(3) : 
        Dipole                0.3348 Ry au,          0.8509 Debye
        Dipole field          0.0006 Ry au, 
 
        Potential amp.       -0.0586 Ry
        Total length         46.3494 bohr
 

     total cpu time spent up to now is      659.5 secs

     total energy              =   -2971.53625145 Ry
     estimated scf accuracy    <       0.01757145 Ry

     iteration # 39     ecut=    29.40 Ry     beta= 0.05
     Davidson diagonalization with overlap
     c_bands:  2 eigenvalues not converged
     c_bands:  1 eigenvalues not converged
     c_bands:  1 eigenvalues not converged
     c_bands:  1 eigenvalues not converged
     ethr =  3.80E-06,  avg # of iterations = 15.9

     negative rho (up, down):  9.843E-03 0.000E+00
 
     Adding external electric field

     Computed dipole along edir(3) : 
        Dipole                0.3448 Ry au,          0.8763 Debye
        Dipole field          0.0007 Ry au, 
 
        Potential amp.       -0.0603 Ry
        Total length         46.3494 bohr
 

     total cpu time spent up to now is      675.4 secs

     total energy              =   -2971.53750618 Ry
     estimated scf accuracy    <       0.00395560 Ry

     iteration # 40     ecut=    29.40 Ry     beta= 0.05
     Davidson diagonalization with overlap
     c_bands:  1 eigenvalues not converged
     c_bands:  1 eigenvalues not converged
     ethr =  9.86E-07,  avg # of iterations = 16.0

     negative rho (up, down):  1.104E-02 0.000E+00
 
     Adding external electric field

     Computed dipole along edir(3) : 
        Dipole                0.3597 Ry au,          0.9144 Debye
        Dipole field          0.0007 Ry au, 
 
        Potential amp.       -0.0629 Ry
        Total length         46.3494 bohr
 

     total cpu time spent up to now is      692.7 secs

     total energy              =   -2971.53765405 Ry
     estimated scf accuracy    <       0.00241243 Ry

     iteration # 41     ecut=    29.40 Ry     beta= 0.05
     Davidson diagonalization with overlap
     ethr =  6.02E-07,  avg # of iterations = 14.1

     negative rho (up, down):  1.137E-02 0.000E+00
 
     Adding external electric field

     Computed dipole along edir(3) : 
        Dipole                0.3874 Ry au,          0.9846 Debye
        Dipole field          0.0007 Ry au, 
 
        Potential amp.       -0.0678 Ry
        Total length         46.3494 bohr
 

     total cpu time spent up to now is      707.7 secs

     total energy              =   -2971.53768780 Ry
     estimated scf accuracy    <       0.00117609 Ry

     iteration # 42     ecut=    29.40 Ry     beta= 0.05
     Davidson diagonalization with overlap
     ethr =  2.93E-07,  avg # of iterations =  7.1

     negative rho (up, down):  1.190E-02 0.000E+00
 
     Adding external electric field

     Computed dipole along edir(3) : 
        Dipole                0.4221 Ry au,          1.0728 Debye
        Dipole field          0.0008 Ry au, 
 
        Potential amp.       -0.0738 Ry
        Total length         46.3494 bohr
 

     total cpu time spent up to now is      720.9 secs

     total energy              =   -2971.53776215 Ry
     estimated scf accuracy    <       0.00055734 Ry

     iteration # 43     ecut=    29.40 Ry     beta= 0.05
     Davidson diagonalization with overlap
     ethr =  1.39E-07,  avg # of iterations = 15.0

     negative rho (up, down):  1.224E-02 0.000E+00
 
     Adding external electric field

     Computed dipole along edir(3) : 
        Dipole                0.4243 Ry au,          1.0784 Debye
        Dipole field          0.0008 Ry au, 
 
        Potential amp.       -0.0742 Ry
        Total length         46.3494 bohr
 

     total cpu time spent up to now is      737.1 secs

     total energy              =   -2971.53783826 Ry
     estimated scf accuracy    <       0.00031319 Ry

     iteration # 44     ecut=    29.40 Ry     beta= 0.05
     Davidson diagonalization with overlap
     ethr =  7.81E-08,  avg # of iterations =  1.6

     negative rho (up, down):  1.306E-02 0.000E+00
 
     Adding external electric field

     Computed dipole along edir(3) : 
        Dipole                0.4170 Ry au,          1.0600 Debye
        Dipole field          0.0008 Ry au, 
 
        Potential amp.       -0.0730 Ry
        Total length         46.3494 bohr
 

     total cpu time spent up to now is      747.4 secs

     total energy              =   -2971.53783731 Ry
     estimated scf accuracy    <       0.00024539 Ry

     iteration # 45     ecut=    29.40 Ry     beta= 0.05
     Davidson diagonalization with overlap
     c_bands:  2 eigenvalues not converged
     c_bands:  1 eigenvalues not converged
     ethr =  6.12E-08,  avg # of iterations = 13.1

     negative rho (up, down):  1.314E-02 0.000E+00
 
     Adding external electric field

     Computed dipole along edir(3) : 
        Dipole                0.4250 Ry au,          1.0802 Debye
        Dipole field          0.0008 Ry au, 
 
        Potential amp.       -0.0743 Ry
        Total length         46.3494 bohr
 

     total cpu time spent up to now is      766.7 secs

     total energy              =   -2971.53788295 Ry
     estimated scf accuracy    <       0.00037233 Ry

     iteration # 46     ecut=    29.40 Ry     beta= 0.05
     Davidson diagonalization with overlap
     ethr =  6.12E-08,  avg # of iterations =  6.7

     negative rho (up, down):  1.307E-02 0.000E+00
 
     Adding external electric field

     Computed dipole along edir(3) : 
        Dipole                0.4386 Ry au,          1.1148 Debye
        Dipole field          0.0008 Ry au, 
 
        Potential amp.       -0.0767 Ry
        Total length         46.3494 bohr
 

     total cpu time spent up to now is      778.9 secs

     total energy              =   -2971.53787153 Ry
     estimated scf accuracy    <       0.00018480 Ry

     iteration # 47     ecut=    29.40 Ry     beta= 0.05
     Davidson diagonalization with overlap
     ethr =  4.61E-08,  avg # of iterations = 13.2

     negative rho (up, down):  1.301E-02 0.000E+00
 
     Adding external electric field

     Computed dipole along edir(3) : 
        Dipole                0.4279 Ry au,          1.0875 Debye
        Dipole field          0.0008 Ry au, 
 
        Potential amp.       -0.0748 Ry
        Total length         46.3494 bohr
 

     total cpu time spent up to now is      797.9 secs

     total energy              =   -2971.53789629 Ry
     estimated scf accuracy    <       0.00009396 Ry

     iteration # 48     ecut=    29.40 Ry     beta= 0.05
     Davidson diagonalization with overlap
     c_bands:  1 eigenvalues not converged
     c_bands:  2 eigenvalues not converged
     ethr =  2.34E-08,  avg # of iterations = 15.9

     negative rho (up, down):  1.316E-02 0.000E+00
 
     Adding external electric field

     Computed dipole along edir(3) : 
        Dipole                0.4390 Ry au,          1.1157 Debye
        Dipole field          0.0008 Ry au, 
 
        Potential amp.       -0.0768 Ry
        Total length         46.3494 bohr
 

     total cpu time spent up to now is      819.6 secs

     total energy              =   -2971.53791649 Ry
     estimated scf accuracy    <       0.00015998 Ry

     iteration # 49     ecut=    29.40 Ry     beta= 0.05
     Davidson diagonalization with overlap
     ethr =  2.34E-08,  avg # of iterations = 10.7

     negative rho (up, down):  1.316E-02 0.000E+00
 
     Adding external electric field

     Computed dipole along edir(3) : 
        Dipole                0.4443 Ry au,          1.1293 Debye
        Dipole field          0.0008 Ry au, 
 
        Potential amp.       -0.0777 Ry
        Total length         46.3494 bohr
 

     total cpu time spent up to now is      835.2 secs

     total energy              =   -2971.53793470 Ry
     estimated scf accuracy    <       0.00002709 Ry

     iteration # 50     ecut=    29.40 Ry     beta= 0.05
     Davidson diagonalization with overlap
     c_bands:  1 eigenvalues not converged
     c_bands:  1 eigenvalues not converged
     ethr =  6.76E-09,  avg # of iterations = 14.7

     negative rho (up, down):  1.328E-02 0.000E+00
 
     Adding external electric field

     Computed dipole along edir(3) : 
        Dipole                0.4435 Ry au,          1.1274 Debye
        Dipole field          0.0008 Ry au, 
 
        Potential amp.       -0.0776 Ry
        Total length         46.3494 bohr
 

     total cpu time spent up to now is      856.7 secs

     total energy              =   -2971.53795219 Ry
     estimated scf accuracy    <       0.00002835 Ry

     iteration # 51     ecut=    29.40 Ry     beta= 0.05
     Davidson diagonalization with overlap
     ethr =  6.76E-09,  avg # of iterations =  8.8

     negative rho (up, down):  1.328E-02 0.000E+00
 
     Adding external electric field

     Computed dipole along edir(3) : 
        Dipole                0.4416 Ry au,          1.1224 Debye
        Dipole field          0.0008 Ry au, 
 
        Potential amp.       -0.0773 Ry
        Total length         46.3494 bohr
 

     total cpu time spent up to now is      870.0 secs

     total energy              =   -2971.53796272 Ry
     estimated scf accuracy    <       0.00000821 Ry

     iteration # 52     ecut=    29.40 Ry     beta= 0.05
     Davidson diagonalization with overlap
     c_bands:  1 eigenvalues not converged
     c_bands:  1 eigenvalues not converged
     ethr =  2.05E-09,  avg # of iterations = 15.4

     negative rho (up, down):  1.331E-02 0.000E+00
 
     Adding external electric field

     Computed dipole along edir(3) : 
        Dipole                0.4460 Ry au,          1.1337 Debye
        Dipole field          0.0008 Ry au, 
 
        Potential amp.       -0.0780 Ry
        Total length         46.3494 bohr
 

     total cpu time spent up to now is      891.7 secs

     total energy              =   -2971.53797155 Ry
     estimated scf accuracy    <       0.00001255 Ry

     iteration # 53     ecut=    29.40 Ry     beta= 0.05
     Davidson diagonalization with overlap
     c_bands:  1 eigenvalues not converged
     c_bands:  2 eigenvalues not converged
     ethr =  2.05E-09,  avg # of iterations = 14.0

     negative rho (up, down):  1.314E-02 0.000E+00
 
     Adding external electric field

     Computed dipole along edir(3) : 
        Dipole                0.4445 Ry au,          1.1298 Debye
        Dipole field          0.0008 Ry au, 
 
        Potential amp.       -0.0778 Ry
        Total length         46.3494 bohr
 

     total cpu time spent up to now is      911.7 secs

     total energy              =   -2971.53798252 Ry
     estimated scf accuracy    <       0.00000490 Ry

     iteration # 54     ecut=    29.40 Ry     beta= 0.05
     Davidson diagonalization with overlap
     ethr =  1.22E-09,  avg # of iterations =  5.3

     negative rho (up, down):  1.310E-02 0.000E+00
 
     Adding external electric field

     Computed dipole along edir(3) : 
        Dipole                0.4430 Ry au,          1.1260 Debye
        Dipole field          0.0008 Ry au, 
 
        Potential amp.       -0.0775 Ry
        Total length         46.3494 bohr
 

     total cpu time spent up to now is      923.3 secs

     total energy              =   -2971.53798926 Ry
     estimated scf accuracy    <       0.00000420 Ry

     iteration # 55     ecut=    29.40 Ry     beta= 0.05
     Davidson diagonalization with overlap
     ethr =  1.05E-09,  avg # of iterations =  9.5

     negative rho (up, down):  1.312E-02 0.000E+00
 
     Adding external electric field

     Computed dipole along edir(3) : 
        Dipole                0.4428 Ry au,          1.1255 Debye
        Dipole field          0.0008 Ry au, 
 
        Potential amp.       -0.0775 Ry
        Total length         46.3494 bohr
 

     total cpu time spent up to now is      937.3 secs

     total energy              =   -2971.53799632 Ry
     estimated scf accuracy    <       0.00000122 Ry

     iteration # 56     ecut=    29.40 Ry     beta= 0.05
     Davidson diagonalization with overlap
     ethr =  3.05E-10,  avg # of iterations =  6.9

     negative rho (up, down):  1.309E-02 0.000E+00
 
     Adding external electric field

     Computed dipole along edir(3) : 
        Dipole                0.4417 Ry au,          1.1228 Debye
        Dipole field          0.0008 Ry au, 
 
        Potential amp.       -0.0773 Ry
        Total length         46.3494 bohr
 

     total cpu time spent up to now is      950.7 secs

     total energy              =   -2971.53800259 Ry
     estimated scf accuracy    <       0.00000065 Ry

     iteration # 57     ecut=    29.40 Ry     beta= 0.05
     Davidson diagonalization with overlap
     c_bands:  2 eigenvalues not converged
     ethr =  1.61E-10,  avg # of iterations =  9.3

     negative rho (up, down):  1.310E-02 0.000E+00
 
     Adding external electric field

     Computed dipole along edir(3) : 
        Dipole                0.4420 Ry au,          1.1234 Debye
        Dipole field          0.0008 Ry au, 
 
        Potential amp.       -0.0773 Ry
        Total length         46.3494 bohr
 

     total cpu time spent up to now is      968.0 secs

     total energy              =   -2971.53800932 Ry
     estimated scf accuracy    <       0.00000051 Ry

     iteration # 58     ecut=    29.40 Ry     beta= 0.05
     Davidson diagonalization with overlap
     ethr =  1.28E-10,  avg # of iterations =  3.3

     negative rho (up, down):  1.309E-02 0.000E+00
 
     Adding external electric field

     Computed dipole along edir(3) : 
        Dipole                0.4419 Ry au,          1.1233 Debye
        Dipole field          0.0008 Ry au, 
 
        Potential amp.       -0.0773 Ry
        Total length         46.3494 bohr
 

     total cpu time spent up to now is      979.0 secs

     total energy              =   -2971.53801430 Ry
     estimated scf accuracy    <       0.00000030 Ry

     iteration # 59     ecut=    29.40 Ry     beta= 0.05
     Davidson diagonalization with overlap
     c_bands:  1 eigenvalues not converged
     c_bands:  4 eigenvalues not converged
     c_bands:  1 eigenvalues not converged
     c_bands:  2 eigenvalues not converged
     ethr =  7.48E-11,  avg # of iterations = 18.1

     negative rho (up, down):  1.309E-02 0.000E+00
 
     Adding external electric field

     Computed dipole along edir(3) : 
        Dipole                0.4411 Ry au,          1.1211 Debye
        Dipole field          0.0008 Ry au, 
 
        Potential amp.       -0.0772 Ry
        Total length         46.3494 bohr
 

     total cpu time spent up to now is     1005.9 secs

     total energy              =   -2971.53801885 Ry
     estimated scf accuracy    <       0.00000172 Ry

     iteration # 60     ecut=    29.40 Ry     beta= 0.05
     Davidson diagonalization with overlap
     c_bands:  1 eigenvalues not converged
     c_bands:  2 eigenvalues not converged
     ethr =  7.48E-11,  avg # of iterations = 16.3

     negative rho (up, down):  1.309E-02 0.000E+00
 
     Adding external electric field

     Computed dipole along edir(3) : 
        Dipole                0.4409 Ry au,          1.1207 Debye
        Dipole field          0.0008 Ry au, 
 
        Potential amp.       -0.0771 Ry
        Total length         46.3494 bohr
 

     total cpu time spent up to now is     1029.0 secs

     total energy              =   -2971.53802306 Ry
     estimated scf accuracy    <       0.00000016 Ry

     iteration # 61     ecut=    29.40 Ry     beta= 0.05
     Davidson diagonalization with overlap
     ethr =  4.08E-11,  avg # of iterations = 12.1

     negative rho (up, down):  1.325E-02 0.000E+00
 
     Adding external electric field

     Computed dipole along edir(3) : 
        Dipole                0.4410 Ry au,          1.1209 Debye
        Dipole field          0.0008 Ry au, 
 
        Potential amp.       -0.0771 Ry
        Total length         46.3494 bohr
 

     total cpu time spent up to now is     1043.3 secs

     End of self-consistent calculation

          k = 0.0000 0.0000 0.0000 ( 18029 PWs)   bands (ev):

   -55.7651 -55.7523 -55.7280 -55.7161 -55.6726 -55.6518 -55.6259 -55.5897
   -55.5895 -55.5797 -55.5383 -55.5149 -55.4813 -55.4151 -54.7756 -54.7415
   -32.3166 -32.2322 -32.1988 -32.1114 -32.0842 -32.0665 -32.0569 -32.0335
   -31.9946 -31.9904 -31.9755 -31.9673 -31.9620 -31.9333 -31.9254 -31.9218
   -31.9177 -31.8965 -31.8887 -31.8617 -31.8543 -31.8305 -31.8302 -31.8241
   -31.8050 -31.8009 -31.7825 -31.7759 -31.7711 -31.7689 -31.7616 -31.7541
   -31.7406 -31.7391 -31.7339 -31.6953 -31.6944 -31.6598 -31.6372 -31.6211
   -31.6038 -31.6009 -31.1852 -31.0884 -31.0660 -31.0019 -30.9159 -30.8047
   -20.7438 -16.9996 -16.4997 -16.2063 -16.0394 -15.9123 -15.8829 -15.7825
   -15.5919 -15.4569 -15.4400 -15.3663 -15.3316 -15.3261 -15.2942 -15.2843
   -15.2775 -15.2679 -15.2205 -15.1902 -15.1802 -15.1656 -15.1394 -15.0882
   -15.0406 -14.9680 -14.9189 -14.8810 -14.8603 -14.7623 -14.7433 -13.9465
   -13.2761 -13.1579  -6.5498  -5.5908  -4.9824  -4.5210  -3.8628  -3.6866
    -3.6702  -3.6519  -3.5690  -3.5146  -3.3256  -3.3103  -3.0090  -2.9344
    -2.9113  -2.8946  -2.8864  -2.7086  -2.6477  -2.5998  -2.5904  -2.5747
    -2.5721  -2.5486  -2.5289  -2.5181  -2.4901  -2.4693  -2.4608  -2.3229
    -2.2944  -2.1760  -2.1571  -2.1410  -2.0886  -2.0643  -2.0299  -2.0101
    -2.0040  -1.9853  -1.9656  -1.9303  -1.8452  -1.8206  -1.6963  -1.5911
    -1.5545  -1.4608  -1.3138  -1.2404  -1.2206  -1.1920  -1.1639  -1.1447
    -1.1020  -1.0766  -1.0244  -0.9622  -0.9558  -0.8525  -0.7790  -0.7417
    -0.6654  -0.6430  -0.6256  -0.5054  -0.4847  -0.4772  -0.3019  -0.2382
    -0.2319  -0.2262  -0.0979  -0.0559  -0.0220  -0.0072   0.0209   0.0515
     0.0972   0.1400   0.1982   0.2227   0.2350   0.2426   0.2653   0.2905
     0.4067   0.4266   0.4381   0.5524   0.5717   0.7612   0.7688   0.8854
     0.9859   1.1530   1.2490   1.3204   1.4200   1.7194   1.8378   1.8982
     3.4244   3.4540   3.4864   3.5037   3.5755   3.6983   3.8081   3.8613
     3.8832   3.9045

          k = 0.0000 0.0419 0.0000 ( 17933 PWs)   bands (ev):

   -55.7606 -55.7470 -55.7323 -55.7213 -55.6710 -55.6496 -55.6212 -55.5941
   -55.5918 -55.5812 -55.5369 -55.5099 -55.4861 -55.4162 -54.7705 -54.7464
   -32.2587 -32.1784 -32.1559 -32.0609 -32.0531 -32.0519 -32.0303 -32.0227
   -31.9911 -31.9783 -31.9574 -31.9556 -31.9461 -31.9391 -31.9267 -31.9123
   -31.9118 -31.9107 -31.9073 -31.8994 -31.8603 -31.8440 -31.8320 -31.8275
   -31.8242 -31.7913 -31.7882 -31.7818 -31.7801 -31.7784 -31.7741 -31.7644
   -31.7556 -31.7519 -31.7485 -31.7423 -31.7062 -31.6771 -31.6642 -31.6628
   -31.6350 -31.5980 -31.1312 -31.0850 -31.0691 -30.9894 -30.9284 -30.8618
   -20.7437 -16.9683 -16.3683 -16.0872 -15.9379 -15.8127 -15.7789 -15.7514
   -15.6347 -15.5343 -15.4163 -15.3948 -15.3662 -15.3559 -15.3282 -15.2799
   -15.2647 -15.2384 -15.2251 -15.2087 -15.1882 -15.1758 -15.1446 -15.0842
   -15.0777 -15.0184 -14.9738 -14.9399 -14.9345 -14.8182 -14.8107 -13.9464
   -13.2793 -13.1969  -6.5476  -5.5901  -4.9518  -4.5208  -3.6772  -3.5239
    -3.5185  -3.5035  -3.4777  -3.4137  -3.1577  -3.0789  -3.0099  -2.9285
    -2.8473  -2.7998  -2.7586  -2.7381  -2.7165  -2.6987  -2.6741  -2.6611
    -2.6474  -2.6101  -2.5721  -2.5450  -2.5150  -2.5094  -2.4845  -2.4564
    -2.4445  -2.3467  -2.2976  -2.2622  -2.2425  -2.1552  -2.1468  -2.0514
    -2.0205  -2.0073  -1.9595  -1.8482  -1.8051  -1.6385  -1.5877  -1.5161
    -1.4534  -1.4439  -1.4371  -1.1977  -1.1217  -1.0778  -1.0442  -1.0087
    -0.9532  -0.9209  -0.8531  -0.8235  -0.8170  -0.7157  -0.7042  -0.6819
    -0.6444  -0.6238  -0.6081  -0.5507  -0.5034  -0.4759  -0.4049  -0.3386
    -0.2795  -0.2671  -0.2429  -0.2124  -0.1932  -0.1472  -0.0635  -0.0086
     0.0301   0.0548   0.0739   0.1099   0.1224   0.1640   0.2383   0.2913
     0.3300   0.3728   0.4287   0.4868   0.5625   0.5833   0.6315   0.6610
     0.8574   0.9085   1.1969   1.4377   1.5097   1.7216   1.7855   1.8103
     3.5646   3.6052   3.6642   3.6917   3.7546   3.7862   3.7990   3.8342
     3.8895   3.9298

          k = 0.0000-0.0839 0.0000 ( 17884 PWs)   bands (ev):

   -55.7539 -55.7390 -55.7353 -55.7329 -55.6692 -55.6472 -55.6138 -55.6016
   -55.5942 -55.5827 -55.5356 -55.4989 -55.4972 -55.4174 -54.7590 -54.7578
   -32.1196 -32.1156 -32.0982 -32.0549 -32.0457 -32.0390 -32.0227 -32.0222
   -32.0150 -31.9588 -31.9527 -31.9436 -31.9325 -31.9215 -31.9191 -31.8946
   -31.8930 -31.8928 -31.8827 -31.8826 -31.8781 -31.8730 -31.8583 -31.8541
   -31.8407 -31.8217 -31.8106 -31.8072 -31.8070 -31.7858 -31.7836 -31.7809
   -31.7682 -31.7580 -31.7544 -31.7537 -31.7491 -31.7317 -31.7250 -31.6660
   -31.6456 -31.5954 -31.0774 -31.0761 -30.9987 -30.9979 -30.9594 -30.9584
   -20.7436 -16.9370 -16.0401 -16.0229 -15.8155 -15.8131 -15.6914 -15.6686
   -15.6139 -15.5695 -15.5650 -15.5294 -15.4596 -15.4462 -15.2836 -15.2799
   -15.2471 -15.1921 -15.1785 -15.1633 -15.1479 -15.1400 -15.1082 -15.0986
   -15.0847 -15.0798 -15.0683 -15.0298 -14.9522 -14.9501 -14.9403 -13.9464
   -13.2607 -13.2584  -6.5456  -5.5895  -4.9218  -4.5198  -3.5149  -3.2429
    -3.2326  -3.1521  -3.1423  -3.1116  -3.0897  -3.0813  -3.0719  -3.0354
    -3.0272  -2.9127  -2.8741  -2.8605  -2.8450  -2.7952  -2.7310  -2.6831
    -2.6744  -2.6448  -2.5888  -2.5741  -2.5695  -2.5584  -2.5417  -2.4997
    -2.4857  -2.4594  -2.3957  -2.3285  -2.2688  -2.2103  -2.1118  -2.0896
    -1.8786  -1.8077  -1.7676  -1.6795  -1.6635  -1.6079  -1.5377  -1.4912
    -1.4566  -1.2635  -1.2302  -1.2124  -1.1775  -1.1697  -1.1617  -1.1216
    -1.0926  -1.0311  -1.0257  -0.9732  -0.8650  -0.8491  -0.6047  -0.5779
    -0.5647  -0.4973  -0.4716  -0.4288  -0.3889  -0.3725  -0.3496  -0.3425
    -0.2841  -0.2491  -0.2241  -0.1910  -0.1760  -0.1665  -0.1553  -0.0915
    -0.0605  -0.0520  -0.0059   0.0134   0.0251   0.0470   0.0690   0.1063
     0.1342   0.1905   0.2651   0.4179   0.4604   0.4720   0.4761   0.8018
     0.8332   0.9323   0.9829   1.5736   1.5759   1.7233   1.7273   1.7298
     3.6661   3.6738   3.6956   3.7283   3.8163   3.8384   3.9695   3.9754
     3.9994   4.0071

          k = 0.0380 0.0000 0.0000 ( 17913 PWs)   bands (ev):

   -55.7650 -55.7522 -55.7279 -55.7160 -55.6725 -55.6518 -55.6258 -55.5896
   -55.5894 -55.5797 -55.5380 -55.5149 -55.4812 -55.4150 -54.7755 -54.7414
   -32.3167 -32.2331 -32.1989 -32.1165 -32.0880 -32.0664 -32.0567 -32.0335
   -31.9980 -31.9909 -31.9751 -31.9628 -31.9490 -31.9333 -31.9225 -31.9215
   -31.9004 -31.8961 -31.8824 -31.8616 -31.8541 -31.8474 -31.8300 -31.8286
   -31.8046 -31.7831 -31.7827 -31.7765 -31.7757 -31.7681 -31.7632 -31.7543
   -31.7404 -31.7389 -31.7334 -31.7030 -31.6955 -31.6590 -31.6368 -31.6198
   -31.6062 -31.6048 -31.1847 -31.0918 -31.0640 -31.0017 -30.9158 -30.8044
   -20.7437 -16.9930 -16.4336 -16.1177 -15.9632 -15.9183 -15.7955 -15.7814
   -15.6437 -15.4888 -15.4571 -15.4431 -15.4415 -15.4324 -15.3805 -15.3384
   -15.3098 -15.2764 -15.2194 -15.1916 -15.1473 -15.0905 -15.0391 -15.0134
   -14.9989 -14.9940 -14.9552 -14.8824 -14.8578 -14.8414 -14.7412 -13.9464
   -13.2727 -13.1576  -6.5489  -5.5925  -4.9781  -4.5201  -3.7933  -3.5150
    -3.4831  -3.4400  -3.4003  -3.3708  -3.3070  -3.2477  -3.2164  -2.9914
    -2.9805  -2.9565  -2.8650  -2.8384  -2.7702  -2.6660  -2.6567  -2.5876
    -2.5581  -2.5186  -2.4609  -2.4494  -2.3662  -2.3592  -2.3299  -2.2957
    -2.2562  -2.1981  -2.1196  -2.0982  -2.0691  -2.0257  -1.9965  -1.9626
    -1.9158  -1.8896  -1.8189  -1.7994  -1.7343  -1.7147  -1.6506  -1.5980
    -1.5272  -1.4535  -1.4374  -1.3189  -1.3103  -1.2830  -1.1955  -1.1868
    -1.1584  -1.0804  -1.0623  -1.0454  -0.9917  -0.9458  -0.8094  -0.7000
    -0.6434  -0.6217  -0.6030  -0.5495  -0.5329  -0.4154  -0.3927  -0.3142
    -0.2989  -0.2246  -0.1327  -0.1240  -0.0676  -0.0625  -0.0472  -0.0182
     0.0158   0.0360   0.0760   0.1127   0.1420   0.1651   0.2203   0.2687
     0.3173   0.3881   0.4284   0.4770   0.5082   0.5212   0.6085   0.8675
     0.9291   1.1551   1.1902   1.2609   1.3879   1.7196   1.7213   1.8091
     3.4749   3.5389   3.6835   3.6897   3.7377   3.7610   3.7960   3.8363
     3.8599   3.8855

          k = 0.0380 0.0419 0.0000 ( 17878 PWs)   bands (ev):

   -55.7605 -55.7469 -55.7323 -55.7212 -55.6708 -55.6496 -55.6211 -55.5941
   -55.5918 -55.5812 -55.5368 -55.5099 -55.4861 -55.4162 -54.7704 -54.7464
   -32.2588 -32.1792 -32.1561 -32.0669 -32.0530 -32.0518 -32.0347 -32.0227
   -31.9912 -31.9784 -31.9577 -31.9482 -31.9431 -31.9387 -31.9273 -31.9123
   -31.9114 -31.9087 -31.8922 -31.8898 -31.8603 -31.8436 -31.8433 -31.8310
   -31.8221 -31.7901 -31.7870 -31.7836 -31.7796 -31.7749 -31.7716 -31.7635
   -31.7625 -31.7492 -31.7486 -31.7424 -31.7078 -31.6793 -31.6689 -31.6607
   -31.6349 -31.6035 -31.1308 -31.0876 -31.0680 -30.9892 -30.9284 -30.8617
   -20.7436 -16.9644 -16.3069 -16.0039 -15.8680 -15.8160 -15.7487 -15.6951
   -15.6314 -15.5772 -15.4529 -15.4430 -15.4059 -15.3729 -15.3609 -15.3506
   -15.3254 -15.2500 -15.2205 -15.2140 -15.1832 -15.1285 -15.1030 -15.0669
   -15.0588 -15.0475 -15.0087 -14.9557 -14.9307 -14.8902 -14.8086 -13.9464
   -13.2769 -13.1972  -6.5468  -5.5918  -4.9497  -4.5204  -3.6191  -3.5145
    -3.3203  -3.2704  -3.2348  -3.2014  -3.1013  -3.0748  -3.0543  -2.9410
    -2.8263  -2.8179  -2.7684  -2.7500  -2.7129  -2.6867  -2.6324  -2.6211
    -2.5836  -2.5676  -2.5459  -2.5241  -2.5194  -2.4820  -2.4617  -2.3937
    -2.3654  -2.3451  -2.2552  -2.2446  -2.2346  -2.1099  -2.0873  -2.0130
    -1.9947  -1.9680  -1.8897  -1.7913  -1.7485  -1.6962  -1.6610  -1.5375
    -1.5000  -1.3583  -1.3048  -1.2544  -1.2161  -1.1746  -1.1199  -1.0721
    -1.0380  -1.0158  -0.9697  -0.9253  -0.8607  -0.8145  -0.7817  -0.7656
    -0.6884  -0.6520  -0.6085  -0.5531  -0.5296  -0.5049  -0.4710  -0.4217
    -0.3913  -0.3741  -0.3356  -0.2873  -0.2601  -0.2418  -0.2059  -0.1279
    -0.0784  -0.0684  -0.0060   0.0374   0.0682   0.0946   0.1839   0.2841
     0.3537   0.3920   0.4356   0.5027   0.5370   0.5641   0.6250   0.7118
     0.8019   0.8580   1.1430   1.4504   1.5141   1.7069   1.7218   1.7853
     3.5816   3.6644   3.7073   3.7293   3.7840   3.8103   3.8595   3.9104
     3.9317   3.9500

          k = 0.0380-0.0839 0.0000 ( 17916 PWs)   bands (ev):

   -55.7539 -55.7390 -55.7353 -55.7329 -55.6692 -55.6472 -55.6138 -55.6016
   -55.5942 -55.5828 -55.5356 -55.4989 -55.4973 -55.4174 -54.7590 -54.7579
   -32.1198 -32.1158 -32.0985 -32.0555 -32.0459 -32.0398 -32.0229 -32.0222
   -32.0152 -31.9707 -31.9535 -31.9453 -31.9392 -31.9095 -31.9061 -31.9022
   -31.8930 -31.8881 -31.8815 -31.8776 -31.8718 -31.8647 -31.8584 -31.8544
   -31.8311 -31.8261 -31.8167 -31.8141 -31.8080 -31.7932 -31.7916 -31.7815
   -31.7627 -31.7583 -31.7550 -31.7495 -31.7466 -31.7322 -31.7139 -31.6770
   -31.6456 -31.6022 -31.0784 -31.0771 -30.9986 -30.9978 -30.9594 -30.9585
   -20.7436 -16.9355 -15.9942 -15.9851 -15.7620 -15.7604 -15.6585 -15.6245
   -15.6016 -15.5499 -15.5402 -15.5175 -15.4379 -15.4268 -15.3146 -15.3031
   -15.2854 -15.2507 -15.2234 -15.1815 -15.1675 -15.1496 -15.1442 -15.1264
   -15.1235 -15.1200 -15.0531 -15.0304 -15.0160 -14.9841 -14.9232 -13.9464
   -13.2605 -13.2582  -6.5448  -5.5913  -4.9212  -4.5197  -3.5145  -3.2337
    -3.2223  -2.9913  -2.9574  -2.9362  -2.9263  -2.9185  -2.8745  -2.8518
    -2.8235  -2.8185  -2.8055  -2.7818  -2.7577  -2.7196  -2.6815  -2.6428
    -2.6092  -2.5830  -2.5681  -2.5640  -2.5402  -2.5329  -2.5203  -2.5079
    -2.4501  -2.4194  -2.3861  -2.3617  -2.2932  -2.2661  -1.9290  -1.9003
    -1.8862  -1.8176  -1.7749  -1.6745  -1.6691  -1.6141  -1.6031  -1.5349
    -1.5257  -1.5017  -1.4906  -1.3951  -1.3789  -1.3526  -1.3118  -1.2544
    -1.2404  -1.1108  -1.0490  -0.9649  -0.9383  -0.8550  -0.7882  -0.7410
    -0.7065  -0.6205  -0.5657  -0.5299  -0.5001  -0.4952  -0.4651  -0.4270
    -0.4172  -0.4066  -0.3388  -0.3169  -0.3005  -0.2873  -0.2492  -0.2230
    -0.1345  -0.0521  -0.0130   0.0455   0.0577   0.1247   0.1540   0.2549
     0.3056   0.3369   0.3464   0.3862   0.4425   0.5372   0.5826   0.7464
     0.7617   0.9203   0.9594   1.5891   1.5909   1.7171   1.7218   1.7231
     3.6229   3.6378   3.7246   3.7463   3.8036   3.8148   3.9903   4.0012
     4.0261   4.0407

          k = 0.0380-0.0419 0.0000 ( 17876 PWs)   bands (ev):

   -55.7605 -55.7469 -55.7323 -55.7212 -55.6708 -55.6496 -55.6211 -55.5941
   -55.5918 -55.5812 -55.5368 -55.5099 -55.4861 -55.4162 -54.7704 -54.7464
   -32.2588 -32.1792 -32.1561 -32.0669 -32.0530 -32.0518 -32.0347 -32.0227
   -31.9912 -31.9784 -31.9576 -31.9482 -31.9429 -31.9387 -31.9273 -31.9123
   -31.9110 -31.9091 -31.8924 -31.8896 -31.8603 -31.8436 -31.8435 -31.8283
   -31.8241 -31.7912 -31.7875 -31.7837 -31.7794 -31.7731 -31.7727 -31.7649
   -31.7634 -31.7489 -31.7478 -31.7424 -31.7060 -31.6745 -31.6722 -31.6624
   -31.6350 -31.6035 -31.1308 -31.0876 -31.0680 -30.9892 -30.9284 -30.8617
   -20.7436 -16.9644 -16.3069 -16.0038 -15.8681 -15.8160 -15.7487 -15.6949
   -15.6314 -15.5770 -15.4520 -15.4425 -15.4067 -15.3726 -15.3612 -15.3543
   -15.3221 -15.2519 -15.2200 -15.2134 -15.1807 -15.1303 -15.1023 -15.0672
   -15.0585 -15.0483 -15.0088 -14.9555 -14.9294 -14.8926 -14.8077 -13.9464
   -13.2769 -13.1972  -6.5467  -5.5918  -4.9492  -4.5203  -3.6189  -3.5146
    -3.3215  -3.2727  -3.2357  -3.1998  -3.0992  -3.0779  -3.0522  -2.9399
    -2.8277  -2.8160  -2.7662  -2.7523  -2.7158  -2.6867  -2.6292  -2.6202
    -2.5843  -2.5636  -2.5489  -2.5274  -2.5057  -2.4796  -2.4567  -2.4041
    -2.3668  -2.3454  -2.2643  -2.2407  -2.2268  -2.1159  -2.0849  -2.0134
    -1.9964  -1.9708  -1.8906  -1.7921  -1.7424  -1.6958  -1.6623  -1.5348
    -1.5089  -1.3602  -1.3028  -1.2470  -1.2216  -1.1785  -1.1112  -1.0710
    -1.0403  -1.0245  -0.9743  -0.9232  -0.8643  -0.8085  -0.7869  -0.7577
    -0.6861  -0.6492  -0.6128  -0.5553  -0.5239  -0.4918  -0.4746  -0.4316
    -0.4088  -0.3797  -0.3337  -0.2900  -0.2554  -0.2494  -0.2107  -0.1278
    -0.0849  -0.0629   0.0155   0.0417   0.0654   0.0803   0.1837   0.2881
     0.3520   0.4007   0.4345   0.5086   0.5345   0.5733   0.6274   0.7128
     0.8039   0.8587   1.1428   1.4500   1.5143   1.7065   1.7214   1.7861
     3.5863   3.6649   3.7149   3.7312   3.7696   3.8138   3.8630   3.8987
     3.9162   3.9473

          k =-0.0760-0.0000 0.0000 ( 17886 PWs)   bands (ev):

   -55.7649 -55.7521 -55.7279 -55.7159 -55.6724 -55.6518 -55.6258 -55.5896
   -55.5894 -55.5797 -55.5378 -55.5150 -55.4812 -55.4150 -54.7754 -54.7414
   -32.3168 -32.2340 -32.1991 -32.1216 -32.0917 -32.0662 -32.0566 -32.0335
   -32.0015 -31.9912 -31.9752 -31.9628 -31.9333 -31.9216 -31.9198 -31.9195
   -31.8960 -31.8770 -31.8764 -31.8682 -31.8614 -31.8540 -31.8506 -31.8304
   -31.8045 -31.7849 -31.7790 -31.7772 -31.7683 -31.7637 -31.7551 -31.7469
   -31.7403 -31.7388 -31.7330 -31.7297 -31.6959 -31.6587 -31.6365 -31.6180
   -31.6111 -31.6062 -31.1843 -31.0951 -31.0627 -31.0017 -30.9157 -30.8045
   -20.7437 -16.9868 -16.3483 -16.0343 -15.8913 -15.8406 -15.7808 -15.7586
   -15.6404 -15.5569 -15.5332 -15.5248 -15.4906 -15.4597 -15.4381 -15.3901
   -15.3316 -15.3003 -15.2132 -15.2076 -15.0936 -15.0899 -15.0887 -15.0512
   -15.0273 -14.9572 -14.9245 -14.9048 -14.8548 -14.7936 -14.7418 -13.9463
   -13.2695 -13.1572  -6.5481  -5.5944  -4.9743  -4.5196  -3.7740  -3.5141
    -3.3872  -3.3421  -3.2877  -3.1557  -3.1458  -3.1376  -3.1112  -3.0280
    -3.0054  -2.9762  -2.9313  -2.8210  -2.6546  -2.6403  -2.6113  -2.5927
    -2.5192  -2.5173  -2.3391  -2.3252  -2.3030  -2.2600  -2.2488  -2.2188
    -2.1804  -2.1477  -2.0994  -2.0942  -2.0606  -2.0244  -2.0046  -1.9882
    -1.9847  -1.9151  -1.9111  -1.8735  -1.7813  -1.5972  -1.5307  -1.5116
    -1.4875  -1.4452  -1.4062  -1.3764  -1.3417  -1.3155  -1.2886  -1.2215
    -1.2046  -1.1102  -1.0900  -1.0619  -1.0368  -1.0125  -0.9380  -0.8955
    -0.8494  -0.6413  -0.5715  -0.5389  -0.5307  -0.4953  -0.4802  -0.4283
    -0.3472  -0.2940  -0.2613  -0.2241  -0.1935  -0.1413  -0.0971  -0.0803
    -0.0413  -0.0209   0.0431   0.0476   0.0923   0.1299   0.1544   0.2332
     0.2787   0.3115   0.3711   0.3930   0.5747   0.6604   0.6973   0.7947
     0.9136   0.9630   1.1710   1.2834   1.3623   1.5817   1.7197   1.7435
     3.4796   3.4856   3.5679   3.6679   3.6836   3.7309   3.8327   3.8461
     3.8802   3.9160

          k =-0.0760 0.0419 0.0000 ( 17914 PWs)   bands (ev):

   -55.7606 -55.7468 -55.7323 -55.7213 -55.6708 -55.6496 -55.6212 -55.5941
   -55.5918 -55.5813 -55.5367 -55.5100 -55.4861 -55.4163 -54.7704 -54.7464
   -32.2592 -32.1803 -32.1563 -32.0728 -32.0532 -32.0519 -32.0391 -32.0228
   -31.9912 -31.9785 -31.9578 -31.9509 -31.9426 -31.9281 -31.9190 -31.9123
   -31.9112 -31.9071 -31.8803 -31.8688 -31.8654 -31.8602 -31.8435 -31.8401
   -31.8238 -31.7907 -31.7888 -31.7855 -31.7800 -31.7771 -31.7692 -31.7641
   -31.7490 -31.7478 -31.7427 -31.7362 -31.7322 -31.6749 -31.6699 -31.6640
   -31.6350 -31.6095 -31.1306 -31.0904 -31.0673 -30.9892 -30.9285 -30.8617
   -20.7437 -16.9607 -16.2287 -15.9210 -15.8034 -15.7456 -15.7391 -15.6706
   -15.6297 -15.5557 -15.4950 -15.4918 -15.4550 -15.4348 -15.4053 -15.3968
   -15.3169 -15.2909 -15.2194 -15.2123 -15.1943 -15.1433 -15.1371 -15.0905
   -15.0722 -15.0531 -15.0089 -14.9610 -14.9262 -14.8919 -14.8096 -13.9463
   -13.2747 -13.1975  -6.5460  -5.5938  -4.9474  -4.5200  -3.6054  -3.5141
    -3.2181  -3.0885  -3.0767  -2.9907  -2.9687  -2.9350  -2.8541  -2.8239
    -2.8184  -2.8056  -2.7765  -2.7189  -2.7161  -2.7085  -2.6741  -2.5869
    -2.5593  -2.5298  -2.5023  -2.4879  -2.4319  -2.4132  -2.3475  -2.3287
    -2.3227  -2.2614  -2.2298  -2.1985  -2.1574  -2.1206  -2.1110  -1.9872
    -1.9231  -1.9014  -1.8541  -1.8156  -1.7964  -1.7196  -1.6220  -1.5408
    -1.4356  -1.4048  -1.3135  -1.3002  -1.2539  -1.2382  -1.2270  -1.1745
    -1.1105  -1.0792  -1.0555  -1.0017  -0.9860  -0.9809  -0.9556  -0.8910
    -0.8742  -0.8509  -0.7899  -0.7038  -0.6692  -0.6332  -0.5901  -0.5294
    -0.4802  -0.4677  -0.4380  -0.4105  -0.3648  -0.3185  -0.2797  -0.1539
    -0.1164  -0.1109  -0.0427   0.0726   0.1080   0.1504   0.1587   0.3276
     0.3369   0.4151   0.4408   0.5458   0.6286   0.6426   0.7159   0.7438
     0.8079   0.8135   0.9878   1.4659   1.5174   1.6316   1.7215   1.7697
     3.5306   3.5834   3.6293   3.7215   3.7263   3.7434   3.8702   3.8842
     3.9788   4.0134

          k =-0.0760-0.0839 0.0000 ( 17948 PWs)   bands (ev):

   -55.7539 -55.7390 -55.7353 -55.7329 -55.6692 -55.6473 -55.6138 -55.6016
   -55.5942 -55.5829 -55.5355 -55.4989 -55.4973 -55.4175 -54.7590 -54.7579
   -32.1202 -32.1161 -32.0988 -32.0562 -32.0460 -32.0406 -32.0231 -32.0222
   -32.0155 -31.9783 -31.9544 -31.9468 -31.9429 -31.9101 -31.9053 -31.8968
   -31.8852 -31.8818 -31.8803 -31.8706 -31.8689 -31.8591 -31.8550 -31.8468
   -31.8444 -31.8225 -31.8178 -31.8128 -31.8061 -31.8031 -31.8016 -31.7823
   -31.7763 -31.7585 -31.7554 -31.7495 -31.7339 -31.7173 -31.7041 -31.6970
   -31.6455 -31.6103 -31.0794 -31.0781 -30.9986 -30.9978 -30.9594 -30.9585
   -20.7436 -16.9341 -15.9423 -15.9330 -15.6914 -15.6849 -15.6808 -15.6103
   -15.5260 -15.5049 -15.4833 -15.4792 -15.4293 -15.4156 -15.4039 -15.3413
   -15.3094 -15.2855 -15.2673 -15.2622 -15.2118 -15.2067 -15.1608 -15.1392
   -15.1199 -15.1147 -15.0907 -15.0866 -15.0468 -14.9863 -14.9172 -13.9464
   -13.2603 -13.2580  -6.5440  -5.5932  -4.9208  -4.5197  -3.5141  -3.2339
    -3.2227  -2.9577  -2.9085  -2.8955  -2.8140  -2.7506  -2.6852  -2.6470
    -2.6191  -2.6098  -2.6001  -2.5896  -2.5844  -2.5695  -2.5577  -2.5486
    -2.5251  -2.5133  -2.4577  -2.4378  -2.4126  -2.3937  -2.3855  -2.3751
    -2.3379  -2.3195  -2.3083  -2.2917  -2.2865  -2.2065  -2.0622  -2.0179
    -1.9194  -1.9008  -1.8903  -1.8487  -1.8266  -1.8101  -1.7951  -1.7450
    -1.7292  -1.5614  -1.4918  -1.4752  -1.4571  -1.4248  -1.3669  -1.2781
    -1.2479  -1.1737  -1.1666  -1.1251  -1.0657  -0.9901  -0.9672  -0.9259
    -0.8706  -0.8325  -0.7735  -0.7390  -0.7199  -0.7131  -0.6621  -0.6060
    -0.5659  -0.5063  -0.4818  -0.4178  -0.3776  -0.3413  -0.2845  -0.2587
    -0.2224  -0.1136  -0.0052   0.1290   0.1915   0.2675   0.2837   0.3096
     0.3286   0.4466   0.4790   0.5051   0.5483   0.6354   0.6891   0.7593
     0.7784   0.8058   0.8634   1.6095   1.6107   1.6999   1.7107   1.7228
     3.6224   3.6590   3.6762   3.7252   3.8831   3.8878   3.9064   3.9143
     3.9666   4.0457

     the Fermi energy is     3.3905 ev

!    total energy              =   -2971.53806022 Ry
     estimated scf accuracy    <       0.00000007 Ry
     smearing contrib. (-TS)   =      -0.02328032 Ry
     internal energy E=F+TS    =   -2971.51477990 Ry

     The total energy is F=E-TS. E is the sum of the following terms:
     one-electron contribution =  -22751.43681919 Ry
     hartree contribution      =   11466.79372629 Ry
     xc contribution           =    -492.33055122 Ry
     ewald contribution        =    8805.45849725 Ry
     electric field correction =       0.00036697 Ry

     convergence has been achieved in  61 iterations

     Forces acting on atoms (cartesian axes, Ry/au):

     atom    1 type  1   force =    -0.00064014    0.00094665    0.00071801
     atom    2 type  2   force =    -0.00045069    0.00082483   -0.00061905
     atom    3 type  2   force =    -0.00143118   -0.00070964   -0.00054154
     atom    4 type  2   force =     0.00082009   -0.00050314   -0.00027487
     atom    5 type  3   force =     0.00034311   -0.00680650   -0.03337938
     atom    6 type  3   force =    -0.00002473    0.00054602    0.04531912
     atom    7 type  3   force =    -0.02048308    0.00052564    0.00448609
     atom    8 type  3   force =     0.01814101   -0.00160156    0.00417753
     atom    9 type  3   force =    -0.00024233    0.00000161   -0.00006108
     atom   10 type  3   force =     0.00045426   -0.00005554    0.00014709
     atom   11 type  3   force =     0.00069611   -0.00027603   -0.00026334
     atom   12 type  3   force =     0.00134999    0.00000110   -0.00015671
     atom   13 type  3   force =     0.00067765   -0.00020095   -0.00008005
     atom   14 type  3   force =     0.00002409    0.00020842   -0.00003713
     atom   15 type  3   force =    -0.00025388   -0.00012803    0.00036964
     atom   16 type  3   force =     0.00026896   -0.00010427    0.00007255
     atom   17 type  3   force =     0.00003526    0.00006068    0.10414655
     atom   18 type  3   force =    -0.00012909    0.00012318    0.00065783
     atom   19 type  3   force =    -0.06901561    0.00070656   -0.02969444
     atom   20 type  3   force =     0.06879846    0.00126149   -0.02968276
     atom   21 type  3   force =     0.00040260    0.00379014   -0.02830838
     atom   22 type  3   force =     0.00085168    0.00084329    0.04701766
     atom   23 type  3   force =    -0.01799650    0.00140374    0.00373643
     atom   24 type  3   force =     0.01767388    0.00227407    0.00331909
     atom   25 type  3   force =    -0.00051197   -0.00020013    0.00008070
     atom   26 type  3   force =     0.00039482   -0.00003919    0.00033143
     atom   27 type  3   force =     0.00019461    0.00009740    0.00029276
     atom   28 type  3   force =     0.00085203   -0.00017459    0.00059264
     atom   29 type  3   force =     0.00037168   -0.00057841    0.00027302
     atom   30 type  3   force =    -0.00052116   -0.00034648    0.00039764
     atom   31 type  3   force =    -0.00037004   -0.00011297    0.00005498
     atom   32 type  3   force =    -0.00006519   -0.00019781   -0.00038064
     atom   33 type  3   force =     0.00004709    0.00003461    0.10421431
     atom   34 type  3   force =    -0.06859194   -0.00136590   -0.02972764
     atom   35 type  3   force =     0.06848373   -0.00098430   -0.02971229
     atom   36 type  3   force =     0.00113164    0.00049062    0.00017066
     atom   37 type  4   force =    -0.00000101   -0.00159156    0.10640950
     atom   38 type  4   force =    -0.00015170    0.00074439   -0.17960614
     atom   39 type  4   force =    -0.00033491    0.00004846   -0.00016425
     atom   40 type  4   force =    -0.00011231    0.00012188   -0.00008610
     atom   41 type  4   force =    -0.00369187    0.00054839   -0.00068373
     atom   42 type  4   force =     0.00270028    0.00002094    0.00019706
     atom   43 type  4   force =    -0.00006745   -0.00022812   -0.00051742
     atom   44 type  4   force =     0.00047816    0.00050055   -0.00048651
     atom   45 type  4   force =    -0.00000976    0.00121632    0.11834097
     atom   46 type  4   force =     0.00001173   -0.00035730   -0.17984495
     atom   47 type  4   force =     0.00046759    0.00004368   -0.00022885
     atom   48 type  4   force =    -0.00011815    0.00020277   -0.00037359
     atom   49 type  4   force =    -0.00403413    0.00068598   -0.00004101
     atom   50 type  4   force =     0.00290036    0.00011445   -0.00083176
     atom   51 type  4   force =     0.00048295   -0.00078241   -0.00014236
     atom   52 type  4   force =     0.00077478   -0.00102467    0.00044875
     atom   53 type  5   force =     0.00068168    0.00129976    0.00003327
     atom   54 type  5   force =    -0.00126147   -0.00131814   -0.00007933

     Total force =     0.376618     Total SCF correction =     0.000730
  @ DRIVER MODE: Message from server: STATUS
  @ DRIVER MODE: Message from server: GETFORCE
  @ DRIVER MODE: Returning v,forces,stress,ensemble 

     Writing output data file ./calc.save/
  @ DRIVER MODE: Message from server: EXIT
  @ DRIVE MODE: Exiting  
 
     init_run     :     10.81s CPU     11.01s WALL (       1 calls)
     electrons    :   1017.69s CPU   1031.83s WALL (       1 calls)
     forces       :      2.37s CPU      2.46s WALL (       1 calls)

     Called by init_run:
     wfcinit      :      4.81s CPU      4.87s WALL (       1 calls)
     potinit      :      5.35s CPU      5.42s WALL (       1 calls)
     hinit0       :      0.30s CPU      0.31s WALL (       1 calls)

     Called by electrons:
     c_bands      :    874.37s CPU    880.54s WALL (      61 calls)
     sum_band     :     97.69s CPU    100.88s WALL (      61 calls)
     v_of_rho     :     34.92s CPU     36.64s WALL (      62 calls)
     newd         :     13.98s CPU     17.06s WALL (      62 calls)
     mix_rho      :      1.25s CPU      1.28s WALL (      61 calls)
     vdW_kernel   :      4.54s CPU      4.56s WALL (       1 calls)

     Called by c_bands:
     init_us_2    :      5.63s CPU      5.66s WALL (    1240 calls)
     cegterg      :    857.94s CPU    863.84s WALL (     623 calls)

     Called by *egterg:
     cdiaghg      :    144.23s CPU    144.91s WALL (    6827 calls)
     h_psi        :    453.80s CPU    457.89s WALL (    6838 calls)
     s_psi        :     61.31s CPU     61.50s WALL (    6838 calls)
     g_psi        :      1.67s CPU      1.68s WALL (    6205 calls)

     Called by h_psi:
     h_psi:calbec :     57.64s CPU     57.92s WALL (    6838 calls)
     vloc_psi     :    331.64s CPU    334.90s WALL (    6838 calls)
     add_vuspsi   :     61.58s CPU     61.89s WALL (    6838 calls)

     General routines
     calbec       :     75.17s CPU     75.51s WALL (    7488 calls)
     fft          :     17.90s CPU     18.04s WALL (    3906 calls)
     ffts         :      0.11s CPU      0.11s WALL (     123 calls)
     fftw         :    369.18s CPU    372.77s WALL (  878794 calls)
     interpolate  :      0.38s CPU      0.38s WALL (      62 calls)
     davcio       :      0.00s CPU      1.37s WALL (      10 calls)
 
     Parallel routines
 
     PWSCF        :  17m11.20s CPU  17m29.92s WALL

 
   This run was terminated on:  16:43:15  14Sep2021            

=------------------------------------------------------------------------------=
   JOB DONE.
=------------------------------------------------------------------------------=
