
     Program PWSCF v.6.7GPU starts on  5Aug2021 at 16:27:31 

     This program is part of the open-source Quantum ESPRESSO suite
     for quantum simulation of materials; please cite
         "P. Giannozzi et al., J. Phys.:Condens. Matter 21 395502 (2009);
         "P. Giannozzi et al., J. Phys.:Condens. Matter 29 465901 (2017);
         "P. Giannozzi et al., J. Chem. Phys. 152 154105 (2020);
          URL http://www.quantum-espresso.org", 
     in publications or presentations arising from this work. More details at
     http://www.quantum-espresso.org/quote

     Parallel version (MPI), running on    16 processors

     MPI processes distributed on     1 nodes
     R & G space division:  proc/nbgrp/npool/nimage =      16
     Reading input from /storage/home/hcoda1/3/ntian30/research/carbon/02Aug_vib_paired/reference/CH3NH2/out_0007/pw.inp
Warning: card &CELL ignored
Warning: card   CELL_DYNAMICS='IPI', ignored
Warning: card / ignored

     Current dimensions of program PWSCF are:
     Max number of different atomic species (ntypx) = 10
     Max number of k-points (npk) =  40000
     Max angular momentum in pseudopotentials (lmaxx) =  3
     Presently no symmetry can be used with electric field

     Message from routine cell_base_init:
     DEPRECATED: use true lattice parameter, not A to a.u. conversion factor

     **************************************************************************
     Initializing libbeef V0.1.2 with the BEEF-vdW functional.
     Citation: Wellendorff et al., PRB 85, 235149 (2012).
     **************************************************************************


     IMPORTANT: XC functional enforced from input :
     Exchange-correlation= BEEF-VDW
                           (   1   4  43  14   2   0   0)
     Any further DFT definition will be discarded
     Please, verify this is what you really want


     Subspace diagonalization in iterative solution of the eigenvalue problem:
     one sub-group per band group will be used
     scalapack distributed-memory algorithm (size of sub-group:  4*  4 procs)

  @ DRIVER MODE: Connecting to 
 qe_1139763_2507392.sched-torque.pace.gatech.edu6siti0li_scratch
  using UNIX socket
  @ DRIVER MODE: Message from server: STATUS
  @ DRIVER MODE: Message from server: INIT
  @ DRIVER MODE: Receiving replica           0          -1
  @ DRIVER MODE: Receiving encoded integer          25
  @ DRIVER MODE:  SCF:  T  FORCE:  T  STRESS:  F  VC:  F  ENSEMBLE:  F
  @ DRIVER MODE:  SCF:  T  FORCE:  T  STRESS:  F  VC:  F  ENSEMBLE:  F
 
     Parallelization info
     --------------------
     sticks:   dense  smooth     PW     G-vecs:    dense   smooth      PW
     Min        1062     425    112               171772    43439    5938
     Max        1063     426    113               171779    43444    5943
     Sum       17001    6805   1803              2748395   695069   95053
 
     Using Slab Decomposition
 


     bravais-lattice index     =            0
     lattice parameter (alat)  =       1.8897  a.u.
     unit-cell volume          =   32287.0036 (a.u.)^3
     number of atoms/cell      =            7
     number of atomic types    =            3
     number of electrons       =        14.00
     number of Kohn-Sham states=           17
     kinetic-energy cutoff     =      29.3995  Ry
     charge density cutoff     =     293.9946  Ry
     scf convergence threshold =      7.3E-08
     mixing beta               =       0.0500
     number of iterations used =            8  plain     mixing
     Exchange-correlation= BEEF-VDW
                           (   1   4  43  14   2   0   0)

     celldm(1)=   1.889726  celldm(2)=   0.000000  celldm(3)=   0.000000
     celldm(4)=   0.000000  celldm(5)=   0.000000  celldm(6)=   0.000000

     crystal axes: (cart. coord. in units of alat)
               a(1) = (  14.395730   0.000000   0.000000 )  
               a(2) = (   0.000000  14.141645   0.000000 )  
               a(3) = (   0.000000   0.000000  23.501605 )  

     reciprocal axes: (cart. coord. in units 2 pi/alat)
               b(1) = (  0.069465  0.000000  0.000000 )  
               b(2) = (  0.000000  0.070713  0.000000 )  
               b(3) = (  0.000000  0.000000  0.042550 )  


     PseudoPot. # 1 for N  read from file:
     /storage/coda1/p-amedford6/0/shared/rich_project_chbe-medford/medford-share/data/pseudos_module/espresso/nninc/pbe/van/N.UPF
     MD5 check sum: 90d10febe142ad51ac9d5be1deb811c4
     Pseudo is Ultrasoft, Zval =  5.0
     Generated by new atomic code, or converted to UPF format
     Using radial grid of  729 points,  4 beta functions with: 
                l(1) =   0
                l(2) =   0
                l(3) =   1
                l(4) =   1
     Q(r) pseudized with  8 coefficients,  rinner =    0.800   0.800   0.800


     PseudoPot. # 2 for C  read from file:
     /storage/coda1/p-amedford6/0/shared/rich_project_chbe-medford/medford-share/data/pseudos_module/espresso/nninc/pbe/van/C.UPF
     MD5 check sum: 1a69bf6b8db32088f5b2163dbdb77a27
     Pseudo is Ultrasoft, Zval =  4.0
     Generated by new atomic code, or converted to UPF format
     Using radial grid of  721 points,  4 beta functions with: 
                l(1) =   0
                l(2) =   0
                l(3) =   1
                l(4) =   1
     Q(r) pseudized with  8 coefficients,  rinner =    0.800   0.800   0.800


     PseudoPot. # 3 for H  read from file:
     /storage/coda1/p-amedford6/0/shared/rich_project_chbe-medford/medford-share/data/pseudos_module/espresso/nninc/pbe/van/H.UPF
     MD5 check sum: b5ee9d7bfd3a09ee7748110bda690ff7
     Pseudo is Ultrasoft, Zval =  1.0
     Generated by new atomic code, or converted to UPF format
     Using radial grid of  615 points,  1 beta functions with: 
                l(1) =   0
     Q(r) pseudized with  8 coefficients,  rinner =    0.800

     atomic species   valence    mass     pseudopotential
        N1             5.00    14.00700     N ( 1.00)
        C1             4.00    12.01100     C ( 1.00)
        H1             1.00     1.00800     H ( 1.00)

     No symmetry found



   Cartesian axes

     site n.     atom                  positions (alat units)
         1           N1  tau(   1) = (   6.7511123   7.9556906  11.5580743  )
         2           C1  tau(   2) = (   7.6169274   6.8105383  11.8831450  )
         3           H1  tau(   3) = (   8.2039306   6.5521124  11.0085873  )
         4           H1  tau(   4) = (   8.2994094   7.0949983  12.6745064  )
         5           H1  tau(   5) = (   7.0721505   5.9087306  12.2051506  )
         6           H1  tau(   6) = (   6.0913834   7.7073417  10.8307834  )
         7           H1  tau(   7) = (   6.2003135   8.2288288  12.3635786  )

     number of k points=    10  Fermi-Dirac smearing, width (Ry)=  0.0073
                       cart. coord. in units 2pi/alat
        k(    1) = (   0.0000000   0.0000000   0.0000000), wk =   0.1250000
        k(    2) = (   0.0000000   0.0176783   0.0000000), wk =   0.2500000
        k(    3) = (   0.0000000  -0.0353566   0.0000000), wk =   0.1250000
        k(    4) = (   0.0173663   0.0000000   0.0000000), wk =   0.2500000
        k(    5) = (   0.0173663   0.0176783   0.0000000), wk =   0.2500000
        k(    6) = (   0.0173663  -0.0353566   0.0000000), wk =   0.2500000
        k(    7) = (   0.0173663  -0.0176783   0.0000000), wk =   0.2500000
        k(    8) = (  -0.0347325   0.0000000   0.0000000), wk =   0.1250000
        k(    9) = (  -0.0347325   0.0176783   0.0000000), wk =   0.2500000
        k(   10) = (  -0.0347325  -0.0353566   0.0000000), wk =   0.1250000

     Dense  grid:  2748395 G-vectors     FFT dimensions: ( 150, 150, 243)

     Smooth grid:   695069 G-vectors     FFT dimensions: (  96,  96, 160)

     Estimated max dynamical RAM per process >     272.16 MB

     Estimated total dynamical RAM >       4.25 GB
     Cannot read rho : file not found

     Initial potential from superposition of free atoms

     starting charge   13.99991, renormalised to   14.00000

     negative rho (up, down):  1.135E-02 0.000E+00


     %%%%%%%%%%%%%%%%%%%%%%%%%%%%%%%%%%%%%%%%%%%%%%%%%%%%%%%%%%%%%%%%%%%%%%%%
     %                                                                      %
     % You are using vdW-DF, which was implemented by the Thonhauser group. %
     % Please cite the following two papers that made this development      %
     % possible and the two reviews that describe the various versions:     %
     %                                                                      %
     %   T. Thonhauser et al., PRL 115, 136402 (2015).                      %
     %   T. Thonhauser et al., PRB 76, 125112 (2007).                       %
     %   K. Berland et al., Rep. Prog. Phys. 78, 066501 (2015).             %
     %   D.C. Langreth et al., J. Phys.: Condens. Matter 21, 084203 (2009). %
     %                                                                      %
     %                                                                      %
     % If you are calculating the stress with vdW-DF, please also cite:     %
     %                                                                      %
     %   R. Sabatini et al., J. Phys.: Condens. Matter 24, 424209 (2012).   %
     %                                                                      %
     %%%%%%%%%%%%%%%%%%%%%%%%%%%%%%%%%%%%%%%%%%%%%%%%%%%%%%%%%%%%%%%%%%%%%%%%


 
     Adding external electric field

     Computed dipole along edir(3) : 
        Dipole                0.0000 Ry au,          0.0000 Debye
        Dipole field          0.0000 Ry au, 
 
        Potential amp.       -0.0000 Ry
        Total length         43.3013 bohr
 
     Starting wfcs are   13 atomic +    4 random wfcs
  @ DRIVER MODE: Message from server: STATUS
  @ DRIVER MODE: Message from server: POSDATA
  @ DRIVER MODE: Reading and sharing cell 
  @ DRIVER MODE: Reading and sharing positions 
  @ DRIVER MODE: Received positions 

     total cpu time spent up to now is        8.1 secs

     Self-consistent Calculation

     iteration #  1     ecut=    29.40 Ry     beta= 0.05
     Davidson diagonalization with overlap
     c_bands:  5 eigenvalues not converged
     c_bands:  5 eigenvalues not converged
     c_bands:  5 eigenvalues not converged
     c_bands:  2 eigenvalues not converged
     c_bands:  1 eigenvalues not converged
     c_bands:  4 eigenvalues not converged
     c_bands:  1 eigenvalues not converged
     c_bands:  2 eigenvalues not converged
     c_bands:  2 eigenvalues not converged
     c_bands:  3 eigenvalues not converged
     ethr =  1.00E-05,  avg # of iterations = 34.0

     negative rho (up, down):  9.393E-03 0.000E+00
 
     Adding external electric field

     Computed dipole along edir(3) : 
        Dipole                0.0127 Ry au,          0.0323 Debye
        Dipole field          0.0000 Ry au, 
 
        Potential amp.       -0.0004 Ry
        Total length         43.3013 bohr
 

     total cpu time spent up to now is       23.8 secs

     total energy              =     -37.98950561 Ry
     estimated scf accuracy    <       1.01373510 Ry

     iteration #  2     ecut=    29.40 Ry     beta= 0.05
     Davidson diagonalization with overlap
     ethr =  7.24E-03,  avg # of iterations =  1.0

     negative rho (up, down):  1.513E-02 0.000E+00
 
     Adding external electric field

     Computed dipole along edir(3) : 
        Dipole                0.1167 Ry au,          0.2967 Debye
        Dipole field          0.0000 Ry au, 
 
        Potential amp.       -0.0039 Ry
        Total length         43.3013 bohr
 

     total cpu time spent up to now is       27.5 secs

     total energy              =     -37.56804001 Ry
     estimated scf accuracy    <       0.82223031 Ry

     iteration #  3     ecut=    29.40 Ry     beta= 0.05
     Davidson diagonalization with overlap
     ethr =  5.87E-03,  avg # of iterations =  2.0

     negative rho (up, down):  1.268E-02 0.000E+00
 
     Adding external electric field

     Computed dipole along edir(3) : 
        Dipole                0.0953 Ry au,          0.2421 Debye
        Dipole field          0.0000 Ry au, 
 
        Potential amp.       -0.0032 Ry
        Total length         43.3013 bohr
 

     total cpu time spent up to now is       31.6 secs

     total energy              =     -37.71567581 Ry
     estimated scf accuracy    <       0.07576032 Ry

     iteration #  4     ecut=    29.40 Ry     beta= 0.05
     Davidson diagonalization with overlap
     ethr =  5.41E-04,  avg # of iterations =  5.0

     negative rho (up, down):  2.489E-02 0.000E+00
 
     Adding external electric field

     Computed dipole along edir(3) : 
        Dipole                0.1242 Ry au,          0.3156 Debye
        Dipole field          0.0000 Ry au, 
 
        Potential amp.       -0.0042 Ry
        Total length         43.3013 bohr
 

     total cpu time spent up to now is       35.9 secs

     total energy              =     -37.69313142 Ry
     estimated scf accuracy    <       0.07975804 Ry

     iteration #  5     ecut=    29.40 Ry     beta= 0.05
     Davidson diagonalization with overlap
     ethr =  5.41E-04,  avg # of iterations =  4.0

     negative rho (up, down):  1.999E-02 0.000E+00
 
     Adding external electric field

     Computed dipole along edir(3) : 
        Dipole                0.1312 Ry au,          0.3336 Debye
        Dipole field          0.0001 Ry au, 
 
        Potential amp.       -0.0044 Ry
        Total length         43.3013 bohr
 

     total cpu time spent up to now is       40.2 secs

     total energy              =     -37.69416019 Ry
     estimated scf accuracy    <       0.01820515 Ry

     iteration #  6     ecut=    29.40 Ry     beta= 0.05
     Davidson diagonalization with overlap
     ethr =  1.30E-04,  avg # of iterations =  7.2

     negative rho (up, down):  2.021E-02 0.000E+00
 
     Adding external electric field

     Computed dipole along edir(3) : 
        Dipole                0.1399 Ry au,          0.3556 Debye
        Dipole field          0.0001 Ry au, 
 
        Potential amp.       -0.0047 Ry
        Total length         43.3013 bohr
 

     total cpu time spent up to now is       45.3 secs

     total energy              =     -37.69732054 Ry
     estimated scf accuracy    <       0.00456114 Ry

     iteration #  7     ecut=    29.40 Ry     beta= 0.05
     Davidson diagonalization with overlap
     ethr =  3.26E-05,  avg # of iterations =  9.6

     negative rho (up, down):  2.114E-02 0.000E+00
 
     Adding external electric field

     Computed dipole along edir(3) : 
        Dipole                0.1434 Ry au,          0.3646 Debye
        Dipole field          0.0001 Ry au, 
 
        Potential amp.       -0.0048 Ry
        Total length         43.3013 bohr
 

     total cpu time spent up to now is       50.5 secs

     total energy              =     -37.69703597 Ry
     estimated scf accuracy    <       0.00200212 Ry

     iteration #  8     ecut=    29.40 Ry     beta= 0.05
     Davidson diagonalization with overlap
     ethr =  1.43E-05,  avg # of iterations =  8.3

     negative rho (up, down):  1.991E-02 0.000E+00
 
     Adding external electric field

     Computed dipole along edir(3) : 
        Dipole                0.1408 Ry au,          0.3579 Debye
        Dipole field          0.0001 Ry au, 
 
        Potential amp.       -0.0047 Ry
        Total length         43.3013 bohr
 

     total cpu time spent up to now is       55.1 secs

     total energy              =     -37.69714724 Ry
     estimated scf accuracy    <       0.00020751 Ry

     iteration #  9     ecut=    29.40 Ry     beta= 0.05
     Davidson diagonalization with overlap
     c_bands:  2 eigenvalues not converged
     c_bands:  1 eigenvalues not converged
     c_bands:  2 eigenvalues not converged
     ethr =  1.48E-06,  avg # of iterations = 12.8

     negative rho (up, down):  2.026E-02 0.000E+00
 
     Adding external electric field

     Computed dipole along edir(3) : 
        Dipole                0.1473 Ry au,          0.3744 Debye
        Dipole field          0.0001 Ry au, 
 
        Potential amp.       -0.0050 Ry
        Total length         43.3013 bohr
 

     total cpu time spent up to now is       61.4 secs

     total energy              =     -37.69706650 Ry
     estimated scf accuracy    <       0.00051922 Ry

     iteration # 10     ecut=    29.40 Ry     beta= 0.05
     Davidson diagonalization with overlap
     ethr =  1.48E-06,  avg # of iterations =  3.0

     negative rho (up, down):  1.936E-02 0.000E+00
 
     Adding external electric field

     Computed dipole along edir(3) : 
        Dipole                0.1476 Ry au,          0.3752 Debye
        Dipole field          0.0001 Ry au, 
 
        Potential amp.       -0.0050 Ry
        Total length         43.3013 bohr
 

     total cpu time spent up to now is       65.8 secs

     total energy              =     -37.69709978 Ry
     estimated scf accuracy    <       0.00002493 Ry

     iteration # 11     ecut=    29.40 Ry     beta= 0.05
     Davidson diagonalization with overlap
     ethr =  1.78E-07,  avg # of iterations =  2.0

     negative rho (up, down):  1.855E-02 0.000E+00
 
     Adding external electric field

     Computed dipole along edir(3) : 
        Dipole                0.1476 Ry au,          0.3752 Debye
        Dipole field          0.0001 Ry au, 
 
        Potential amp.       -0.0050 Ry
        Total length         43.3013 bohr
 

     total cpu time spent up to now is       70.0 secs

     total energy              =     -37.69707588 Ry
     estimated scf accuracy    <       0.00001634 Ry

     iteration # 12     ecut=    29.40 Ry     beta= 0.05
     Davidson diagonalization with overlap
     ethr =  1.17E-07,  avg # of iterations =  2.0

     negative rho (up, down):  1.794E-02 0.000E+00
 
     Adding external electric field

     Computed dipole along edir(3) : 
        Dipole                0.1481 Ry au,          0.3764 Debye
        Dipole field          0.0001 Ry au, 
 
        Potential amp.       -0.0050 Ry
        Total length         43.3013 bohr
 

     total cpu time spent up to now is       74.2 secs

     total energy              =     -37.69705359 Ry
     estimated scf accuracy    <       0.00000353 Ry

     iteration # 13     ecut=    29.40 Ry     beta= 0.05
     Davidson diagonalization with overlap
     ethr =  2.52E-08,  avg # of iterations =  2.0

     negative rho (up, down):  1.737E-02 0.000E+00
 
     Adding external electric field

     Computed dipole along edir(3) : 
        Dipole                0.1480 Ry au,          0.3763 Debye
        Dipole field          0.0001 Ry au, 
 
        Potential amp.       -0.0050 Ry
        Total length         43.3013 bohr
 

     total cpu time spent up to now is       78.5 secs

     total energy              =     -37.69702674 Ry
     estimated scf accuracy    <       0.00000107 Ry

     iteration # 14     ecut=    29.40 Ry     beta= 0.05
     Davidson diagonalization with overlap
     ethr =  7.68E-09,  avg # of iterations =  1.0

     negative rho (up, down):  1.691E-02 0.000E+00
 
     Adding external electric field

     Computed dipole along edir(3) : 
        Dipole                0.1480 Ry au,          0.3763 Debye
        Dipole field          0.0001 Ry au, 
 
        Potential amp.       -0.0050 Ry
        Total length         43.3013 bohr
 

     total cpu time spent up to now is       82.5 secs

     total energy              =     -37.69700247 Ry
     estimated scf accuracy    <       0.00000092 Ry

     iteration # 15     ecut=    29.40 Ry     beta= 0.05
     Davidson diagonalization with overlap
     ethr =  6.56E-09,  avg # of iterations =  1.0

     negative rho (up, down):  1.655E-02 0.000E+00
 
     Adding external electric field

     Computed dipole along edir(3) : 
        Dipole                0.1480 Ry au,          0.3762 Debye
        Dipole field          0.0001 Ry au, 
 
        Potential amp.       -0.0050 Ry
        Total length         43.3013 bohr
 

     total cpu time spent up to now is       86.7 secs

     total energy              =     -37.69697858 Ry
     estimated scf accuracy    <       0.00000099 Ry

     iteration # 16     ecut=    29.40 Ry     beta= 0.05
     Davidson diagonalization with overlap
     ethr =  6.56E-09,  avg # of iterations =  1.0

     negative rho (up, down):  1.628E-02 0.000E+00
 
     Adding external electric field

     Computed dipole along edir(3) : 
        Dipole                0.1475 Ry au,          0.3750 Debye
        Dipole field          0.0001 Ry au, 
 
        Potential amp.       -0.0050 Ry
        Total length         43.3013 bohr
 

     total cpu time spent up to now is       90.7 secs

     total energy              =     -37.69695740 Ry
     estimated scf accuracy    <       0.00000065 Ry

     iteration # 17     ecut=    29.40 Ry     beta= 0.05
     Davidson diagonalization with overlap
     ethr =  4.68E-09,  avg # of iterations =  3.0

     negative rho (up, down):  1.611E-02 0.000E+00
 
     Adding external electric field

     Computed dipole along edir(3) : 
        Dipole                0.1476 Ry au,          0.3752 Debye
        Dipole field          0.0001 Ry au, 
 
        Potential amp.       -0.0050 Ry
        Total length         43.3013 bohr
 

     total cpu time spent up to now is       95.3 secs

     total energy              =     -37.69694081 Ry
     estimated scf accuracy    <       0.00000199 Ry

     iteration # 18     ecut=    29.40 Ry     beta= 0.05
     Davidson diagonalization with overlap
     ethr =  4.68E-09,  avg # of iterations =  2.0

     negative rho (up, down):  1.602E-02 0.000E+00
 
     Adding external electric field

     Computed dipole along edir(3) : 
        Dipole                0.1477 Ry au,          0.3753 Debye
        Dipole field          0.0001 Ry au, 
 
        Potential amp.       -0.0050 Ry
        Total length         43.3013 bohr
 

     total cpu time spent up to now is       99.6 secs

     total energy              =     -37.69692797 Ry
     estimated scf accuracy    <       0.00000036 Ry

     iteration # 19     ecut=    29.40 Ry     beta= 0.05
     Davidson diagonalization with overlap
     ethr =  2.54E-09,  avg # of iterations =  2.0

     negative rho (up, down):  1.599E-02 0.000E+00
 
     Adding external electric field

     Computed dipole along edir(3) : 
        Dipole                0.1477 Ry au,          0.3754 Debye
        Dipole field          0.0001 Ry au, 
 
        Potential amp.       -0.0050 Ry
        Total length         43.3013 bohr
 

     total cpu time spent up to now is      103.9 secs

     total energy              =     -37.69691685 Ry
     estimated scf accuracy    <       0.00000008 Ry

     iteration # 20     ecut=    29.40 Ry     beta= 0.05
     Davidson diagonalization with overlap
     ethr =  5.61E-10,  avg # of iterations =  3.0

     negative rho (up, down):  2.491E-02 0.000E+00
 
     Adding external electric field

     Computed dipole along edir(3) : 
        Dipole                0.1477 Ry au,          0.3755 Debye
        Dipole field          0.0001 Ry au, 
 
        Potential amp.       -0.0050 Ry
        Total length         43.3013 bohr
 

     total cpu time spent up to now is      108.2 secs

     End of self-consistent calculation

          k = 0.0000 0.0000 0.0000 ( 86913 PWs)   bands (ev):

   -22.0066 -16.5559 -12.2590 -10.9312 -10.0271  -9.2404  -5.6759  -1.0562
    -0.3941  -0.2893  -0.2688   0.0076   0.0623   0.2202   0.2680   0.4353
     0.4757

          k = 0.0000 0.0177 0.0000 ( 86920 PWs)   bands (ev):

   -22.0066 -16.5559 -12.2590 -10.9312 -10.0271  -9.2404  -5.6759  -1.0477
    -0.4145  -0.2769  -0.2260  -0.0645   0.1175   0.1490   0.1944   0.3904
     0.4166

          k = 0.0000-0.0354 0.0000 ( 86898 PWs)   bands (ev):

   -22.0066 -16.5559 -12.2590 -10.9312 -10.0271  -9.2404  -5.6758  -1.0386
    -0.4437  -0.2469  -0.1495  -0.0839   0.0210   0.0417   0.2230   0.3584
     0.3941

          k = 0.0174 0.0000 0.0000 ( 86911 PWs)   bands (ev):

   -22.0066 -16.5559 -12.2590 -10.9312 -10.0271  -9.2404  -5.6759  -1.0479
    -0.4307  -0.2650  -0.2259  -0.0412   0.1056   0.1402   0.1878   0.3697
     0.4167

          k = 0.0174 0.0177 0.0000 ( 86907 PWs)   bands (ev):

   -22.0066 -16.5559 -12.2590 -10.9312 -10.0271  -9.2403  -5.6759  -1.0400
    -0.4228  -0.2638  -0.2234  -0.0767   0.1305   0.1711   0.1944   0.2647
     0.2992

          k = 0.0174-0.0354 0.0000 ( 86970 PWs)   bands (ev):

   -22.0066 -16.5559 -12.2590 -10.9312 -10.0272  -9.2404  -5.6759  -1.0316
    -0.4454  -0.2383  -0.1589  -0.0393   0.0235   0.0853   0.1435   0.2659
     0.3048

          k = 0.0174-0.0177 0.0000 ( 86907 PWs)   bands (ev):

   -22.0066 -16.5559 -12.2590 -10.9312 -10.0271  -9.2404  -5.6758  -1.0401
    -0.4427  -0.2439  -0.1684  -0.0988   0.0987   0.1344   0.2332   0.2535
     0.2860

          k =-0.0347 0.0000 0.0000 ( 86830 PWs)   bands (ev):

   -22.0066 -16.5559 -12.2590 -10.9312 -10.0271  -9.2403  -5.6759  -1.0390
    -0.4680  -0.2183  -0.1375  -0.0938   0.0187   0.0322   0.2365   0.3413
     0.4178

          k =-0.0347 0.0177 0.0000 ( 86940 PWs)   bands (ev):

   -22.0066 -16.5559 -12.2590 -10.9312 -10.0271  -9.2404  -5.6759  -1.0318
    -0.4593  -0.2071  -0.1666  -0.0471   0.0190   0.0682   0.1442   0.2910
     0.3216

          k =-0.0347-0.0354 0.0000 ( 86924 PWs)   bands (ev):

   -22.0066 -16.5559 -12.2590 -10.9312 -10.0272  -9.2404  -5.6758  -1.0242
    -0.4556  -0.2131  -0.1344  -0.0465   0.0806   0.1072   0.1589   0.1776
     0.2031

     the Fermi energy is    -3.3538 ev

!    total energy              =     -37.69681051 Ry
     estimated scf accuracy    <       0.00000003 Ry
     smearing contrib. (-TS)   =      -0.00000000 Ry
     internal energy E=F+TS    =     -37.69681051 Ry

     The total energy is F=E-TS. E is the sum of the following terms:
     one-electron contribution =    -128.19879646 Ry
     hartree contribution      =      65.92708058 Ry
     xc contribution           =     -12.73984224 Ry
     ewald contribution        =      37.31473912 Ry
     electric field correction =       0.00000849 Ry

     convergence has been achieved in  20 iterations

     Forces acting on atoms (cartesian axes, Ry/au):

     atom    1 type  1   force =     0.00500899   -0.00097902    0.00073084
     atom    2 type  2   force =    -0.01906936   -0.00164604   -0.00060333
     atom    3 type  3   force =     0.00425849   -0.00091107   -0.00456664
     atom    4 type  3   force =     0.00548362    0.00210651    0.00515008
     atom    5 type  3   force =     0.00439406    0.00277868   -0.00046574
     atom    6 type  3   force =    -0.00037292   -0.00070026   -0.00128217
     atom    7 type  3   force =     0.00029712   -0.00064881    0.00103695

     Total force =     0.022918     Total SCF correction =     0.000372
  @ DRIVER MODE: Message from server: STATUS
  @ DRIVER MODE: Message from server: GETFORCE
  @ DRIVER MODE: Returning v,forces,stress,ensemble 

     Writing output data file ./calc.save/
  @ DRIVER MODE: Message from server: EXIT
  @ DRIVE MODE: Exiting  
 
     init_run     :      7.43s CPU      7.72s WALL (       1 calls)
     electrons    :     96.85s CPU    100.15s WALL (       1 calls)
     forces       :      1.29s CPU      1.35s WALL (       1 calls)

     Called by init_run:
     wfcinit      :      0.64s CPU      0.68s WALL (       1 calls)
     potinit      :      5.20s CPU      5.31s WALL (       1 calls)
     hinit0       :      0.44s CPU      0.46s WALL (       1 calls)

     Called by electrons:
     c_bands      :     46.42s CPU     46.80s WALL (      20 calls)
     sum_band     :     10.91s CPU     11.85s WALL (      20 calls)
     v_of_rho     :     38.67s CPU     39.86s WALL (      21 calls)
     newd         :      3.46s CPU      4.37s WALL (      21 calls)
     mix_rho      :      1.56s CPU      1.58s WALL (      20 calls)
     vdW_kernel   :      3.04s CPU      3.05s WALL (       1 calls)

     Called by c_bands:
     init_us_2    :      0.51s CPU      0.55s WALL (     420 calls)
     cegterg      :     45.78s CPU     46.07s WALL (     207 calls)

     Called by *egterg:
     cdiaghg      :      1.98s CPU      2.00s WALL (    1259 calls)
     h_psi        :     36.71s CPU     36.96s WALL (    1276 calls)
     s_psi        :      0.54s CPU      0.55s WALL (    1276 calls)
     g_psi        :      0.17s CPU      0.17s WALL (    1059 calls)

     Called by h_psi:
     h_psi:calbec :      0.66s CPU      0.67s WALL (    1276 calls)
     vloc_psi     :     35.05s CPU     35.28s WALL (    1276 calls)
     add_vuspsi   :      0.79s CPU      0.80s WALL (    1276 calls)

     General routines
     calbec       :      0.86s CPU      0.87s WALL (    1516 calls)
     fft          :     25.91s CPU     26.03s WALL (    1323 calls)
     ffts         :      0.13s CPU      0.13s WALL (      41 calls)
     fftw         :     36.74s CPU     36.98s WALL (   27102 calls)
     interpolate  :      0.50s CPU      0.50s WALL (      21 calls)
     davcio       :      0.00s CPU      0.04s WALL (      10 calls)
 
     Parallel routines
 
     PWSCF        :   1m45.97s CPU   1m50.11s WALL

 
   This run was terminated on:  16:29:21   5Aug2021            

=------------------------------------------------------------------------------=
   JOB DONE.
=------------------------------------------------------------------------------=
