
     Program PWSCF v.6.7GPU starts on  4Aug2021 at  0:12: 0 

     This program is part of the open-source Quantum ESPRESSO suite
     for quantum simulation of materials; please cite
         "P. Giannozzi et al., J. Phys.:Condens. Matter 21 395502 (2009);
         "P. Giannozzi et al., J. Phys.:Condens. Matter 29 465901 (2017);
         "P. Giannozzi et al., J. Chem. Phys. 152 154105 (2020);
          URL http://www.quantum-espresso.org", 
     in publications or presentations arising from this work. More details at
     http://www.quantum-espresso.org/quote

     Parallel version (MPI), running on    16 processors

     MPI processes distributed on     1 nodes
     R & G space division:  proc/nbgrp/npool/nimage =      16
     Reading input from /storage/home/hcoda1/3/ntian30/research/carbon/02Aug_vib_paired/ads_slab/CH3NH3NH3_a/out_0029/pw.inp
Warning: card &CELL ignored
Warning: card   CELL_DYNAMICS='IPI', ignored
Warning: card / ignored

     Current dimensions of program PWSCF are:
     Max number of different atomic species (ntypx) = 10
     Max number of k-points (npk) =  40000
     Max angular momentum in pseudopotentials (lmaxx) =  3
     Presently no symmetry can be used with electric field

     Message from routine cell_base_init:
     DEPRECATED: use true lattice parameter, not A to a.u. conversion factor

     **************************************************************************
     Initializing libbeef V0.1.2 with the BEEF-vdW functional.
     Citation: Wellendorff et al., PRB 85, 235149 (2012).
     **************************************************************************


     IMPORTANT: XC functional enforced from input :
     Exchange-correlation= BEEF-VDW
                           (   1   4  43  14   2   0   0)
     Any further DFT definition will be discarded
     Please, verify this is what you really want


     Subspace diagonalization in iterative solution of the eigenvalue problem:
     one sub-group per band group will be used
     scalapack distributed-memory algorithm (size of sub-group:  4*  4 procs)

  @ DRIVER MODE: Connecting to 
 qe_1139763_2492108.sched-torque.pace.gatech.edu9083ab04_scratch
  using UNIX socket
  @ DRIVER MODE: Message from server: STATUS
  @ DRIVER MODE: Message from server: INIT
  @ DRIVER MODE: Receiving replica           0          -1
  @ DRIVER MODE: Receiving encoded integer          25
  @ DRIVER MODE:  SCF:  T  FORCE:  T  STRESS:  F  VC:  F  ENSEMBLE:  F
  @ DRIVER MODE:  SCF:  T  FORCE:  T  STRESS:  F  VC:  F  ENSEMBLE:  F
 
     Parallelization info
     --------------------
     sticks:   dense  smooth     PW     G-vecs:    dense   smooth      PW
     Min         204      82     23                35422     8962    1367
     Max         205      84     24                35435     8968    1382
     Sum        3275    1317    379               566857   143421   21985
 
     Using Slab Decomposition
 


     bravais-lattice index     =            0
     lattice parameter (alat)  =       1.8897  a.u.
     unit-cell volume          =    6658.9804 (a.u.)^3
     number of atoms/cell      =           59
     number of atomic types    =            5
     number of electrons       =       401.00
     number of Kohn-Sham states=          210
     kinetic-energy cutoff     =      29.3995  Ry
     charge density cutoff     =     293.9946  Ry
     scf convergence threshold =      7.3E-08
     mixing beta               =       0.0500
     number of iterations used =            8  plain     mixing
     Exchange-correlation= BEEF-VDW
                           (   1   4  43  14   2   0   0)

     celldm(1)=   1.889726  celldm(2)=   0.000000  celldm(3)=   0.000000
     celldm(4)=   0.000000  celldm(5)=   0.000000  celldm(6)=   0.000000

     crystal axes: (cart. coord. in units of alat)
               a(1) = (   6.579727   0.000000   0.000000 )  
               a(2) = (  -0.000775   5.961596   0.000000 )  
               a(3) = (   0.000000   0.000000  25.155947 )  

     reciprocal axes: (cart. coord. in units 2 pi/alat)
               b(1) = (  0.151982  0.000020  0.000000 )  
               b(2) = (  0.000000  0.167740  0.000000 )  
               b(3) = (  0.000000  0.000000  0.039752 )  


     PseudoPot. # 1 for Ti read from file:
     /storage/coda1/p-amedford6/0/shared/rich_project_chbe-medford/medford-share/data/pseudos_module/espresso/nninc/pbe/van/Ti.UPF
     MD5 check sum: 8e4df49b7f0d34bbd5052bf3f5ea0213
     Pseudo is Ultrasoft, Zval = 12.0
     Generated by new atomic code, or converted to UPF format
     Using radial grid of  851 points,  6 beta functions with: 
                l(1) =   0
                l(2) =   0
                l(3) =   1
                l(4) =   1
                l(5) =   2
                l(6) =   2
     Q(r) pseudized with  8 coefficients,  rinner =    1.000   1.000   1.000
                                                       1.000   1.000

     PseudoPot. # 2 for O  read from file:
     /storage/coda1/p-amedford6/0/shared/rich_project_chbe-medford/medford-share/data/pseudos_module/espresso/nninc/pbe/van/O.UPF
     MD5 check sum: 78c19812648e8988a0fe644b0f25305e
     Pseudo is Ultrasoft, Zval =  6.0
     Generated by new atomic code, or converted to UPF format
     Using radial grid of  737 points,  4 beta functions with: 
                l(1) =   0
                l(2) =   0
                l(3) =   1
                l(4) =   1
     Q(r) pseudized with  8 coefficients,  rinner =    0.800   0.800   0.800


     PseudoPot. # 3 for C  read from file:
     /storage/coda1/p-amedford6/0/shared/rich_project_chbe-medford/medford-share/data/pseudos_module/espresso/nninc/pbe/van/C.UPF
     MD5 check sum: 1a69bf6b8db32088f5b2163dbdb77a27
     Pseudo is Ultrasoft, Zval =  4.0
     Generated by new atomic code, or converted to UPF format
     Using radial grid of  721 points,  4 beta functions with: 
                l(1) =   0
                l(2) =   0
                l(3) =   1
                l(4) =   1
     Q(r) pseudized with  8 coefficients,  rinner =    0.800   0.800   0.800


     PseudoPot. # 4 for H  read from file:
     /storage/coda1/p-amedford6/0/shared/rich_project_chbe-medford/medford-share/data/pseudos_module/espresso/nninc/pbe/van/H.UPF
     MD5 check sum: b5ee9d7bfd3a09ee7748110bda690ff7
     Pseudo is Ultrasoft, Zval =  1.0
     Generated by new atomic code, or converted to UPF format
     Using radial grid of  615 points,  1 beta functions with: 
                l(1) =   0
     Q(r) pseudized with  8 coefficients,  rinner =    0.800

     PseudoPot. # 5 for N  read from file:
     /storage/coda1/p-amedford6/0/shared/rich_project_chbe-medford/medford-share/data/pseudos_module/espresso/nninc/pbe/van/N.UPF
     MD5 check sum: 90d10febe142ad51ac9d5be1deb811c4
     Pseudo is Ultrasoft, Zval =  5.0
     Generated by new atomic code, or converted to UPF format
     Using radial grid of  729 points,  4 beta functions with: 
                l(1) =   0
                l(2) =   0
                l(3) =   1
                l(4) =   1
     Q(r) pseudized with  8 coefficients,  rinner =    0.800   0.800   0.800


     atomic species   valence    mass     pseudopotential
        Ti1           12.00    47.86700     Ti( 1.00)
        O1             6.00    15.99900     O ( 1.00)
        C1             4.00    12.01100     C ( 1.00)
        H1             1.00     1.00800     H ( 1.00)
        N1             5.00    14.00700     N ( 1.00)

     No symmetry found



   Cartesian axes

     site n.     atom                  positions (alat units)
         1           Ti1 tau(   1) = (   0.0004258   2.9801865   6.0000000  )
         2           Ti1 tau(   2) = (   3.2906075   1.4906267   6.0002472  )
         3           O1  tau(   3) = (   0.0006271   0.0005054   7.9858123  )
         4           O1  tau(   4) = (   3.2906025   0.0005020   7.3038282  )
         5           O1  tau(   5) = (   4.5942328   1.4918067   9.2879030  )
         6           O1  tau(   6) = (   1.9868534   1.4903216   9.2879459  )
         7           Ti1 tau(   7) = (   3.2907910   2.8959150   9.1758416  )
         8           Ti1 tau(   8) = (   0.0015273   1.4827037   9.2680791  )
         9           O1  tau(   9) = (   3.3006472   5.9526327  11.3326431  )
        10           O1  tau(  10) = (   0.0116148   5.9584955  10.6183126  )
        11           O1  tau(  11) = (   1.2986171   1.4856602  12.6180737  )
        12           O1  tau(  12) = (   5.2832837   1.4869688  12.6136912  )
        13           Ti1 tau(  13) = (   0.0716907   2.9700601  12.6329626  )
        14           Ti1 tau(  14) = (   3.3921379   1.4824266  12.4783935  )
        15           O1  tau(  15) = (   0.0098915   0.0277142  14.6273811  )
        16           O1  tau(  16) = (   3.2980527   0.0034327  13.9214941  )
        17           O1  tau(  17) = (   4.5491770   1.5035522  16.0668258  )
        18           O1  tau(  18) = (   2.0540802   1.5011373  16.0688643  )
        19           Ti1 tau(  19) = (   3.2973159   2.9845483  15.7023000  )
        20           Ti1 tau(  20) = (   6.5754392   1.4353193  15.8239573  )
        21           O1  tau(  21) = (   3.2904802   0.0005063   4.7018136  )
        22           O1  tau(  22) = (   0.0048264   5.9571524  17.1588256  )
        23           O1  tau(  23) = (   1.3043587   1.4918075   6.0039043  )
        24           O1  tau(  24) = (   5.2767064   1.4903225   6.0039473  )
        25           Ti1 tau(  25) = (   0.0000382   5.9609847   6.0000000  )
        26           Ti1 tau(  26) = (   3.2902200   4.4714249   6.0002472  )
        27           O1  tau(  27) = (   0.0002396   2.9813036   7.9858123  )
        28           O1  tau(  28) = (   3.2902150   2.9813002   7.3038282  )
        29           O1  tau(  29) = (   4.5938453   4.4726049   9.2879030  )
        30           O1  tau(  30) = (   1.9864658   4.4711199   9.2879459  )
        31           Ti1 tau(  31) = (   3.2891106   5.8743827   9.1763621  )
        32           Ti1 tau(  32) = (   0.0006254   4.4649316   9.2693709  )
        33           O1  tau(  33) = (   3.3024910   2.9811918  11.3312481  )
        34           O1  tau(  34) = (   0.0092240   2.9805883  10.6323155  )
        35           O1  tau(  35) = (   1.2967186   4.4682081  12.6345707  )
        36           O1  tau(  36) = (   5.2888097   4.4704914  12.6297389  )
        37           Ti1 tau(  37) = (   0.0778612   5.9457776  12.5489457  )
        38           Ti1 tau(  38) = (   3.3928769   4.4622707  12.4864817  )
        39           O1  tau(  39) = (   0.0140712   2.9461142  14.6842920  )
        40           O1  tau(  40) = (   3.2991745   2.9776924  13.9065265  )
        41           O1  tau(  41) = (   4.5418516   4.4678888  16.0645815  )
        42           O1  tau(  42) = (   2.0574864   4.4691885  16.0636024  )
        43           Ti1 tau(  43) = (   3.2861726   0.0051191  15.7195692  )
        44           Ti1 tau(  44) = (   6.5761434   4.5285208  16.1368719  )
        45           O1  tau(  45) = (   3.2900926   2.9813045   4.7018136  )
        46           O1  tau(  46) = (   1.3039711   4.4726057   6.0039043  )
        47           O1  tau(  47) = (   5.2763189   4.4711207   6.0039473  )
        48           C1  tau(  48) = (   0.0175971   3.0427671  17.7901079  )
        49           H1  tau(  49) = (   5.6823727   3.3959267  18.2745233  )
        50           H1  tau(  50) = (   0.1100020   1.9921885  18.0671921  )
        51           H1  tau(  51) = (   0.8707680   3.5346006  18.2680029  )
        52           N1  tau(  52) = (   6.1495222   1.5591847  21.8098380  )
        53           H1  tau(  53) = (   6.1793786   2.4848735  21.3946126  )
        54           H1  tau(  54) = (   6.2462200   0.9013766  21.0428083  )
        55           H1  tau(  55) = (   5.2088654   1.4480024  22.1828036  )
        56           N1  tau(  56) = (   2.8510371   0.9663425  23.1735989  )
        57           H1  tau(  57) = (   2.8683653   5.9129692  23.1556095  )
        58           H1  tau(  58) = (   1.9074079   1.2374795  22.9038124  )
        59           H1  tau(  59) = (   2.9640119   1.2328864  24.1466208  )

     number of k points=    10  Fermi-Dirac smearing, width (Ry)=  0.0073
                       cart. coord. in units 2pi/alat
        k(    1) = (   0.0000000   0.0000000   0.0000000), wk =   0.1250000
        k(    2) = (   0.0000000   0.0419351   0.0000000), wk =   0.2500000
        k(    3) = (   0.0000000  -0.0838702   0.0000000), wk =   0.1250000
        k(    4) = (   0.0379955   0.0000049   0.0000000), wk =   0.2500000
        k(    5) = (   0.0379955   0.0419400   0.0000000), wk =   0.2500000
        k(    6) = (   0.0379955  -0.0838652   0.0000000), wk =   0.2500000
        k(    7) = (   0.0379955  -0.0419301   0.0000000), wk =   0.2500000
        k(    8) = (  -0.0759910  -0.0000099   0.0000000), wk =   0.1250000
        k(    9) = (  -0.0759910   0.0419252   0.0000000), wk =   0.2500000
        k(   10) = (  -0.0759910  -0.0838800   0.0000000), wk =   0.1250000

     Dense  grid:   566857 G-vectors     FFT dimensions: (  72,  64, 270)

     Smooth grid:   143421 G-vectors     FFT dimensions: (  45,  40, 180)

     Estimated max dynamical RAM per process >     230.48 MB

     Estimated total dynamical RAM >       3.60 GB
     Cannot read rho : file not found

     Initial potential from superposition of free atoms

     starting charge  384.99911, renormalised to  401.00000

     negative rho (up, down):  4.921E-03 0.000E+00


     %%%%%%%%%%%%%%%%%%%%%%%%%%%%%%%%%%%%%%%%%%%%%%%%%%%%%%%%%%%%%%%%%%%%%%%%
     %                                                                      %
     % You are using vdW-DF, which was implemented by the Thonhauser group. %
     % Please cite the following two papers that made this development      %
     % possible and the two reviews that describe the various versions:     %
     %                                                                      %
     %   T. Thonhauser et al., PRL 115, 136402 (2015).                      %
     %   T. Thonhauser et al., PRB 76, 125112 (2007).                       %
     %   K. Berland et al., Rep. Prog. Phys. 78, 066501 (2015).             %
     %   D.C. Langreth et al., J. Phys.: Condens. Matter 21, 084203 (2009). %
     %                                                                      %
     %                                                                      %
     % If you are calculating the stress with vdW-DF, please also cite:     %
     %                                                                      %
     %   R. Sabatini et al., J. Phys.: Condens. Matter 24, 424209 (2012).   %
     %                                                                      %
     %%%%%%%%%%%%%%%%%%%%%%%%%%%%%%%%%%%%%%%%%%%%%%%%%%%%%%%%%%%%%%%%%%%%%%%%


 
     Adding external electric field

     Computed dipole along edir(3) : 
        Dipole              -16.7053 Ry au,        -42.4606 Debye
        Dipole field         -0.0315 Ry au, 
 
        Potential amp.        2.9223 Ry
        Total length         46.3494 bohr
 
     Starting wfcs are  305 atomic wfcs
  @ DRIVER MODE: Message from server: STATUS
  @ DRIVER MODE: Message from server: POSDATA
  @ DRIVER MODE: Reading and sharing cell 
  @ DRIVER MODE: Reading and sharing positions 
  @ DRIVER MODE: Received positions 

     total cpu time spent up to now is       10.6 secs

     Self-consistent Calculation

     iteration #  1     ecut=    29.40 Ry     beta= 0.05
     Davidson diagonalization with overlap
     c_bands:  2 eigenvalues not converged
     c_bands:  3 eigenvalues not converged
     c_bands:  1 eigenvalues not converged
     c_bands:  4 eigenvalues not converged
     c_bands:  4 eigenvalues not converged
     c_bands:  2 eigenvalues not converged
     c_bands:  3 eigenvalues not converged
     c_bands:  3 eigenvalues not converged
     c_bands:  4 eigenvalues not converged
     ethr =  1.00E-05,  avg # of iterations = 19.8

     negative rho (up, down):  4.370E-03 0.000E+00
 
     Adding external electric field

     Computed dipole along edir(3) : 
        Dipole               52.7504 Ry au,        134.0781 Debye
        Dipole field          0.0995 Ry au, 
 
        Potential amp.       -9.2279 Ry
        Total length         46.3494 bohr
 

     total cpu time spent up to now is       53.4 secs

     total energy              =   -2364.26087945 Ry
     estimated scf accuracy    <    6692.63303797 Ry

     iteration #  2     ecut=    29.40 Ry     beta= 0.05
     Davidson diagonalization with overlap
     ethr =  1.00E-02,  avg # of iterations = 22.6

     negative rho (up, down):  1.615E-04 0.000E+00
 
     Adding external electric field

     Computed dipole along edir(3) : 
        Dipole               -4.9557 Ry au,        -12.5961 Debye
        Dipole field         -0.0094 Ry au, 
 
        Potential amp.        0.8669 Ry
        Total length         46.3494 bohr
 

     total cpu time spent up to now is      116.4 secs

     total energy              =   -2339.10291870 Ry
     estimated scf accuracy    <   83507.88872427 Ry

     iteration #  3     ecut=    29.40 Ry     beta= 0.05
     Davidson diagonalization with overlap
     c_bands:  1 eigenvalues not converged
     c_bands:  2 eigenvalues not converged
     c_bands:  1 eigenvalues not converged
     c_bands:  2 eigenvalues not converged
     ethr =  1.00E-02,  avg # of iterations = 18.6

     negative rho (up, down):  1.855E-04 0.000E+00
 
     Adding external electric field

     Computed dipole along edir(3) : 
        Dipole               -6.3611 Ry au,        -16.1683 Debye
        Dipole field         -0.0120 Ry au, 
 
        Potential amp.        1.1128 Ry
        Total length         46.3494 bohr
 

     total cpu time spent up to now is      153.8 secs

     total energy              =   -2944.26351807 Ry
     estimated scf accuracy    <    5816.77481368 Ry

     iteration #  4     ecut=    29.40 Ry     beta= 0.05
     Davidson diagonalization with overlap
     ethr =  1.00E-02,  avg # of iterations = 12.2

     negative rho (up, down):  1.868E-04 0.000E+00
 
     Adding external electric field

     Computed dipole along edir(3) : 
        Dipole               -6.6861 Ry au,        -16.9944 Debye
        Dipole field         -0.0126 Ry au, 
 
        Potential amp.        1.1696 Ry
        Total length         46.3494 bohr
 

     total cpu time spent up to now is      169.1 secs

     total energy              =   -2943.97521353 Ry
     estimated scf accuracy    <    2126.53113709 Ry

     iteration #  5     ecut=    29.40 Ry     beta= 0.05
     Davidson diagonalization with overlap
     ethr =  1.00E-02,  avg # of iterations =  4.4

     negative rho (up, down):  1.933E-04 0.000E+00
 
     Adding external electric field

     Computed dipole along edir(3) : 
        Dipole               -6.9295 Ry au,        -17.6131 Debye
        Dipole field         -0.0131 Ry au, 
 
        Potential amp.        1.2122 Ry
        Total length         46.3494 bohr
 

     total cpu time spent up to now is      177.4 secs

     total energy              =   -2919.85201944 Ry
     estimated scf accuracy    <    1960.74839243 Ry

     iteration #  6     ecut=    29.40 Ry     beta= 0.05
     Davidson diagonalization with overlap
     ethr =  1.00E-02,  avg # of iterations = 10.8

     negative rho (up, down):  1.811E-04 0.000E+00
 
     Adding external electric field

     Computed dipole along edir(3) : 
        Dipole               -4.8375 Ry au,        -12.2956 Debye
        Dipole field         -0.0091 Ry au, 
 
        Potential amp.        0.8462 Ry
        Total length         46.3494 bohr
 

     total cpu time spent up to now is      193.5 secs

     total energy              =   -2949.40818005 Ry
     estimated scf accuracy    <     165.45438555 Ry

     iteration #  7     ecut=    29.40 Ry     beta= 0.05
     Davidson diagonalization with overlap
     ethr =  1.00E-02,  avg # of iterations =  1.4

     negative rho (up, down):  1.692E-04 0.000E+00
 
     Adding external electric field

     Computed dipole along edir(3) : 
        Dipole               -2.5373 Ry au,         -6.4491 Debye
        Dipole field         -0.0048 Ry au, 
 
        Potential amp.        0.4439 Ry
        Total length         46.3494 bohr
 

     total cpu time spent up to now is      200.7 secs

     total energy              =   -2952.50759630 Ry
     estimated scf accuracy    <     150.23911455 Ry

     iteration #  8     ecut=    29.40 Ry     beta= 0.05
     Davidson diagonalization with overlap
     c_bands:  2 eigenvalues not converged
     ethr =  1.00E-02,  avg # of iterations =  9.2

     negative rho (up, down):  1.613E-04 0.000E+00
 
     Adding external electric field

     Computed dipole along edir(3) : 
        Dipole                2.0810 Ry au,          5.2893 Debye
        Dipole field          0.0039 Ry au, 
 
        Potential amp.       -0.3640 Ry
        Total length         46.3494 bohr
 

     total cpu time spent up to now is      210.7 secs

     total energy              =   -2992.59983108 Ry
     estimated scf accuracy    <    1138.79381739 Ry

     iteration #  9     ecut=    29.40 Ry     beta= 0.05
     Davidson diagonalization with overlap
     ethr =  1.00E-02,  avg # of iterations = 13.0

     negative rho (up, down):  1.734E-04 0.000E+00
 
     Adding external electric field

     Computed dipole along edir(3) : 
        Dipole                0.9104 Ry au,          2.3141 Debye
        Dipole field          0.0017 Ry au, 
 
        Potential amp.       -0.1593 Ry
        Total length         46.3494 bohr
 

     total cpu time spent up to now is      225.0 secs

     total energy              =   -2965.28880600 Ry
     estimated scf accuracy    <    4587.90165086 Ry

     iteration # 10     ecut=    29.40 Ry     beta= 0.05
     Davidson diagonalization with overlap
     ethr =  1.00E-02,  avg # of iterations =  5.1

     negative rho (up, down):  1.862E-04 0.000E+00
 
     Adding external electric field

     Computed dipole along edir(3) : 
        Dipole                2.0028 Ry au,          5.0906 Debye
        Dipole field          0.0038 Ry au, 
 
        Potential amp.       -0.3504 Ry
        Total length         46.3494 bohr
 

     total cpu time spent up to now is      233.7 secs

     total energy              =   -2941.25086511 Ry
     estimated scf accuracy    <    3176.83185003 Ry

     iteration # 11     ecut=    29.40 Ry     beta= 0.05
     Davidson diagonalization with overlap
     ethr =  1.00E-02,  avg # of iterations =  9.0

     negative rho (up, down):  2.047E-04 0.000E+00
 
     Adding external electric field

     Computed dipole along edir(3) : 
        Dipole                0.4553 Ry au,          1.1572 Debye
        Dipole field          0.0009 Ry au, 
 
        Potential amp.       -0.0796 Ry
        Total length         46.3494 bohr
 

     total cpu time spent up to now is      246.4 secs

     total energy              =   -2933.44361700 Ry
     estimated scf accuracy    <    1904.62679932 Ry

     iteration # 12     ecut=    29.40 Ry     beta= 0.05
     Davidson diagonalization with overlap
     c_bands:  1 eigenvalues not converged
     ethr =  1.00E-02,  avg # of iterations =  7.7

     negative rho (up, down):  2.249E-04 0.000E+00
 
     Adding external electric field

     Computed dipole along edir(3) : 
        Dipole               -2.0043 Ry au,         -5.0944 Debye
        Dipole field         -0.0038 Ry au, 
 
        Potential amp.        0.3506 Ry
        Total length         46.3494 bohr
 

     total cpu time spent up to now is      256.1 secs

     total energy              =   -2922.78861913 Ry
     estimated scf accuracy    <     759.42536271 Ry

     iteration # 13     ecut=    29.40 Ry     beta= 0.05
     Davidson diagonalization with overlap
     ethr =  1.00E-02,  avg # of iterations =  9.3

     negative rho (up, down):  1.335E-04 0.000E+00
 
     Adding external electric field

     Computed dipole along edir(3) : 
        Dipole               -1.1731 Ry au,         -2.9817 Debye
        Dipole field         -0.0022 Ry au, 
 
        Potential amp.        0.2052 Ry
        Total length         46.3494 bohr
 

     total cpu time spent up to now is      271.2 secs

     total energy              =   -2944.68302120 Ry
     estimated scf accuracy    <     212.48924956 Ry

     iteration # 14     ecut=    29.40 Ry     beta= 0.05
     Davidson diagonalization with overlap
     ethr =  1.00E-02,  avg # of iterations =  2.4

     negative rho (up, down):  1.358E-04 0.000E+00
 
     Adding external electric field

     Computed dipole along edir(3) : 
        Dipole               -1.2210 Ry au,         -3.1034 Debye
        Dipole field         -0.0023 Ry au, 
 
        Potential amp.        0.2136 Ry
        Total length         46.3494 bohr
 

     total cpu time spent up to now is      278.9 secs

     total energy              =   -2948.59682822 Ry
     estimated scf accuracy    <      12.72834160 Ry

     iteration # 15     ecut=    29.40 Ry     beta= 0.05
     Davidson diagonalization with overlap
     ethr =  3.17E-03,  avg # of iterations =  2.2

     negative rho (up, down):  1.544E-04 0.000E+00
 
     Adding external electric field

     Computed dipole along edir(3) : 
        Dipole               -2.1355 Ry au,         -5.4278 Debye
        Dipole field         -0.0040 Ry au, 
 
        Potential amp.        0.3736 Ry
        Total length         46.3494 bohr
 

     total cpu time spent up to now is      286.4 secs

     total energy              =   -2946.31683155 Ry
     estimated scf accuracy    <      10.81707869 Ry

     iteration # 16     ecut=    29.40 Ry     beta= 0.05
     Davidson diagonalization with overlap
     c_bands:  4 eigenvalues not converged
     ethr =  2.70E-03,  avg # of iterations = 10.4

     negative rho (up, down):  1.497E-04 0.000E+00
 
     Adding external electric field

     Computed dipole along edir(3) : 
        Dipole               -1.9021 Ry au,         -4.8347 Debye
        Dipole field         -0.0036 Ry au, 
 
        Potential amp.        0.3327 Ry
        Total length         46.3494 bohr
 

     total cpu time spent up to now is      298.2 secs

     total energy              =   -2949.56236054 Ry
     estimated scf accuracy    <     695.48068340 Ry

     iteration # 17     ecut=    29.40 Ry     beta= 0.05
     Davidson diagonalization with overlap
     ethr =  2.70E-03,  avg # of iterations =  2.2

     negative rho (up, down):  1.664E-04 0.000E+00
 
     Adding external electric field

     Computed dipole along edir(3) : 
        Dipole               -1.8404 Ry au,         -4.6779 Debye
        Dipole field         -0.0035 Ry au, 
 
        Potential amp.        0.3220 Ry
        Total length         46.3494 bohr
 

     total cpu time spent up to now is      305.8 secs

     total energy              =   -2949.54451758 Ry
     estimated scf accuracy    <     580.00000386 Ry

     iteration # 18     ecut=    29.40 Ry     beta= 0.05
     Davidson diagonalization with overlap
     ethr =  2.70E-03,  avg # of iterations =  1.1

     negative rho (up, down):  2.637E-04 0.000E+00
 
     Adding external electric field

     Computed dipole along edir(3) : 
        Dipole               -1.3002 Ry au,         -3.3049 Debye
        Dipole field         -0.0025 Ry au, 
 
        Potential amp.        0.2275 Ry
        Total length         46.3494 bohr
 

     total cpu time spent up to now is      312.7 secs

     total energy              =   -2946.80858490 Ry
     estimated scf accuracy    <     569.98785486 Ry

     iteration # 19     ecut=    29.40 Ry     beta= 0.05
     Davidson diagonalization with overlap
     ethr =  2.70E-03,  avg # of iterations =  1.6

     negative rho (up, down):  3.548E-04 0.000E+00
 
     Adding external electric field

     Computed dipole along edir(3) : 
        Dipole               -1.3884 Ry au,         -3.5289 Debye
        Dipole field         -0.0026 Ry au, 
 
        Potential amp.        0.2429 Ry
        Total length         46.3494 bohr
 

     total cpu time spent up to now is      322.8 secs

     total energy              =   -2947.86244343 Ry
     estimated scf accuracy    <     136.45324234 Ry

     iteration # 20     ecut=    29.40 Ry     beta= 0.05
     Davidson diagonalization with overlap
     ethr =  2.70E-03,  avg # of iterations =  1.0

     negative rho (up, down):  5.443E-04 0.000E+00
 
     Adding external electric field

     Computed dipole along edir(3) : 
        Dipole               -1.4102 Ry au,         -3.5844 Debye
        Dipole field         -0.0027 Ry au, 
 
        Potential amp.        0.2467 Ry
        Total length         46.3494 bohr
 

     total cpu time spent up to now is      330.3 secs

     total energy              =   -2948.17088784 Ry
     estimated scf accuracy    <     306.15493470 Ry

     iteration # 21     ecut=    29.40 Ry     beta= 0.05
     Davidson diagonalization with overlap
     ethr =  2.70E-03,  avg # of iterations =  1.2

     negative rho (up, down):  1.577E-03 0.000E+00
 
     Adding external electric field

     Computed dipole along edir(3) : 
        Dipole               -1.4218 Ry au,         -3.6139 Debye
        Dipole field         -0.0027 Ry au, 
 
        Potential amp.        0.2487 Ry
        Total length         46.3494 bohr
 

     total cpu time spent up to now is      338.2 secs

     total energy              =   -2948.46845423 Ry
     estimated scf accuracy    <     352.79572566 Ry

     iteration # 22     ecut=    29.40 Ry     beta= 0.05
     Davidson diagonalization with overlap
     ethr =  2.70E-03,  avg # of iterations =  2.6

     negative rho (up, down):  1.739E-03 0.000E+00
 
     Adding external electric field

     Computed dipole along edir(3) : 
        Dipole               -0.9357 Ry au,         -2.3783 Debye
        Dipole field         -0.0018 Ry au, 
 
        Potential amp.        0.1637 Ry
        Total length         46.3494 bohr
 

     total cpu time spent up to now is      345.7 secs

     total energy              =   -2944.62248513 Ry
     estimated scf accuracy    <     408.90102069 Ry

     iteration # 23     ecut=    29.40 Ry     beta= 0.05
     Davidson diagonalization with overlap
     ethr =  2.70E-03,  avg # of iterations =  2.4

     negative rho (up, down):  2.868E-03 0.000E+00
 
     Adding external electric field

     Computed dipole along edir(3) : 
        Dipole               -0.6775 Ry au,         -1.7219 Debye
        Dipole field         -0.0013 Ry au, 
 
        Potential amp.        0.1185 Ry
        Total length         46.3494 bohr
 

     total cpu time spent up to now is      353.6 secs

     total energy              =   -2946.13297202 Ry
     estimated scf accuracy    <      34.86291274 Ry

     iteration # 24     ecut=    29.40 Ry     beta= 0.05
     Davidson diagonalization with overlap
     ethr =  2.70E-03,  avg # of iterations =  2.8

     negative rho (up, down):  4.196E-03 0.000E+00
 
     Adding external electric field

     Computed dipole along edir(3) : 
        Dipole               -0.4853 Ry au,         -1.2335 Debye
        Dipole field         -0.0009 Ry au, 
 
        Potential amp.        0.0849 Ry
        Total length         46.3494 bohr
 

     total cpu time spent up to now is      361.2 secs

     total energy              =   -2946.13538020 Ry
     estimated scf accuracy    <      26.39861989 Ry

     iteration # 25     ecut=    29.40 Ry     beta= 0.05
     Davidson diagonalization with overlap
     ethr =  2.70E-03,  avg # of iterations =  2.3

     negative rho (up, down):  7.283E-03 0.000E+00
 
     Adding external electric field

     Computed dipole along edir(3) : 
        Dipole               -0.0489 Ry au,         -0.1244 Debye
        Dipole field         -0.0001 Ry au, 
 
        Potential amp.        0.0086 Ry
        Total length         46.3494 bohr
 

     total cpu time spent up to now is      368.5 secs

     total energy              =   -2945.89597565 Ry
     estimated scf accuracy    <      20.53969252 Ry

     iteration # 26     ecut=    29.40 Ry     beta= 0.05
     Davidson diagonalization with overlap
     ethr =  2.70E-03,  avg # of iterations =  4.1

     negative rho (up, down):  4.422E-03 0.000E+00
 
     Adding external electric field

     Computed dipole along edir(3) : 
        Dipole                0.0102 Ry au,          0.0260 Debye
        Dipole field          0.0000 Ry au, 
 
        Potential amp.       -0.0018 Ry
        Total length         46.3494 bohr
 

     total cpu time spent up to now is      376.5 secs

     total energy              =   -2946.31591278 Ry
     estimated scf accuracy    <       4.70324679 Ry

     iteration # 27     ecut=    29.40 Ry     beta= 0.05
     Davidson diagonalization with overlap
     ethr =  1.17E-03,  avg # of iterations =  4.4

     negative rho (up, down):  3.836E-03 0.000E+00
 
     Adding external electric field

     Computed dipole along edir(3) : 
        Dipole                0.0261 Ry au,          0.0662 Debye
        Dipole field          0.0000 Ry au, 
 
        Potential amp.       -0.0046 Ry
        Total length         46.3494 bohr
 

     total cpu time spent up to now is      384.9 secs

     total energy              =   -2946.38579065 Ry
     estimated scf accuracy    <       2.58129578 Ry

     iteration # 28     ecut=    29.40 Ry     beta= 0.05
     Davidson diagonalization with overlap
     c_bands:  1 eigenvalues not converged
     ethr =  6.44E-04,  avg # of iterations =  9.5

     negative rho (up, down):  6.425E-03 0.000E+00
 
     Adding external electric field

     Computed dipole along edir(3) : 
        Dipole                0.1737 Ry au,          0.4415 Debye
        Dipole field          0.0003 Ry au, 
 
        Potential amp.       -0.0304 Ry
        Total length         46.3494 bohr
 

     total cpu time spent up to now is      395.0 secs

     total energy              =   -2946.58032298 Ry
     estimated scf accuracy    <       0.52797156 Ry

     iteration # 29     ecut=    29.40 Ry     beta= 0.05
     Davidson diagonalization with overlap
     c_bands:  2 eigenvalues not converged
     c_bands:  4 eigenvalues not converged
     c_bands:  5 eigenvalues not converged
     c_bands:  4 eigenvalues not converged
     c_bands:  1 eigenvalues not converged
     ethr =  1.32E-04,  avg # of iterations = 21.9

     negative rho (up, down):  6.381E-03 0.000E+00
 
     Adding external electric field

     Computed dipole along edir(3) : 
        Dipole                0.1648 Ry au,          0.4190 Debye
        Dipole field          0.0003 Ry au, 
 
        Potential amp.       -0.0288 Ry
        Total length         46.3494 bohr
 

     total cpu time spent up to now is      413.0 secs

     total energy              =   -2946.63262787 Ry
     estimated scf accuracy    <       0.88791050 Ry

     iteration # 30     ecut=    29.40 Ry     beta= 0.05
     Davidson diagonalization with overlap
     c_bands:  1 eigenvalues not converged
     ethr =  1.32E-04,  avg # of iterations =  5.0

     negative rho (up, down):  5.395E-03 0.000E+00
 
     Adding external electric field

     Computed dipole along edir(3) : 
        Dipole                0.1519 Ry au,          0.3862 Debye
        Dipole field          0.0003 Ry au, 
 
        Potential amp.       -0.0266 Ry
        Total length         46.3494 bohr
 

     total cpu time spent up to now is      426.8 secs

     total energy              =   -2946.57051736 Ry
     estimated scf accuracy    <       0.83166310 Ry

     iteration # 31     ecut=    29.40 Ry     beta= 0.05
     Davidson diagonalization with overlap
     ethr =  1.32E-04,  avg # of iterations =  3.4

     negative rho (up, down):  4.220E-03 0.000E+00
 
     Adding external electric field

     Computed dipole along edir(3) : 
        Dipole                0.2001 Ry au,          0.5086 Debye
        Dipole field          0.0004 Ry au, 
 
        Potential amp.       -0.0350 Ry
        Total length         46.3494 bohr
 

     total cpu time spent up to now is      434.8 secs

     total energy              =   -2946.56596493 Ry
     estimated scf accuracy    <       0.18537586 Ry

     iteration # 32     ecut=    29.40 Ry     beta= 0.05
     Davidson diagonalization with overlap
     c_bands:  2 eigenvalues not converged
     c_bands:  2 eigenvalues not converged
     c_bands:  1 eigenvalues not converged
     c_bands:  5 eigenvalues not converged
     ethr =  4.62E-05,  avg # of iterations = 17.8

     negative rho (up, down):  4.547E-03 0.000E+00
 
     Adding external electric field

     Computed dipole along edir(3) : 
        Dipole                0.2177 Ry au,          0.5533 Debye
        Dipole field          0.0004 Ry au, 
 
        Potential amp.       -0.0381 Ry
        Total length         46.3494 bohr
 

     total cpu time spent up to now is      451.7 secs

     total energy              =   -2946.58464595 Ry
     estimated scf accuracy    <       0.14751138 Ry

     iteration # 33     ecut=    29.40 Ry     beta= 0.05
     Davidson diagonalization with overlap
     c_bands:  1 eigenvalues not converged
     ethr =  3.68E-05,  avg # of iterations =  5.9

     negative rho (up, down):  3.734E-03 0.000E+00
 
     Adding external electric field

     Computed dipole along edir(3) : 
        Dipole                0.2081 Ry au,          0.5288 Debye
        Dipole field          0.0004 Ry au, 
 
        Potential amp.       -0.0364 Ry
        Total length         46.3494 bohr
 

     total cpu time spent up to now is      460.3 secs

     total energy              =   -2946.57385244 Ry
     estimated scf accuracy    <       0.15207003 Ry

     iteration # 34     ecut=    29.40 Ry     beta= 0.05
     Davidson diagonalization with overlap
     ethr =  3.68E-05,  avg # of iterations = 11.7

     negative rho (up, down):  2.931E-03 0.000E+00
 
     Adding external electric field

     Computed dipole along edir(3) : 
        Dipole                0.2457 Ry au,          0.6246 Debye
        Dipole field          0.0005 Ry au, 
 
        Potential amp.       -0.0430 Ry
        Total length         46.3494 bohr
 

     total cpu time spent up to now is      471.4 secs

     total energy              =   -2946.57903645 Ry
     estimated scf accuracy    <       0.10487636 Ry

     iteration # 35     ecut=    29.40 Ry     beta= 0.05
     Davidson diagonalization with overlap
     ethr =  2.62E-05,  avg # of iterations =  4.1

     negative rho (up, down):  2.136E-03 0.000E+00
 
     Adding external electric field

     Computed dipole along edir(3) : 
        Dipole                0.2488 Ry au,          0.6323 Debye
        Dipole field          0.0005 Ry au, 
 
        Potential amp.       -0.0435 Ry
        Total length         46.3494 bohr
 

     total cpu time spent up to now is      479.5 secs

     total energy              =   -2946.57546607 Ry
     estimated scf accuracy    <       0.07828307 Ry

     iteration # 36     ecut=    29.40 Ry     beta= 0.05
     Davidson diagonalization with overlap
     c_bands:  3 eigenvalues not converged
     c_bands:  3 eigenvalues not converged
     c_bands:  1 eigenvalues not converged
     c_bands:  2 eigenvalues not converged
     ethr =  1.95E-05,  avg # of iterations = 15.9

     negative rho (up, down):  2.274E-03 0.000E+00
 
     Adding external electric field

     Computed dipole along edir(3) : 
        Dipole                0.2354 Ry au,          0.5982 Debye
        Dipole field          0.0004 Ry au, 
 
        Potential amp.       -0.0412 Ry
        Total length         46.3494 bohr
 

     total cpu time spent up to now is      492.0 secs

     total energy              =   -2946.57949045 Ry
     estimated scf accuracy    <       0.04582436 Ry

     iteration # 37     ecut=    29.40 Ry     beta= 0.05
     Davidson diagonalization with overlap
     ethr =  1.14E-05,  avg # of iterations =  5.0

     negative rho (up, down):  2.394E-03 0.000E+00
 
     Adding external electric field

     Computed dipole along edir(3) : 
        Dipole                0.1757 Ry au,          0.4465 Debye
        Dipole field          0.0003 Ry au, 
 
        Potential amp.       -0.0307 Ry
        Total length         46.3494 bohr
 

     total cpu time spent up to now is      500.5 secs

     total energy              =   -2946.57714337 Ry
     estimated scf accuracy    <       0.02021791 Ry

     iteration # 38     ecut=    29.40 Ry     beta= 0.05
     Davidson diagonalization with overlap
     c_bands:  1 eigenvalues not converged
     c_bands:  1 eigenvalues not converged
     c_bands:  3 eigenvalues not converged
     c_bands:  1 eigenvalues not converged
     c_bands:  1 eigenvalues not converged
     c_bands:  1 eigenvalues not converged
     c_bands:  1 eigenvalues not converged
     ethr =  5.04E-06,  avg # of iterations = 18.5

     negative rho (up, down):  3.007E-03 0.000E+00
 
     Adding external electric field

     Computed dipole along edir(3) : 
        Dipole                0.2351 Ry au,          0.5976 Debye
        Dipole field          0.0004 Ry au, 
 
        Potential amp.       -0.0411 Ry
        Total length         46.3494 bohr
 

     total cpu time spent up to now is      517.7 secs

     total energy              =   -2946.58029421 Ry
     estimated scf accuracy    <       0.01797904 Ry

     iteration # 39     ecut=    29.40 Ry     beta= 0.05
     Davidson diagonalization with overlap
     c_bands:  1 eigenvalues not converged
     c_bands:  1 eigenvalues not converged
     ethr =  4.48E-06,  avg # of iterations = 11.6

     negative rho (up, down):  3.296E-03 0.000E+00
 
     Adding external electric field

     Computed dipole along edir(3) : 
        Dipole                0.2833 Ry au,          0.7201 Debye
        Dipole field          0.0005 Ry au, 
 
        Potential amp.       -0.0496 Ry
        Total length         46.3494 bohr
 

     total cpu time spent up to now is      528.7 secs

     total energy              =   -2946.58137749 Ry
     estimated scf accuracy    <       0.01729053 Ry

     iteration # 40     ecut=    29.40 Ry     beta= 0.05
     Davidson diagonalization with overlap
     c_bands:  1 eigenvalues not converged
     ethr =  4.31E-06,  avg # of iterations = 11.3

     negative rho (up, down):  3.526E-03 0.000E+00
 
     Adding external electric field

     Computed dipole along edir(3) : 
        Dipole                0.2680 Ry au,          0.6812 Debye
        Dipole field          0.0005 Ry au, 
 
        Potential amp.       -0.0469 Ry
        Total length         46.3494 bohr
 

     total cpu time spent up to now is      546.3 secs

     total energy              =   -2946.58145309 Ry
     estimated scf accuracy    <       0.01397810 Ry

     iteration # 41     ecut=    29.40 Ry     beta= 0.05
     Davidson diagonalization with overlap
     c_bands:  1 eigenvalues not converged
     ethr =  3.49E-06,  avg # of iterations =  4.8

     negative rho (up, down):  4.666E-03 0.000E+00
 
     Adding external electric field

     Computed dipole along edir(3) : 
        Dipole                0.2633 Ry au,          0.6693 Debye
        Dipole field          0.0005 Ry au, 
 
        Potential amp.       -0.0461 Ry
        Total length         46.3494 bohr
 

     total cpu time spent up to now is      554.5 secs

     total energy              =   -2946.57922663 Ry
     estimated scf accuracy    <       0.01062822 Ry

     iteration # 42     ecut=    29.40 Ry     beta= 0.05
     Davidson diagonalization with overlap
     c_bands:  1 eigenvalues not converged
     c_bands:  3 eigenvalues not converged
     ethr =  2.65E-06,  avg # of iterations = 16.5

     negative rho (up, down):  4.758E-03 0.000E+00
 
     Adding external electric field

     Computed dipole along edir(3) : 
        Dipole                0.3419 Ry au,          0.8690 Debye
        Dipole field          0.0006 Ry au, 
 
        Potential amp.       -0.0598 Ry
        Total length         46.3494 bohr
 

     total cpu time spent up to now is      578.4 secs

     total energy              =   -2946.57440587 Ry
     estimated scf accuracy    <       0.04929002 Ry

     iteration # 43     ecut=    29.40 Ry     beta= 0.05
     Davidson diagonalization with overlap
     c_bands:  1 eigenvalues not converged
     c_bands:  4 eigenvalues not converged
     c_bands:  4 eigenvalues not converged
     c_bands:  2 eigenvalues not converged
     c_bands:  2 eigenvalues not converged
     ethr =  2.65E-06,  avg # of iterations = 17.4

     negative rho (up, down):  5.076E-03 0.000E+00
 
     Adding external electric field

     Computed dipole along edir(3) : 
        Dipole                0.3072 Ry au,          0.7807 Debye
        Dipole field          0.0006 Ry au, 
 
        Potential amp.       -0.0537 Ry
        Total length         46.3494 bohr
 

     total cpu time spent up to now is      607.2 secs

     total energy              =   -2946.58166132 Ry
     estimated scf accuracy    <       0.00607597 Ry

     iteration # 44     ecut=    29.40 Ry     beta= 0.05
     Davidson diagonalization with overlap
     ethr =  1.52E-06,  avg # of iterations =  6.1

     negative rho (up, down):  5.064E-03 0.000E+00
 
     Adding external electric field

     Computed dipole along edir(3) : 
        Dipole                0.2964 Ry au,          0.7535 Debye
        Dipole field          0.0006 Ry au, 
 
        Potential amp.       -0.0519 Ry
        Total length         46.3494 bohr
 

     total cpu time spent up to now is      616.0 secs

     total energy              =   -2946.58178574 Ry
     estimated scf accuracy    <       0.00120511 Ry

     iteration # 45     ecut=    29.40 Ry     beta= 0.05
     Davidson diagonalization with overlap
     c_bands:  1 eigenvalues not converged
     ethr =  3.01E-07,  avg # of iterations = 13.0

     negative rho (up, down):  5.452E-03 0.000E+00
 
     Adding external electric field

     Computed dipole along edir(3) : 
        Dipole                0.2932 Ry au,          0.7451 Debye
        Dipole field          0.0006 Ry au, 
 
        Potential amp.       -0.0513 Ry
        Total length         46.3494 bohr
 

     total cpu time spent up to now is      630.7 secs

     total energy              =   -2946.58226214 Ry
     estimated scf accuracy    <       0.00117688 Ry

     iteration # 46     ecut=    29.40 Ry     beta= 0.05
     Davidson diagonalization with overlap
     ethr =  2.93E-07,  avg # of iterations =  6.9

     negative rho (up, down):  5.986E-03 0.000E+00
 
     Adding external electric field

     Computed dipole along edir(3) : 
        Dipole                0.3118 Ry au,          0.7925 Debye
        Dipole field          0.0006 Ry au, 
 
        Potential amp.       -0.0545 Ry
        Total length         46.3494 bohr
 

     total cpu time spent up to now is      640.8 secs

     total energy              =   -2946.58180232 Ry
     estimated scf accuracy    <       0.00155924 Ry

     iteration # 47     ecut=    29.40 Ry     beta= 0.05
     Davidson diagonalization with overlap
     ethr =  2.93E-07,  avg # of iterations =  8.7

     negative rho (up, down):  5.882E-03 0.000E+00
 
     Adding external electric field

     Computed dipole along edir(3) : 
        Dipole                0.3054 Ry au,          0.7762 Debye
        Dipole field          0.0006 Ry au, 
 
        Potential amp.       -0.0534 Ry
        Total length         46.3494 bohr
 

     total cpu time spent up to now is      653.9 secs

     total energy              =   -2946.58215307 Ry
     estimated scf accuracy    <       0.00078830 Ry

     iteration # 48     ecut=    29.40 Ry     beta= 0.05
     Davidson diagonalization with overlap
     ethr =  1.97E-07,  avg # of iterations =  3.4

     negative rho (up, down):  5.818E-03 0.000E+00
 
     Adding external electric field

     Computed dipole along edir(3) : 
        Dipole                0.3012 Ry au,          0.7657 Debye
        Dipole field          0.0006 Ry au, 
 
        Potential amp.       -0.0527 Ry
        Total length         46.3494 bohr
 

     total cpu time spent up to now is      663.3 secs

     total energy              =   -2946.58212709 Ry
     estimated scf accuracy    <       0.00037370 Ry

     iteration # 49     ecut=    29.40 Ry     beta= 0.05
     Davidson diagonalization with overlap
     ethr =  9.32E-08,  avg # of iterations =  9.4

     negative rho (up, down):  6.233E-03 0.000E+00
 
     Adding external electric field

     Computed dipole along edir(3) : 
        Dipole                0.3102 Ry au,          0.7883 Debye
        Dipole field          0.0006 Ry au, 
 
        Potential amp.       -0.0543 Ry
        Total length         46.3494 bohr
 

     total cpu time spent up to now is      676.0 secs

     total energy              =   -2946.58220394 Ry
     estimated scf accuracy    <       0.00025116 Ry

     iteration # 50     ecut=    29.40 Ry     beta= 0.05
     Davidson diagonalization with overlap
     ethr =  6.26E-08,  avg # of iterations =  7.6

     negative rho (up, down):  6.505E-03 0.000E+00
 
     Adding external electric field

     Computed dipole along edir(3) : 
        Dipole                0.3099 Ry au,          0.7877 Debye
        Dipole field          0.0006 Ry au, 
 
        Potential amp.       -0.0542 Ry
        Total length         46.3494 bohr
 

     total cpu time spent up to now is      688.8 secs

     total energy              =   -2946.58231495 Ry
     estimated scf accuracy    <       0.00036188 Ry

     iteration # 51     ecut=    29.40 Ry     beta= 0.05
     Davidson diagonalization with overlap
     ethr =  6.26E-08,  avg # of iterations =  1.9

     negative rho (up, down):  6.837E-03 0.000E+00
 
     Adding external electric field

     Computed dipole along edir(3) : 
        Dipole                0.3104 Ry au,          0.7889 Debye
        Dipole field          0.0006 Ry au, 
 
        Potential amp.       -0.0543 Ry
        Total length         46.3494 bohr
 

     total cpu time spent up to now is      699.9 secs

     total energy              =   -2946.58229945 Ry
     estimated scf accuracy    <       0.00022799 Ry

     iteration # 52     ecut=    29.40 Ry     beta= 0.05
     Davidson diagonalization with overlap
     ethr =  5.69E-08,  avg # of iterations =  7.6

     negative rho (up, down):  6.842E-03 0.000E+00
 
     Adding external electric field

     Computed dipole along edir(3) : 
        Dipole                0.3106 Ry au,          0.7894 Debye
        Dipole field          0.0006 Ry au, 
 
        Potential amp.       -0.0543 Ry
        Total length         46.3494 bohr
 

     total cpu time spent up to now is      710.9 secs

     total energy              =   -2946.58235997 Ry
     estimated scf accuracy    <       0.00003907 Ry

     iteration # 53     ecut=    29.40 Ry     beta= 0.05
     Davidson diagonalization with overlap
     ethr =  9.74E-09,  avg # of iterations = 11.3

     negative rho (up, down):  6.869E-03 0.000E+00
 
     Adding external electric field

     Computed dipole along edir(3) : 
        Dipole                0.3117 Ry au,          0.7923 Debye
        Dipole field          0.0006 Ry au, 
 
        Potential amp.       -0.0545 Ry
        Total length         46.3494 bohr
 

     total cpu time spent up to now is      721.6 secs

     total energy              =   -2946.58237108 Ry
     estimated scf accuracy    <       0.00003952 Ry

     iteration # 54     ecut=    29.40 Ry     beta= 0.05
     Davidson diagonalization with overlap
     ethr =  9.74E-09,  avg # of iterations =  6.0

     negative rho (up, down):  6.856E-03 0.000E+00
 
     Adding external electric field

     Computed dipole along edir(3) : 
        Dipole                0.3096 Ry au,          0.7870 Debye
        Dipole field          0.0006 Ry au, 
 
        Potential amp.       -0.0542 Ry
        Total length         46.3494 bohr
 

     total cpu time spent up to now is      730.5 secs

     total energy              =   -2946.58238543 Ry
     estimated scf accuracy    <       0.00002089 Ry

     iteration # 55     ecut=    29.40 Ry     beta= 0.05
     Davidson diagonalization with overlap
     ethr =  5.21E-09,  avg # of iterations =  8.8

     negative rho (up, down):  6.969E-03 0.000E+00
 
     Adding external electric field

     Computed dipole along edir(3) : 
        Dipole                0.3106 Ry au,          0.7895 Debye
        Dipole field          0.0006 Ry au, 
 
        Potential amp.       -0.0543 Ry
        Total length         46.3494 bohr
 

     total cpu time spent up to now is      743.6 secs

     total energy              =   -2946.58240417 Ry
     estimated scf accuracy    <       0.00005528 Ry

     iteration # 56     ecut=    29.40 Ry     beta= 0.05
     Davidson diagonalization with overlap
     ethr =  5.21E-09,  avg # of iterations =  1.3

     negative rho (up, down):  6.964E-03 0.000E+00
 
     Adding external electric field

     Computed dipole along edir(3) : 
        Dipole                0.3106 Ry au,          0.7893 Debye
        Dipole field          0.0006 Ry au, 
 
        Potential amp.       -0.0543 Ry
        Total length         46.3494 bohr
 

     total cpu time spent up to now is      750.8 secs

     total energy              =   -2946.58241575 Ry
     estimated scf accuracy    <       0.00004977 Ry

     iteration # 57     ecut=    29.40 Ry     beta= 0.05
     Davidson diagonalization with overlap
     ethr =  5.21E-09,  avg # of iterations =  1.0

     negative rho (up, down):  6.964E-03 0.000E+00
 
     Adding external electric field

     Computed dipole along edir(3) : 
        Dipole                0.3102 Ry au,          0.7884 Debye
        Dipole field          0.0006 Ry au, 
 
        Potential amp.       -0.0543 Ry
        Total length         46.3494 bohr
 

     total cpu time spent up to now is      763.7 secs

     total energy              =   -2946.58242760 Ry
     estimated scf accuracy    <       0.00005141 Ry

     iteration # 58     ecut=    29.40 Ry     beta= 0.05
     Davidson diagonalization with overlap
     ethr =  5.21E-09,  avg # of iterations =  1.0

     negative rho (up, down):  6.967E-03 0.000E+00
 
     Adding external electric field

     Computed dipole along edir(3) : 
        Dipole                0.3102 Ry au,          0.7885 Debye
        Dipole field          0.0006 Ry au, 
 
        Potential amp.       -0.0543 Ry
        Total length         46.3494 bohr
 

     total cpu time spent up to now is      770.6 secs

     total energy              =   -2946.58243612 Ry
     estimated scf accuracy    <       0.00005965 Ry

     iteration # 59     ecut=    29.40 Ry     beta= 0.05
     Davidson diagonalization with overlap
     ethr =  5.21E-09,  avg # of iterations =  1.0

     negative rho (up, down):  6.955E-03 0.000E+00
 
     Adding external electric field

     Computed dipole along edir(3) : 
        Dipole                0.3109 Ry au,          0.7902 Debye
        Dipole field          0.0006 Ry au, 
 
        Potential amp.       -0.0544 Ry
        Total length         46.3494 bohr
 

     total cpu time spent up to now is      778.2 secs

     total energy              =   -2946.58243730 Ry
     estimated scf accuracy    <       0.00005948 Ry

     iteration # 60     ecut=    29.40 Ry     beta= 0.05
     Davidson diagonalization with overlap
     ethr =  5.21E-09,  avg # of iterations =  2.3

     negative rho (up, down):  7.053E-03 0.000E+00
 
     Adding external electric field

     Computed dipole along edir(3) : 
        Dipole                0.3138 Ry au,          0.7975 Debye
        Dipole field          0.0006 Ry au, 
 
        Potential amp.       -0.0549 Ry
        Total length         46.3494 bohr
 

     total cpu time spent up to now is      785.9 secs

     total energy              =   -2946.58243014 Ry
     estimated scf accuracy    <       0.00003995 Ry

     iteration # 61     ecut=    29.40 Ry     beta= 0.05
     Davidson diagonalization with overlap
     ethr =  5.21E-09,  avg # of iterations = 12.5

     negative rho (up, down):  7.020E-03 0.000E+00
 
     Adding external electric field

     Computed dipole along edir(3) : 
        Dipole                0.3129 Ry au,          0.7954 Debye
        Dipole field          0.0006 Ry au, 
 
        Potential amp.       -0.0547 Ry
        Total length         46.3494 bohr
 

     total cpu time spent up to now is      806.6 secs

     total energy              =   -2946.58244392 Ry
     estimated scf accuracy    <       0.00004986 Ry

     iteration # 62     ecut=    29.40 Ry     beta= 0.05
     Davidson diagonalization with overlap
     ethr =  5.21E-09,  avg # of iterations =  7.1

     negative rho (up, down):  7.035E-03 0.000E+00
 
     Adding external electric field

     Computed dipole along edir(3) : 
        Dipole                0.3132 Ry au,          0.7960 Debye
        Dipole field          0.0006 Ry au, 
 
        Potential amp.       -0.0548 Ry
        Total length         46.3494 bohr
 

     total cpu time spent up to now is      817.3 secs

     total energy              =   -2946.58245340 Ry
     estimated scf accuracy    <       0.00000477 Ry

     iteration # 63     ecut=    29.40 Ry     beta= 0.05
     Davidson diagonalization with overlap
     c_bands:  1 eigenvalues not converged
     ethr =  1.19E-09,  avg # of iterations =  9.7

     negative rho (up, down):  7.047E-03 0.000E+00
 
     Adding external electric field

     Computed dipole along edir(3) : 
        Dipole                0.3140 Ry au,          0.7982 Debye
        Dipole field          0.0006 Ry au, 
 
        Potential amp.       -0.0549 Ry
        Total length         46.3494 bohr
 

     total cpu time spent up to now is      830.3 secs

     total energy              =   -2946.58246167 Ry
     estimated scf accuracy    <       0.00000392 Ry

     iteration # 64     ecut=    29.40 Ry     beta= 0.05
     Davidson diagonalization with overlap
     ethr =  9.77E-10,  avg # of iterations =  7.5

     negative rho (up, down):  7.003E-03 0.000E+00
 
     Adding external electric field

     Computed dipole along edir(3) : 
        Dipole                0.3141 Ry au,          0.7984 Debye
        Dipole field          0.0006 Ry au, 
 
        Potential amp.       -0.0549 Ry
        Total length         46.3494 bohr
 

     total cpu time spent up to now is      845.2 secs

     total energy              =   -2946.58246571 Ry
     estimated scf accuracy    <       0.00000772 Ry

     iteration # 65     ecut=    29.40 Ry     beta= 0.05
     Davidson diagonalization with overlap
     c_bands:  1 eigenvalues not converged
     ethr =  9.77E-10,  avg # of iterations =  9.0

     negative rho (up, down):  7.004E-03 0.000E+00
 
     Adding external electric field

     Computed dipole along edir(3) : 
        Dipole                0.3143 Ry au,          0.7989 Debye
        Dipole field          0.0006 Ry au, 
 
        Potential amp.       -0.0550 Ry
        Total length         46.3494 bohr
 

     total cpu time spent up to now is      856.1 secs

     total energy              =   -2946.58247079 Ry
     estimated scf accuracy    <       0.00000153 Ry

     iteration # 66     ecut=    29.40 Ry     beta= 0.05
     Davidson diagonalization with overlap
     ethr =  3.80E-10,  avg # of iterations = 12.0

     negative rho (up, down):  7.029E-03 0.000E+00
 
     Adding external electric field

     Computed dipole along edir(3) : 
        Dipole                0.3146 Ry au,          0.7996 Debye
        Dipole field          0.0006 Ry au, 
 
        Potential amp.       -0.0550 Ry
        Total length         46.3494 bohr
 

     total cpu time spent up to now is      867.0 secs

     total energy              =   -2946.58247473 Ry
     estimated scf accuracy    <       0.00000130 Ry

     iteration # 67     ecut=    29.40 Ry     beta= 0.05
     Davidson diagonalization with overlap
     ethr =  3.25E-10,  avg # of iterations =  5.7

     negative rho (up, down):  7.035E-03 0.000E+00
 
     Adding external electric field

     Computed dipole along edir(3) : 
        Dipole                0.3147 Ry au,          0.7998 Debye
        Dipole field          0.0006 Ry au, 
 
        Potential amp.       -0.0550 Ry
        Total length         46.3494 bohr
 

     total cpu time spent up to now is      876.0 secs

     total energy              =   -2946.58247808 Ry
     estimated scf accuracy    <       0.00000107 Ry

     iteration # 68     ecut=    29.40 Ry     beta= 0.05
     Davidson diagonalization with overlap
     ethr =  2.67E-10,  avg # of iterations =  6.0

     negative rho (up, down):  7.036E-03 0.000E+00
 
     Adding external electric field

     Computed dipole along edir(3) : 
        Dipole                0.3148 Ry au,          0.8001 Debye
        Dipole field          0.0006 Ry au, 
 
        Potential amp.       -0.0551 Ry
        Total length         46.3494 bohr
 

     total cpu time spent up to now is      885.0 secs

     total energy              =   -2946.58248122 Ry
     estimated scf accuracy    <       0.00000049 Ry

     iteration # 69     ecut=    29.40 Ry     beta= 0.05
     Davidson diagonalization with overlap
     ethr =  1.22E-10,  avg # of iterations = 11.0

     negative rho (up, down):  7.030E-03 0.000E+00
 
     Adding external electric field

     Computed dipole along edir(3) : 
        Dipole                0.3146 Ry au,          0.7997 Debye
        Dipole field          0.0006 Ry au, 
 
        Potential amp.       -0.0550 Ry
        Total length         46.3494 bohr
 

     total cpu time spent up to now is      896.3 secs

     total energy              =   -2946.58248408 Ry
     estimated scf accuracy    <       0.00000031 Ry

     iteration # 70     ecut=    29.40 Ry     beta= 0.05
     Davidson diagonalization with overlap
     ethr =  7.85E-11,  avg # of iterations =  2.3

     negative rho (up, down):  6.997E-03 0.000E+00
 
     Adding external electric field

     Computed dipole along edir(3) : 
        Dipole                0.3142 Ry au,          0.7987 Debye
        Dipole field          0.0006 Ry au, 
 
        Potential amp.       -0.0550 Ry
        Total length         46.3494 bohr
 

     total cpu time spent up to now is      904.0 secs

     total energy              =   -2946.58248669 Ry
     estimated scf accuracy    <       0.00000022 Ry

     iteration # 71     ecut=    29.40 Ry     beta= 0.05
     Davidson diagonalization with overlap
     ethr =  5.53E-11,  avg # of iterations = 11.7

     negative rho (up, down):  6.997E-03 0.000E+00
 
     Adding external electric field

     Computed dipole along edir(3) : 
        Dipole                0.3143 Ry au,          0.7989 Debye
        Dipole field          0.0006 Ry au, 
 
        Potential amp.       -0.0550 Ry
        Total length         46.3494 bohr
 

     total cpu time spent up to now is      919.2 secs

     total energy              =   -2946.58248902 Ry
     estimated scf accuracy    <       0.00000023 Ry

     iteration # 72     ecut=    29.40 Ry     beta= 0.05
     Davidson diagonalization with overlap
     ethr =  5.53E-11,  avg # of iterations =  7.1

     negative rho (up, down):  6.998E-03 0.000E+00
 
     Adding external electric field

     Computed dipole along edir(3) : 
        Dipole                0.3143 Ry au,          0.7989 Debye
        Dipole field          0.0006 Ry au, 
 
        Potential amp.       -0.0550 Ry
        Total length         46.3494 bohr
 

     total cpu time spent up to now is      929.1 secs

     total energy              =   -2946.58249111 Ry
     estimated scf accuracy    <       0.00000010 Ry

     iteration # 73     ecut=    29.40 Ry     beta= 0.05
     Davidson diagonalization with overlap
     ethr =  2.56E-11,  avg # of iterations =  7.2

     negative rho (up, down):  6.997E-03 0.000E+00
 
     Adding external electric field

     Computed dipole along edir(3) : 
        Dipole                0.3137 Ry au,          0.7972 Debye
        Dipole field          0.0006 Ry au, 
 
        Potential amp.       -0.0549 Ry
        Total length         46.3494 bohr
 

     total cpu time spent up to now is      938.6 secs

     End of self-consistent calculation

          k = 0.0000 0.0000 0.0000 ( 18029 PWs)   bands (ev):

   -55.9982 -55.9881 -55.9641 -55.9511 -55.8788 -55.8542 -55.8334 -55.8152
   -55.8053 -55.7714 -55.7712 -55.7377 -55.6126 -55.3909 -54.9789 -54.9449
   -32.5419 -32.4807 -32.3532 -32.3332 -32.3046 -32.3022 -32.2908 -32.2619
   -32.2402 -32.2169 -32.2099 -32.1954 -32.1679 -32.1503 -32.1412 -32.1271
   -32.1111 -32.1026 -32.0872 -32.0590 -32.0554 -32.0552 -32.0273 -32.0080
   -32.0075 -32.0024 -31.9934 -31.9894 -31.9761 -31.9738 -31.9656 -31.9457
   -31.9439 -31.9373 -31.9242 -31.9109 -31.8833 -31.8659 -31.8284 -31.6677
   -31.6414 -31.5287 -31.3861 -31.2972 -31.2748 -31.2026 -31.1161 -31.0053
   -16.7431 -16.4738 -16.2474 -16.1513 -16.1242 -16.0050 -15.8397 -15.7178
   -15.6695 -15.5692 -15.5598 -15.5350 -15.5023 -15.4784 -15.4777 -15.4434
   -15.4404 -15.4213 -15.4097 -15.3595 -15.3364 -15.3248 -15.2095 -15.1759
   -15.1335 -15.1124 -15.0547 -15.0421 -14.6197 -13.4818 -13.3655 -13.0402
   -12.9282  -9.1025  -4.1163  -3.9595  -3.9052  -3.8602  -3.8296  -3.6125
    -3.5465  -3.2489  -3.1847  -3.1701  -3.1527  -3.1368  -3.1203  -3.0710
    -3.0331  -2.9873  -2.9019  -2.8362  -2.8275  -2.8095  -2.8065  -2.7771
    -2.7675  -2.7553  -2.7147  -2.6891  -2.6630  -2.6129  -2.5580  -2.4959
    -2.4124  -2.3945  -2.3128  -2.2904  -2.2843  -2.2413  -2.2270  -2.2190
    -2.2001  -2.1750  -2.1619  -1.9784  -1.9399  -1.8371  -1.7810  -1.7789
    -1.6075  -1.5076  -1.4659  -1.4548  -1.4256  -1.3919  -1.3851  -1.2989
    -1.1822  -1.1509  -1.1180  -1.0460  -1.0023  -0.9706  -0.8730  -0.8456
    -0.7625  -0.7603  -0.7381  -0.6502  -0.5965  -0.4829  -0.4350  -0.4249
    -0.3870  -0.3578  -0.2885  -0.2742  -0.2175  -0.1450  -0.1242  -0.0614
    -0.0309  -0.0168  -0.0057   0.0111   0.0376   0.0679   0.1719   0.2023
     0.2818   0.3496   0.4448   0.5424   0.6481   0.6572   0.7584   0.9677
     1.0415   1.1397   1.1983   1.2356   1.6146   1.6605   1.7478   2.1863
     3.1390   3.2229   3.2706   3.2813   3.3724   3.3887   3.5891   3.6136
     3.6346   3.6868

          k = 0.0000 0.0419 0.0000 ( 17933 PWs)   bands (ev):

   -55.9931 -55.9830 -55.9690 -55.9560 -55.8752 -55.8499 -55.8369 -55.8193
   -55.8003 -55.7761 -55.7664 -55.7425 -55.6120 -55.3914 -54.9739 -54.9498
   -32.4846 -32.4268 -32.2985 -32.2890 -32.2862 -32.2788 -32.2780 -32.2242
   -32.2187 -32.2161 -32.2068 -32.2016 -32.1709 -32.1679 -32.1592 -32.1506
   -32.1365 -32.0981 -32.0739 -32.0691 -32.0553 -32.0474 -32.0236 -32.0215
   -32.0141 -32.0095 -32.0076 -32.0015 -31.9975 -31.9859 -31.9773 -31.9704
   -31.9638 -31.9421 -31.9415 -31.9376 -31.9266 -31.8623 -31.8275 -31.6675
   -31.6557 -31.5522 -31.3319 -31.2938 -31.2779 -31.1900 -31.1287 -31.0624
   -16.6071 -16.3536 -16.1377 -16.0424 -16.0233 -15.9699 -15.8644 -15.7782
   -15.7533 -15.5942 -15.5583 -15.5325 -15.5186 -15.5032 -15.4759 -15.4624
   -15.4559 -15.4242 -15.4138 -15.3841 -15.3447 -15.2968 -15.2312 -15.2031
   -15.1916 -15.1657 -15.1109 -15.0626 -14.7136 -13.4860 -13.4050 -13.0398
   -12.9280  -9.1116  -3.9243  -3.7935  -3.7285  -3.7000  -3.6602  -3.4544
    -3.3174  -3.2281  -3.1701  -3.1411  -3.0820  -3.0761  -3.0543  -3.0425
    -3.0354  -3.0030  -2.9544  -2.9465  -2.8883  -2.8760  -2.8659  -2.8339
    -2.8220  -2.7624  -2.7500  -2.7079  -2.7007  -2.6903  -2.6582  -2.5889
    -2.5772  -2.4918  -2.4900  -2.4379  -2.4175  -2.3694  -2.2611  -2.2474
    -2.1590  -2.1097  -1.9461  -1.9263  -1.8881  -1.7760  -1.7413  -1.6739
    -1.5939  -1.5879  -1.4196  -1.3394  -1.3086  -1.2864  -1.2048  -1.1907
    -1.0671  -1.0209  -0.9846  -0.9506  -0.9057  -0.9012  -0.8908  -0.8416
    -0.8123  -0.7891  -0.7394  -0.6642  -0.6347  -0.5471  -0.5062  -0.5025
    -0.4891  -0.4675  -0.4402  -0.2999  -0.2716  -0.2281  -0.1950  -0.1726
    -0.1602  -0.1362  -0.1128  -0.0292   0.0335   0.0576   0.1342   0.1841
     0.2327   0.2730   0.3352   0.3389   0.4002   0.5605   0.6613   0.6923
     1.0141   1.2312   1.2541   1.3153   1.5686   1.5725   1.7495   2.1844
     3.3325   3.3717   3.3868   3.4376   3.4907   3.5353   3.5973   3.6210
     3.6588   3.6884

          k = 0.0000-0.0839 0.0000 ( 17884 PWs)   bands (ev):

   -55.9816 -55.9805 -55.9740 -55.9649 -55.8708 -55.8439 -55.8412 -55.8253
   -55.7894 -55.7869 -55.7557 -55.7532 -55.6114 -55.3919 -54.9619 -54.9617
   -32.3490 -32.3404 -32.2949 -32.2941 -32.2766 -32.2756 -32.2595 -32.2505
   -32.1869 -32.1839 -32.1793 -32.1729 -32.1713 -32.1548 -32.1437 -32.1265
   -32.1079 -32.1034 -32.1022 -32.1003 -32.0767 -32.0765 -32.0731 -32.0437
   -32.0422 -32.0414 -32.0406 -32.0294 -32.0240 -32.0124 -31.9880 -31.9860
   -31.9659 -31.9620 -31.9344 -31.9343 -31.9331 -31.8571 -31.8266 -31.6814
   -31.6671 -31.5731 -31.2856 -31.2856 -31.1990 -31.1989 -31.1594 -31.1594
   -16.2645 -16.2584 -16.0698 -16.0678 -15.9071 -15.8994 -15.8040 -15.7849
   -15.7766 -15.7527 -15.7171 -15.7126 -15.5595 -15.5544 -15.4259 -15.3801
   -15.3778 -15.3748 -15.3541 -15.3342 -15.3325 -15.3070 -15.2976 -15.2916
   -15.2526 -15.2425 -15.1757 -15.0212 -14.8714 -13.4678 -13.4676 -13.0393
   -12.9278  -9.1204  -3.4777  -3.4529  -3.4058  -3.3881  -3.3717  -3.3637
    -3.2899  -3.2896  -3.2656  -3.2209  -3.1458  -3.1426  -3.1174  -3.1042
    -3.0807  -3.0767  -3.0550  -3.0385  -2.9861  -2.9514  -2.9425  -2.8538
    -2.8353  -2.8077  -2.7950  -2.7854  -2.7458  -2.7241  -2.7057  -2.6832
    -2.6143  -2.5681  -2.5114  -2.4013  -2.3740  -2.3547  -2.3150  -2.0658
    -1.9865  -1.9461  -1.8911  -1.8069  -1.7205  -1.7145  -1.6845  -1.6211
    -1.6002  -1.4635  -1.4284  -1.4163  -1.3837  -1.3720  -1.2979  -1.2771
    -1.1957  -1.1699  -1.1164  -1.1071  -1.0567  -0.8623  -0.7445  -0.7194
    -0.6683  -0.6310  -0.6218  -0.6119  -0.5826  -0.5561  -0.5307  -0.4977
    -0.4699  -0.4451  -0.4189  -0.4032  -0.3320  -0.3003  -0.2702  -0.2505
    -0.2235  -0.2075  -0.1850  -0.1635  -0.1384  -0.1097  -0.0390   0.0092
     0.1452   0.2407   0.2427   0.2522   0.2855   0.6124   0.6409   0.6989
     0.7539   1.3061   1.3746   1.3747   1.5055   1.5066   1.7510   2.1825
     3.4509   3.4688   3.4766   3.4997   3.5702   3.5804   3.6566   3.6869
     3.7283   3.7383

          k = 0.0380 0.0000 0.0000 ( 17913 PWs)   bands (ev):

   -55.9981 -55.9880 -55.9640 -55.9510 -55.8787 -55.8542 -55.8333 -55.8151
   -55.8050 -55.7715 -55.7711 -55.7376 -55.6125 -55.3908 -54.9788 -54.9448
   -32.5421 -32.4816 -32.3589 -32.3348 -32.3047 -32.3020 -32.2906 -32.2665
   -32.2402 -32.2130 -32.1991 -32.1932 -32.1678 -32.1474 -32.1343 -32.1267
   -32.1054 -32.1023 -32.0755 -32.0668 -32.0555 -32.0550 -32.0312 -32.0074
   -32.0043 -32.0018 -31.9895 -31.9864 -31.9749 -31.9736 -31.9667 -31.9655
   -31.9436 -31.9371 -31.9244 -31.9098 -31.8837 -31.8658 -31.8312 -31.6682
   -31.6412 -31.5285 -31.3856 -31.3006 -31.2728 -31.2024 -31.1160 -31.0051
   -16.6706 -16.3887 -16.1679 -16.1388 -16.0484 -16.0045 -15.8842 -15.7159
   -15.7058 -15.6905 -15.6664 -15.6164 -15.6001 -15.5665 -15.5485 -15.5263
   -15.3617 -15.3465 -15.3079 -15.2700 -15.2507 -15.2438 -15.2198 -15.1902
   -15.1767 -15.1536 -15.1397 -15.0273 -14.6183 -13.4786 -13.3652 -13.0263
   -12.9425  -9.1000  -4.0357  -3.7463  -3.6960  -3.6266  -3.6114  -3.5406
    -3.5314  -3.4642  -3.2452  -3.2402  -3.1231  -3.1142  -3.0910  -3.0732
    -3.0514  -3.0377  -3.0320  -2.9566  -2.8719  -2.8685  -2.8452  -2.7512
    -2.7127  -2.7090  -2.6494  -2.6041  -2.5884  -2.5550  -2.4677  -2.4390
    -2.3554  -2.3467  -2.3400  -2.2726  -2.2528  -2.2000  -2.1823  -2.1555
    -2.0702  -2.0269  -1.9624  -1.9199  -1.8574  -1.8319  -1.7787  -1.7325
    -1.7088  -1.6035  -1.5447  -1.5216  -1.4331  -1.4219  -1.3688  -1.2834
    -1.2791  -1.2667  -1.2188  -1.1307  -1.0776  -0.9969  -0.8878  -0.8254
    -0.8177  -0.7900  -0.7731  -0.7204  -0.6652  -0.5147  -0.4550  -0.4272
    -0.4080  -0.3853  -0.3295  -0.2903  -0.2601  -0.2151  -0.1941  -0.1615
    -0.1463  -0.1230  -0.1077  -0.0892  -0.0176   0.0845   0.1210   0.1608
     0.2296   0.2735   0.3689   0.4182   0.4667   0.6424   0.6910   0.9715
     1.0040   1.0534   1.2050   1.2237   1.5030   1.5775   1.8080   2.1169
     3.1734   3.1966   3.4823   3.5035   3.5199   3.5549   3.5686   3.5890
     3.6069   3.6542

          k = 0.0380 0.0419 0.0000 ( 17878 PWs)   bands (ev):

   -55.9931 -55.9829 -55.9690 -55.9560 -55.8751 -55.8499 -55.8368 -55.8193
   -55.8000 -55.7761 -55.7665 -55.7425 -55.6119 -55.3913 -54.9738 -54.9498
   -32.4848 -32.4276 -32.3054 -32.2888 -32.2860 -32.2804 -32.2781 -32.2243
   -32.2190 -32.2168 -32.2106 -32.1889 -32.1707 -32.1679 -32.1593 -32.1406
   -32.1339 -32.0933 -32.0698 -32.0688 -32.0565 -32.0473 -32.0245 -32.0212
   -32.0166 -32.0074 -32.0019 -31.9972 -31.9964 -31.9860 -31.9773 -31.9702
   -31.9652 -31.9621 -31.9397 -31.9345 -31.9313 -31.8623 -31.8300 -31.6684
   -31.6555 -31.5521 -31.3316 -31.2964 -31.2769 -31.1898 -31.1287 -31.0623
   -16.5413 -16.2754 -16.0662 -16.0320 -15.9688 -15.9442 -15.8664 -15.8151
   -15.7552 -15.6545 -15.6173 -15.5998 -15.5887 -15.5815 -15.4964 -15.4797
   -15.4167 -15.3870 -15.3829 -15.3268 -15.3211 -15.2929 -15.2468 -15.2426
   -15.2310 -15.1971 -15.1555 -15.0485 -14.7126 -13.4837 -13.4053 -13.0259
   -12.9422  -9.1100  -3.8589  -3.5742  -3.5308  -3.4530  -3.4362  -3.3860
    -3.3172  -3.2964  -3.1540  -3.1275  -3.0981  -3.0550  -3.0364  -3.0328
    -3.0007  -2.9829  -2.9513  -2.9005  -2.8746  -2.8696  -2.8521  -2.8173
    -2.7976  -2.7634  -2.7320  -2.7107  -2.6800  -2.6476  -2.6275  -2.5794
    -2.5193  -2.5019  -2.4700  -2.4315  -2.3357  -2.2821  -2.2238  -2.1619
    -2.1332  -2.0233  -1.9935  -1.9516  -1.8916  -1.7823  -1.7392  -1.6455
    -1.5835  -1.5545  -1.4550  -1.4171  -1.3936  -1.3164  -1.2728  -1.2606
    -1.2154  -1.1416  -1.1012  -1.0676  -0.9923  -0.9645  -0.9266  -0.8999
    -0.8460  -0.8136  -0.7837  -0.7368  -0.7074  -0.6636  -0.6240  -0.6063
    -0.5930  -0.5096  -0.4652  -0.4361  -0.3816  -0.3358  -0.3170  -0.2930
    -0.2499  -0.1895  -0.1471  -0.0599  -0.0268   0.0761   0.1465   0.2100
     0.2428   0.3157   0.3400   0.3975   0.4362   0.4682   0.5919   0.6605
     0.9482   1.2422   1.2628   1.3198   1.4910   1.5531   1.8108   2.1141
     3.3200   3.3849   3.4402   3.5176   3.5400   3.5778   3.6431   3.6774
     3.7084   3.7244

          k = 0.0380-0.0839 0.0000 ( 17916 PWs)   bands (ev):

   -55.9816 -55.9805 -55.9740 -55.9649 -55.8708 -55.8440 -55.8412 -55.8253
   -55.7894 -55.7868 -55.7558 -55.7533 -55.6114 -55.3919 -54.9619 -54.9617
   -32.3493 -32.3407 -32.2956 -32.2948 -32.2766 -32.2757 -32.2596 -32.2506
   -32.1970 -32.1874 -32.1859 -32.1825 -32.1458 -32.1448 -32.1357 -32.1280
   -32.1085 -32.1022 -32.1013 -32.1009 -32.0870 -32.0839 -32.0735 -32.0500
   -32.0413 -32.0322 -32.0292 -32.0186 -32.0179 -32.0124 -31.9880 -31.9858
   -31.9660 -31.9621 -31.9461 -31.9451 -31.9339 -31.8571 -31.8291 -31.6814
   -31.6683 -31.5731 -31.2866 -31.2865 -31.1989 -31.1988 -31.1594 -31.1594
   -16.2211 -16.2166 -16.0190 -16.0166 -15.8801 -15.8704 -15.8085 -15.7534
   -15.7320 -15.7224 -15.6983 -15.6891 -15.5740 -15.5669 -15.4692 -15.4372
   -15.4181 -15.4114 -15.3958 -15.3764 -15.3712 -15.3538 -15.3360 -15.3015
   -15.2950 -15.2725 -15.1544 -15.0145 -14.8661 -13.4676 -13.4674 -13.0255
   -12.9421  -9.1197  -3.4682  -3.4417  -3.2483  -3.2254  -3.1905  -3.1761
    -3.1447  -3.1340  -3.1024  -3.0811  -3.0662  -3.0579  -3.0497  -3.0389
    -3.0110  -3.0054  -2.9912  -2.9752  -2.9318  -2.8717  -2.8470  -2.8420
    -2.8288  -2.8037  -2.7867  -2.7270  -2.7197  -2.7146  -2.6979  -2.6318
    -2.6175  -2.6054  -2.5586  -2.4688  -2.4464  -2.1215  -2.1082  -2.0786
    -2.0036  -1.9295  -1.8992  -1.8826  -1.8296  -1.8217  -1.7780  -1.7656
    -1.6860  -1.6739  -1.6373  -1.6269  -1.5164  -1.4670  -1.4014  -1.3832
    -1.2327  -1.1981  -1.1471  -1.1005  -1.0185  -0.9855  -0.9188  -0.8605
    -0.8073  -0.7932  -0.7598  -0.7533  -0.7063  -0.6874  -0.6621  -0.6122
    -0.5883  -0.5676  -0.5510  -0.5436  -0.5289  -0.4227  -0.4002  -0.3452
    -0.2510  -0.1632  -0.1099  -0.0322   0.0280   0.0811   0.1047   0.1191
     0.1597   0.1778   0.2530   0.3448   0.3842   0.5501   0.5761   0.6734
     0.7503   1.3072   1.3879   1.3882   1.4947   1.4956   1.8110   2.1151
     3.4187   3.4299   3.5048   3.5209   3.5568   3.5666   3.7156   3.7366
     3.7648   3.7693

          k = 0.0380-0.0419 0.0000 ( 17876 PWs)   bands (ev):

   -55.9931 -55.9829 -55.9690 -55.9560 -55.8751 -55.8499 -55.8368 -55.8193
   -55.8000 -55.7761 -55.7665 -55.7425 -55.6119 -55.3913 -54.9738 -54.9498
   -32.4847 -32.4276 -32.3054 -32.2888 -32.2860 -32.2804 -32.2781 -32.2243
   -32.2190 -32.2168 -32.2106 -32.1888 -32.1707 -32.1679 -32.1593 -32.1406
   -32.1340 -32.0933 -32.0698 -32.0687 -32.0564 -32.0473 -32.0245 -32.0216
   -32.0162 -32.0072 -32.0020 -31.9972 -31.9963 -31.9861 -31.9773 -31.9702
   -31.9653 -31.9622 -31.9397 -31.9343 -31.9314 -31.8623 -31.8301 -31.6684
   -31.6556 -31.5521 -31.3316 -31.2964 -31.2768 -31.1898 -31.1287 -31.0623
   -16.5413 -16.2753 -16.0662 -16.0321 -15.9687 -15.9442 -15.8660 -15.8149
   -15.7555 -15.6549 -15.6168 -15.6007 -15.5886 -15.5819 -15.4965 -15.4799
   -15.4168 -15.3866 -15.3823 -15.3255 -15.3189 -15.2962 -15.2469 -15.2420
   -15.2308 -15.1974 -15.1556 -15.0486 -14.7126 -13.4837 -13.4053 -13.0259
   -12.9423  -9.1099  -3.8586  -3.5752  -3.5316  -3.4524  -3.4370  -3.3855
    -3.3217  -3.2916  -3.1559  -3.1279  -3.0965  -3.0538  -3.0362  -3.0296
    -2.9993  -2.9822  -2.9535  -2.8972  -2.8750  -2.8706  -2.8540  -2.8247
    -2.7965  -2.7583  -2.7326  -2.7083  -2.6856  -2.6477  -2.6300  -2.5773
    -2.5182  -2.5059  -2.4712  -2.4275  -2.3384  -2.2874  -2.2256  -2.1671
    -2.1292  -2.0173  -1.9984  -1.9532  -1.8854  -1.7773  -1.7335  -1.6425
    -1.5858  -1.5545  -1.4542  -1.4159  -1.3944  -1.3178  -1.2799  -1.2623
    -1.2045  -1.1348  -1.1061  -1.0697  -0.9927  -0.9540  -0.9265  -0.8979
    -0.8491  -0.8134  -0.7819  -0.7217  -0.6991  -0.6822  -0.6306  -0.6083
    -0.5848  -0.5149  -0.4621  -0.4401  -0.3944  -0.3355  -0.3140  -0.2888
    -0.2468  -0.1997  -0.1449  -0.0562  -0.0322   0.0748   0.1413   0.2116
     0.2375   0.3159   0.3415   0.4011   0.4374   0.4655   0.5924   0.6596
     0.9486   1.2422   1.2617   1.3199   1.4908   1.5537   1.8082   2.1178
     3.3195   3.3851   3.4413   3.5054   3.5579   3.5840   3.6462   3.6822
     3.7099   3.7227

          k =-0.0760-0.0000 0.0000 ( 17886 PWs)   bands (ev):

   -55.9980 -55.9879 -55.9640 -55.9509 -55.8786 -55.8542 -55.8333 -55.8151
   -55.8048 -55.7716 -55.7711 -55.7376 -55.6125 -55.3908 -54.9788 -54.9448
   -32.5422 -32.4825 -32.3644 -32.3365 -32.3049 -32.3018 -32.2905 -32.2710
   -32.2403 -32.2125 -32.1962 -32.1729 -32.1677 -32.1445 -32.1284 -32.1266
   -32.1023 -32.0999 -32.0990 -32.0554 -32.0554 -32.0343 -32.0205 -32.0144
   -32.0073 -32.0022 -32.0007 -31.9896 -31.9802 -31.9739 -31.9734 -31.9656
   -31.9436 -31.9370 -31.9253 -31.9090 -31.8844 -31.8657 -31.8346 -31.6690
   -31.6411 -31.5285 -31.3852 -31.3039 -31.2715 -31.2024 -31.1159 -31.0051
   -16.5755 -16.3058 -16.1010 -16.0962 -16.0043 -15.9620 -15.8585 -15.7860
   -15.7736 -15.7120 -15.6989 -15.6791 -15.6624 -15.6586 -15.6454 -15.5402
   -15.3635 -15.3578 -15.3379 -15.2784 -15.2491 -15.2465 -15.1976 -15.1821
   -15.1564 -15.1543 -15.0885 -15.0239 -14.6172 -13.4756 -13.3649 -13.0039
   -12.9653  -9.0977  -4.0147  -3.6768  -3.5940  -3.5168  -3.3995  -3.3909
    -3.3444  -3.2600  -3.2483  -3.2468  -3.2310  -3.2194  -3.1075  -3.0505
    -3.0228  -2.9964  -2.9756  -2.9349  -2.9199  -2.8620  -2.7988  -2.7246
    -2.6404  -2.6195  -2.5585  -2.5473  -2.4991  -2.4859  -2.4468  -2.4241
    -2.3260  -2.3159  -2.3057  -2.2691  -2.2301  -2.2281  -2.2078  -2.1707
    -2.1168  -2.0062  -1.9305  -1.9116  -1.8593  -1.7875  -1.7346  -1.6398
    -1.6232  -1.6070  -1.5942  -1.5820  -1.5616  -1.4654  -1.4609  -1.3776
    -1.3057  -1.2730  -1.2477  -1.2180  -1.1796  -1.1526  -1.1453  -1.0547
    -0.8417  -0.7749  -0.7170  -0.6909  -0.6622  -0.6376  -0.6219  -0.5139
    -0.4787  -0.4437  -0.3935  -0.3367  -0.3275  -0.2834  -0.2653  -0.2497
    -0.1867  -0.1651  -0.1176  -0.1050  -0.0347   0.0259   0.0501   0.1248
     0.2548   0.2785   0.4013   0.4665   0.4980   0.5829   0.6916   0.7390
     0.9827   1.0746   1.1805   1.2466   1.3735   1.5216   1.9437   1.9722
     3.1775   3.1792   3.3028   3.4174   3.4697   3.5592   3.5886   3.6306
     3.6470   3.6710

          k =-0.0760 0.0419 0.0000 ( 17914 PWs)   bands (ev):

   -55.9931 -55.9829 -55.9690 -55.9560 -55.8751 -55.8500 -55.8369 -55.8193
   -55.7999 -55.7761 -55.7666 -55.7426 -55.6120 -55.3914 -54.9738 -54.9498
   -32.4851 -32.4286 -32.3120 -32.2890 -32.2860 -32.2822 -32.2783 -32.2248
   -32.2194 -32.2190 -32.2127 -32.1724 -32.1705 -32.1679 -32.1596 -32.1318
   -32.1311 -32.0888 -32.0881 -32.0687 -32.0474 -32.0261 -32.0223 -32.0213
   -32.0188 -32.0057 -32.0038 -32.0028 -31.9964 -31.9852 -31.9837 -31.9771
   -31.9680 -31.9615 -31.9392 -31.9383 -31.9349 -31.8623 -31.8329 -31.6695
   -31.6555 -31.5521 -31.3313 -31.2992 -31.2762 -31.1899 -31.1288 -31.0623
   -16.4564 -16.1924 -16.0155 -15.9905 -15.9656 -15.8694 -15.8649 -15.7609
   -15.7494 -15.7354 -15.6519 -15.6484 -15.6444 -15.6240 -15.5780 -15.5479
   -15.4321 -15.3916 -15.3833 -15.3575 -15.3317 -15.2842 -15.2704 -15.2578
   -15.2299 -15.1796 -15.1452 -15.0440 -14.7120 -13.4816 -13.4056 -13.0036
   -12.9650  -9.1085  -3.8441  -3.5124  -3.3364  -3.3027  -3.2117  -3.1562
    -3.1207  -3.1147  -3.1122  -3.0788  -3.0543  -3.0471  -3.0251  -3.0193
    -2.9851  -2.9550  -2.9481  -2.9373  -2.9185  -2.8954  -2.8599  -2.7876
    -2.7805  -2.7123  -2.6938  -2.6804  -2.6582  -2.6029  -2.5761  -2.4891
    -2.4766  -2.4743  -2.4186  -2.3612  -2.3526  -2.2690  -2.1231  -2.1171
    -2.0758  -1.9980  -1.9916  -1.9380  -1.8510  -1.8255  -1.7842  -1.6506
    -1.5906  -1.5587  -1.5374  -1.4735  -1.4358  -1.4225  -1.3957  -1.3078
    -1.2743  -1.2684  -1.2218  -1.2107  -1.1791  -1.1580  -1.0944  -1.0462
    -1.0033  -0.9710  -0.9583  -0.8833  -0.7970  -0.7657  -0.7298  -0.6834
    -0.6313  -0.6192  -0.5761  -0.5540  -0.5135  -0.4096  -0.3455  -0.2954
    -0.2784  -0.1694  -0.1555  -0.0441   0.0127   0.1225   0.2258   0.2572
     0.3101   0.3607   0.3942   0.4561   0.4580   0.5179   0.5771   0.5982
     0.7932   1.2571   1.2659   1.3231   1.4144   1.5423   1.9468   1.9705
     3.3045   3.3686   3.3819   3.4491   3.4864   3.4987   3.6261   3.6397
     3.7300   3.7830

          k =-0.0760-0.0839 0.0000 ( 17948 PWs)   bands (ev):

   -55.9817 -55.9805 -55.9740 -55.9649 -55.8708 -55.8440 -55.8412 -55.8253
   -55.7893 -55.7867 -55.7559 -55.7534 -55.6115 -55.3919 -54.9619 -54.9618
   -32.3496 -32.3410 -32.2964 -32.2956 -32.2767 -32.2757 -32.2597 -32.2508
   -32.2043 -32.1926 -32.1864 -32.1837 -32.1460 -32.1300 -32.1283 -32.1190
   -32.1085 -32.1011 -32.1009 -32.0999 -32.0941 -32.0913 -32.0708 -32.0608
   -32.0416 -32.0388 -32.0293 -32.0124 -31.9891 -31.9882 -31.9867 -31.9849
   -31.9702 -31.9688 -31.9660 -31.9620 -31.9335 -31.8570 -31.8316 -31.6813
   -31.6696 -31.5731 -31.2876 -31.2875 -31.1989 -31.1988 -31.1594 -31.1594
   -16.1759 -16.1565 -15.9488 -15.9121 -15.9091 -15.8999 -15.7881 -15.7031
   -15.6931 -15.6925 -15.6101 -15.5979 -15.5816 -15.5374 -15.5332 -15.5239
   -15.5143 -15.5024 -15.4590 -15.4541 -15.4352 -15.4277 -15.3457 -15.3154
   -15.3117 -15.2733 -15.1412 -15.0097 -14.8616 -13.4674 -13.4672 -13.0032
   -12.9648  -9.1190  -3.4680  -3.4424  -3.1921  -3.1559  -3.1466  -3.1215
    -3.0825  -3.0582  -2.9853  -2.9395  -2.9221  -2.8959  -2.8811  -2.8764
    -2.8401  -2.8277  -2.8179  -2.8059  -2.7877  -2.7535  -2.7446  -2.7122
    -2.7013  -2.6812  -2.6678  -2.6523  -2.6277  -2.6151  -2.6089  -2.5776
    -2.5634  -2.5466  -2.5259  -2.5030  -2.4201  -2.2308  -2.2010  -2.1363
    -2.1271  -2.0968  -2.0852  -2.0617  -2.0473  -2.0290  -1.9820  -1.8291
    -1.7271  -1.7008  -1.6730  -1.5979  -1.5770  -1.5292  -1.4152  -1.3805
    -1.3531  -1.3273  -1.2772  -1.2261  -1.2088  -1.1859  -1.1169  -1.1032
    -1.0256  -0.9822  -0.9596  -0.9552  -0.8904  -0.8475  -0.7654  -0.7601
    -0.7161  -0.6805  -0.6330  -0.5929  -0.5881  -0.5010  -0.4754  -0.3589
    -0.3041  -0.0444   0.0051   0.0565   0.0828   0.1415   0.1919   0.2068
     0.3158   0.3201   0.3565   0.4003   0.4409   0.5286   0.5478   0.5827
     0.7288   1.3026   1.4061   1.4067   1.4799   1.4802   1.9502   1.9688
     3.4238   3.4392   3.4696   3.5020   3.6434   3.6473   3.6687   3.6704
     3.7964   3.8108

     the Fermi energy is     3.1366 ev

!    total energy              =   -2946.58251014 Ry
     estimated scf accuracy    <       0.00000007 Ry
     smearing contrib. (-TS)   =      -0.02178984 Ry
     internal energy E=F+TS    =   -2946.56072031 Ry

     The total energy is F=E-TS. E is the sum of the following terms:
     one-electron contribution =  -22199.64147284 Ry
     hartree contribution      =   11188.81957457 Ry
     xc contribution           =    -489.84798163 Ry
     ewald contribution        =    8554.10897394 Ry
     electric field correction =       0.00018565 Ry

     convergence has been achieved in  73 iterations

     Forces acting on atoms (cartesian axes, Ry/au):

     atom    1 type  1   force =     0.00012817   -0.00025864    0.09669871
     atom    2 type  1   force =    -0.00013500   -0.00055409   -0.17509984
     atom    3 type  2   force =    -0.00000144   -0.00002713   -0.02501207
     atom    4 type  2   force =     0.00007467   -0.00144115    0.05270307
     atom    5 type  2   force =    -0.01210179   -0.00083769    0.00339384
     atom    6 type  2   force =     0.01401357   -0.00015338    0.00290206
     atom    7 type  1   force =    -0.00082231    0.00068551   -0.01135146
     atom    8 type  1   force =     0.00025950    0.01148743    0.02860293
     atom    9 type  2   force =    -0.00010295    0.00008876   -0.00002362
     atom   10 type  2   force =    -0.00085132    0.00077236   -0.01661234
     atom   11 type  2   force =    -0.00031184    0.00010009    0.00003142
     atom   12 type  2   force =    -0.00000413    0.00020853    0.00005270
     atom   13 type  1   force =    -0.00011970   -0.00020120    0.00009606
     atom   14 type  1   force =    -0.00021387    0.00000609   -0.00004751
     atom   15 type  2   force =    -0.00003167    0.00005758   -0.00009506
     atom   16 type  2   force =    -0.00012303   -0.00004077    0.00002447
     atom   17 type  2   force =    -0.00002921   -0.00015514   -0.00001764
     atom   18 type  2   force =    -0.00019977   -0.00017235   -0.00002267
     atom   19 type  1   force =     0.00001119   -0.00021120    0.00013790
     atom   20 type  1   force =     0.00009860   -0.00036998   -0.00006638
     atom   21 type  2   force =     0.00006429    0.00000992    0.10294080
     atom   22 type  2   force =    -0.00010618   -0.00008847   -0.00040588
     atom   23 type  2   force =    -0.07140781   -0.00010282   -0.02772698
     atom   24 type  2   force =     0.07136440    0.00030420   -0.02776072
     atom   25 type  1   force =     0.00001232   -0.00030201    0.09647805
     atom   26 type  1   force =    -0.00018368   -0.00027139   -0.17527863
     atom   27 type  2   force =     0.00009275   -0.00019926   -0.02391595
     atom   28 type  2   force =     0.00011457   -0.00119885    0.05274045
     atom   29 type  2   force =    -0.01213452    0.00045489    0.00287809
     atom   30 type  2   force =     0.01396655    0.00080048    0.00242248
     atom   31 type  1   force =    -0.00076631    0.00310718   -0.01226545
     atom   32 type  1   force =     0.00027477   -0.01311573    0.02918094
     atom   33 type  2   force =    -0.00009693   -0.00003069    0.00003005
     atom   34 type  2   force =    -0.00028865    0.00077227   -0.02206547
     atom   35 type  2   force =    -0.00016452    0.00008165   -0.00004117
     atom   36 type  2   force =    -0.00010034    0.00020327   -0.00003071
     atom   37 type  1   force =    -0.00001920   -0.00031451   -0.00017852
     atom   38 type  1   force =     0.00003277    0.00000695   -0.00000187
     atom   39 type  2   force =    -0.00008052    0.00013101    0.00028220
     atom   40 type  2   force =    -0.00013378   -0.00001307   -0.00006602
     atom   41 type  2   force =     0.00000424   -0.00021471    0.00000884
     atom   42 type  2   force =    -0.00019907   -0.00022089    0.00017870
     atom   43 type  1   force =     0.00031116   -0.00016072   -0.00017841
     atom   44 type  1   force =     0.00018018   -0.00026604    0.00019271
     atom   45 type  2   force =     0.00006388   -0.00006988    0.10292857
     atom   46 type  2   force =    -0.07142110   -0.00008892   -0.02773434
     atom   47 type  2   force =     0.07137779    0.00037159   -0.02774449
     atom   48 type  3   force =    -0.00018357    0.00038589    0.00004153
     atom   49 type  4   force =    -0.00008113    0.00042216    0.00021866
     atom   50 type  4   force =    -0.00008234    0.00012521    0.00005630
     atom   51 type  4   force =     0.00008845    0.00029865    0.00039013
     atom   52 type  5   force =     0.00071228    0.00207232    0.00118249
     atom   53 type  4   force =     0.00148616    0.00074998   -0.00105602
     atom   54 type  4   force =    -0.00146394   -0.00053934   -0.00094611
     atom   55 type  4   force =    -0.00097946   -0.00228024   -0.00003194
     atom   56 type  5   force =     0.00066383    0.00044592   -0.00066182
     atom   57 type  4   force =     0.00009715   -0.00031572    0.00030492
     atom   58 type  4   force =    -0.00050801   -0.00003962   -0.00054707
     atom   59 type  4   force =    -0.00004419    0.00010573   -0.00011290

     Total force =     0.367741     Total SCF correction =     0.000418
  @ DRIVER MODE: Message from server: STATUS
  @ DRIVER MODE: Message from server: GETFORCE
  @ DRIVER MODE: Returning v,forces,stress,ensemble 

     Writing output data file ./calc.save/
  @ DRIVER MODE: Message from server: EXIT
  @ DRIVE MODE: Exiting  
 
     init_run     :      8.50s CPU      8.63s WALL (       1 calls)
     electrons    :    911.73s CPU    928.03s WALL (       1 calls)
     forces       :      6.46s CPU      6.55s WALL (       1 calls)

     Called by init_run:
     wfcinit      :      3.84s CPU      3.89s WALL (       1 calls)
     potinit      :      3.56s CPU      3.60s WALL (       1 calls)
     hinit0       :      0.82s CPU      0.83s WALL (       1 calls)

     Called by electrons:
     c_bands      :    795.76s CPU    806.77s WALL (      73 calls)
     sum_band     :     80.32s CPU     82.50s WALL (      73 calls)
     v_of_rho     :     25.45s CPU     26.11s WALL (      74 calls)
     newd         :     10.84s CPU     13.21s WALL (      74 calls)
     mix_rho      :      2.20s CPU      2.21s WALL (      73 calls)
     vdW_kernel   :      3.03s CPU      3.04s WALL (       1 calls)

     Called by c_bands:
     init_us_2    :      4.94s CPU      4.98s WALL (    1480 calls)
     cegterg      :    782.22s CPU    792.94s WALL (     744 calls)

     Called by *egterg:
     cdiaghg      :    167.86s CPU    171.23s WALL (    6446 calls)
     h_psi        :    385.60s CPU    391.64s WALL (    6456 calls)
     s_psi        :     45.93s CPU     46.10s WALL (    6456 calls)
     g_psi        :      1.21s CPU      1.21s WALL (    5702 calls)

     Called by h_psi:
     h_psi:calbec :     48.53s CPU     48.82s WALL (    6456 calls)
     vloc_psi     :    288.49s CPU    294.04s WALL (    6456 calls)
     add_vuspsi   :     46.27s CPU     46.47s WALL (    6456 calls)

     General routines
     calbec       :     68.42s CPU     68.78s WALL (    7226 calls)
     fft          :     12.45s CPU     12.54s WALL (    4662 calls)
     ffts         :      0.11s CPU      0.11s WALL (     147 calls)
     fftw         :    320.15s CPU    326.04s WALL ( 1029382 calls)
     interpolate  :      0.31s CPU      0.31s WALL (      74 calls)
     davcio       :      0.00s CPU      0.12s WALL (      10 calls)
 
     Parallel routines
 
     PWSCF        :  15m29.28s CPU  15m46.11s WALL

 
   This run was terminated on:   0:27:46   4Aug2021            

=------------------------------------------------------------------------------=
   JOB DONE.
=------------------------------------------------------------------------------=
