
     Program PWSCF v.6.7GPU starts on 12Oct2021 at 13: 2:23 

     This program is part of the open-source Quantum ESPRESSO suite
     for quantum simulation of materials; please cite
         "P. Giannozzi et al., J. Phys.:Condens. Matter 21 395502 (2009);
         "P. Giannozzi et al., J. Phys.:Condens. Matter 29 465901 (2017);
         "P. Giannozzi et al., J. Chem. Phys. 152 154105 (2020);
          URL http://www.quantum-espresso.org", 
     in publications or presentations arising from this work. More details at
     http://www.quantum-espresso.org/quote

     Parallel version (MPI), running on     8 processors

     MPI processes distributed on     1 nodes
     R & G space division:  proc/nbgrp/npool/nimage =       8
     Reading input from /storage/home/hcoda1/3/ntian30/research/carbon/ACS_vib/ads_slab/N2H/out_0011/pw.inp
Warning: card &CELL ignored
Warning: card   CELL_DYNAMICS='IPI', ignored
Warning: card / ignored

     Current dimensions of program PWSCF are:
     Max number of different atomic species (ntypx) = 10
     Max number of k-points (npk) =  40000
     Max angular momentum in pseudopotentials (lmaxx) =  3
     Presently no symmetry can be used with electric field

     Message from routine cell_base_init:
     DEPRECATED: use true lattice parameter, not A to a.u. conversion factor

     **************************************************************************
     Initializing libbeef V0.1.2 with the BEEF-vdW functional.
     Citation: Wellendorff et al., PRB 85, 235149 (2012).
     **************************************************************************


     IMPORTANT: XC functional enforced from input :
     Exchange-correlation= BEEF-VDW
                           (   1   4  43  14   2   0   0)
     Any further DFT definition will be discarded
     Please, verify this is what you really want


     Subspace diagonalization in iterative solution of the eigenvalue problem:
     one sub-group per band group will be used
     scalapack distributed-memory algorithm (size of sub-group:  2*  2 procs)

  @ DRIVER MODE: Connecting to 
 qe_1139763_3181314.sched-torque.pace.gatech.eduf48b8com_scratch
  using UNIX socket
  @ DRIVER MODE: Message from server: STATUS
  @ DRIVER MODE: Message from server: INIT
  @ DRIVER MODE: Receiving replica           0          -1
  @ DRIVER MODE: Receiving encoded integer          25
  @ DRIVER MODE:  SCF:  T  FORCE:  T  STRESS:  F  VC:  F  ENSEMBLE:  F
  @ DRIVER MODE:  SCF:  T  FORCE:  T  STRESS:  F  VC:  F  ENSEMBLE:  F
 
     Parallelization info
     --------------------
     sticks:   dense  smooth     PW     G-vecs:    dense   smooth      PW
     Min         409     164     47                70857    17926    2743
     Max         411     165     48                70858    17931    2751
     Sum        3275    1317    379               566857   143421   21985
 
     Using Slab Decomposition
 


     bravais-lattice index     =            0
     lattice parameter (alat)  =       1.8897  a.u.
     unit-cell volume          =    6658.9804 (a.u.)^3
     number of atoms/cell      =           50
     number of atomic types    =            4
     number of electrons       =       389.00
     number of Kohn-Sham states=          204
     kinetic-energy cutoff     =      29.3995  Ry
     charge density cutoff     =     293.9946  Ry
     scf convergence threshold =      7.3E-08
     mixing beta               =       0.0500
     number of iterations used =            8  plain     mixing
     Exchange-correlation= BEEF-VDW
                           (   1   4  43  14   2   0   0)

     celldm(1)=   1.889726  celldm(2)=   0.000000  celldm(3)=   0.000000
     celldm(4)=   0.000000  celldm(5)=   0.000000  celldm(6)=   0.000000

     crystal axes: (cart. coord. in units of alat)
               a(1) = (   6.579727   0.000000   0.000000 )  
               a(2) = (  -0.000775   5.961596   0.000000 )  
               a(3) = (   0.000000   0.000000  25.155947 )  

     reciprocal axes: (cart. coord. in units 2 pi/alat)
               b(1) = (  0.151982  0.000020  0.000000 )  
               b(2) = (  0.000000  0.167740  0.000000 )  
               b(3) = (  0.000000  0.000000  0.039752 )  


     PseudoPot. # 1 for Ti read from file:
     /storage/coda1/p-amedford6/0/shared/rich_project_chbe-medford/medford-share/data/pseudos_module/espresso/nninc/pbe/van/Ti.UPF
     MD5 check sum: 8e4df49b7f0d34bbd5052bf3f5ea0213
     Pseudo is Ultrasoft, Zval = 12.0
     Generated by new atomic code, or converted to UPF format
     Using radial grid of  851 points,  6 beta functions with: 
                l(1) =   0
                l(2) =   0
                l(3) =   1
                l(4) =   1
                l(5) =   2
                l(6) =   2
     Q(r) pseudized with  8 coefficients,  rinner =    1.000   1.000   1.000
                                                       1.000   1.000

     PseudoPot. # 2 for O  read from file:
     /storage/coda1/p-amedford6/0/shared/rich_project_chbe-medford/medford-share/data/pseudos_module/espresso/nninc/pbe/van/O.UPF
     MD5 check sum: 78c19812648e8988a0fe644b0f25305e
     Pseudo is Ultrasoft, Zval =  6.0
     Generated by new atomic code, or converted to UPF format
     Using radial grid of  737 points,  4 beta functions with: 
                l(1) =   0
                l(2) =   0
                l(3) =   1
                l(4) =   1
     Q(r) pseudized with  8 coefficients,  rinner =    0.800   0.800   0.800


     PseudoPot. # 3 for N  read from file:
     /storage/coda1/p-amedford6/0/shared/rich_project_chbe-medford/medford-share/data/pseudos_module/espresso/nninc/pbe/van/N.UPF
     MD5 check sum: 90d10febe142ad51ac9d5be1deb811c4
     Pseudo is Ultrasoft, Zval =  5.0
     Generated by new atomic code, or converted to UPF format
     Using radial grid of  729 points,  4 beta functions with: 
                l(1) =   0
                l(2) =   0
                l(3) =   1
                l(4) =   1
     Q(r) pseudized with  8 coefficients,  rinner =    0.800   0.800   0.800


     PseudoPot. # 4 for H  read from file:
     /storage/coda1/p-amedford6/0/shared/rich_project_chbe-medford/medford-share/data/pseudos_module/espresso/nninc/pbe/van/H.UPF
     MD5 check sum: b5ee9d7bfd3a09ee7748110bda690ff7
     Pseudo is Ultrasoft, Zval =  1.0
     Generated by new atomic code, or converted to UPF format
     Using radial grid of  615 points,  1 beta functions with: 
                l(1) =   0
     Q(r) pseudized with  8 coefficients,  rinner =    0.800

     atomic species   valence    mass     pseudopotential
        Ti1           12.00    47.86700     Ti( 1.00)
        O1             6.00    15.99900     O ( 1.00)
        N1             5.00    14.00700     N ( 1.00)
        H1             1.00     1.00800     H ( 1.00)

     No symmetry found



   Cartesian axes

     site n.     atom                  positions (alat units)
         1           Ti1 tau(   1) = (   0.0004258   2.9801865   6.0000000  )
         2           Ti1 tau(   2) = (   3.2906075   1.4906267   6.0002472  )
         3           O1  tau(   3) = (   0.0006271   0.0005054   7.9858123  )
         4           O1  tau(   4) = (   3.2906025   0.0005020   7.3038282  )
         5           O1  tau(   5) = (   4.5942328   1.4918067   9.2879030  )
         6           O1  tau(   6) = (   1.9868534   1.4903216   9.2879459  )
         7           Ti1 tau(   7) = (   3.2913060   3.0378612   9.1552972  )
         8           Ti1 tau(   8) = (   0.0009381   1.5839581   9.3521326  )
         9           O1  tau(   9) = (   3.2925928   0.0151421  11.3436145  )
        10           O1  tau(  10) = (   0.0015930   0.0098544  10.5931849  )
        11           O1  tau(  11) = (   1.2954366   1.5088831  12.6205452  )
        12           O1  tau(  12) = (   5.2873992   1.5081763  12.6209847  )
        13           Ti1 tau(  13) = (   0.0062007   3.0223002  12.7522649  )
        14           Ti1 tau(  14) = (   3.2997597   1.5103467  12.4821987  )
        15           O1  tau(  15) = (   0.0040346   0.0184607  14.6317695  )
        16           O1  tau(  16) = (   3.2910281   0.0168284  13.9441510  )
        17           O1  tau(  17) = (   4.5375602   1.5179921  16.0890948  )
        18           O1  tau(  18) = (   2.0457139   1.5162684  16.0851288  )
        19           Ti1 tau(  19) = (   3.2874297   2.9968575  15.7108406  )
        20           Ti1 tau(  20) = (   6.5695515   1.3443907  16.0039228  )
        21           O1  tau(  21) = (   3.2904802   0.0005063   4.7018136  )
        22           O1  tau(  22) = (   0.0014600   0.0364584  17.1914435  )
        23           O1  tau(  23) = (   1.3043587   1.4918075   6.0039043  )
        24           O1  tau(  24) = (   5.2767064   1.4903225   6.0039473  )
        25           Ti1 tau(  25) = (   0.0000382   5.9609847   6.0000000  )
        26           Ti1 tau(  26) = (   3.2902200   4.4714249   6.0002472  )
        27           O1  tau(  27) = (   0.0002396   2.9813036   7.9858123  )
        28           O1  tau(  28) = (   3.2902150   2.9813002   7.3038282  )
        29           O1  tau(  29) = (   4.5938453   4.4726049   9.2879030  )
        30           O1  tau(  30) = (   1.9864658   4.4711199   9.2879459  )
        31           Ti1 tau(  31) = (   3.2910671   0.0593156   9.1538314  )
        32           Ti1 tau(  32) = (   0.0005551   4.5317022   9.3016378  )
        33           O1  tau(  33) = (   3.2922260   2.9941798  11.3385902  )
        34           O1  tau(  34) = (   0.0008704   2.9922752  10.5694424  )
        35           O1  tau(  35) = (   1.2972379   4.4863578  12.6167950  )
        36           O1  tau(  36) = (   5.2846861   4.4861696  12.6173214  )
        37           Ti1 tau(  37) = (   0.0087596   0.0398615  12.5729301  )
        38           Ti1 tau(  38) = (   3.2994502   4.4862820  12.4776038  )
        39           O1  tau(  39) = (   0.0007913   3.0275094  14.6627896  )
        40           O1  tau(  40) = (   3.2912693   2.9957722  13.9146565  )
        41           O1  tau(  41) = (   4.5447272   4.4665429  16.0834370  )
        42           O1  tau(  42) = (   2.0408322   4.4687941  16.0798044  )
        43           Ti1 tau(  43) = (   3.2813896   0.0196903  15.7368506  )
        44           Ti1 tau(  44) = (   6.5682818   4.5002177  15.9516634  )
        45           O1  tau(  45) = (   3.2900926   2.9813045   4.7018136  )
        46           O1  tau(  46) = (   1.3039711   4.4726057   6.0039043  )
        47           O1  tau(  47) = (   5.2763189   4.4711207   6.0039473  )
        48           N1  tau(  48) = (   0.0702777   2.9930733  18.6664031  )
        49           N1  tau(  49) = (   0.0230277   3.0528524  17.4326018  )
        50           H1  tau(  50) = (   0.0865168   1.9966355  18.9942200  )

     number of k points=    10  Fermi-Dirac smearing, width (Ry)=  0.0073
                       cart. coord. in units 2pi/alat
        k(    1) = (   0.0000000   0.0000000   0.0000000), wk =   0.1250000
        k(    2) = (   0.0000000   0.0419351   0.0000000), wk =   0.2500000
        k(    3) = (   0.0000000  -0.0838702   0.0000000), wk =   0.1250000
        k(    4) = (   0.0379955   0.0000049   0.0000000), wk =   0.2500000
        k(    5) = (   0.0379955   0.0419400   0.0000000), wk =   0.2500000
        k(    6) = (   0.0379955  -0.0838652   0.0000000), wk =   0.2500000
        k(    7) = (   0.0379955  -0.0419301   0.0000000), wk =   0.2500000
        k(    8) = (  -0.0759910  -0.0000099   0.0000000), wk =   0.1250000
        k(    9) = (  -0.0759910   0.0419252   0.0000000), wk =   0.2500000
        k(   10) = (  -0.0759910  -0.0838800   0.0000000), wk =   0.1250000

     Dense  grid:   566857 G-vectors     FFT dimensions: (  72,  64, 270)

     Smooth grid:   143421 G-vectors     FFT dimensions: (  45,  40, 180)

     Estimated max dynamical RAM per process >     447.56 MB

     Estimated total dynamical RAM >       3.50 GB
     Cannot read rho : file not found

     Initial potential from superposition of free atoms

     starting charge  372.99922, renormalised to  389.00000

     negative rho (up, down):  2.003E-02 0.000E+00


     %%%%%%%%%%%%%%%%%%%%%%%%%%%%%%%%%%%%%%%%%%%%%%%%%%%%%%%%%%%%%%%%%%%%%%%%
     %                                                                      %
     % You are using vdW-DF, which was implemented by the Thonhauser group. %
     % Please cite the following two papers that made this development      %
     % possible and the two reviews that describe the various versions:     %
     %                                                                      %
     %   T. Thonhauser et al., PRL 115, 136402 (2015).                      %
     %   T. Thonhauser et al., PRB 76, 125112 (2007).                       %
     %   K. Berland et al., Rep. Prog. Phys. 78, 066501 (2015).             %
     %   D.C. Langreth et al., J. Phys.: Condens. Matter 21, 084203 (2009). %
     %                                                                      %
     %                                                                      %
     % If you are calculating the stress with vdW-DF, please also cite:     %
     %                                                                      %
     %   R. Sabatini et al., J. Phys.: Condens. Matter 24, 424209 (2012).   %
     %                                                                      %
     %%%%%%%%%%%%%%%%%%%%%%%%%%%%%%%%%%%%%%%%%%%%%%%%%%%%%%%%%%%%%%%%%%%%%%%%


 
     Adding external electric field

     Computed dipole along edir(3) : 
        Dipole               -4.3778 Ry au,        -11.1273 Debye
        Dipole field         -0.0083 Ry au, 
 
        Potential amp.        0.7658 Ry
        Total length         46.3494 bohr
 
     Starting wfcs are  293 atomic wfcs
  @ DRIVER MODE: Message from server: STATUS
  @ DRIVER MODE: Message from server: POSDATA
  @ DRIVER MODE: Reading and sharing cell 
  @ DRIVER MODE: Reading and sharing positions 
  @ DRIVER MODE: Received positions 

     total cpu time spent up to now is       67.1 secs

     Self-consistent Calculation

     iteration #  1     ecut=    29.40 Ry     beta= 0.05
     Davidson diagonalization with overlap
     c_bands:  3 eigenvalues not converged
     c_bands:  3 eigenvalues not converged
     c_bands:  5 eigenvalues not converged
     c_bands:  2 eigenvalues not converged
     c_bands:  3 eigenvalues not converged
     c_bands:  5 eigenvalues not converged
     c_bands:  3 eigenvalues not converged
     c_bands:  1 eigenvalues not converged
     c_bands:  3 eigenvalues not converged
     c_bands:  2 eigenvalues not converged
     ethr =  1.00E-05,  avg # of iterations = 20.0

     negative rho (up, down):  1.962E-02 0.000E+00
 
     Adding external electric field

     Computed dipole along edir(3) : 
        Dipole               11.2538 Ry au,         28.6044 Debye
        Dipole field          0.0212 Ry au, 
 
        Potential amp.       -1.9687 Ry
        Total length         46.3494 bohr
 

     total cpu time spent up to now is      391.0 secs

     total energy              =   -2891.78224532 Ry
     estimated scf accuracy    <     400.75267844 Ry

     iteration #  2     ecut=    29.40 Ry     beta= 0.05
     Davidson diagonalization with overlap
     ethr =  1.00E-02,  avg # of iterations = 14.0

     negative rho (up, down):  8.928E-03 0.000E+00
 
     Adding external electric field

     Computed dipole along edir(3) : 
        Dipole               -1.7611 Ry au,         -4.4763 Debye
        Dipole field         -0.0033 Ry au, 
 
        Potential amp.        0.3081 Ry
        Total length         46.3494 bohr
 

     total cpu time spent up to now is      505.6 secs

     total energy              =   -2851.47591056 Ry
     estimated scf accuracy    <    8383.90926727 Ry

     iteration #  3     ecut=    29.40 Ry     beta= 0.05
     Davidson diagonalization with overlap
     ethr =  1.00E-02,  avg # of iterations = 17.2

     negative rho (up, down):  8.762E-03 0.000E+00
 
     Adding external electric field

     Computed dipole along edir(3) : 
        Dipole               -1.7204 Ry au,         -4.3728 Debye
        Dipole field         -0.0032 Ry au, 
 
        Potential amp.        0.3010 Ry
        Total length         46.3494 bohr
 

     total cpu time spent up to now is      770.0 secs

     total energy              =   -2926.65165310 Ry
     estimated scf accuracy    <      19.78185687 Ry

     iteration #  4     ecut=    29.40 Ry     beta= 0.05
     Davidson diagonalization with overlap
     ethr =  5.09E-03,  avg # of iterations =  2.6

     negative rho (up, down):  8.705E-03 0.000E+00
 
     Adding external electric field

     Computed dipole along edir(3) : 
        Dipole               -1.7714 Ry au,         -4.5024 Debye
        Dipole field         -0.0033 Ry au, 
 
        Potential amp.        0.3099 Ry
        Total length         46.3494 bohr
 

     total cpu time spent up to now is      784.7 secs

     total energy              =   -2926.54570347 Ry
     estimated scf accuracy    <      10.32458908 Ry

     iteration #  5     ecut=    29.40 Ry     beta= 0.05
     Davidson diagonalization with overlap
     ethr =  2.65E-03,  avg # of iterations =  1.7

     negative rho (up, down):  8.876E-03 0.000E+00
 
     Adding external electric field

     Computed dipole along edir(3) : 
        Dipole               -1.5724 Ry au,         -3.9966 Debye
        Dipole field         -0.0030 Ry au, 
 
        Potential amp.        0.2751 Ry
        Total length         46.3494 bohr
 

     total cpu time spent up to now is      834.7 secs

     total energy              =   -2923.58054305 Ry
     estimated scf accuracy    <      10.59346286 Ry

     iteration #  6     ecut=    29.40 Ry     beta= 0.05
     Davidson diagonalization with overlap
     c_bands:  1 eigenvalues not converged
     c_bands:  1 eigenvalues not converged
     ethr =  2.65E-03,  avg # of iterations = 12.8

     negative rho (up, down):  8.782E-03 0.000E+00
 
     Adding external electric field

     Computed dipole along edir(3) : 
        Dipole               -1.2094 Ry au,         -3.0740 Debye
        Dipole field         -0.0023 Ry au, 
 
        Potential amp.        0.2116 Ry
        Total length         46.3494 bohr
 

     total cpu time spent up to now is      924.1 secs

     total energy              =   -2924.70240897 Ry
     estimated scf accuracy    <      14.85892483 Ry

     iteration #  7     ecut=    29.40 Ry     beta= 0.05
     Davidson diagonalization with overlap
     ethr =  2.65E-03,  avg # of iterations =  1.2

     negative rho (up, down):  8.605E-03 0.000E+00
 
     Adding external electric field

     Computed dipole along edir(3) : 
        Dipole               -0.9374 Ry au,         -2.3826 Debye
        Dipole field         -0.0018 Ry au, 
 
        Potential amp.        0.1640 Ry
        Total length         46.3494 bohr
 

     total cpu time spent up to now is      957.4 secs

     total energy              =   -2924.82704269 Ry
     estimated scf accuracy    <       6.58928659 Ry

     iteration #  8     ecut=    29.40 Ry     beta= 0.05
     Davidson diagonalization with overlap
     ethr =  1.69E-03,  avg # of iterations =  1.1

     negative rho (up, down):  8.516E-03 0.000E+00
 
     Adding external electric field

     Computed dipole along edir(3) : 
        Dipole               -0.8946 Ry au,         -2.2738 Debye
        Dipole field         -0.0017 Ry au, 
 
        Potential amp.        0.1565 Ry
        Total length         46.3494 bohr
 

     total cpu time spent up to now is     1008.7 secs

     total energy              =   -2925.05000794 Ry
     estimated scf accuracy    <       1.17216763 Ry

     iteration #  9     ecut=    29.40 Ry     beta= 0.05
     Davidson diagonalization with overlap
     ethr =  3.01E-04,  avg # of iterations = 15.1

     negative rho (up, down):  8.440E-03 0.000E+00
 
     Adding external electric field

     Computed dipole along edir(3) : 
        Dipole               -0.8532 Ry au,         -2.1686 Debye
        Dipole field         -0.0016 Ry au, 
 
        Potential amp.        0.1493 Ry
        Total length         46.3494 bohr
 

     total cpu time spent up to now is     1120.2 secs

     total energy              =   -2925.27493588 Ry
     estimated scf accuracy    <       1.19292744 Ry

     iteration # 10     ecut=    29.40 Ry     beta= 0.05
     Davidson diagonalization with overlap
     ethr =  3.01E-04,  avg # of iterations =  3.9

     negative rho (up, down):  8.359E-03 0.000E+00
 
     Adding external electric field

     Computed dipole along edir(3) : 
        Dipole               -0.8269 Ry au,         -2.1017 Debye
        Dipole field         -0.0016 Ry au, 
 
        Potential amp.        0.1446 Ry
        Total length         46.3494 bohr
 

     total cpu time spent up to now is     1201.0 secs

     total energy              =   -2925.33349396 Ry
     estimated scf accuracy    <       1.32777156 Ry

     iteration # 11     ecut=    29.40 Ry     beta= 0.05
     Davidson diagonalization with overlap
     ethr =  3.01E-04,  avg # of iterations =  3.0

     negative rho (up, down):  8.422E-03 0.000E+00
 
     Adding external electric field

     Computed dipole along edir(3) : 
        Dipole               -0.5556 Ry au,         -1.4122 Debye
        Dipole field         -0.0010 Ry au, 
 
        Potential amp.        0.0972 Ry
        Total length         46.3494 bohr
 

     total cpu time spent up to now is     1279.4 secs

     total energy              =   -2925.01138319 Ry
     estimated scf accuracy    <       1.53957361 Ry

     iteration # 12     ecut=    29.40 Ry     beta= 0.05
     Davidson diagonalization with overlap
     ethr =  3.01E-04,  avg # of iterations =  7.7

     negative rho (up, down):  8.390E-03 0.000E+00
 
     Adding external electric field

     Computed dipole along edir(3) : 
        Dipole               -0.5074 Ry au,         -1.2896 Debye
        Dipole field         -0.0010 Ry au, 
 
        Potential amp.        0.0888 Ry
        Total length         46.3494 bohr
 

     total cpu time spent up to now is     1411.4 secs

     total energy              =   -2925.18026448 Ry
     estimated scf accuracy    <       0.54652900 Ry

     iteration # 13     ecut=    29.40 Ry     beta= 0.05
     Davidson diagonalization with overlap
     c_bands:  1 eigenvalues not converged
     c_bands:  2 eigenvalues not converged
     ethr =  1.40E-04,  avg # of iterations =  9.8

     negative rho (up, down):  8.483E-03 0.000E+00
 
     Adding external electric field

     Computed dipole along edir(3) : 
        Dipole               -0.4996 Ry au,         -1.2699 Debye
        Dipole field         -0.0009 Ry au, 
 
        Potential amp.        0.0874 Ry
        Total length         46.3494 bohr
 

     total cpu time spent up to now is     1476.8 secs

     total energy              =   -2925.17259826 Ry
     estimated scf accuracy    <       0.62941295 Ry

     iteration # 14     ecut=    29.40 Ry     beta= 0.05
     Davidson diagonalization with overlap
     ethr =  1.40E-04,  avg # of iterations =  5.7

     negative rho (up, down):  9.031E-03 0.000E+00
 
     Adding external electric field

     Computed dipole along edir(3) : 
        Dipole               -0.1138 Ry au,         -0.2892 Debye
        Dipole field         -0.0002 Ry au, 
 
        Potential amp.        0.0199 Ry
        Total length         46.3494 bohr
 

     total cpu time spent up to now is     1491.5 secs

     total energy              =   -2925.11242439 Ry
     estimated scf accuracy    <       0.41362452 Ry

     iteration # 15     ecut=    29.40 Ry     beta= 0.05
     Davidson diagonalization with overlap
     c_bands:  1 eigenvalues not converged
     c_bands:  1 eigenvalues not converged
     c_bands:  3 eigenvalues not converged
     ethr =  1.06E-04,  avg # of iterations = 16.3

     negative rho (up, down):  8.873E-03 0.000E+00
 
     Adding external electric field

     Computed dipole along edir(3) : 
        Dipole               -0.1238 Ry au,         -0.3147 Debye
        Dipole field         -0.0002 Ry au, 
 
        Potential amp.        0.0217 Ry
        Total length         46.3494 bohr
 

     total cpu time spent up to now is     1518.7 secs

     total energy              =   -2925.22323086 Ry
     estimated scf accuracy    <       0.70093249 Ry

     iteration # 16     ecut=    29.40 Ry     beta= 0.05
     Davidson diagonalization with overlap
     ethr =  1.06E-04,  avg # of iterations =  1.4

     negative rho (up, down):  9.051E-03 0.000E+00
 
     Adding external electric field

     Computed dipole along edir(3) : 
        Dipole               -0.1516 Ry au,         -0.3853 Debye
        Dipole field         -0.0003 Ry au, 
 
        Potential amp.        0.0265 Ry
        Total length         46.3494 bohr
 

     total cpu time spent up to now is     1531.3 secs

     total energy              =   -2925.31686752 Ry
     estimated scf accuracy    <       0.51232746 Ry

     iteration # 17     ecut=    29.40 Ry     beta= 0.05
     Davidson diagonalization with overlap
     c_bands:  1 eigenvalues not converged
     c_bands:  2 eigenvalues not converged
     ethr =  1.06E-04,  avg # of iterations = 13.9

     negative rho (up, down):  9.761E-03 0.000E+00
 
     Adding external electric field

     Computed dipole along edir(3) : 
        Dipole                0.0367 Ry au,          0.0932 Debye
        Dipole field          0.0001 Ry au, 
 
        Potential amp.       -0.0064 Ry
        Total length         46.3494 bohr
 

     total cpu time spent up to now is     1549.9 secs

     total energy              =   -2925.05819894 Ry
     estimated scf accuracy    <       1.08130525 Ry

     iteration # 18     ecut=    29.40 Ry     beta= 0.05
     Davidson diagonalization with overlap
     c_bands:  2 eigenvalues not converged
     c_bands:  1 eigenvalues not converged
     c_bands:  1 eigenvalues not converged
     c_bands:  1 eigenvalues not converged
     ethr =  1.06E-04,  avg # of iterations = 17.3

     negative rho (up, down):  1.042E-02 0.000E+00
 
     Adding external electric field

     Computed dipole along edir(3) : 
        Dipole                0.1676 Ry au,          0.4260 Debye
        Dipole field          0.0003 Ry au, 
 
        Potential amp.       -0.0293 Ry
        Total length         46.3494 bohr
 

     total cpu time spent up to now is     1575.5 secs

     total energy              =   -2925.15188929 Ry
     estimated scf accuracy    <       0.57901168 Ry

     iteration # 19     ecut=    29.40 Ry     beta= 0.05
     Davidson diagonalization with overlap
     ethr =  1.06E-04,  avg # of iterations =  9.1

     negative rho (up, down):  1.106E-02 0.000E+00
 
     Adding external electric field

     Computed dipole along edir(3) : 
        Dipole                0.2145 Ry au,          0.5453 Debye
        Dipole field          0.0004 Ry au, 
 
        Potential amp.       -0.0375 Ry
        Total length         46.3494 bohr
 

     total cpu time spent up to now is     1591.9 secs

     total energy              =   -2925.17902584 Ry
     estimated scf accuracy    <       0.11190026 Ry

     iteration # 20     ecut=    29.40 Ry     beta= 0.05
     Davidson diagonalization with overlap
     c_bands:  1 eigenvalues not converged
     c_bands:  2 eigenvalues not converged
     c_bands:  3 eigenvalues not converged
     c_bands:  5 eigenvalues not converged
     c_bands:  2 eigenvalues not converged
     c_bands:  3 eigenvalues not converged
     c_bands:  2 eigenvalues not converged
     ethr =  2.88E-05,  avg # of iterations = 19.9

     negative rho (up, down):  1.282E-02 0.000E+00
 
     Adding external electric field

     Computed dipole along edir(3) : 
        Dipole                0.2154 Ry au,          0.5476 Debye
        Dipole field          0.0004 Ry au, 
 
        Potential amp.       -0.0377 Ry
        Total length         46.3494 bohr
 

     total cpu time spent up to now is     1621.9 secs

     total energy              =   -2925.14523509 Ry
     estimated scf accuracy    <       0.41893610 Ry

     iteration # 21     ecut=    29.40 Ry     beta= 0.05
     Davidson diagonalization with overlap
     c_bands:  2 eigenvalues not converged
     c_bands:  1 eigenvalues not converged
     c_bands:  3 eigenvalues not converged
     c_bands:  3 eigenvalues not converged
     c_bands:  2 eigenvalues not converged
     c_bands:  3 eigenvalues not converged
     c_bands:  3 eigenvalues not converged
     c_bands:  2 eigenvalues not converged
     ethr =  2.88E-05,  avg # of iterations = 19.6

     negative rho (up, down):  1.339E-02 0.000E+00
 
     Adding external electric field

     Computed dipole along edir(3) : 
        Dipole                0.2556 Ry au,          0.6497 Debye
        Dipole field          0.0005 Ry au, 
 
        Potential amp.       -0.0447 Ry
        Total length         46.3494 bohr
 

     total cpu time spent up to now is     1659.7 secs

     total energy              =   -2925.18296671 Ry
     estimated scf accuracy    <       0.35623826 Ry

     iteration # 22     ecut=    29.40 Ry     beta= 0.05
     Davidson diagonalization with overlap
     c_bands:  1 eigenvalues not converged
     c_bands:  1 eigenvalues not converged
     c_bands:  1 eigenvalues not converged
     ethr =  2.88E-05,  avg # of iterations = 14.4

     negative rho (up, down):  1.456E-02 0.000E+00
 
     Adding external electric field

     Computed dipole along edir(3) : 
        Dipole                0.2550 Ry au,          0.6480 Debye
        Dipole field          0.0005 Ry au, 
 
        Potential amp.       -0.0446 Ry
        Total length         46.3494 bohr
 

     total cpu time spent up to now is     1678.2 secs

     total energy              =   -2925.20000648 Ry
     estimated scf accuracy    <       0.06996536 Ry

     iteration # 23     ecut=    29.40 Ry     beta= 0.05
     Davidson diagonalization with overlap
     ethr =  1.80E-05,  avg # of iterations =  9.4

     negative rho (up, down):  1.712E-02 0.000E+00
 
     Adding external electric field

     Computed dipole along edir(3) : 
        Dipole                0.2472 Ry au,          0.6284 Debye
        Dipole field          0.0005 Ry au, 
 
        Potential amp.       -0.0432 Ry
        Total length         46.3494 bohr
 

     total cpu time spent up to now is     1693.8 secs

     total energy              =   -2925.20510346 Ry
     estimated scf accuracy    <       0.07666349 Ry

     iteration # 24     ecut=    29.40 Ry     beta= 0.05
     Davidson diagonalization with overlap
     c_bands:  3 eigenvalues not converged
     c_bands:  3 eigenvalues not converged
     c_bands:  2 eigenvalues not converged
     ethr =  1.80E-05,  avg # of iterations = 12.5

     negative rho (up, down):  1.632E-02 0.000E+00
 
     Adding external electric field

     Computed dipole along edir(3) : 
        Dipole                0.2703 Ry au,          0.6871 Debye
        Dipole field          0.0005 Ry au, 
 
        Potential amp.       -0.0473 Ry
        Total length         46.3494 bohr
 

     total cpu time spent up to now is     1711.1 secs

     total energy              =   -2925.19162357 Ry
     estimated scf accuracy    <       0.09310180 Ry

     iteration # 25     ecut=    29.40 Ry     beta= 0.05
     Davidson diagonalization with overlap
     c_bands:  2 eigenvalues not converged
     c_bands:  2 eigenvalues not converged
     c_bands:  3 eigenvalues not converged
     c_bands:  3 eigenvalues not converged
     ethr =  1.80E-05,  avg # of iterations = 17.7

     negative rho (up, down):  1.777E-02 0.000E+00
 
     Adding external electric field

     Computed dipole along edir(3) : 
        Dipole                0.2979 Ry au,          0.7572 Debye
        Dipole field          0.0006 Ry au, 
 
        Potential amp.       -0.0521 Ry
        Total length         46.3494 bohr
 

     total cpu time spent up to now is     1732.7 secs

     total energy              =   -2925.20106201 Ry
     estimated scf accuracy    <       0.20721919 Ry

     iteration # 26     ecut=    29.40 Ry     beta= 0.05
     Davidson diagonalization with overlap
     ethr =  1.80E-05,  avg # of iterations =  5.8

     negative rho (up, down):  1.716E-02 0.000E+00
 
     Adding external electric field

     Computed dipole along edir(3) : 
        Dipole                0.2909 Ry au,          0.7393 Debye
        Dipole field          0.0005 Ry au, 
 
        Potential amp.       -0.0509 Ry
        Total length         46.3494 bohr
 

     total cpu time spent up to now is     1747.4 secs

     total energy              =   -2925.20200334 Ry
     estimated scf accuracy    <       0.19108296 Ry

     iteration # 27     ecut=    29.40 Ry     beta= 0.05
     Davidson diagonalization with overlap
     ethr =  1.80E-05,  avg # of iterations =  1.2

     negative rho (up, down):  1.860E-02 0.000E+00
 
     Adding external electric field

     Computed dipole along edir(3) : 
        Dipole                0.3729 Ry au,          0.9478 Debye
        Dipole field          0.0007 Ry au, 
 
        Potential amp.       -0.0652 Ry
        Total length         46.3494 bohr
 

     total cpu time spent up to now is     1759.8 secs

     total energy              =   -2925.18823941 Ry
     estimated scf accuracy    <       0.26880954 Ry

     iteration # 28     ecut=    29.40 Ry     beta= 0.05
     Davidson diagonalization with overlap
     c_bands:  1 eigenvalues not converged
     c_bands:  1 eigenvalues not converged
     c_bands:  2 eigenvalues not converged
     c_bands:  3 eigenvalues not converged
     c_bands:  3 eigenvalues not converged
     c_bands:  2 eigenvalues not converged
     c_bands:  1 eigenvalues not converged
     ethr =  1.80E-05,  avg # of iterations = 18.5

     negative rho (up, down):  1.745E-02 0.000E+00
 
     Adding external electric field

     Computed dipole along edir(3) : 
        Dipole                0.4031 Ry au,          1.0245 Debye
        Dipole field          0.0008 Ry au, 
 
        Potential amp.       -0.0705 Ry
        Total length         46.3494 bohr
 

     total cpu time spent up to now is     1876.3 secs

     total energy              =   -2925.19805432 Ry
     estimated scf accuracy    <       0.13555206 Ry

     iteration # 29     ecut=    29.40 Ry     beta= 0.05
     Davidson diagonalization with overlap
     ethr =  1.80E-05,  avg # of iterations =  3.6

     negative rho (up, down):  1.771E-02 0.000E+00
 
     Adding external electric field

     Computed dipole along edir(3) : 
        Dipole                0.4847 Ry au,          1.2320 Debye
        Dipole field          0.0009 Ry au, 
 
        Potential amp.       -0.0848 Ry
        Total length         46.3494 bohr
 

     total cpu time spent up to now is     1976.5 secs

     total energy              =   -2925.19441985 Ry
     estimated scf accuracy    <       0.09121358 Ry

     iteration # 30     ecut=    29.40 Ry     beta= 0.05
     Davidson diagonalization with overlap
     c_bands:  1 eigenvalues not converged
     ethr =  1.80E-05,  avg # of iterations = 12.5

     negative rho (up, down):  1.832E-02 0.000E+00
 
     Adding external electric field

     Computed dipole along edir(3) : 
        Dipole                0.3675 Ry au,          0.9341 Debye
        Dipole field          0.0007 Ry au, 
 
        Potential amp.       -0.0643 Ry
        Total length         46.3494 bohr
 

     total cpu time spent up to now is     2033.9 secs

     total energy              =   -2925.19592211 Ry
     estimated scf accuracy    <       0.06345233 Ry

     iteration # 31     ecut=    29.40 Ry     beta= 0.05
     Davidson diagonalization with overlap
     c_bands:  2 eigenvalues not converged
     ethr =  1.63E-05,  avg # of iterations = 10.8

     negative rho (up, down):  1.835E-02 0.000E+00
 
     Adding external electric field

     Computed dipole along edir(3) : 
        Dipole                0.3490 Ry au,          0.8871 Debye
        Dipole field          0.0007 Ry au, 
 
        Potential amp.       -0.0611 Ry
        Total length         46.3494 bohr
 

     total cpu time spent up to now is     2050.1 secs

     total energy              =   -2925.19838226 Ry
     estimated scf accuracy    <       0.00433305 Ry

     iteration # 32     ecut=    29.40 Ry     beta= 0.05
     Davidson diagonalization with overlap
     c_bands:  1 eigenvalues not converged
     c_bands:  5 eigenvalues not converged
     c_bands:  4 eigenvalues not converged
     c_bands:  4 eigenvalues not converged
     c_bands:  1 eigenvalues not converged
     c_bands:  2 eigenvalues not converged
     ethr =  1.11E-06,  avg # of iterations = 17.8

     negative rho (up, down):  1.866E-02 0.000E+00
 
     Adding external electric field

     Computed dipole along edir(3) : 
        Dipole                0.3682 Ry au,          0.9360 Debye
        Dipole field          0.0007 Ry au, 
 
        Potential amp.       -0.0644 Ry
        Total length         46.3494 bohr
 

     total cpu time spent up to now is     2076.2 secs

     total energy              =   -2925.19893506 Ry
     estimated scf accuracy    <       0.00685876 Ry

     iteration # 33     ecut=    29.40 Ry     beta= 0.05
     Davidson diagonalization with overlap
     c_bands:  1 eigenvalues not converged
     c_bands:  3 eigenvalues not converged
     c_bands:  1 eigenvalues not converged
     c_bands:  1 eigenvalues not converged
     c_bands:  1 eigenvalues not converged
     ethr =  1.11E-06,  avg # of iterations = 10.8

     negative rho (up, down):  1.889E-02 0.000E+00
 
     Adding external electric field

     Computed dipole along edir(3) : 
        Dipole                0.3924 Ry au,          0.9974 Debye
        Dipole field          0.0007 Ry au, 
 
        Potential amp.       -0.0686 Ry
        Total length         46.3494 bohr
 

     total cpu time spent up to now is     2092.3 secs

     total energy              =   -2925.19836061 Ry
     estimated scf accuracy    <       0.00577404 Ry

     iteration # 34     ecut=    29.40 Ry     beta= 0.05
     Davidson diagonalization with overlap
     ethr =  1.11E-06,  avg # of iterations =  9.5

     negative rho (up, down):  1.879E-02 0.000E+00
 
     Adding external electric field

     Computed dipole along edir(3) : 
        Dipole                0.3717 Ry au,          0.9448 Debye
        Dipole field          0.0007 Ry au, 
 
        Potential amp.       -0.0650 Ry
        Total length         46.3494 bohr
 

     total cpu time spent up to now is     2110.1 secs

     total energy              =   -2925.19856321 Ry
     estimated scf accuracy    <       0.00141849 Ry

     iteration # 35     ecut=    29.40 Ry     beta= 0.05
     Davidson diagonalization with overlap
     ethr =  3.65E-07,  avg # of iterations = 12.0

     negative rho (up, down):  1.941E-02 0.000E+00
 
     Adding external electric field

     Computed dipole along edir(3) : 
        Dipole                0.3741 Ry au,          0.9508 Debye
        Dipole field          0.0007 Ry au, 
 
        Potential amp.       -0.0654 Ry
        Total length         46.3494 bohr
 

     total cpu time spent up to now is     2129.0 secs

     total energy              =   -2925.19891541 Ry
     estimated scf accuracy    <       0.00061458 Ry

     iteration # 36     ecut=    29.40 Ry     beta= 0.05
     Davidson diagonalization with overlap
     ethr =  1.58E-07,  avg # of iterations = 13.2

     negative rho (up, down):  1.956E-02 0.000E+00
 
     Adding external electric field

     Computed dipole along edir(3) : 
        Dipole                0.3776 Ry au,          0.9598 Debye
        Dipole field          0.0007 Ry au, 
 
        Potential amp.       -0.0661 Ry
        Total length         46.3494 bohr
 

     total cpu time spent up to now is     2149.6 secs

     total energy              =   -2925.19893812 Ry
     estimated scf accuracy    <       0.00059343 Ry

     iteration # 37     ecut=    29.40 Ry     beta= 0.05
     Davidson diagonalization with overlap
     ethr =  1.53E-07,  avg # of iterations = 12.8

     negative rho (up, down):  1.933E-02 0.000E+00
 
     Adding external electric field

     Computed dipole along edir(3) : 
        Dipole                0.3683 Ry au,          0.9361 Debye
        Dipole field          0.0007 Ry au, 
 
        Potential amp.       -0.0644 Ry
        Total length         46.3494 bohr
 

     total cpu time spent up to now is     2169.9 secs

     total energy              =   -2925.19903178 Ry
     estimated scf accuracy    <       0.00068900 Ry

     iteration # 38     ecut=    29.40 Ry     beta= 0.05
     Davidson diagonalization with overlap
     ethr =  1.53E-07,  avg # of iterations =  5.8

     negative rho (up, down):  1.928E-02 0.000E+00
 
     Adding external electric field

     Computed dipole along edir(3) : 
        Dipole                0.3594 Ry au,          0.9134 Debye
        Dipole field          0.0007 Ry au, 
 
        Potential amp.       -0.0629 Ry
        Total length         46.3494 bohr
 

     total cpu time spent up to now is     2184.4 secs

     total energy              =   -2925.19907448 Ry
     estimated scf accuracy    <       0.00016499 Ry

     iteration # 39     ecut=    29.40 Ry     beta= 0.05
     Davidson diagonalization with overlap
     c_bands:  1 eigenvalues not converged
     ethr =  4.24E-08,  avg # of iterations = 13.7

     negative rho (up, down):  1.934E-02 0.000E+00
 
     Adding external electric field

     Computed dipole along edir(3) : 
        Dipole                0.3590 Ry au,          0.9124 Debye
        Dipole field          0.0007 Ry au, 
 
        Potential amp.       -0.0628 Ry
        Total length         46.3494 bohr
 

     total cpu time spent up to now is     2203.5 secs

     total energy              =   -2925.19913502 Ry
     estimated scf accuracy    <       0.00005524 Ry

     iteration # 40     ecut=    29.40 Ry     beta= 0.05
     Davidson diagonalization with overlap
     ethr =  1.42E-08,  avg # of iterations =  9.9

     negative rho (up, down):  1.942E-02 0.000E+00
 
     Adding external electric field

     Computed dipole along edir(3) : 
        Dipole                0.3633 Ry au,          0.9234 Debye
        Dipole field          0.0007 Ry au, 
 
        Potential amp.       -0.0636 Ry
        Total length         46.3494 bohr
 

     total cpu time spent up to now is     2219.8 secs

     total energy              =   -2925.19917217 Ry
     estimated scf accuracy    <       0.00003421 Ry

     iteration # 41     ecut=    29.40 Ry     beta= 0.05
     Davidson diagonalization with overlap
     ethr =  8.79E-09,  avg # of iterations =  8.8

     negative rho (up, down):  1.939E-02 0.000E+00
 
     Adding external electric field

     Computed dipole along edir(3) : 
        Dipole                0.3630 Ry au,          0.9228 Debye
        Dipole field          0.0007 Ry au, 
 
        Potential amp.       -0.0635 Ry
        Total length         46.3494 bohr
 

     total cpu time spent up to now is     2237.3 secs

     total energy              =   -2925.19919896 Ry
     estimated scf accuracy    <       0.00002136 Ry

     iteration # 42     ecut=    29.40 Ry     beta= 0.05
     Davidson diagonalization with overlap
     c_bands:  1 eigenvalues not converged
     ethr =  5.49E-09,  avg # of iterations = 11.7

     negative rho (up, down):  1.931E-02 0.000E+00
 
     Adding external electric field

     Computed dipole along edir(3) : 
        Dipole                0.3610 Ry au,          0.9176 Debye
        Dipole field          0.0007 Ry au, 
 
        Potential amp.       -0.0632 Ry
        Total length         46.3494 bohr
 

     total cpu time spent up to now is     2254.6 secs

     total energy              =   -2925.19922272 Ry
     estimated scf accuracy    <       0.00001287 Ry

     iteration # 43     ecut=    29.40 Ry     beta= 0.05
     Davidson diagonalization with overlap
     ethr =  3.31E-09,  avg # of iterations = 10.2

     negative rho (up, down):  1.932E-02 0.000E+00
 
     Adding external electric field

     Computed dipole along edir(3) : 
        Dipole                0.3614 Ry au,          0.9185 Debye
        Dipole field          0.0007 Ry au, 
 
        Potential amp.       -0.0632 Ry
        Total length         46.3494 bohr
 

     total cpu time spent up to now is     2275.9 secs

     total energy              =   -2925.19924461 Ry
     estimated scf accuracy    <       0.00000957 Ry

     iteration # 44     ecut=    29.40 Ry     beta= 0.05
     Davidson diagonalization with overlap
     ethr =  2.46E-09,  avg # of iterations =  1.0

     negative rho (up, down):  1.932E-02 0.000E+00
 
     Adding external electric field

     Computed dipole along edir(3) : 
        Dipole                0.3617 Ry au,          0.9193 Debye
        Dipole field          0.0007 Ry au, 
 
        Potential amp.       -0.0633 Ry
        Total length         46.3494 bohr
 

     total cpu time spent up to now is     2288.1 secs

     total energy              =   -2925.19926155 Ry
     estimated scf accuracy    <       0.00000744 Ry

     iteration # 45     ecut=    29.40 Ry     beta= 0.05
     Davidson diagonalization with overlap
     ethr =  1.91E-09,  avg # of iterations = 13.9

     negative rho (up, down):  1.927E-02 0.000E+00
 
     Adding external electric field

     Computed dipole along edir(3) : 
        Dipole                0.3607 Ry au,          0.9167 Debye
        Dipole field          0.0007 Ry au, 
 
        Potential amp.       -0.0631 Ry
        Total length         46.3494 bohr
 

     total cpu time spent up to now is     2313.1 secs

     total energy              =   -2925.19927760 Ry
     estimated scf accuracy    <       0.00001186 Ry

     iteration # 46     ecut=    29.40 Ry     beta= 0.05
     Davidson diagonalization with overlap
     ethr =  1.91E-09,  avg # of iterations =  9.7

     negative rho (up, down):  1.927E-02 0.000E+00
 
     Adding external electric field

     Computed dipole along edir(3) : 
        Dipole                0.3620 Ry au,          0.9200 Debye
        Dipole field          0.0007 Ry au, 
 
        Potential amp.       -0.0633 Ry
        Total length         46.3494 bohr
 

     total cpu time spent up to now is     2334.8 secs

     total energy              =   -2925.19929479 Ry
     estimated scf accuracy    <       0.00000344 Ry

     iteration # 47     ecut=    29.40 Ry     beta= 0.05
     Davidson diagonalization with overlap
     c_bands:  1 eigenvalues not converged
     ethr =  8.84E-10,  avg # of iterations = 12.0

     negative rho (up, down):  1.926E-02 0.000E+00
 
     Adding external electric field

     Computed dipole along edir(3) : 
        Dipole                0.3621 Ry au,          0.9203 Debye
        Dipole field          0.0007 Ry au, 
 
        Potential amp.       -0.0633 Ry
        Total length         46.3494 bohr
 

     total cpu time spent up to now is     2352.5 secs

     total energy              =   -2925.19930761 Ry
     estimated scf accuracy    <       0.00000465 Ry

     iteration # 48     ecut=    29.40 Ry     beta= 0.05
     Davidson diagonalization with overlap
     ethr =  8.84E-10,  avg # of iterations =  4.9

     negative rho (up, down):  1.923E-02 0.000E+00
 
     Adding external electric field

     Computed dipole along edir(3) : 
        Dipole                0.3611 Ry au,          0.9179 Debye
        Dipole field          0.0007 Ry au, 
 
        Potential amp.       -0.0632 Ry
        Total length         46.3494 bohr
 

     total cpu time spent up to now is     2366.7 secs

     total energy              =   -2925.19931926 Ry
     estimated scf accuracy    <       0.00000271 Ry

     iteration # 49     ecut=    29.40 Ry     beta= 0.05
     Davidson diagonalization with overlap
     ethr =  6.97E-10,  avg # of iterations = 10.6

     negative rho (up, down):  1.923E-02 0.000E+00
 
     Adding external electric field

     Computed dipole along edir(3) : 
        Dipole                0.3610 Ry au,          0.9176 Debye
        Dipole field          0.0007 Ry au, 
 
        Potential amp.       -0.0632 Ry
        Total length         46.3494 bohr
 

     total cpu time spent up to now is     2383.8 secs

     total energy              =   -2925.19933024 Ry
     estimated scf accuracy    <       0.00000055 Ry

     iteration # 50     ecut=    29.40 Ry     beta= 0.05
     Davidson diagonalization with overlap
     c_bands:  1 eigenvalues not converged
     ethr =  1.42E-10,  avg # of iterations = 16.1

     negative rho (up, down):  1.924E-02 0.000E+00
 
     Adding external electric field

     Computed dipole along edir(3) : 
        Dipole                0.3612 Ry au,          0.9181 Debye
        Dipole field          0.0007 Ry au, 
 
        Potential amp.       -0.0632 Ry
        Total length         46.3494 bohr
 

     total cpu time spent up to now is     2412.6 secs

     total energy              =   -2925.19934023 Ry
     estimated scf accuracy    <       0.00000179 Ry

     iteration # 51     ecut=    29.40 Ry     beta= 0.05
     Davidson diagonalization with overlap
     ethr =  1.42E-10,  avg # of iterations =  1.1

     negative rho (up, down):  1.925E-02 0.000E+00
 
     Adding external electric field

     Computed dipole along edir(3) : 
        Dipole                0.3615 Ry au,          0.9188 Debye
        Dipole field          0.0007 Ry au, 
 
        Potential amp.       -0.0632 Ry
        Total length         46.3494 bohr
 

     total cpu time spent up to now is     2424.9 secs

     total energy              =   -2925.19934852 Ry
     estimated scf accuracy    <       0.00000162 Ry

     iteration # 52     ecut=    29.40 Ry     beta= 0.05
     Davidson diagonalization with overlap
     ethr =  1.42E-10,  avg # of iterations = 13.5

     negative rho (up, down):  1.923E-02 0.000E+00
 
     Adding external electric field

     Computed dipole along edir(3) : 
        Dipole                0.3611 Ry au,          0.9178 Debye
        Dipole field          0.0007 Ry au, 
 
        Potential amp.       -0.0632 Ry
        Total length         46.3494 bohr
 

     total cpu time spent up to now is     2450.0 secs

     total energy              =   -2925.19935668 Ry
     estimated scf accuracy    <       0.00000019 Ry

     iteration # 53     ecut=    29.40 Ry     beta= 0.05
     Davidson diagonalization with overlap
     ethr =  4.87E-11,  avg # of iterations =  7.9

     negative rho (up, down):  1.923E-02 0.000E+00
 
     Adding external electric field

     Computed dipole along edir(3) : 
        Dipole                0.3610 Ry au,          0.9177 Debye
        Dipole field          0.0007 Ry au, 
 
        Potential amp.       -0.0632 Ry
        Total length         46.3494 bohr
 

     total cpu time spent up to now is     2467.2 secs

     total energy              =   -2925.19936385 Ry
     estimated scf accuracy    <       0.00000010 Ry

     iteration # 54     ecut=    29.40 Ry     beta= 0.05
     Davidson diagonalization with overlap
     ethr =  2.63E-11,  avg # of iterations =  9.2

     negative rho (up, down):  1.923E-02 0.000E+00
 
     Adding external electric field

     Computed dipole along edir(3) : 
        Dipole                0.3612 Ry au,          0.9181 Debye
        Dipole field          0.0007 Ry au, 
 
        Potential amp.       -0.0632 Ry
        Total length         46.3494 bohr
 

     total cpu time spent up to now is     2488.9 secs

     total energy              =   -2925.19937019 Ry
     estimated scf accuracy    <       0.00000011 Ry

     iteration # 55     ecut=    29.40 Ry     beta= 0.05
     Davidson diagonalization with overlap
     ethr =  2.63E-11,  avg # of iterations = 10.1

     negative rho (up, down):  1.932E-02 0.000E+00
 
     Adding external electric field

     Computed dipole along edir(3) : 
        Dipole                0.3609 Ry au,          0.9174 Debye
        Dipole field          0.0007 Ry au, 
 
        Potential amp.       -0.0631 Ry
        Total length         46.3494 bohr
 

     total cpu time spent up to now is     2506.1 secs

     End of self-consistent calculation

          k = 0.0000 0.0000 0.0000 ( 18029 PWs)   bands (ev):

   -56.2654 -56.2300 -56.2299 -56.1936 -56.1403 -56.0992 -56.0547 -56.0305
   -56.0017 -55.9849 -55.9513 -55.9197 -55.7771 -55.5992 -55.2593 -55.2253
   -32.7953 -32.7274 -32.5755 -32.5651 -32.5503 -32.5471 -32.5259 -32.4744
   -32.4733 -32.4634 -32.4347 -32.4296 -32.4111 -32.3991 -32.3758 -32.3631
   -32.3605 -32.3502 -32.3350 -32.3038 -32.2998 -32.2876 -32.2687 -32.2402
   -32.2383 -32.2381 -32.2218 -32.2196 -32.2112 -32.1988 -32.1695 -32.1584
   -32.1286 -32.1261 -32.0993 -32.0966 -32.0823 -32.0363 -31.9402 -31.8454
   -31.8418 -31.7983 -31.6684 -31.5727 -31.5502 -31.4854 -31.3995 -31.2880
   -18.5284 -16.9673 -16.6712 -16.5099 -16.3762 -16.3468 -16.2366 -16.0209
   -15.9113 -15.8358 -15.8186 -15.7982 -15.7761 -15.7690 -15.7538 -15.7456
   -15.7171 -15.6852 -15.6523 -15.6442 -15.6391 -15.5996 -15.5043 -15.4544
   -15.4146 -15.3707 -15.3615 -15.2643 -15.2213 -15.0022 -13.7591 -13.6411
    -9.0983  -5.2564  -4.3304  -4.1611  -4.1328  -4.0481  -4.0309  -3.7820
    -3.7728  -3.4843  -3.4192  -3.3699  -3.3592  -3.3395  -3.2346  -3.1845
    -3.0945  -3.0718  -3.0487  -3.0117  -3.0020  -2.9874  -2.9665  -2.9557
    -2.9377  -2.8758  -2.7594  -2.6702  -2.6427  -2.6030  -2.5743  -2.5527
    -2.5008  -2.4773  -2.4687  -2.4552  -2.4478  -2.4193  -2.3739  -2.2516
    -2.1990  -2.1396  -2.0419  -2.0212  -1.9398  -1.7772  -1.7231  -1.6634
    -1.6486  -1.6289  -1.5665  -1.5553  -1.4457  -1.4138  -1.4088  -1.3344
    -1.2420  -1.2240  -1.1281  -1.0764  -0.9886  -0.9778  -0.9628  -0.9508
    -0.9237  -0.7246  -0.6985  -0.6718  -0.6338  -0.6006  -0.5312  -0.5136
    -0.4263  -0.4146  -0.3843  -0.3326  -0.3249  -0.2621  -0.2408  -0.2370
    -0.1760  -0.1519   0.0021   0.0220   0.0349   0.1304   0.1377   0.3165
     0.3389   0.4160   0.5315   0.6724   0.7657   0.8731   0.9377   1.3568
     1.4198   2.1648   2.9359   2.9575   2.9886   3.0948   3.1245   3.2098
     3.2579   3.3847   3.3995   3.4410

          k = 0.0000 0.0419 0.0000 ( 17933 PWs)   bands (ev):

   -56.2606 -56.2345 -56.2247 -56.1988 -56.1389 -56.0958 -56.0580 -56.0318
   -55.9996 -55.9801 -55.9562 -55.9214 -55.7763 -55.5999 -55.2543 -55.2302
   -32.7374 -32.6736 -32.5462 -32.5358 -32.5228 -32.5219 -32.5129 -32.4815
   -32.4459 -32.4286 -32.4233 -32.4197 -32.4159 -32.4066 -32.4058 -32.3893
   -32.3705 -32.3545 -32.3487 -32.2985 -32.2825 -32.2774 -32.2551 -32.2546
   -32.2443 -32.2356 -32.2310 -32.2273 -32.2232 -32.2148 -32.2126 -32.1744
   -32.1529 -32.1403 -32.1310 -32.1303 -32.0942 -32.0356 -31.9337 -31.8716
   -31.8420 -31.8196 -31.6144 -31.5692 -31.5532 -31.4729 -31.4119 -31.3452
   -18.5256 -16.8319 -16.5498 -16.4006 -16.2733 -16.2428 -16.2013 -16.0984
   -15.9633 -15.8813 -15.8355 -15.8202 -15.7960 -15.7577 -15.7238 -15.7213
   -15.7100 -15.6910 -15.6770 -15.6464 -15.6307 -15.6004 -15.5441 -15.4840
   -15.4659 -15.4278 -15.4195 -15.3236 -15.2767 -15.0738 -13.7624 -13.6802
    -9.0989  -5.2309  -4.1411  -3.9941  -3.9600  -3.8920  -3.8738  -3.6200
    -3.5362  -3.4617  -3.3979  -3.3098  -3.3077  -3.2328  -3.2240  -3.2068
    -3.1757  -3.1643  -3.1205  -3.0930  -3.0581  -3.0523  -2.9910  -2.9680
    -2.9502  -2.9462  -2.9276  -2.8714  -2.7902  -2.7430  -2.7331  -2.6680
    -2.6251  -2.5924  -2.4844  -2.4761  -2.3678  -2.3284  -2.3122  -2.2456
    -2.1294  -2.0158  -1.9867  -1.9158  -1.8847  -1.8457  -1.6539  -1.5884
    -1.5338  -1.4973  -1.4556  -1.4275  -1.2850  -1.2738  -1.2570  -1.1918
    -1.1743  -1.1548  -1.1452  -1.1107  -1.0730  -1.0265  -0.9802  -0.8920
    -0.8562  -0.8205  -0.8184  -0.7246  -0.6906  -0.6694  -0.6463  -0.5672
    -0.5332  -0.4988  -0.4381  -0.4187  -0.3976  -0.3350  -0.3229  -0.2712
    -0.2464  -0.2159  -0.1266  -0.1059  -0.0296   0.0651   0.0942   0.1451
     0.1919   0.2414   0.3769   0.4494   0.7454   0.9561   1.0281   1.3024
     1.3316   2.1144   3.0747   3.1192   3.1932   3.2025   3.2209   3.2778
     3.3205   3.3410   3.4108   3.4807

          k = 0.0000-0.0839 0.0000 ( 17884 PWs)   bands (ev):

   -56.2527 -56.2424 -56.2139 -56.2095 -56.1375 -56.0916 -56.0621 -56.0331
   -55.9975 -55.9701 -55.9663 -55.9232 -55.7754 -55.6007 -55.2425 -55.2419
   -32.5983 -32.5941 -32.5471 -32.5402 -32.5366 -32.5242 -32.5193 -32.4786
   -32.4347 -32.4208 -32.4068 -32.3992 -32.3933 -32.3859 -32.3803 -32.3787
   -32.3759 -32.3444 -32.3317 -32.3260 -32.2990 -32.2798 -32.2757 -32.2750
   -32.2676 -32.2527 -32.2426 -32.2415 -32.2311 -32.2252 -32.2234 -32.2011
   -32.2011 -32.1909 -32.1434 -32.1312 -32.0909 -32.0348 -31.9332 -31.9095
   -31.8419 -31.8350 -31.5614 -31.5607 -31.4819 -31.4814 -31.4427 -31.4422
   -18.5229 -16.4921 -16.4852 -16.2764 -16.2627 -16.1439 -16.1370 -16.0521
   -16.0358 -16.0178 -15.9947 -15.9060 -15.9030 -15.7348 -15.7344 -15.7025
   -15.6160 -15.6064 -15.5974 -15.5935 -15.5917 -15.5690 -15.5667 -15.5592
   -15.5535 -15.4992 -15.4488 -15.4111 -15.4095 -15.1657 -13.7436 -13.7420
    -9.0996  -5.2049  -3.7069  -3.6796  -3.6077  -3.6050  -3.5544  -3.5393
    -3.5246  -3.5153  -3.5113  -3.4627  -3.3435  -3.3374  -3.3335  -3.3231
    -3.3000  -3.2628  -3.1794  -3.1439  -3.1263  -3.0565  -3.0478  -3.0389
    -3.0068  -2.9792  -2.9547  -2.8858  -2.8344  -2.8278  -2.7500  -2.6758
    -2.6568  -2.5900  -2.5798  -2.3122  -2.2719  -2.2489  -2.1381  -2.0944
    -2.0782  -1.9651  -1.9260  -1.8720  -1.8092  -1.6801  -1.6656  -1.6299
    -1.5989  -1.5751  -1.5706  -1.5553  -1.4618  -1.4329  -1.3477  -1.3293
    -1.2593  -1.0289  -0.9739  -0.9667  -0.8793  -0.8737  -0.8345  -0.7989
    -0.7934  -0.7860  -0.7785  -0.7081  -0.6793  -0.6579  -0.6379  -0.6200
    -0.5864  -0.5670  -0.5595  -0.5482  -0.5179  -0.4935  -0.4209  -0.3985
    -0.3852  -0.3780  -0.3206  -0.2320  -0.1882  -0.0495   0.0009   0.0079
     0.0112   0.3299   0.3964   0.4935   0.5246   1.0918   1.0931   1.2467
     1.2478   2.0836   3.0497   3.2192   3.2240   3.2332   3.2910   3.3474
     3.3526   3.5036   3.5644   3.6042

          k = 0.0380 0.0000 0.0000 ( 17913 PWs)   bands (ev):

   -56.2653 -56.2299 -56.2298 -56.1935 -56.1402 -56.0992 -56.0546 -56.0304
   -56.0014 -55.9850 -55.9512 -55.9196 -55.7771 -55.5991 -55.2592 -55.2252
   -32.7954 -32.7282 -32.5811 -32.5667 -32.5501 -32.5469 -32.5259 -32.4743
   -32.4734 -32.4672 -32.4267 -32.4172 -32.4111 -32.3990 -32.3754 -32.3588
   -32.3538 -32.3499 -32.3348 -32.3055 -32.3031 -32.3005 -32.2504 -32.2394
   -32.2392 -32.2380 -32.2197 -32.2177 -32.2110 -32.1987 -32.1693 -32.1650
   -32.1280 -32.1259 -32.1068 -32.0944 -32.0839 -32.0391 -31.9401 -31.8453
   -31.8422 -31.7981 -31.6679 -31.5760 -31.5482 -31.4852 -31.3994 -31.2878
   -18.5279 -16.8971 -16.5769 -16.4299 -16.3820 -16.2592 -16.2353 -16.0798
   -15.9268 -15.9153 -15.9064 -15.8841 -15.8748 -15.8396 -15.8014 -15.7704
   -15.7594 -15.6854 -15.6519 -15.5879 -15.4832 -15.4788 -15.4677 -15.4608
   -15.4506 -15.4316 -15.3400 -15.3034 -15.2591 -14.9987 -13.7557 -13.6408
    -9.0964  -5.2366  -4.2587  -3.9531  -3.8761  -3.8712  -3.8374  -3.7580
    -3.7127  -3.6796  -3.4684  -3.4579  -3.4208  -3.3219  -3.3176  -3.2577
    -3.1912  -3.1086  -3.0551  -2.9877  -2.9757  -2.9191  -2.9081  -2.8262
    -2.8101  -2.8026  -2.7411  -2.6832  -2.6359  -2.5978  -2.5311  -2.5142
    -2.5109  -2.4385  -2.4227  -2.3421  -2.2729  -2.2638  -2.2126  -2.1725
    -2.1488  -2.0763  -2.0216  -1.9863  -1.9661  -1.9332  -1.7891  -1.7629
    -1.6727  -1.6660  -1.6148  -1.5502  -1.5258  -1.4895  -1.4575  -1.4245
    -1.3548  -1.2414  -1.1283  -1.0665  -1.0448  -1.0243  -0.9810  -0.9513
    -0.9202  -0.8046  -0.7398  -0.6762  -0.6704  -0.6129  -0.5632  -0.5507
    -0.5286  -0.4966  -0.4439  -0.4177  -0.3820  -0.3554  -0.3340  -0.3035
    -0.2501  -0.1505  -0.0971  -0.0328  -0.0095   0.0470   0.0948   0.1093
     0.1751   0.4198   0.4563   0.6778   0.7405   0.7776   0.9056   1.2392
     1.3287   2.1723   2.9682   3.0783   3.1212   3.2087   3.2401   3.2888
     3.3392   3.3693   3.3988   3.4223

          k = 0.0380 0.0419 0.0000 ( 17878 PWs)   bands (ev):

   -56.2605 -56.2345 -56.2246 -56.1987 -56.1388 -56.0957 -56.0580 -56.0317
   -55.9994 -55.9802 -55.9561 -55.9214 -55.7762 -55.5999 -55.2542 -55.2302
   -32.7375 -32.6744 -32.5460 -32.5357 -32.5292 -32.5221 -32.5144 -32.4814
   -32.4461 -32.4288 -32.4209 -32.4136 -32.4098 -32.4080 -32.4066 -32.3894
   -32.3605 -32.3510 -32.3483 -32.2990 -32.2981 -32.2773 -32.2531 -32.2472
   -32.2396 -32.2341 -32.2332 -32.2258 -32.2198 -32.2148 -32.2127 -32.1714
   -32.1508 -32.1471 -32.1341 -32.1299 -32.1011 -32.0380 -31.9336 -31.8715
   -31.8429 -31.8196 -31.6141 -31.5718 -31.5522 -31.4727 -31.4120 -31.3450
   -18.5253 -16.7679 -16.4618 -16.3276 -16.2780 -16.1992 -16.1572 -16.0968
   -16.0099 -15.9285 -15.8878 -15.8360 -15.8340 -15.8104 -15.7978 -15.7766
   -15.7186 -15.6862 -15.6634 -15.6409 -15.5598 -15.5425 -15.5169 -15.5070
   -15.4986 -15.4855 -15.4113 -15.3518 -15.3168 -15.0707 -13.7600 -13.6805
    -9.0978  -5.2201  -4.0828  -3.7861  -3.7097  -3.6988  -3.6746  -3.5607
    -3.5359  -3.5156  -3.3940  -3.3223  -3.2843  -3.2359  -3.2272  -3.1889
    -3.1550  -3.1016  -3.0828  -3.0631  -3.0223  -3.0005  -2.9703  -2.9487
    -2.9302  -2.8942  -2.8408  -2.8108  -2.7957  -2.7460  -2.7040  -2.6906
    -2.5695  -2.5415  -2.4756  -2.4053  -2.3565  -2.3233  -2.2338  -2.1777
    -2.1471  -2.0885  -1.9904  -1.9437  -1.8173  -1.7470  -1.6873  -1.6686
    -1.6273  -1.5407  -1.5128  -1.4880  -1.4507  -1.3769  -1.3669  -1.3305
    -1.2569  -1.2026  -1.1621  -1.1308  -1.1060  -1.0454  -1.0185  -0.9536
    -0.9477  -0.8962  -0.8878  -0.8513  -0.8191  -0.7788  -0.7244  -0.6984
    -0.6732  -0.5903  -0.5817  -0.5323  -0.4701  -0.4365  -0.3857  -0.2963
    -0.2725  -0.1718  -0.1312  -0.0444  -0.0098   0.0734   0.1067   0.1297
     0.1845   0.2486   0.3282   0.4075   0.6938   0.9688   1.0329   1.2233
     1.3051   2.1251   3.0564   3.1430   3.2364   3.2529   3.2621   3.3514
     3.3636   3.4222   3.4611   3.4717

          k = 0.0380-0.0839 0.0000 ( 17916 PWs)   bands (ev):

   -56.2527 -56.2424 -56.2139 -56.2095 -56.1375 -56.0916 -56.0621 -56.0331
   -55.9975 -55.9701 -55.9664 -55.9233 -55.7754 -55.6007 -55.2425 -55.2419
   -32.5985 -32.5943 -32.5478 -32.5404 -32.5374 -32.5242 -32.5194 -32.4787
   -32.4348 -32.4244 -32.4221 -32.4073 -32.3847 -32.3805 -32.3775 -32.3686
   -32.3577 -32.3425 -32.3320 -32.3272 -32.2993 -32.2867 -32.2841 -32.2821
   -32.2679 -32.2609 -32.2437 -32.2385 -32.2251 -32.2234 -32.2105 -32.2012
   -32.1907 -32.1871 -32.1435 -32.1427 -32.0998 -32.0371 -31.9331 -31.9093
   -31.8432 -31.8350 -31.5623 -31.5616 -31.4818 -31.4813 -31.4427 -31.4422
   -18.5228 -16.4534 -16.4386 -16.2247 -16.2092 -16.0995 -16.0920 -16.0595
   -16.0116 -15.9826 -15.9781 -15.8843 -15.8787 -15.7802 -15.7713 -15.7247
   -15.6966 -15.6592 -15.6345 -15.6226 -15.6142 -15.6031 -15.5859 -15.5753
   -15.5541 -15.4947 -15.4767 -15.4496 -15.4251 -15.1604 -13.7434 -13.7418
    -9.0993  -5.2030  -3.7040  -3.6664  -3.4470  -3.4271  -3.4008  -3.3875
    -3.3660  -3.3476  -3.3017  -3.2995  -3.2801  -3.2603  -3.2361  -3.2256
    -3.1707  -3.1577  -3.1370  -3.0703  -3.0512  -3.0332  -3.0170  -3.0086
    -2.9852  -2.9748  -2.9167  -2.8776  -2.8572  -2.8519  -2.7663  -2.7271
    -2.7228  -2.3942  -2.3522  -2.3169  -2.3103  -2.2216  -2.1386  -2.1112
    -2.0792  -2.0748  -1.9942  -1.9836  -1.9657  -1.9483  -1.8899  -1.8383
    -1.8123  -1.7221  -1.6991  -1.6051  -1.4682  -1.4266  -1.3656  -1.3480
    -1.2304  -1.2058  -1.1548  -1.1311  -1.0337  -1.0129  -0.9684  -0.9577
    -0.9412  -0.9044  -0.8868  -0.8688  -0.8249  -0.7960  -0.7884  -0.7753
    -0.7402  -0.6729  -0.6486  -0.5799  -0.5402  -0.4902  -0.3928  -0.3401
    -0.2530  -0.1529  -0.1486  -0.1188  -0.0754  -0.0564  -0.0086   0.0972
     0.1109   0.2912   0.3286   0.4770   0.5018   1.1076   1.1085   1.2363
     1.2389   2.0980   3.0674   3.1587   3.2413   3.2617   3.2837   3.3280
     3.3339   3.5170   3.5259   3.5829

          k = 0.0380-0.0419 0.0000 ( 17876 PWs)   bands (ev):

   -56.2605 -56.2345 -56.2246 -56.1987 -56.1388 -56.0957 -56.0580 -56.0317
   -55.9994 -55.9802 -55.9561 -55.9214 -55.7762 -55.5999 -55.2542 -55.2302
   -32.7375 -32.6744 -32.5460 -32.5357 -32.5292 -32.5221 -32.5144 -32.4814
   -32.4461 -32.4288 -32.4209 -32.4135 -32.4098 -32.4080 -32.4066 -32.3894
   -32.3604 -32.3510 -32.3483 -32.2990 -32.2980 -32.2773 -32.2532 -32.2471
   -32.2396 -32.2341 -32.2332 -32.2262 -32.2192 -32.2148 -32.2127 -32.1714
   -32.1508 -32.1470 -32.1342 -32.1299 -32.1011 -32.0380 -31.9336 -31.8715
   -31.8429 -31.8196 -31.6141 -31.5718 -31.5522 -31.4727 -31.4120 -31.3450
   -18.5253 -16.7680 -16.4617 -16.3277 -16.2779 -16.1992 -16.1570 -16.0969
   -16.0099 -15.9292 -15.8866 -15.8361 -15.8342 -15.8110 -15.7981 -15.7765
   -15.7185 -15.6860 -15.6639 -15.6406 -15.5594 -15.5425 -15.5168 -15.5071
   -15.4989 -15.4854 -15.4109 -15.3521 -15.3170 -15.0706 -13.7600 -13.6805
    -9.0979  -5.2198  -4.0829  -3.7858  -3.7096  -3.6983  -3.6742  -3.5602
    -3.5349  -3.5164  -3.3943  -3.3215  -3.2850  -3.2361  -3.2273  -3.1900
    -3.1530  -3.1021  -3.0820  -3.0630  -3.0237  -3.0016  -2.9676  -2.9500
    -2.9307  -2.8942  -2.8412  -2.8095  -2.7934  -2.7495  -2.7049  -2.6904
    -2.5693  -2.5395  -2.4763  -2.4061  -2.3572  -2.3187  -2.2337  -2.1781
    -2.1438  -2.0912  -1.9915  -1.9453  -1.8178  -1.7482  -1.6874  -1.6685
    -1.6265  -1.5414  -1.5124  -1.4882  -1.4510  -1.3802  -1.3663  -1.3306
    -1.2577  -1.2045  -1.1622  -1.1313  -1.1066  -1.0455  -1.0186  -0.9556
    -0.9476  -0.8967  -0.8877  -0.8549  -0.8192  -0.7799  -0.7231  -0.6959
    -0.6720  -0.5927  -0.5775  -0.5325  -0.4702  -0.4374  -0.3854  -0.2928
    -0.2699  -0.1694  -0.1332  -0.0447  -0.0084   0.0714   0.1092   0.1296
     0.1840   0.2480   0.3285   0.4079   0.6942   0.9688   1.0329   1.2231
     1.3057   2.1264   3.0566   3.1442   3.2371   3.2515   3.2623   3.3507
     3.3649   3.4219   3.4593   3.4714

          k =-0.0760-0.0000 0.0000 ( 17886 PWs)   bands (ev):

   -56.2652 -56.2298 -56.2298 -56.1935 -56.1402 -56.0992 -56.0546 -56.0303
   -56.0011 -55.9852 -55.9512 -55.9196 -55.7770 -55.5991 -55.2592 -55.2252
   -32.7956 -32.7292 -32.5864 -32.5683 -32.5500 -32.5467 -32.5258 -32.4743
   -32.4735 -32.4711 -32.4239 -32.4111 -32.3990 -32.3908 -32.3753 -32.3545
   -32.3499 -32.3480 -32.3351 -32.3314 -32.3037 -32.3011 -32.2400 -32.2398
   -32.2382 -32.2211 -32.2147 -32.2144 -32.2109 -32.1987 -32.1903 -32.1693
   -32.1274 -32.1257 -32.1119 -32.0911 -32.0872 -32.0424 -31.9400 -31.8455
   -31.8428 -31.7981 -31.6676 -31.5792 -31.5468 -31.4851 -31.3993 -31.2879
   -18.5275 -16.8059 -16.4922 -16.3467 -16.3032 -16.2375 -16.2141 -16.0839
   -16.0100 -15.9950 -15.9608 -15.9399 -15.9275 -15.9004 -15.8513 -15.8058
   -15.7631 -15.6833 -15.6618 -15.5476 -15.5285 -15.5097 -15.5034 -15.4565
   -15.3964 -15.3898 -15.3835 -15.2589 -15.2533 -14.9961 -13.7526 -13.6405
    -9.0947  -5.2189  -4.2400  -3.8498  -3.8070  -3.7477  -3.7375  -3.5918
    -3.5724  -3.5164  -3.5134  -3.4886  -3.4474  -3.3914  -3.2859  -3.2163
    -3.0968  -3.0849  -2.9939  -2.9878  -2.8274  -2.8216  -2.8131  -2.8046
    -2.7439  -2.7206  -2.7047  -2.6939  -2.5470  -2.5339  -2.5054  -2.4737
    -2.4733  -2.4494  -2.4188  -2.3811  -2.3467  -2.3207  -2.2660  -2.2537
    -2.0620  -2.0277  -1.9705  -1.9243  -1.9187  -1.8769  -1.8264  -1.8052
    -1.7643  -1.7393  -1.7010  -1.5774  -1.5466  -1.5032  -1.4879  -1.4646
    -1.4501  -1.4009  -1.3547  -1.2954  -1.0834  -1.0012  -0.9735  -0.9620
    -0.9439  -0.9174  -0.8449  -0.7802  -0.7571  -0.7230  -0.6752  -0.6462
    -0.5424  -0.5110  -0.4819  -0.4552  -0.4169  -0.4092  -0.3901  -0.3343
    -0.2637  -0.1786  -0.1353  -0.1051  -0.0484  -0.0395   0.1197   0.2275
     0.2719   0.3436   0.4325   0.5169   0.6922   0.8003   0.8800   1.0980
     1.2600   2.1756   2.9700   2.9920   3.1124   3.1204   3.2128   3.2384
     3.3776   3.3846   3.4090   3.4441

          k =-0.0760 0.0419 0.0000 ( 17914 PWs)   bands (ev):

   -56.2606 -56.2345 -56.2246 -56.1987 -56.1388 -56.0958 -56.0580 -56.0317
   -55.9993 -55.9803 -55.9562 -55.9215 -55.7762 -55.5999 -55.2542 -55.2302
   -32.7379 -32.6754 -32.5460 -32.5357 -32.5356 -32.5221 -32.5162 -32.4814
   -32.4462 -32.4291 -32.4226 -32.4116 -32.4114 -32.4070 -32.3899 -32.3895
   -32.3509 -32.3482 -32.3478 -32.3191 -32.2984 -32.2778 -32.2524 -32.2506
   -32.2355 -32.2340 -32.2264 -32.2160 -32.2147 -32.2134 -32.2040 -32.1944
   -32.1486 -32.1414 -32.1401 -32.1303 -32.1093 -32.0408 -31.9336 -31.8715
   -31.8439 -31.8196 -31.6138 -31.5746 -31.5515 -31.4727 -31.4120 -31.3451
   -18.5251 -16.6860 -16.3748 -16.2616 -16.1956 -16.1951 -16.1270 -16.0966
   -15.9917 -15.9754 -15.9258 -15.9011 -15.8831 -15.8665 -15.8533 -15.7890
   -15.7546 -15.6952 -15.6569 -15.6342 -15.6016 -15.5537 -15.5451 -15.5342
   -15.4841 -15.4671 -15.4233 -15.3525 -15.3177 -15.0684 -13.7578 -13.6808
    -9.0969  -5.2106  -4.0699  -3.6816  -3.5710  -3.5370  -3.5269  -3.4245
    -3.3561  -3.2988  -3.2890  -3.2848  -3.2712  -3.2544  -3.2033  -3.1737
    -3.1650  -3.1529  -3.0607  -2.9815  -2.9776  -2.9408  -2.9120  -2.9046
    -2.8282  -2.8092  -2.7871  -2.7784  -2.7257  -2.7059  -2.6968  -2.6404
    -2.5889  -2.4883  -2.4035  -2.3388  -2.3114  -2.2904  -2.2809  -2.2148
    -2.2073  -2.0346  -2.0151  -1.8850  -1.8496  -1.7719  -1.7549  -1.6993
    -1.6693  -1.6414  -1.6343  -1.5359  -1.5201  -1.4839  -1.4678  -1.4411
    -1.4338  -1.3654  -1.3329  -1.3127  -1.2560  -1.2247  -1.1739  -1.1260
    -1.0639  -1.0174  -0.9741  -0.9454  -0.9046  -0.8984  -0.8593  -0.7804
    -0.7631  -0.6703  -0.6080  -0.5560  -0.5514  -0.4401  -0.3203  -0.3041
    -0.2189  -0.1616  -0.0445  -0.0285   0.0043   0.1327   0.1840   0.1937
     0.2479   0.3053   0.3464   0.3488   0.5372   0.9845   1.0364   1.1488
     1.2876   2.1372   3.0409   3.0942   3.1188   3.2479   3.2582   3.2695
     3.2844   3.4095   3.4937   3.5076

          k =-0.0760-0.0839 0.0000 ( 17948 PWs)   bands (ev):

   -56.2527 -56.2424 -56.2139 -56.2095 -56.1375 -56.0917 -56.0622 -56.0331
   -55.9974 -55.9701 -55.9664 -55.9234 -55.7755 -55.6008 -55.2426 -55.2419
   -32.5988 -32.5946 -32.5486 -32.5405 -32.5381 -32.5242 -32.5195 -32.4789
   -32.4349 -32.4325 -32.4234 -32.4125 -32.3836 -32.3806 -32.3763 -32.3503
   -32.3405 -32.3386 -32.3317 -32.3292 -32.2991 -32.2984 -32.2918 -32.2867
   -32.2714 -32.2680 -32.2448 -32.2356 -32.2250 -32.2234 -32.2018 -32.1903
   -32.1761 -32.1736 -32.1678 -32.1432 -32.1119 -32.0395 -31.9330 -31.9092
   -31.8444 -31.8350 -31.5632 -31.5625 -31.4818 -31.4813 -31.4427 -31.4422
   -18.5227 -16.4081 -16.3773 -16.1556 -16.1360 -16.1322 -16.0581 -15.9578
   -15.9568 -15.9542 -15.9477 -15.8834 -15.8546 -15.8444 -15.8022 -15.7506
   -15.7431 -15.7332 -15.7323 -15.6842 -15.6833 -15.6216 -15.5668 -15.5558
   -15.5535 -15.5452 -15.5380 -15.4582 -15.4242 -15.1561 -13.7432 -13.7416
    -9.0991  -5.2014  -3.7056  -3.6666  -3.3839  -3.3785  -3.3707  -3.2948
    -3.2557  -3.1596  -3.1405  -3.1061  -3.0729  -3.0710  -3.0706  -3.0325
    -3.0262  -2.9900  -2.9711  -2.9494  -2.9386  -2.8935  -2.8621  -2.8533
    -2.8453  -2.8348  -2.8248  -2.7938  -2.7869  -2.7750  -2.7534  -2.7493
    -2.5766  -2.5048  -2.4579  -2.4570  -2.3414  -2.3374  -2.3311  -2.3206
    -2.2931  -2.2848  -2.2526  -2.1070  -2.0468  -1.9507  -1.9382  -1.9277
    -1.8331  -1.7774  -1.6569  -1.6120  -1.5909  -1.5427  -1.4834  -1.4745
    -1.4476  -1.4319  -1.3282  -1.3065  -1.2806  -1.2080  -1.1999  -1.1902
    -1.0915  -1.0591  -1.0218  -0.9875  -0.9428  -0.9139  -0.8605  -0.8160
    -0.7901  -0.7538  -0.7467  -0.6610  -0.5904  -0.5251  -0.2707  -0.2171
    -0.1997  -0.1325  -0.0388   0.0277   0.0446   0.0903   0.1517   0.2044
     0.2562   0.3123   0.3150   0.3599   0.4065   1.1284   1.1294   1.2191
     1.2256   2.1128   3.0734   3.1839   3.1972   3.2432   3.3132   3.4081
     3.4183   3.4193   3.4222   3.6020

     the Fermi energy is     2.8927 ev

!    total energy              =   -2925.19942864 Ry
     estimated scf accuracy    <       0.00000003 Ry
     smearing contrib. (-TS)   =      -0.02320802 Ry
     internal energy E=F+TS    =   -2925.17622062 Ry

     The total energy is F=E-TS. E is the sum of the following terms:
     one-electron contribution =  -24766.52081001 Ry
     hartree contribution      =   12464.33825282 Ry
     xc contribution           =    -479.95062859 Ry
     ewald contribution        =    9856.95671932 Ry
     electric field correction =       0.00024584 Ry

     convergence has been achieved in  55 iterations

     Forces acting on atoms (cartesian axes, Ry/au):

     atom    1 type  1   force =     0.00007943   -0.00096247    0.11383952
     atom    2 type  1   force =    -0.00009657    0.00024681   -0.17944832
     atom    3 type  2   force =    -0.00000013   -0.00523847   -0.03560616
     atom    4 type  2   force =     0.00003891    0.00060699    0.04438494
     atom    5 type  2   force =    -0.02018783   -0.00082123    0.00349258
     atom    6 type  2   force =     0.02027736   -0.00039262    0.00350311
     atom    7 type  1   force =    -0.00022455    0.00017634    0.00024343
     atom    8 type  1   force =     0.00021939    0.00176176    0.00000333
     atom    9 type  2   force =    -0.00005898    0.00026839   -0.00039786
     atom   10 type  2   force =    -0.00001076    0.00010908    0.00021243
     atom   11 type  2   force =    -0.00016493   -0.00004768    0.00019308
     atom   12 type  2   force =    -0.00012509   -0.00006567    0.00019614
     atom   13 type  1   force =     0.00033457    0.00055446    0.00142545
     atom   14 type  1   force =     0.00031404   -0.00005432    0.00138374
     atom   15 type  2   force =     0.00010935   -0.00009643   -0.00166476
     atom   16 type  2   force =     0.00001409   -0.00038794   -0.00130596
     atom   17 type  2   force =     0.00074224   -0.00040945   -0.00077824
     atom   18 type  2   force =    -0.00030214   -0.00049029   -0.00079256
     atom   19 type  1   force =    -0.00017371    0.00006533    0.00115020
     atom   20 type  1   force =    -0.00009967    0.00041234    0.00131490
     atom   21 type  2   force =     0.00003974    0.00008309    0.10411361
     atom   22 type  2   force =    -0.00004398   -0.00071265   -0.00004626
     atom   23 type  2   force =    -0.06904861    0.00033625   -0.03033540
     atom   24 type  2   force =     0.06891894    0.00077168   -0.03037683
     atom   25 type  1   force =     0.00016705    0.00086689    0.12102819
     atom   26 type  1   force =    -0.00010514    0.00040963   -0.17938680
     atom   27 type  2   force =     0.00002398    0.00096923   -0.03233632
     atom   28 type  2   force =     0.00004085    0.00070773    0.04483542
     atom   29 type  2   force =    -0.01921031    0.00045988    0.00324231
     atom   30 type  2   force =     0.01933902    0.00087614    0.00323908
     atom   31 type  1   force =    -0.00045896    0.00023213    0.00034570
     atom   32 type  1   force =     0.00023063    0.00065943   -0.00082535
     atom   33 type  2   force =    -0.00001388   -0.00008741   -0.00070974
     atom   34 type  2   force =    -0.00006170    0.00025502   -0.00030849
     atom   35 type  2   force =    -0.00031536    0.00018867   -0.00014962
     atom   36 type  2   force =    -0.00000222    0.00016986   -0.00015014
     atom   37 type  1   force =     0.00045250    0.00017331   -0.00079493
     atom   38 type  1   force =     0.00034149    0.00037660    0.00147118
     atom   39 type  2   force =     0.00005891    0.00000368   -0.00116816
     atom   40 type  2   force =     0.00000559    0.00002924   -0.00068223
     atom   41 type  2   force =     0.00035985   -0.00018282   -0.00021156
     atom   42 type  2   force =     0.00024574   -0.00014020   -0.00031644
     atom   43 type  1   force =    -0.00061250   -0.00012911    0.00101914
     atom   44 type  1   force =    -0.00041854    0.00038451    0.00101978
     atom   45 type  2   force =     0.00004357    0.00005767    0.10416461
     atom   46 type  2   force =    -0.06884333   -0.00101971   -0.03038365
     atom   47 type  2   force =     0.06872324   -0.00058211   -0.03042503
     atom   48 type  3   force =    -0.00085510    0.00033621   -0.02155414
     atom   49 type  3   force =     0.00085392   -0.00329622    0.02588843
     atom   50 type  4   force =    -0.00054038    0.00256843   -0.00155532

     Total force =     0.381408     Total SCF correction =     0.000373
  @ DRIVER MODE: Message from server: STATUS
  @ DRIVER MODE: Message from server: GETFORCE
  @ DRIVER MODE: Returning v,forces,stress,ensemble 

     Writing output data file ./calc.save/
  @ DRIVER MODE: Message from server: EXIT
  @ DRIVE MODE: Exiting  
 
     init_run     :     44.30s CPU     51.00s WALL (       1 calls)
     electrons    :   2200.26s CPU   2438.99s WALL (       1 calls)
     forces       :      2.68s CPU      2.80s WALL (       1 calls)

     Called by init_run:
     wfcinit      :     33.78s CPU     38.98s WALL (       1 calls)
     potinit      :      8.52s CPU      9.83s WALL (       1 calls)
     hinit0       :      0.82s CPU      0.88s WALL (       1 calls)

     Called by electrons:
     c_bands      :   1871.86s CPU   2068.97s WALL (      55 calls)
     sum_band     :    260.82s CPU    293.86s WALL (      55 calls)
     v_of_rho     :     49.41s CPU     53.93s WALL (      56 calls)
     newd         :     16.48s CPU     20.65s WALL (      56 calls)
     mix_rho      :      8.93s CPU      9.71s WALL (      55 calls)
     vdW_kernel   :      6.73s CPU      7.81s WALL (       1 calls)

     Called by c_bands:
     init_us_2    :      6.39s CPU      6.50s WALL (    1120 calls)
     cegterg      :   1851.92s CPU   2047.16s WALL (     551 calls)

     Called by *egterg:
     cdiaghg      :    197.84s CPU    214.19s WALL (    6210 calls)
     h_psi        :   1290.18s CPU   1440.19s WALL (    6220 calls)
     s_psi        :     62.69s CPU     64.41s WALL (    6220 calls)
     g_psi        :      1.64s CPU      1.66s WALL (    5659 calls)

     Called by h_psi:
     h_psi:calbec :     88.88s CPU     95.46s WALL (    6220 calls)
     vloc_psi     :   1134.94s CPU   1274.37s WALL (    6220 calls)
     add_vuspsi   :     63.92s CPU     66.23s WALL (    6220 calls)

     General routines
     calbec       :    113.24s CPU    121.73s WALL (    6810 calls)
     fft          :     27.71s CPU     29.01s WALL (    3528 calls)
     ffts         :      0.24s CPU      0.26s WALL (     111 calls)
     fftw         :   1320.66s CPU   1485.89s WALL (  708848 calls)
     interpolate  :      0.58s CPU      0.64s WALL (      56 calls)
     davcio       :      0.00s CPU      0.08s WALL (      10 calls)
 
     Parallel routines
 
     PWSCF        :  37m39.03s CPU  41m50.82s WALL

 
   This run was terminated on:  13:44:14  12Oct2021            

=------------------------------------------------------------------------------=
   JOB DONE.
=------------------------------------------------------------------------------=
