
     Program PWSCF v.6.7GPU starts on  2Aug2021 at 21:31:12 

     This program is part of the open-source Quantum ESPRESSO suite
     for quantum simulation of materials; please cite
         "P. Giannozzi et al., J. Phys.:Condens. Matter 21 395502 (2009);
         "P. Giannozzi et al., J. Phys.:Condens. Matter 29 465901 (2017);
         "P. Giannozzi et al., J. Chem. Phys. 152 154105 (2020);
          URL http://www.quantum-espresso.org", 
     in publications or presentations arising from this work. More details at
     http://www.quantum-espresso.org/quote

     Parallel version (MPI), running on    16 processors

     MPI processes distributed on     1 nodes
     R & G space division:  proc/nbgrp/npool/nimage =      16
     Reading input from /storage/home/hcoda1/3/ntian30/research/carbon/02Aug_vib_paired/ads_slab/CH3N2H_a/out_0035/pw.inp
Warning: card &CELL ignored
Warning: card   CELL_DYNAMICS='IPI', ignored
Warning: card / ignored

     Current dimensions of program PWSCF are:
     Max number of different atomic species (ntypx) = 10
     Max number of k-points (npk) =  40000
     Max angular momentum in pseudopotentials (lmaxx) =  3
     Presently no symmetry can be used with electric field

     Message from routine cell_base_init:
     DEPRECATED: use true lattice parameter, not A to a.u. conversion factor

     **************************************************************************
     Initializing libbeef V0.1.2 with the BEEF-vdW functional.
     Citation: Wellendorff et al., PRB 85, 235149 (2012).
     **************************************************************************


     IMPORTANT: XC functional enforced from input :
     Exchange-correlation= BEEF-VDW
                           (   1   4  43  14   2   0   0)
     Any further DFT definition will be discarded
     Please, verify this is what you really want


     Subspace diagonalization in iterative solution of the eigenvalue problem:
     one sub-group per band group will be used
     scalapack distributed-memory algorithm (size of sub-group:  4*  4 procs)

  @ DRIVER MODE: Connecting to 
 qe_1139763_2482535.sched-torque.pace.gatech.edubpfew_y8_scratch
  using UNIX socket
  @ DRIVER MODE: Message from server: STATUS
  @ DRIVER MODE: Message from server: INIT
  @ DRIVER MODE: Receiving replica           0          -1
  @ DRIVER MODE: Receiving encoded integer          25
  @ DRIVER MODE:  SCF:  T  FORCE:  T  STRESS:  F  VC:  F  ENSEMBLE:  F
  @ DRIVER MODE:  SCF:  T  FORCE:  T  STRESS:  F  VC:  F  ENSEMBLE:  F
 
     Parallelization info
     --------------------
     sticks:   dense  smooth     PW     G-vecs:    dense   smooth      PW
     Min         204      82     23                35422     8962    1367
     Max         205      84     24                35435     8968    1382
     Sum        3275    1317    379               566857   143421   21985
 
     Using Slab Decomposition
 


     bravais-lattice index     =            0
     lattice parameter (alat)  =       1.8897  a.u.
     unit-cell volume          =    6658.9804 (a.u.)^3
     number of atoms/cell      =           54
     number of atomic types    =            5
     number of electrons       =       396.00
     number of Kohn-Sham states=          208
     kinetic-energy cutoff     =      29.3995  Ry
     charge density cutoff     =     293.9946  Ry
     scf convergence threshold =      7.3E-08
     mixing beta               =       0.0500
     number of iterations used =            8  plain     mixing
     Exchange-correlation= BEEF-VDW
                           (   1   4  43  14   2   0   0)

     celldm(1)=   1.889726  celldm(2)=   0.000000  celldm(3)=   0.000000
     celldm(4)=   0.000000  celldm(5)=   0.000000  celldm(6)=   0.000000

     crystal axes: (cart. coord. in units of alat)
               a(1) = (   6.579727   0.000000   0.000000 )  
               a(2) = (  -0.000775   5.961596   0.000000 )  
               a(3) = (   0.000000   0.000000  25.155947 )  

     reciprocal axes: (cart. coord. in units 2 pi/alat)
               b(1) = (  0.151982  0.000020  0.000000 )  
               b(2) = (  0.000000  0.167740  0.000000 )  
               b(3) = (  0.000000  0.000000  0.039752 )  


     PseudoPot. # 1 for Ti read from file:
     /storage/coda1/p-amedford6/0/shared/rich_project_chbe-medford/medford-share/data/pseudos_module/espresso/nninc/pbe/van/Ti.UPF
     MD5 check sum: 8e4df49b7f0d34bbd5052bf3f5ea0213
     Pseudo is Ultrasoft, Zval = 12.0
     Generated by new atomic code, or converted to UPF format
     Using radial grid of  851 points,  6 beta functions with: 
                l(1) =   0
                l(2) =   0
                l(3) =   1
                l(4) =   1
                l(5) =   2
                l(6) =   2
     Q(r) pseudized with  8 coefficients,  rinner =    1.000   1.000   1.000
                                                       1.000   1.000

     PseudoPot. # 2 for O  read from file:
     /storage/coda1/p-amedford6/0/shared/rich_project_chbe-medford/medford-share/data/pseudos_module/espresso/nninc/pbe/van/O.UPF
     MD5 check sum: 78c19812648e8988a0fe644b0f25305e
     Pseudo is Ultrasoft, Zval =  6.0
     Generated by new atomic code, or converted to UPF format
     Using radial grid of  737 points,  4 beta functions with: 
                l(1) =   0
                l(2) =   0
                l(3) =   1
                l(4) =   1
     Q(r) pseudized with  8 coefficients,  rinner =    0.800   0.800   0.800


     PseudoPot. # 3 for N  read from file:
     /storage/coda1/p-amedford6/0/shared/rich_project_chbe-medford/medford-share/data/pseudos_module/espresso/nninc/pbe/van/N.UPF
     MD5 check sum: 90d10febe142ad51ac9d5be1deb811c4
     Pseudo is Ultrasoft, Zval =  5.0
     Generated by new atomic code, or converted to UPF format
     Using radial grid of  729 points,  4 beta functions with: 
                l(1) =   0
                l(2) =   0
                l(3) =   1
                l(4) =   1
     Q(r) pseudized with  8 coefficients,  rinner =    0.800   0.800   0.800


     PseudoPot. # 4 for C  read from file:
     /storage/coda1/p-amedford6/0/shared/rich_project_chbe-medford/medford-share/data/pseudos_module/espresso/nninc/pbe/van/C.UPF
     MD5 check sum: 1a69bf6b8db32088f5b2163dbdb77a27
     Pseudo is Ultrasoft, Zval =  4.0
     Generated by new atomic code, or converted to UPF format
     Using radial grid of  721 points,  4 beta functions with: 
                l(1) =   0
                l(2) =   0
                l(3) =   1
                l(4) =   1
     Q(r) pseudized with  8 coefficients,  rinner =    0.800   0.800   0.800


     PseudoPot. # 5 for H  read from file:
     /storage/coda1/p-amedford6/0/shared/rich_project_chbe-medford/medford-share/data/pseudos_module/espresso/nninc/pbe/van/H.UPF
     MD5 check sum: b5ee9d7bfd3a09ee7748110bda690ff7
     Pseudo is Ultrasoft, Zval =  1.0
     Generated by new atomic code, or converted to UPF format
     Using radial grid of  615 points,  1 beta functions with: 
                l(1) =   0
     Q(r) pseudized with  8 coefficients,  rinner =    0.800

     atomic species   valence    mass     pseudopotential
        Ti1           12.00    47.86700     Ti( 1.00)
        O1             6.00    15.99900     O ( 1.00)
        N1             5.00    14.00700     N ( 1.00)
        C1             4.00    12.01100     C ( 1.00)
        H1             1.00     1.00800     H ( 1.00)

     No symmetry found



   Cartesian axes

     site n.     atom                  positions (alat units)
         1           Ti1 tau(   1) = (   0.0004258   2.9801865   6.0000000  )
         2           Ti1 tau(   2) = (   3.2906075   1.4906267   6.0002472  )
         3           O1  tau(   3) = (   0.0006271   0.0005054   7.9858123  )
         4           O1  tau(   4) = (   3.2906025   0.0005020   7.3038282  )
         5           O1  tau(   5) = (   4.5942328   1.4918067   9.2879030  )
         6           O1  tau(   6) = (   1.9868534   1.4903216   9.2879459  )
         7           Ti1 tau(   7) = (   3.2907910   2.8959150   9.1758416  )
         8           Ti1 tau(   8) = (   0.0015273   1.4827037   9.2680791  )
         9           O1  tau(   9) = (   3.3106937   0.0084137  11.2927479  )
        10           O1  tau(  10) = (   0.0116148   5.9584955  10.6183126  )
        11           O1  tau(  11) = (   1.3255326   1.5151957  12.5859258  )
        12           O1  tau(  12) = (   5.3246634   1.4871208  12.6441624  )
        13           Ti1 tau(  13) = (   6.5358624   2.9940264  12.7507449  )
        14           Ti1 tau(  14) = (   3.1828407   1.5032771  12.4528579  )
        15           O1  tau(  15) = (   0.1336207   0.0073438  14.6266748  )
        16           O1  tau(  16) = (   3.2550344   0.0288700  13.8306396  )
        17           O1  tau(  17) = (   4.6334483   1.5013943  15.9792279  )
        18           O1  tau(  18) = (   2.1409664   1.5470880  15.9954950  )
        19           Ti1 tau(  19) = (   3.4798582   3.0305884  15.6593850  )
        20           Ti1 tau(  20) = (   0.1386493   1.3724552  15.8613965  )
        21           O1  tau(  21) = (   3.2904802   0.0005063   4.7018136  )
        22           O1  tau(  22) = (   0.1429122   0.0333940  17.1908172  )
        23           O1  tau(  23) = (   1.3043587   1.4918075   6.0039043  )
        24           O1  tau(  24) = (   5.2767064   1.4903225   6.0039473  )
        25           Ti1 tau(  25) = (   0.0000382   5.9609847   6.0000000  )
        26           Ti1 tau(  26) = (   3.2902200   4.4714249   6.0002472  )
        27           O1  tau(  27) = (   0.0002396   2.9813036   7.9858123  )
        28           O1  tau(  28) = (   3.2902150   2.9813002   7.3038282  )
        29           O1  tau(  29) = (   4.5938453   4.4726049   9.2879030  )
        30           O1  tau(  30) = (   1.9864658   4.4711199   9.2879459  )
        31           Ti1 tau(  31) = (   3.2891106   5.8743827   9.1763621  )
        32           Ti1 tau(  32) = (   0.0006254   4.4649316   9.2693709  )
        33           O1  tau(  33) = (   3.3137399   2.9960163  11.2943833  )
        34           O1  tau(  34) = (   0.0092240   2.9805883  10.6323155  )
        35           O1  tau(  35) = (   1.3234708   4.4688006  12.5930975  )
        36           O1  tau(  36) = (   5.3222282   4.4932535  12.6449723  )
        37           Ti1 tau(  37) = (   6.5041614   0.0053836  12.5833808  )
        38           Ti1 tau(  38) = (   3.1843229   4.4812189  12.4522442  )
        39           O1  tau(  39) = (   0.0584892   2.9792810  14.6723703  )
        40           O1  tau(  40) = (   3.3232524   2.9928384  13.8523860  )
        41           O1  tau(  41) = (   4.6237859   4.5837569  15.7472905  )
        42           O1  tau(  42) = (   2.1882403   4.4693611  16.1038286  )
        43           Ti1 tau(  43) = (   3.3015484   0.0242660  15.6383815  )
        44           Ti1 tau(  44) = (   0.0181797   4.4930750  16.1931172  )
        45           O1  tau(  45) = (   3.2900926   2.9813045   4.7018136  )
        46           O1  tau(  46) = (   1.3039711   4.4726057   6.0039043  )
        47           O1  tau(  47) = (   5.2763189   4.4711207   6.0039473  )
        48           N1  tau(  48) = (   0.2677213   2.8760844  17.5655548  )
        49           C1  tau(  49) = (   1.2271684   2.7639891  18.6598760  )
        50           H1  tau(  50) = (   1.2930054   3.7106696  19.2072709  )
        51           H1  tau(  51) = (   0.8976878   1.9730418  19.3402421  )
        52           H1  tau(  52) = (   2.2102292   2.4972526  18.2850250  )
        53           N1  tau(  53) = (   5.6732178   3.4927010  17.8352151  )
        54           H1  tau(  54) = (   5.7345573   4.0058295  18.7343860  )

     number of k points=    10  Fermi-Dirac smearing, width (Ry)=  0.0073
                       cart. coord. in units 2pi/alat
        k(    1) = (   0.0000000   0.0000000   0.0000000), wk =   0.1250000
        k(    2) = (   0.0000000   0.0419351   0.0000000), wk =   0.2500000
        k(    3) = (   0.0000000  -0.0838702   0.0000000), wk =   0.1250000
        k(    4) = (   0.0379955   0.0000049   0.0000000), wk =   0.2500000
        k(    5) = (   0.0379955   0.0419400   0.0000000), wk =   0.2500000
        k(    6) = (   0.0379955  -0.0838652   0.0000000), wk =   0.2500000
        k(    7) = (   0.0379955  -0.0419301   0.0000000), wk =   0.2500000
        k(    8) = (  -0.0759910  -0.0000099   0.0000000), wk =   0.1250000
        k(    9) = (  -0.0759910   0.0419252   0.0000000), wk =   0.2500000
        k(   10) = (  -0.0759910  -0.0838800   0.0000000), wk =   0.1250000

     Dense  grid:   566857 G-vectors     FFT dimensions: (  72,  64, 270)

     Smooth grid:   143421 G-vectors     FFT dimensions: (  45,  40, 180)

     Estimated max dynamical RAM per process >     230.02 MB

     Estimated total dynamical RAM >       3.59 GB
     Cannot read rho : file not found

     Initial potential from superposition of free atoms

     starting charge  379.99915, renormalised to  396.00000

     negative rho (up, down):  1.687E-02 0.000E+00


     %%%%%%%%%%%%%%%%%%%%%%%%%%%%%%%%%%%%%%%%%%%%%%%%%%%%%%%%%%%%%%%%%%%%%%%%
     %                                                                      %
     % You are using vdW-DF, which was implemented by the Thonhauser group. %
     % Please cite the following two papers that made this development      %
     % possible and the two reviews that describe the various versions:     %
     %                                                                      %
     %   T. Thonhauser et al., PRL 115, 136402 (2015).                      %
     %   T. Thonhauser et al., PRB 76, 125112 (2007).                       %
     %   K. Berland et al., Rep. Prog. Phys. 78, 066501 (2015).             %
     %   D.C. Langreth et al., J. Phys.: Condens. Matter 21, 084203 (2009). %
     %                                                                      %
     %                                                                      %
     % If you are calculating the stress with vdW-DF, please also cite:     %
     %                                                                      %
     %   R. Sabatini et al., J. Phys.: Condens. Matter 24, 424209 (2012).   %
     %                                                                      %
     %%%%%%%%%%%%%%%%%%%%%%%%%%%%%%%%%%%%%%%%%%%%%%%%%%%%%%%%%%%%%%%%%%%%%%%%


 
     Adding external electric field

     Computed dipole along edir(3) : 
        Dipole               -8.2182 Ry au,        -20.8887 Debye
        Dipole field         -0.0155 Ry au, 
 
        Potential amp.        1.4377 Ry
        Total length         46.3494 bohr
 
     Starting wfcs are  300 atomic wfcs
  @ DRIVER MODE: Message from server: STATUS
  @ DRIVER MODE: Message from server: POSDATA
  @ DRIVER MODE: Reading and sharing cell 
  @ DRIVER MODE: Reading and sharing positions 
  @ DRIVER MODE: Received positions 

     total cpu time spent up to now is       12.3 secs

     Self-consistent Calculation

     iteration #  1     ecut=    29.40 Ry     beta= 0.05
     Davidson diagonalization with overlap
     c_bands:  1 eigenvalues not converged
     c_bands:  1 eigenvalues not converged
     c_bands:  1 eigenvalues not converged
     c_bands:  1 eigenvalues not converged
     c_bands:  4 eigenvalues not converged
     c_bands:  1 eigenvalues not converged
     c_bands:  5 eigenvalues not converged
     c_bands:  1 eigenvalues not converged
     c_bands:  1 eigenvalues not converged
     ethr =  1.00E-05,  avg # of iterations = 19.9

     negative rho (up, down):  1.446E-02 0.000E+00
 
     Adding external electric field

     Computed dipole along edir(3) : 
        Dipole               38.7587 Ry au,         98.5148 Debye
        Dipole field          0.0731 Ry au, 
 
        Potential amp.       -6.7802 Ry
        Total length         46.3494 bohr
 

     total cpu time spent up to now is       41.5 secs

     total energy              =   -2607.31789570 Ry
     estimated scf accuracy    <    3678.02255621 Ry

     iteration #  2     ecut=    29.40 Ry     beta= 0.05
     Davidson diagonalization with overlap
     c_bands:  5 eigenvalues not converged
     ethr =  1.00E-02,  avg # of iterations = 21.9

     negative rho (up, down):  4.899E-03 0.000E+00
 
     Adding external electric field

     Computed dipole along edir(3) : 
        Dipole               -2.5202 Ry au,         -6.4057 Debye
        Dipole field         -0.0048 Ry au, 
 
        Potential amp.        0.4409 Ry
        Total length         46.3494 bohr
 

     total cpu time spent up to now is       94.4 secs

     total energy              =   -2459.57251021 Ry
     estimated scf accuracy    <   64455.26869225 Ry

     iteration #  3     ecut=    29.40 Ry     beta= 0.05
     Davidson diagonalization with overlap
     ethr =  1.00E-02,  avg # of iterations = 13.6

     negative rho (up, down):  4.973E-03 0.000E+00
 
     Adding external electric field

     Computed dipole along edir(3) : 
        Dipole               -4.5929 Ry au,        -11.6739 Debye
        Dipole field         -0.0087 Ry au, 
 
        Potential amp.        0.8035 Ry
        Total length         46.3494 bohr
 

     total cpu time spent up to now is      137.7 secs

     total energy              =   -2917.72473956 Ry
     estimated scf accuracy    <    4003.29813689 Ry

     iteration #  4     ecut=    29.40 Ry     beta= 0.05
     Davidson diagonalization with overlap
     c_bands:  1 eigenvalues not converged
     c_bands:  2 eigenvalues not converged
     c_bands:  4 eigenvalues not converged
     ethr =  1.00E-02,  avg # of iterations = 17.2

     negative rho (up, down):  5.008E-03 0.000E+00
 
     Adding external electric field

     Computed dipole along edir(3) : 
        Dipole               -5.3676 Ry au,        -13.6431 Debye
        Dipole field         -0.0101 Ry au, 
 
        Potential amp.        0.9390 Ry
        Total length         46.3494 bohr
 

     total cpu time spent up to now is      154.1 secs

     total energy              =   -2937.48837272 Ry
     estimated scf accuracy    <     329.60100454 Ry

     iteration #  5     ecut=    29.40 Ry     beta= 0.05
     Davidson diagonalization with overlap
     ethr =  1.00E-02,  avg # of iterations =  2.4

     negative rho (up, down):  5.010E-03 0.000E+00
 
     Adding external electric field

     Computed dipole along edir(3) : 
        Dipole               -5.7102 Ry au,        -14.5139 Debye
        Dipole field         -0.0108 Ry au, 
 
        Potential amp.        0.9989 Ry
        Total length         46.3494 bohr
 

     total cpu time spent up to now is      161.7 secs

     total energy              =   -2936.83423883 Ry
     estimated scf accuracy    <     240.17985828 Ry

     iteration #  6     ecut=    29.40 Ry     beta= 0.05
     Davidson diagonalization with overlap
     ethr =  1.00E-02,  avg # of iterations =  2.2

     negative rho (up, down):  5.304E-03 0.000E+00
 
     Adding external electric field

     Computed dipole along edir(3) : 
        Dipole               -8.0468 Ry au,        -20.4530 Debye
        Dipole field         -0.0152 Ry au, 
 
        Potential amp.        1.4077 Ry
        Total length         46.3494 bohr
 

     total cpu time spent up to now is      169.0 secs

     total energy              =   -2926.07162199 Ry
     estimated scf accuracy    <     223.19375379 Ry

     iteration #  7     ecut=    29.40 Ry     beta= 0.05
     Davidson diagonalization with overlap
     ethr =  1.00E-02,  avg # of iterations =  7.3

     negative rho (up, down):  4.470E-03 0.000E+00
 
     Adding external electric field

     Computed dipole along edir(3) : 
        Dipole               -7.3194 Ry au,        -18.6040 Debye
        Dipole field         -0.0138 Ry au, 
 
        Potential amp.        1.2804 Ry
        Total length         46.3494 bohr
 

     total cpu time spent up to now is      182.4 secs

     total energy              =   -2944.05056361 Ry
     estimated scf accuracy    <     569.21732761 Ry

     iteration #  8     ecut=    29.40 Ry     beta= 0.05
     Davidson diagonalization with overlap
     ethr =  1.00E-02,  avg # of iterations =  1.7

     negative rho (up, down):  4.567E-03 0.000E+00
 
     Adding external electric field

     Computed dipole along edir(3) : 
        Dipole               -7.6315 Ry au,        -19.3973 Debye
        Dipole field         -0.0144 Ry au, 
 
        Potential amp.        1.3350 Ry
        Total length         46.3494 bohr
 

     total cpu time spent up to now is      189.6 secs

     total energy              =   -2945.96064534 Ry
     estimated scf accuracy    <     244.77324738 Ry

     iteration #  9     ecut=    29.40 Ry     beta= 0.05
     Davidson diagonalization with overlap
     ethr =  1.00E-02,  avg # of iterations =  1.0

     negative rho (up, down):  1.463E-02 0.000E+00
 
     Adding external electric field

     Computed dipole along edir(3) : 
        Dipole               -7.7543 Ry au,        -19.7095 Debye
        Dipole field         -0.0146 Ry au, 
 
        Potential amp.        1.3565 Ry
        Total length         46.3494 bohr
 

     total cpu time spent up to now is      196.3 secs

     total energy              =   -2945.70464635 Ry
     estimated scf accuracy    <     423.63061166 Ry

     iteration # 10     ecut=    29.40 Ry     beta= 0.05
     Davidson diagonalization with overlap
     ethr =  1.00E-02,  avg # of iterations =  1.0

     negative rho (up, down):  6.941E-02 0.000E+00
 
     Adding external electric field

     Computed dipole along edir(3) : 
        Dipole               -8.2815 Ry au,        -21.0495 Debye
        Dipole field         -0.0156 Ry au, 
 
        Potential amp.        1.4487 Ry
        Total length         46.3494 bohr
 

     total cpu time spent up to now is      203.1 secs

     total energy              =   -2947.12968293 Ry
     estimated scf accuracy    <     443.26718406 Ry

     iteration # 11     ecut=    29.40 Ry     beta= 0.05
     Davidson diagonalization with overlap
     ethr =  1.00E-02,  avg # of iterations =  1.1

     negative rho (up, down):  1.790E-01 0.000E+00
 
     Adding external electric field

     Computed dipole along edir(3) : 
        Dipole               -7.5106 Ry au,        -19.0900 Debye
        Dipole field         -0.0142 Ry au, 
 
        Potential amp.        1.3139 Ry
        Total length         46.3494 bohr
 

     total cpu time spent up to now is      209.9 secs

     total energy              =   -2941.48699190 Ry
     estimated scf accuracy    <     616.78197827 Ry

     iteration # 12     ecut=    29.40 Ry     beta= 0.05
     Davidson diagonalization with overlap
     ethr =  1.00E-02,  avg # of iterations =  4.7

     negative rho (up, down):  1.438E-01 0.000E+00
 
     Adding external electric field

     Computed dipole along edir(3) : 
        Dipole               -7.5645 Ry au,        -19.2271 Debye
        Dipole field         -0.0143 Ry au, 
 
        Potential amp.        1.3233 Ry
        Total length         46.3494 bohr
 

     total cpu time spent up to now is      217.9 secs

     total energy              =   -2944.21870096 Ry
     estimated scf accuracy    <     296.46015106 Ry

     iteration # 13     ecut=    29.40 Ry     beta= 0.05
     Davidson diagonalization with overlap
     ethr =  1.00E-02,  avg # of iterations =  1.1

     negative rho (up, down):  1.892E-01 0.000E+00
 
     Adding external electric field

     Computed dipole along edir(3) : 
        Dipole               -6.7355 Ry au,        -17.1199 Debye
        Dipole field         -0.0127 Ry au, 
 
        Potential amp.        1.1783 Ry
        Total length         46.3494 bohr
 

     total cpu time spent up to now is      224.7 secs

     total energy              =   -2941.28996893 Ry
     estimated scf accuracy    <     327.79698624 Ry

     iteration # 14     ecut=    29.40 Ry     beta= 0.05
     Davidson diagonalization with overlap
     ethr =  1.00E-02,  avg # of iterations =  2.2

     negative rho (up, down):  1.734E-01 0.000E+00
 
     Adding external electric field

     Computed dipole along edir(3) : 
        Dipole               -6.2320 Ry au,        -15.8401 Debye
        Dipole field         -0.0118 Ry au, 
 
        Potential amp.        1.0902 Ry
        Total length         46.3494 bohr
 

     total cpu time spent up to now is      232.1 secs

     total energy              =   -2940.99147851 Ry
     estimated scf accuracy    <      89.27332672 Ry

     iteration # 15     ecut=    29.40 Ry     beta= 0.05
     Davidson diagonalization with overlap
     ethr =  1.00E-02,  avg # of iterations =  1.6

     negative rho (up, down):  2.647E-01 0.000E+00
 
     Adding external electric field

     Computed dipole along edir(3) : 
        Dipole               -5.4328 Ry au,        -13.8088 Debye
        Dipole field         -0.0103 Ry au, 
 
        Potential amp.        0.9504 Ry
        Total length         46.3494 bohr
 

     total cpu time spent up to now is      239.2 secs

     total energy              =   -2940.40051561 Ry
     estimated scf accuracy    <      34.92260684 Ry

     iteration # 16     ecut=    29.40 Ry     beta= 0.05
     Davidson diagonalization with overlap
     ethr =  8.82E-03,  avg # of iterations =  2.1

     negative rho (up, down):  3.409E-01 0.000E+00
 
     Adding external electric field

     Computed dipole along edir(3) : 
        Dipole               -3.6958 Ry au,         -9.3938 Debye
        Dipole field         -0.0070 Ry au, 
 
        Potential amp.        0.6465 Ry
        Total length         46.3494 bohr
 

     total cpu time spent up to now is      246.3 secs

     total energy              =   -2939.15981476 Ry
     estimated scf accuracy    <      26.41410816 Ry

     iteration # 17     ecut=    29.40 Ry     beta= 0.05
     Davidson diagonalization with overlap
     ethr =  6.67E-03,  avg # of iterations = 13.4

     negative rho (up, down):  2.406E-01 0.000E+00
 
     Adding external electric field

     Computed dipole along edir(3) : 
        Dipole               -4.0456 Ry au,        -10.2828 Debye
        Dipole field         -0.0076 Ry au, 
 
        Potential amp.        0.7077 Ry
        Total length         46.3494 bohr
 

     total cpu time spent up to now is      257.7 secs

     total energy              =   -2939.77624295 Ry
     estimated scf accuracy    <     100.18195637 Ry

     iteration # 18     ecut=    29.40 Ry     beta= 0.05
     Davidson diagonalization with overlap
     ethr =  6.67E-03,  avg # of iterations =  2.0

     negative rho (up, down):  2.548E-01 0.000E+00
 
     Adding external electric field

     Computed dipole along edir(3) : 
        Dipole               -3.6580 Ry au,         -9.2977 Debye
        Dipole field         -0.0069 Ry au, 
 
        Potential amp.        0.6399 Ry
        Total length         46.3494 bohr
 

     total cpu time spent up to now is      265.2 secs

     total energy              =   -2940.97135017 Ry
     estimated scf accuracy    <       3.61255943 Ry

     iteration # 19     ecut=    29.40 Ry     beta= 0.05
     Davidson diagonalization with overlap
     c_bands:  1 eigenvalues not converged
     ethr =  9.12E-04,  avg # of iterations =  8.6

     negative rho (up, down):  3.853E-01 0.000E+00
 
     Adding external electric field

     Computed dipole along edir(3) : 
        Dipole               -1.8775 Ry au,         -4.7721 Debye
        Dipole field         -0.0035 Ry au, 
 
        Potential amp.        0.3284 Ry
        Total length         46.3494 bohr
 

     total cpu time spent up to now is      274.5 secs

     total energy              =   -2940.67720920 Ry
     estimated scf accuracy    <       3.88018032 Ry

     iteration # 20     ecut=    29.40 Ry     beta= 0.05
     Davidson diagonalization with overlap
     c_bands:  2 eigenvalues not converged
     c_bands:  1 eigenvalues not converged
     c_bands:  1 eigenvalues not converged
     ethr =  9.12E-04,  avg # of iterations = 18.7

     negative rho (up, down):  4.005E-01 0.000E+00
 
     Adding external electric field

     Computed dipole along edir(3) : 
        Dipole               -1.1447 Ry au,         -2.9096 Debye
        Dipole field         -0.0022 Ry au, 
 
        Potential amp.        0.2003 Ry
        Total length         46.3494 bohr
 

     total cpu time spent up to now is      290.7 secs

     total energy              =   -2945.75501554 Ry
     estimated scf accuracy    <     396.79953749 Ry

     iteration # 21     ecut=    29.40 Ry     beta= 0.05
     Davidson diagonalization with overlap
     c_bands:  2 eigenvalues not converged
     ethr =  9.12E-04,  avg # of iterations = 11.3

     negative rho (up, down):  4.094E-01 0.000E+00
 
     Adding external electric field

     Computed dipole along edir(3) : 
        Dipole               -0.9610 Ry au,         -2.4426 Debye
        Dipole field         -0.0018 Ry au, 
 
        Potential amp.        0.1681 Ry
        Total length         46.3494 bohr
 

     total cpu time spent up to now is      303.1 secs

     total energy              =   -2946.55320308 Ry
     estimated scf accuracy    <     819.28175286 Ry

     iteration # 22     ecut=    29.40 Ry     beta= 0.05
     Davidson diagonalization with overlap
     ethr =  9.12E-04,  avg # of iterations =  1.7

     negative rho (up, down):  3.883E-01 0.000E+00
 
     Adding external electric field

     Computed dipole along edir(3) : 
        Dipole               -0.9915 Ry au,         -2.5201 Debye
        Dipole field         -0.0019 Ry au, 
 
        Potential amp.        0.1734 Ry
        Total length         46.3494 bohr
 

     total cpu time spent up to now is      310.3 secs

     total energy              =   -2945.82521076 Ry
     estimated scf accuracy    <     907.08122342 Ry

     iteration # 23     ecut=    29.40 Ry     beta= 0.05
     Davidson diagonalization with overlap
     ethr =  9.12E-04,  avg # of iterations =  1.0

     negative rho (up, down):  3.814E-01 0.000E+00
 
     Adding external electric field

     Computed dipole along edir(3) : 
        Dipole               -1.0776 Ry au,         -2.7391 Debye
        Dipole field         -0.0020 Ry au, 
 
        Potential amp.        0.1885 Ry
        Total length         46.3494 bohr
 

     total cpu time spent up to now is      317.0 secs

     total energy              =   -2945.38087716 Ry
     estimated scf accuracy    <     842.91862555 Ry

     iteration # 24     ecut=    29.40 Ry     beta= 0.05
     Davidson diagonalization with overlap
     ethr =  9.12E-04,  avg # of iterations =  1.0

     negative rho (up, down):  3.465E-01 0.000E+00
 
     Adding external electric field

     Computed dipole along edir(3) : 
        Dipole               -1.6591 Ry au,         -4.2171 Debye
        Dipole field         -0.0031 Ry au, 
 
        Potential amp.        0.2902 Ry
        Total length         46.3494 bohr
 

     total cpu time spent up to now is      323.7 secs

     total energy              =   -2942.49613859 Ry
     estimated scf accuracy    <     788.51368603 Ry

     iteration # 25     ecut=    29.40 Ry     beta= 0.05
     Davidson diagonalization with overlap
     ethr =  9.12E-04,  avg # of iterations =  1.9

     negative rho (up, down):  1.001E-01 0.000E+00
 
     Adding external electric field

     Computed dipole along edir(3) : 
        Dipole               -2.7633 Ry au,         -7.0236 Debye
        Dipole field         -0.0052 Ry au, 
 
        Potential amp.        0.4834 Ry
        Total length         46.3494 bohr
 

     total cpu time spent up to now is      330.7 secs

     total energy              =   -2934.13151146 Ry
     estimated scf accuracy    <     402.41413996 Ry

     iteration # 26     ecut=    29.40 Ry     beta= 0.05
     Davidson diagonalization with overlap
     ethr =  9.12E-04,  avg # of iterations =  9.9

     negative rho (up, down):  3.100E-02 0.000E+00
 
     Adding external electric field

     Computed dipole along edir(3) : 
        Dipole               -2.5389 Ry au,         -6.4531 Debye
        Dipole field         -0.0048 Ry au, 
 
        Potential amp.        0.4441 Ry
        Total length         46.3494 bohr
 

     total cpu time spent up to now is      346.6 secs

     total energy              =   -2941.38610345 Ry
     estimated scf accuracy    <       4.01088733 Ry

     iteration # 27     ecut=    29.40 Ry     beta= 0.05
     Davidson diagonalization with overlap
     ethr =  9.12E-04,  avg # of iterations =  1.9

     negative rho (up, down):  7.852E-04 0.000E+00
 
     Adding external electric field

     Computed dipole along edir(3) : 
        Dipole               -2.5279 Ry au,         -6.4253 Debye
        Dipole field         -0.0048 Ry au, 
 
        Potential amp.        0.4422 Ry
        Total length         46.3494 bohr
 

     total cpu time spent up to now is      354.0 secs

     total energy              =   -2942.28570473 Ry
     estimated scf accuracy    <       4.86157695 Ry

     iteration # 28     ecut=    29.40 Ry     beta= 0.05
     Davidson diagonalization with overlap
     ethr =  9.12E-04,  avg # of iterations = 12.6

     negative rho (up, down):  8.345E-02 0.000E+00
 
     Adding external electric field

     Computed dipole along edir(3) : 
        Dipole               -2.4849 Ry au,         -6.3159 Debye
        Dipole field         -0.0047 Ry au, 
 
        Potential amp.        0.4347 Ry
        Total length         46.3494 bohr
 

     total cpu time spent up to now is      373.6 secs

     total energy              =   -2937.74934492 Ry
     estimated scf accuracy    <     151.04340883 Ry

     iteration # 29     ecut=    29.40 Ry     beta= 0.05
     Davidson diagonalization with overlap
     c_bands:  3 eigenvalues not converged
     c_bands:  3 eigenvalues not converged
     c_bands:  1 eigenvalues not converged
     c_bands:  2 eigenvalues not converged
     c_bands:  1 eigenvalues not converged
     c_bands:  1 eigenvalues not converged
     ethr =  9.12E-04,  avg # of iterations = 16.6

     negative rho (up, down):  2.075E-01 0.000E+00
 
     Adding external electric field

     Computed dipole along edir(3) : 
        Dipole               -2.3421 Ry au,         -5.9530 Debye
        Dipole field         -0.0044 Ry au, 
 
        Potential amp.        0.4097 Ry
        Total length         46.3494 bohr
 

     total cpu time spent up to now is      386.4 secs

     total energy              =   -2940.63868319 Ry
     estimated scf accuracy    <       4.27428604 Ry

     iteration # 30     ecut=    29.40 Ry     beta= 0.05
     Davidson diagonalization with overlap
     c_bands:  5 eigenvalues not converged
     c_bands:  3 eigenvalues not converged
     c_bands:  3 eigenvalues not converged
     c_bands:  2 eigenvalues not converged
     ethr =  9.12E-04,  avg # of iterations = 14.4

     negative rho (up, down):  1.731E-01 0.000E+00
 
     Adding external electric field

     Computed dipole along edir(3) : 
        Dipole               -1.6647 Ry au,         -4.2314 Debye
        Dipole field         -0.0031 Ry au, 
 
        Potential amp.        0.2912 Ry
        Total length         46.3494 bohr
 

     total cpu time spent up to now is      398.2 secs

     total energy              =   -2940.83142570 Ry
     estimated scf accuracy    <       2.85318533 Ry

     iteration # 31     ecut=    29.40 Ry     beta= 0.05
     Davidson diagonalization with overlap
     ethr =  7.21E-04,  avg # of iterations =  2.6

     negative rho (up, down):  1.599E-01 0.000E+00
 
     Adding external electric field

     Computed dipole along edir(3) : 
        Dipole               -1.5347 Ry au,         -3.9009 Debye
        Dipole field         -0.0029 Ry au, 
 
        Potential amp.        0.2685 Ry
        Total length         46.3494 bohr
 

     total cpu time spent up to now is      405.9 secs

     total energy              =   -2940.80009125 Ry
     estimated scf accuracy    <       2.91298734 Ry

     iteration # 32     ecut=    29.40 Ry     beta= 0.05
     Davidson diagonalization with overlap
     ethr =  7.21E-04,  avg # of iterations =  1.3

     negative rho (up, down):  1.703E-01 0.000E+00
 
     Adding external electric field

     Computed dipole along edir(3) : 
        Dipole               -1.5311 Ry au,         -3.8918 Debye
        Dipole field         -0.0029 Ry au, 
 
        Potential amp.        0.2679 Ry
        Total length         46.3494 bohr
 

     total cpu time spent up to now is      412.8 secs

     total energy              =   -2940.78086911 Ry
     estimated scf accuracy    <       2.39829707 Ry

     iteration # 33     ecut=    29.40 Ry     beta= 0.05
     Davidson diagonalization with overlap
     ethr =  6.06E-04,  avg # of iterations =  3.0

     negative rho (up, down):  4.135E-01 0.000E+00
 
     Adding external electric field

     Computed dipole along edir(3) : 
        Dipole               -2.1464 Ry au,         -5.4557 Debye
        Dipole field         -0.0041 Ry au, 
 
        Potential amp.        0.3755 Ry
        Total length         46.3494 bohr
 

     total cpu time spent up to now is      425.7 secs

     total energy              =   -2940.29740651 Ry
     estimated scf accuracy    <       2.27054119 Ry

     iteration # 34     ecut=    29.40 Ry     beta= 0.05
     Davidson diagonalization with overlap
     c_bands:  3 eigenvalues not converged
     c_bands:  1 eigenvalues not converged
     ethr =  5.73E-04,  avg # of iterations = 17.9

     negative rho (up, down):  3.906E-01 0.000E+00
 
     Adding external electric field

     Computed dipole along edir(3) : 
        Dipole               -2.1815 Ry au,         -5.5448 Debye
        Dipole field         -0.0041 Ry au, 
 
        Potential amp.        0.3816 Ry
        Total length         46.3494 bohr
 

     total cpu time spent up to now is      446.0 secs

     total energy              =   -2941.60765828 Ry
     estimated scf accuracy    <     239.98515668 Ry

     iteration # 35     ecut=    29.40 Ry     beta= 0.05
     Davidson diagonalization with overlap
     c_bands:  1 eigenvalues not converged
     ethr =  5.73E-04,  avg # of iterations = 12.1

     negative rho (up, down):  3.950E-01 0.000E+00
 
     Adding external electric field

     Computed dipole along edir(3) : 
        Dipole               -2.0789 Ry au,         -5.2840 Debye
        Dipole field         -0.0039 Ry au, 
 
        Potential amp.        0.3637 Ry
        Total length         46.3494 bohr
 

     total cpu time spent up to now is      475.9 secs

     total energy              =   -2941.47469336 Ry
     estimated scf accuracy    <     169.78789470 Ry

     iteration # 36     ecut=    29.40 Ry     beta= 0.05
     Davidson diagonalization with overlap
     ethr =  5.73E-04,  avg # of iterations =  6.3

     negative rho (up, down):  2.859E-01 0.000E+00
 
     Adding external electric field

     Computed dipole along edir(3) : 
        Dipole               -2.1992 Ry au,         -5.5898 Debye
        Dipole field         -0.0042 Ry au, 
 
        Potential amp.        0.3847 Ry
        Total length         46.3494 bohr
 

     total cpu time spent up to now is      484.5 secs

     total energy              =   -2939.34148818 Ry
     estimated scf accuracy    <     123.32855518 Ry

     iteration # 37     ecut=    29.40 Ry     beta= 0.05
     Davidson diagonalization with overlap
     ethr =  5.73E-04,  avg # of iterations =  9.9

     negative rho (up, down):  2.828E-01 0.000E+00
 
     Adding external electric field

     Computed dipole along edir(3) : 
        Dipole               -1.9380 Ry au,         -4.9259 Debye
        Dipole field         -0.0037 Ry au, 
 
        Potential amp.        0.3390 Ry
        Total length         46.3494 bohr
 

     total cpu time spent up to now is      496.9 secs

     total energy              =   -2940.29512171 Ry
     estimated scf accuracy    <       3.82675449 Ry

     iteration # 38     ecut=    29.40 Ry     beta= 0.05
     Davidson diagonalization with overlap
     ethr =  5.73E-04,  avg # of iterations =  6.6

     negative rho (up, down):  1.781E-01 0.000E+00
 
     Adding external electric field

     Computed dipole along edir(3) : 
        Dipole               -1.9170 Ry au,         -4.8725 Debye
        Dipole field         -0.0036 Ry au, 
 
        Potential amp.        0.3353 Ry
        Total length         46.3494 bohr
 

     total cpu time spent up to now is      505.7 secs

     total energy              =   -2939.77151408 Ry
     estimated scf accuracy    <      58.21176458 Ry

     iteration # 39     ecut=    29.40 Ry     beta= 0.05
     Davidson diagonalization with overlap
     ethr =  5.73E-04,  avg # of iterations =  5.2

     negative rho (up, down):  1.203E-01 0.000E+00
 
     Adding external electric field

     Computed dipole along edir(3) : 
        Dipole               -1.5999 Ry au,         -4.0666 Debye
        Dipole field         -0.0030 Ry au, 
 
        Potential amp.        0.2799 Ry
        Total length         46.3494 bohr
 

     total cpu time spent up to now is      514.1 secs

     total energy              =   -2940.32537504 Ry
     estimated scf accuracy    <       1.02454488 Ry

     iteration # 40     ecut=    29.40 Ry     beta= 0.05
     Davidson diagonalization with overlap
     ethr =  2.59E-04,  avg # of iterations =  5.5

     negative rho (up, down):  9.740E-02 0.000E+00
 
     Adding external electric field

     Computed dipole along edir(3) : 
        Dipole               -1.4822 Ry au,         -3.7673 Debye
        Dipole field         -0.0028 Ry au, 
 
        Potential amp.        0.2593 Ry
        Total length         46.3494 bohr
 

     total cpu time spent up to now is      522.6 secs

     total energy              =   -2940.34984095 Ry
     estimated scf accuracy    <       0.44691946 Ry

     iteration # 41     ecut=    29.40 Ry     beta= 0.05
     Davidson diagonalization with overlap
     c_bands:  3 eigenvalues not converged
     c_bands:  1 eigenvalues not converged
     c_bands:  1 eigenvalues not converged
     c_bands:  1 eigenvalues not converged
     c_bands:  1 eigenvalues not converged
     c_bands:  2 eigenvalues not converged
     ethr =  1.13E-04,  avg # of iterations = 19.5

     negative rho (up, down):  9.269E-02 0.000E+00
 
     Adding external electric field

     Computed dipole along edir(3) : 
        Dipole               -1.3625 Ry au,         -3.4632 Debye
        Dipole field         -0.0026 Ry au, 
 
        Potential amp.        0.2384 Ry
        Total length         46.3494 bohr
 

     total cpu time spent up to now is      541.5 secs

     total energy              =   -2940.39668932 Ry
     estimated scf accuracy    <       0.39060979 Ry

     iteration # 42     ecut=    29.40 Ry     beta= 0.05
     Davidson diagonalization with overlap
     ethr =  9.86E-05,  avg # of iterations =  5.4

     negative rho (up, down):  6.307E-02 0.000E+00
 
     Adding external electric field

     Computed dipole along edir(3) : 
        Dipole               -1.1643 Ry au,         -2.9593 Debye
        Dipole field         -0.0022 Ry au, 
 
        Potential amp.        0.2037 Ry
        Total length         46.3494 bohr
 

     total cpu time spent up to now is      549.6 secs

     total energy              =   -2940.40196884 Ry
     estimated scf accuracy    <       0.31982409 Ry

     iteration # 43     ecut=    29.40 Ry     beta= 0.05
     Davidson diagonalization with overlap
     c_bands:  2 eigenvalues not converged
     c_bands:  2 eigenvalues not converged
     ethr =  8.08E-05,  avg # of iterations = 10.6

     negative rho (up, down):  3.925E-02 0.000E+00
 
     Adding external electric field

     Computed dipole along edir(3) : 
        Dipole               -0.6446 Ry au,         -1.6383 Debye
        Dipole field         -0.0012 Ry au, 
 
        Potential amp.        0.1128 Ry
        Total length         46.3494 bohr
 

     total cpu time spent up to now is      559.4 secs

     total energy              =   -2940.39560844 Ry
     estimated scf accuracy    <       2.00026546 Ry

     iteration # 44     ecut=    29.40 Ry     beta= 0.05
     Davidson diagonalization with overlap
     c_bands:  1 eigenvalues not converged
     c_bands:  1 eigenvalues not converged
     c_bands:  2 eigenvalues not converged
     ethr =  8.08E-05,  avg # of iterations = 12.6

     negative rho (up, down):  4.027E-02 0.000E+00
 
     Adding external electric field

     Computed dipole along edir(3) : 
        Dipole               -0.3986 Ry au,         -1.0132 Debye
        Dipole field         -0.0008 Ry au, 
 
        Potential amp.        0.0697 Ry
        Total length         46.3494 bohr
 

     total cpu time spent up to now is      570.4 secs

     total energy              =   -2940.39345343 Ry
     estimated scf accuracy    <       1.71248955 Ry

     iteration # 45     ecut=    29.40 Ry     beta= 0.05
     Davidson diagonalization with overlap
     ethr =  8.08E-05,  avg # of iterations =  2.5

     negative rho (up, down):  4.552E-02 0.000E+00
 
     Adding external electric field

     Computed dipole along edir(3) : 
        Dipole               -0.1246 Ry au,         -0.3168 Debye
        Dipole field         -0.0002 Ry au, 
 
        Potential amp.        0.0218 Ry
        Total length         46.3494 bohr
 

     total cpu time spent up to now is      577.6 secs

     total energy              =   -2940.37312901 Ry
     estimated scf accuracy    <       0.95917303 Ry

     iteration # 46     ecut=    29.40 Ry     beta= 0.05
     Davidson diagonalization with overlap
     ethr =  8.08E-05,  avg # of iterations =  2.4

     negative rho (up, down):  5.418E-02 0.000E+00
 
     Adding external electric field

     Computed dipole along edir(3) : 
        Dipole               -0.1561 Ry au,         -0.3967 Debye
        Dipole field         -0.0003 Ry au, 
 
        Potential amp.        0.0273 Ry
        Total length         46.3494 bohr
 

     total cpu time spent up to now is      585.0 secs

     total energy              =   -2940.36486644 Ry
     estimated scf accuracy    <       0.59848218 Ry

     iteration # 47     ecut=    29.40 Ry     beta= 0.05
     Davidson diagonalization with overlap
     ethr =  8.08E-05,  avg # of iterations =  6.4

     negative rho (up, down):  4.339E-02 0.000E+00
 
     Adding external electric field

     Computed dipole along edir(3) : 
        Dipole               -0.0658 Ry au,         -0.1673 Debye
        Dipole field         -0.0001 Ry au, 
 
        Potential amp.        0.0115 Ry
        Total length         46.3494 bohr
 

     total cpu time spent up to now is      593.5 secs

     total energy              =   -2940.36782482 Ry
     estimated scf accuracy    <       0.32340363 Ry

     iteration # 48     ecut=    29.40 Ry     beta= 0.05
     Davidson diagonalization with overlap
     ethr =  8.08E-05,  avg # of iterations =  1.0

     negative rho (up, down):  4.478E-02 0.000E+00
 
     Adding external electric field

     Computed dipole along edir(3) : 
        Dipole                0.1266 Ry au,          0.3218 Debye
        Dipole field          0.0002 Ry au, 
 
        Potential amp.       -0.0221 Ry
        Total length         46.3494 bohr
 

     total cpu time spent up to now is      600.2 secs

     total energy              =   -2940.34196411 Ry
     estimated scf accuracy    <       0.69751989 Ry

     iteration # 49     ecut=    29.40 Ry     beta= 0.05
     Davidson diagonalization with overlap
     ethr =  8.08E-05,  avg # of iterations = 12.3

     negative rho (up, down):  3.829E-02 0.000E+00
 
     Adding external electric field

     Computed dipole along edir(3) : 
        Dipole                0.4871 Ry au,          1.2381 Debye
        Dipole field          0.0009 Ry au, 
 
        Potential amp.       -0.0852 Ry
        Total length         46.3494 bohr
 

     total cpu time spent up to now is      610.6 secs

     total energy              =   -2940.34364028 Ry
     estimated scf accuracy    <       0.05169599 Ry

     iteration # 50     ecut=    29.40 Ry     beta= 0.05
     Davidson diagonalization with overlap
     c_bands:  1 eigenvalues not converged
     c_bands:  2 eigenvalues not converged
     c_bands:  2 eigenvalues not converged
     c_bands:  2 eigenvalues not converged
     c_bands:  1 eigenvalues not converged
     ethr =  1.31E-05,  avg # of iterations = 18.4

     negative rho (up, down):  3.358E-02 0.000E+00
 
     Adding external electric field

     Computed dipole along edir(3) : 
        Dipole                0.4881 Ry au,          1.2407 Debye
        Dipole field          0.0009 Ry au, 
 
        Potential amp.       -0.0854 Ry
        Total length         46.3494 bohr
 

     total cpu time spent up to now is      630.0 secs

     total energy              =   -2940.35027928 Ry
     estimated scf accuracy    <       0.02851249 Ry

     iteration # 51     ecut=    29.40 Ry     beta= 0.05
     Davidson diagonalization with overlap
     c_bands:  3 eigenvalues not converged
     ethr =  7.20E-06,  avg # of iterations = 14.8

     negative rho (up, down):  3.325E-02 0.000E+00
 
     Adding external electric field

     Computed dipole along edir(3) : 
        Dipole                0.4676 Ry au,          1.1886 Debye
        Dipole field          0.0009 Ry au, 
 
        Potential amp.       -0.0818 Ry
        Total length         46.3494 bohr
 

     total cpu time spent up to now is      653.2 secs

     total energy              =   -2940.35271686 Ry
     estimated scf accuracy    <       0.01277006 Ry

     iteration # 52     ecut=    29.40 Ry     beta= 0.05
     Davidson diagonalization with overlap
     ethr =  3.22E-06,  avg # of iterations = 10.9

     negative rho (up, down):  2.716E-02 0.000E+00
 
     Adding external electric field

     Computed dipole along edir(3) : 
        Dipole                0.5341 Ry au,          1.3574 Debye
        Dipole field          0.0010 Ry au, 
 
        Potential amp.       -0.0934 Ry
        Total length         46.3494 bohr
 

     total cpu time spent up to now is      663.0 secs

     total energy              =   -2940.35059031 Ry
     estimated scf accuracy    <       0.01017688 Ry

     iteration # 53     ecut=    29.40 Ry     beta= 0.05
     Davidson diagonalization with overlap
     c_bands:  1 eigenvalues not converged
     c_bands:  2 eigenvalues not converged
     c_bands:  2 eigenvalues not converged
     c_bands:  1 eigenvalues not converged
     ethr =  2.57E-06,  avg # of iterations = 17.8

     negative rho (up, down):  2.682E-02 0.000E+00
 
     Adding external electric field

     Computed dipole along edir(3) : 
        Dipole                0.6478 Ry au,          1.6466 Debye
        Dipole field          0.0012 Ry au, 
 
        Potential amp.       -0.1133 Ry
        Total length         46.3494 bohr
 

     total cpu time spent up to now is      680.0 secs

     total energy              =   -2940.35188092 Ry
     estimated scf accuracy    <       0.00326688 Ry

     iteration # 54     ecut=    29.40 Ry     beta= 0.05
     Davidson diagonalization with overlap
     c_bands:  1 eigenvalues not converged
     c_bands:  2 eigenvalues not converged
     ethr =  8.25E-07,  avg # of iterations = 14.1

     negative rho (up, down):  2.524E-02 0.000E+00
 
     Adding external electric field

     Computed dipole along edir(3) : 
        Dipole                0.6400 Ry au,          1.6267 Debye
        Dipole field          0.0012 Ry au, 
 
        Potential amp.       -0.1120 Ry
        Total length         46.3494 bohr
 

     total cpu time spent up to now is      692.8 secs

     total energy              =   -2940.35172307 Ry
     estimated scf accuracy    <       0.00435581 Ry

     iteration # 55     ecut=    29.40 Ry     beta= 0.05
     Davidson diagonalization with overlap
     ethr =  8.25E-07,  avg # of iterations =  8.2

     negative rho (up, down):  2.269E-02 0.000E+00
 
     Adding external electric field

     Computed dipole along edir(3) : 
        Dipole                0.6654 Ry au,          1.6914 Debye
        Dipole field          0.0013 Ry au, 
 
        Potential amp.       -0.1164 Ry
        Total length         46.3494 bohr
 

     total cpu time spent up to now is      702.3 secs

     total energy              =   -2940.35178411 Ry
     estimated scf accuracy    <       0.00147012 Ry

     iteration # 56     ecut=    29.40 Ry     beta= 0.05
     Davidson diagonalization with overlap
     ethr =  3.71E-07,  avg # of iterations =  8.2

     negative rho (up, down):  2.014E-02 0.000E+00
 
     Adding external electric field

     Computed dipole along edir(3) : 
        Dipole                0.7200 Ry au,          1.8300 Debye
        Dipole field          0.0014 Ry au, 
 
        Potential amp.       -0.1260 Ry
        Total length         46.3494 bohr
 

     total cpu time spent up to now is      717.4 secs

     total energy              =   -2940.35188009 Ry
     estimated scf accuracy    <       0.00143115 Ry

     iteration # 57     ecut=    29.40 Ry     beta= 0.05
     Davidson diagonalization with overlap
     ethr =  3.61E-07,  avg # of iterations =  5.1

     negative rho (up, down):  1.993E-02 0.000E+00
 
     Adding external electric field

     Computed dipole along edir(3) : 
        Dipole                0.7441 Ry au,          1.8914 Debye
        Dipole field          0.0014 Ry au, 
 
        Potential amp.       -0.1302 Ry
        Total length         46.3494 bohr
 

     total cpu time spent up to now is      725.6 secs

     total energy              =   -2940.35185825 Ry
     estimated scf accuracy    <       0.00097901 Ry

     iteration # 58     ecut=    29.40 Ry     beta= 0.05
     Davidson diagonalization with overlap
     ethr =  2.47E-07,  avg # of iterations =  6.0

     negative rho (up, down):  1.969E-02 0.000E+00
 
     Adding external electric field

     Computed dipole along edir(3) : 
        Dipole                0.7372 Ry au,          1.8739 Debye
        Dipole field          0.0014 Ry au, 
 
        Potential amp.       -0.1290 Ry
        Total length         46.3494 bohr
 

     total cpu time spent up to now is      739.4 secs

     total energy              =   -2940.35193353 Ry
     estimated scf accuracy    <       0.00024161 Ry

     iteration # 59     ecut=    29.40 Ry     beta= 0.05
     Davidson diagonalization with overlap
     ethr =  6.10E-08,  avg # of iterations =  8.8

     negative rho (up, down):  1.890E-02 0.000E+00
 
     Adding external electric field

     Computed dipole along edir(3) : 
        Dipole                0.7288 Ry au,          1.8525 Debye
        Dipole field          0.0014 Ry au, 
 
        Potential amp.       -0.1275 Ry
        Total length         46.3494 bohr
 

     total cpu time spent up to now is      752.2 secs

     total energy              =   -2940.35193133 Ry
     estimated scf accuracy    <       0.00017500 Ry

     iteration # 60     ecut=    29.40 Ry     beta= 0.05
     Davidson diagonalization with overlap
     ethr =  4.42E-08,  avg # of iterations =  7.6

     negative rho (up, down):  1.850E-02 0.000E+00
 
     Adding external electric field

     Computed dipole along edir(3) : 
        Dipole                0.7379 Ry au,          1.8756 Debye
        Dipole field          0.0014 Ry au, 
 
        Potential amp.       -0.1291 Ry
        Total length         46.3494 bohr
 

     total cpu time spent up to now is      761.9 secs

     total energy              =   -2940.35193862 Ry
     estimated scf accuracy    <       0.00017247 Ry

     iteration # 61     ecut=    29.40 Ry     beta= 0.05
     Davidson diagonalization with overlap
     ethr =  4.36E-08,  avg # of iterations =  6.6

     negative rho (up, down):  1.848E-02 0.000E+00
 
     Adding external electric field

     Computed dipole along edir(3) : 
        Dipole                0.7369 Ry au,          1.8730 Debye
        Dipole field          0.0014 Ry au, 
 
        Potential amp.       -0.1289 Ry
        Total length         46.3494 bohr
 

     total cpu time spent up to now is      798.7 secs

     total energy              =   -2940.35196263 Ry
     estimated scf accuracy    <       0.00011664 Ry

     iteration # 62     ecut=    29.40 Ry     beta= 0.05
     Davidson diagonalization with overlap
     ethr =  2.95E-08,  avg # of iterations =  6.0

     negative rho (up, down):  1.832E-02 0.000E+00
 
     Adding external electric field

     Computed dipole along edir(3) : 
        Dipole                0.7425 Ry au,          1.8873 Debye
        Dipole field          0.0014 Ry au, 
 
        Potential amp.       -0.1299 Ry
        Total length         46.3494 bohr
 

     total cpu time spent up to now is      812.1 secs

     total energy              =   -2940.35197981 Ry
     estimated scf accuracy    <       0.00004579 Ry

     iteration # 63     ecut=    29.40 Ry     beta= 0.05
     Davidson diagonalization with overlap
     ethr =  1.16E-08,  avg # of iterations =  7.2

     negative rho (up, down):  1.810E-02 0.000E+00
 
     Adding external electric field

     Computed dipole along edir(3) : 
        Dipole                0.7410 Ry au,          1.8833 Debye
        Dipole field          0.0014 Ry au, 
 
        Potential amp.       -0.1296 Ry
        Total length         46.3494 bohr
 

     total cpu time spent up to now is      821.5 secs

     total energy              =   -2940.35198965 Ry
     estimated scf accuracy    <       0.00002918 Ry

     iteration # 64     ecut=    29.40 Ry     beta= 0.05
     Davidson diagonalization with overlap
     ethr =  7.37E-09,  avg # of iterations =  5.9

     negative rho (up, down):  1.777E-02 0.000E+00
 
     Adding external electric field

     Computed dipole along edir(3) : 
        Dipole                0.7430 Ry au,          1.8885 Debye
        Dipole field          0.0014 Ry au, 
 
        Potential amp.       -0.1300 Ry
        Total length         46.3494 bohr
 

     total cpu time spent up to now is      830.1 secs

     total energy              =   -2940.35199704 Ry
     estimated scf accuracy    <       0.00001648 Ry

     iteration # 65     ecut=    29.40 Ry     beta= 0.05
     Davidson diagonalization with overlap
     ethr =  4.16E-09,  avg # of iterations =  7.8

     negative rho (up, down):  1.782E-02 0.000E+00
 
     Adding external electric field

     Computed dipole along edir(3) : 
        Dipole                0.7418 Ry au,          1.8855 Debye
        Dipole field          0.0014 Ry au, 
 
        Potential amp.       -0.1298 Ry
        Total length         46.3494 bohr
 

     total cpu time spent up to now is      851.0 secs

     total energy              =   -2940.35200562 Ry
     estimated scf accuracy    <       0.00001727 Ry

     iteration # 66     ecut=    29.40 Ry     beta= 0.05
     Davidson diagonalization with overlap
     ethr =  4.16E-09,  avg # of iterations =  1.0

     negative rho (up, down):  1.785E-02 0.000E+00
 
     Adding external electric field

     Computed dipole along edir(3) : 
        Dipole                0.7439 Ry au,          1.8907 Debye
        Dipole field          0.0014 Ry au, 
 
        Potential amp.       -0.1301 Ry
        Total length         46.3494 bohr
 

     total cpu time spent up to now is      857.7 secs

     total energy              =   -2940.35201081 Ry
     estimated scf accuracy    <       0.00001520 Ry

     iteration # 67     ecut=    29.40 Ry     beta= 0.05
     Davidson diagonalization with overlap
     ethr =  3.84E-09,  avg # of iterations =  2.3

     negative rho (up, down):  1.783E-02 0.000E+00
 
     Adding external electric field

     Computed dipole along edir(3) : 
        Dipole                0.7450 Ry au,          1.8936 Debye
        Dipole field          0.0014 Ry au, 
 
        Potential amp.       -0.1303 Ry
        Total length         46.3494 bohr
 

     total cpu time spent up to now is      865.5 secs

     total energy              =   -2940.35201570 Ry
     estimated scf accuracy    <       0.00001112 Ry

     iteration # 68     ecut=    29.40 Ry     beta= 0.05
     Davidson diagonalization with overlap
     ethr =  2.81E-09,  avg # of iterations =  6.3

     negative rho (up, down):  1.771E-02 0.000E+00
 
     Adding external electric field

     Computed dipole along edir(3) : 
        Dipole                0.7421 Ry au,          1.8861 Debye
        Dipole field          0.0014 Ry au, 
 
        Potential amp.       -0.1298 Ry
        Total length         46.3494 bohr
 

     total cpu time spent up to now is      879.9 secs

     total energy              =   -2940.35202011 Ry
     estimated scf accuracy    <       0.00000725 Ry

     iteration # 69     ecut=    29.40 Ry     beta= 0.05
     Davidson diagonalization with overlap
     ethr =  1.83E-09,  avg # of iterations =  6.2

     negative rho (up, down):  1.758E-02 0.000E+00
 
     Adding external electric field

     Computed dipole along edir(3) : 
        Dipole                0.7412 Ry au,          1.8840 Debye
        Dipole field          0.0014 Ry au, 
 
        Potential amp.       -0.1297 Ry
        Total length         46.3494 bohr
 

     total cpu time spent up to now is      888.7 secs

     total energy              =   -2940.35202484 Ry
     estimated scf accuracy    <       0.00000371 Ry

     iteration # 70     ecut=    29.40 Ry     beta= 0.05
     Davidson diagonalization with overlap
     ethr =  9.36E-10,  avg # of iterations =  6.4

     negative rho (up, down):  1.750E-02 0.000E+00
 
     Adding external electric field

     Computed dipole along edir(3) : 
        Dipole                0.7411 Ry au,          1.8837 Debye
        Dipole field          0.0014 Ry au, 
 
        Potential amp.       -0.1296 Ry
        Total length         46.3494 bohr
 

     total cpu time spent up to now is      898.2 secs

     total energy              =   -2940.35202891 Ry
     estimated scf accuracy    <       0.00000228 Ry

     iteration # 71     ecut=    29.40 Ry     beta= 0.05
     Davidson diagonalization with overlap
     ethr =  5.76E-10,  avg # of iterations =  6.9

     negative rho (up, down):  1.750E-02 0.000E+00
 
     Adding external electric field

     Computed dipole along edir(3) : 
        Dipole                0.7407 Ry au,          1.8828 Debye
        Dipole field          0.0014 Ry au, 
 
        Potential amp.       -0.1296 Ry
        Total length         46.3494 bohr
 

     total cpu time spent up to now is      907.5 secs

     total energy              =   -2940.35203236 Ry
     estimated scf accuracy    <       0.00000114 Ry

     iteration # 72     ecut=    29.40 Ry     beta= 0.05
     Davidson diagonalization with overlap
     ethr =  2.88E-10,  avg # of iterations =  3.2

     negative rho (up, down):  1.745E-02 0.000E+00
 
     Adding external electric field

     Computed dipole along edir(3) : 
        Dipole                0.7406 Ry au,          1.8824 Debye
        Dipole field          0.0014 Ry au, 
 
        Potential amp.       -0.1296 Ry
        Total length         46.3494 bohr
 

     total cpu time spent up to now is      915.3 secs

     total energy              =   -2940.35203555 Ry
     estimated scf accuracy    <       0.00000081 Ry

     iteration # 73     ecut=    29.40 Ry     beta= 0.05
     Davidson diagonalization with overlap
     ethr =  2.05E-10,  avg # of iterations =  9.1

     negative rho (up, down):  1.743E-02 0.000E+00
 
     Adding external electric field

     Computed dipole along edir(3) : 
        Dipole                0.7411 Ry au,          1.8838 Debye
        Dipole field          0.0014 Ry au, 
 
        Potential amp.       -0.1297 Ry
        Total length         46.3494 bohr
 

     total cpu time spent up to now is      934.6 secs

     total energy              =   -2940.35203846 Ry
     estimated scf accuracy    <       0.00000054 Ry

     iteration # 74     ecut=    29.40 Ry     beta= 0.05
     Davidson diagonalization with overlap
     ethr =  1.37E-10,  avg # of iterations =  7.6

     negative rho (up, down):  1.742E-02 0.000E+00
 
     Adding external electric field

     Computed dipole along edir(3) : 
        Dipole                0.7416 Ry au,          1.8849 Debye
        Dipole field          0.0014 Ry au, 
 
        Potential amp.       -0.1297 Ry
        Total length         46.3494 bohr
 

     total cpu time spent up to now is      951.1 secs

     total energy              =   -2940.35204106 Ry
     estimated scf accuracy    <       0.00000031 Ry

     iteration # 75     ecut=    29.40 Ry     beta= 0.05
     Davidson diagonalization with overlap
     ethr =  7.87E-11,  avg # of iterations =  5.9

     negative rho (up, down):  1.741E-02 0.000E+00
 
     Adding external electric field

     Computed dipole along edir(3) : 
        Dipole                0.7420 Ry au,          1.8860 Debye
        Dipole field          0.0014 Ry au, 
 
        Potential amp.       -0.1298 Ry
        Total length         46.3494 bohr
 

     total cpu time spent up to now is      959.5 secs

     total energy              =   -2940.35204334 Ry
     estimated scf accuracy    <       0.00000018 Ry

     iteration # 76     ecut=    29.40 Ry     beta= 0.05
     Davidson diagonalization with overlap
     ethr =  4.52E-11,  avg # of iterations =  6.7

     negative rho (up, down):  1.738E-02 0.000E+00
 
     Adding external electric field

     Computed dipole along edir(3) : 
        Dipole                0.7418 Ry au,          1.8854 Debye
        Dipole field          0.0014 Ry au, 
 
        Potential amp.       -0.1298 Ry
        Total length         46.3494 bohr
 

     total cpu time spent up to now is      969.6 secs

     total energy              =   -2940.35204546 Ry
     estimated scf accuracy    <       0.00000015 Ry

     iteration # 77     ecut=    29.40 Ry     beta= 0.05
     Davidson diagonalization with overlap
     ethr =  3.83E-11,  avg # of iterations =  6.7

     negative rho (up, down):  1.744E-02 0.000E+00
 
     Adding external electric field

     Computed dipole along edir(3) : 
        Dipole                0.7403 Ry au,          1.8815 Debye
        Dipole field          0.0014 Ry au, 
 
        Potential amp.       -0.1295 Ry
        Total length         46.3494 bohr
 

     total cpu time spent up to now is      978.5 secs

     End of self-consistent calculation

          k = 0.0000 0.0000 0.0000 ( 18029 PWs)   bands (ev):

   -56.0213 -55.9873 -55.8016 -55.7627 -55.7231 -55.6886 -55.6609 -55.6372
   -55.6267 -55.6025 -55.5717 -55.4923 -55.2373 -54.9172 -54.8832 -54.7807
   -32.4879 -32.3437 -32.3154 -32.2920 -32.1901 -32.1762 -32.1636 -32.1268
   -32.1107 -32.0963 -32.0823 -32.0426 -32.0178 -31.9791 -31.9737 -31.9705
   -31.9398 -31.9283 -31.9162 -31.8942 -31.8843 -31.8668 -31.8620 -31.8560
   -31.8374 -31.8348 -31.8273 -31.8222 -31.8175 -31.7979 -31.7914 -31.7912
   -31.7735 -31.7500 -31.6884 -31.6609 -31.6128 -31.4640 -31.4607 -31.3206
   -31.2415 -31.2185 -31.1998 -31.1381 -31.0521 -30.9872 -30.9406 -30.9049
   -17.3303 -16.5566 -16.3663 -16.0763 -15.9249 -15.9045 -15.7856 -15.6892
   -15.6120 -15.5125 -15.4583 -15.4045 -15.3928 -15.3662 -15.3074 -15.2861
   -15.2443 -15.2273 -15.1841 -15.1730 -15.1267 -15.1064 -15.0829 -15.0479
   -14.9839 -14.9128 -14.9012 -14.7438 -14.6054 -14.4518 -13.4183 -13.3035
   -11.5546  -8.3056  -5.0213  -4.0131  -3.9434  -3.8742  -3.8490  -3.7716
    -3.6905  -3.4400  -3.4157  -3.3553  -3.0687  -3.0209  -2.9968  -2.9923
    -2.8941  -2.7556  -2.7245  -2.6646  -2.6586  -2.6381  -2.6183  -2.6011
    -2.5436  -2.4858  -2.4721  -2.4306  -2.2963  -2.2692  -2.2647  -2.2428
    -2.1732  -2.1638  -2.1001  -2.0820  -2.0592  -2.0410  -2.0036  -1.8708
    -1.8371  -1.7717  -1.6913  -1.6025  -1.5225  -1.4875  -1.4005  -1.3849
    -1.3472  -1.2589  -1.2549  -1.1767  -1.1436  -1.0740  -1.0419  -1.0054
    -0.8963  -0.8667  -0.8094  -0.7505  -0.7083  -0.6945  -0.6543  -0.6293
    -0.6238  -0.6090  -0.5951  -0.4017  -0.3716  -0.2290  -0.1833  -0.1585
    -0.1180  -0.0955  -0.0363  -0.0136  -0.0080   0.0312   0.0497   0.0929
     0.1485   0.1619   0.1891   0.2835   0.3157   0.3707   0.4972   0.5100
     0.5976   0.6653   0.7696   0.7834   0.8320   0.9667   1.0615   1.0809
     1.1051   1.3104   1.4158   1.6691   1.7115   3.0266   3.1722   3.2676
     3.3764   3.4969   3.5727   3.6099   3.7859   3.8244   3.8658   3.9267

          k = 0.0000 0.0419 0.0000 ( 17933 PWs)   bands (ev):

   -56.0163 -55.9922 -55.7968 -55.7674 -55.7182 -55.6933 -55.6559 -55.6324
   -55.6315 -55.6072 -55.5697 -55.4941 -55.2369 -54.9121 -54.8881 -54.7809
   -32.4340 -32.3110 -32.2926 -32.2858 -32.1672 -32.1625 -32.1415 -32.1090
   -32.0960 -32.0827 -32.0736 -32.0321 -32.0023 -31.9924 -31.9804 -31.9616
   -31.9587 -31.9273 -31.9104 -31.9052 -31.8956 -31.8806 -31.8623 -31.8546
   -31.8532 -31.8421 -31.8402 -31.8314 -31.8224 -31.8174 -31.8060 -31.7969
   -31.7902 -31.7849 -31.7056 -31.6633 -31.6347 -31.4634 -31.4599 -31.2666
   -31.2379 -31.2225 -31.2216 -31.1255 -31.0645 -30.9976 -30.9932 -30.9066
   -17.3217 -16.4203 -16.2456 -15.9682 -15.8253 -15.7961 -15.7550 -15.6904
   -15.6343 -15.6193 -15.4732 -15.4529 -15.3711 -15.3366 -15.3354 -15.3085
   -15.2916 -15.2296 -15.2164 -15.2006 -15.1657 -15.1274 -15.0766 -15.0398
   -15.0354 -14.9587 -14.9107 -14.7999 -14.6324 -14.5261 -13.4232 -13.3434
   -11.5525  -8.3035  -5.0202  -3.9662  -3.8473  -3.7497  -3.6958  -3.6096
    -3.5322  -3.2909  -3.2606  -3.1453  -3.0053  -2.9940  -2.9538  -2.8999
    -2.8827  -2.8219  -2.7904  -2.7745  -2.7596  -2.6642  -2.6485  -2.6172
    -2.5944  -2.5652  -2.5412  -2.4966  -2.4503  -2.3979  -2.3680  -2.3446
    -2.2747  -2.2627  -2.1892  -2.1448  -2.0931  -2.0157  -1.9760  -1.8389
    -1.8146  -1.6902  -1.5890  -1.5643  -1.5028  -1.4622  -1.4480  -1.3522
    -1.2424  -1.1766  -1.1596  -1.1164  -1.0037  -0.9681  -0.9396  -0.9169
    -0.8323  -0.7832  -0.7643  -0.7525  -0.7280  -0.7019  -0.6932  -0.5847
    -0.5614  -0.5210  -0.4885  -0.4685  -0.4016  -0.3693  -0.3447  -0.2826
    -0.2359  -0.1349  -0.0916  -0.0727  -0.0406   0.0014   0.0188   0.0422
     0.0987   0.1066   0.1751   0.2090   0.3050   0.3416   0.3756   0.4356
     0.4641   0.5141   0.5436   0.6625   0.7368   0.7604   0.8926   1.0619
     1.2945   1.3028   1.3982   1.6215   1.6272   3.0437   3.3827   3.4418
     3.5315   3.5935   3.6551   3.7312   3.7720   3.7847   3.8390   3.8640

          k = 0.0000-0.0839 0.0000 ( 17884 PWs)   bands (ev):

   -56.0053 -56.0031 -55.7894 -55.7747 -55.7095 -55.7020 -55.6454 -55.6419
   -55.6237 -55.6158 -55.5677 -55.4960 -55.2366 -54.9001 -54.9000 -54.7811
   -32.3031 -32.3023 -32.3007 -32.2993 -32.1505 -32.1384 -32.1304 -32.1281
   -32.0471 -32.0345 -32.0210 -32.0134 -32.0116 -31.9994 -31.9810 -31.9690
   -31.9444 -31.9368 -31.9353 -31.9305 -31.9091 -31.9004 -31.8883 -31.8711
   -31.8614 -31.8546 -31.8532 -31.8473 -31.8405 -31.8143 -31.8123 -31.8076
   -31.7935 -31.7912 -31.7600 -31.7072 -31.6038 -31.4626 -31.4600 -31.2497
   -31.2296 -31.2295 -31.1340 -31.1338 -31.0951 -31.0950 -30.9990 -30.9080
   -17.3133 -16.0892 -16.0583 -15.9575 -15.9414 -15.7421 -15.7211 -15.6361
   -15.6125 -15.5667 -15.5313 -15.5008 -15.4409 -15.4003 -15.3828 -15.3094
   -15.3092 -15.2693 -15.2676 -15.1898 -15.1624 -15.1359 -15.0991 -15.0879
   -14.9795 -14.9403 -14.9272 -14.8973 -14.6702 -14.6241 -13.4063 -13.4060
   -11.5504  -8.3016  -5.0194  -3.9244  -3.8481  -3.2878  -3.2663  -3.2628
    -3.2601  -3.2176  -3.2139  -3.1979  -3.1814  -2.9826  -2.9431  -2.9416
    -2.9074  -2.8965  -2.8862  -2.8744  -2.8581  -2.8466  -2.8349  -2.7100
    -2.6354  -2.6063  -2.5648  -2.5058  -2.4309  -2.4154  -2.3707  -2.3427
    -2.2613  -2.2372  -2.1885  -2.1378  -2.0661  -1.9640  -1.8314  -1.7572
    -1.7360  -1.6192  -1.5931  -1.5344  -1.4687  -1.4553  -1.4024  -1.3450
    -1.3277  -1.2829  -1.2556  -1.2101  -1.1602  -1.1068  -1.0740  -0.9407
    -0.8921  -0.8519  -0.7826  -0.7086  -0.5884  -0.5496  -0.5217  -0.4958
    -0.4850  -0.4293  -0.3929  -0.3787  -0.3603  -0.3266  -0.2895  -0.2603
    -0.1948  -0.1840  -0.1754  -0.1601  -0.1365  -0.0831  -0.0732   0.0004
     0.0287   0.0454   0.0592   0.1058   0.1777   0.1936   0.2727   0.3301
     0.3620   0.3845   0.4197   0.4314   0.6725   0.8185   0.9808   1.0305
     1.0884   1.4471   1.4478   1.5599   1.5638   3.0447   3.5979   3.6010
     3.6983   3.7141   3.7686   3.7706   3.7878   3.7884   3.8701   3.8814

          k = 0.0380 0.0000 0.0000 ( 17913 PWs)   bands (ev):

   -56.0212 -55.9872 -55.8015 -55.7626 -55.7229 -55.6885 -55.6608 -55.6372
   -55.6265 -55.6024 -55.5716 -55.4922 -55.2372 -54.9171 -54.8831 -54.7806
   -32.4887 -32.3438 -32.3152 -32.2919 -32.1902 -32.1736 -32.1696 -32.1321
   -32.1104 -32.0962 -32.0820 -32.0271 -32.0188 -31.9789 -31.9637 -31.9545
   -31.9394 -31.9279 -31.9161 -31.9001 -31.8869 -31.8668 -31.8618 -31.8559
   -31.8469 -31.8373 -31.8339 -31.8221 -31.8169 -31.7951 -31.7914 -31.7903
   -31.7735 -31.7498 -31.6910 -31.6571 -31.6124 -31.4659 -31.4606 -31.3201
   -31.2445 -31.2166 -31.1997 -31.1378 -31.0520 -30.9870 -30.9403 -30.9050
   -17.3277 -16.4807 -16.2812 -15.9813 -15.9526 -15.8340 -15.7851 -15.7293
   -15.6699 -15.6100 -15.5053 -15.4617 -15.4542 -15.4476 -15.3140 -15.2705
   -15.2293 -15.2225 -15.1890 -15.1574 -15.1016 -15.0782 -15.0467 -15.0199
   -15.0039 -14.9639 -14.9029 -14.7573 -14.5985 -14.4520 -13.4152 -13.3032
   -11.5603  -8.2971  -5.0295  -3.9664  -3.8647  -3.8353  -3.6069  -3.5571
    -3.5029  -3.3825  -3.3525  -3.2805  -3.2312  -3.1119  -3.0639  -3.0035
    -2.9563  -2.8307  -2.7533  -2.6433  -2.6246  -2.6031  -2.5515  -2.5436
    -2.5319  -2.4788  -2.4236  -2.3776  -2.3321  -2.3135  -2.2570  -2.2043
    -2.1600  -2.1317  -2.0676  -2.0163  -1.9042  -1.8424  -1.8053  -1.7822
    -1.7576  -1.7263  -1.6806  -1.6626  -1.5662  -1.5084  -1.4680  -1.4067
    -1.3729  -1.3091  -1.2880  -1.2354  -1.1740  -1.1267  -1.1120  -1.0911
    -1.0360  -0.9817  -0.9619  -0.8398  -0.8009  -0.7160  -0.6174  -0.5978
    -0.5790  -0.5507  -0.5221  -0.4694  -0.3104  -0.2741  -0.2525  -0.2082
    -0.1799  -0.1565  -0.1027  -0.0462  -0.0371  -0.0176   0.0071   0.0541
     0.0658   0.1284   0.1679   0.2118   0.2867   0.3077   0.4204   0.4785
     0.5317   0.5962   0.6504   0.7155   0.7929   0.8232   1.0183   1.0744
     1.1169   1.2762   1.2887   1.5591   1.6283   3.0081   3.2475   3.2611
     3.5507   3.6091   3.6683   3.6880   3.7343   3.7763   3.8401   3.8582

          k = 0.0380 0.0419 0.0000 ( 17878 PWs)   bands (ev):

   -56.0162 -55.9921 -55.7967 -55.7674 -55.7181 -55.6933 -55.6558 -55.6323
   -55.6315 -55.6072 -55.5697 -55.4940 -55.2369 -54.9121 -54.8881 -54.7809
   -32.4348 -32.3107 -32.2926 -32.2860 -32.1673 -32.1602 -32.1418 -32.1166
   -32.0956 -32.0826 -32.0797 -32.0197 -32.0026 -31.9920 -31.9702 -31.9595
   -31.9459 -31.9270 -31.9103 -31.8960 -31.8944 -31.8936 -31.8623 -31.8546
   -31.8534 -31.8439 -31.8413 -31.8401 -31.8305 -31.8172 -31.8031 -31.8004
   -31.7902 -31.7825 -31.7054 -31.6639 -31.6329 -31.4648 -31.4599 -31.2663
   -31.2403 -31.2226 -31.2206 -31.1253 -31.0646 -30.9975 -30.9931 -30.9068
   -17.3201 -16.3501 -16.1677 -15.8796 -15.8508 -15.7517 -15.7315 -15.6962
   -15.6536 -15.6395 -15.6083 -15.4263 -15.4045 -15.3996 -15.3509 -15.3088
   -15.2788 -15.2461 -15.2049 -15.1979 -15.1448 -15.1006 -15.0959 -15.0745
   -15.0489 -15.0335 -14.9047 -14.8082 -14.6265 -14.5271 -13.4210 -13.3437
   -11.5567  -8.2951  -5.0259  -3.9510  -3.8476  -3.6833  -3.4300  -3.3891
    -3.3459  -3.2315  -3.1509  -3.1016  -3.0653  -2.9875  -2.9389  -2.8864
    -2.8276  -2.8225  -2.7842  -2.7176  -2.6825  -2.6351  -2.6075  -2.5987
    -2.5746  -2.5481  -2.5215  -2.4946  -2.4638  -2.4271  -2.3531  -2.3332
    -2.2630  -2.1943  -2.1147  -2.0467  -2.0359  -1.9839  -1.8890  -1.8279
    -1.7719  -1.6866  -1.6300  -1.5749  -1.5461  -1.4396  -1.3665  -1.3052
    -1.2990  -1.2439  -1.2114  -1.1727  -1.1399  -1.0589  -1.0487  -1.0023
    -0.9460  -0.9100  -0.8753  -0.8166  -0.7594  -0.7523  -0.6841  -0.6656
    -0.6466  -0.5956  -0.5940  -0.5296  -0.4831  -0.4677  -0.4359  -0.3558
    -0.3233  -0.2680  -0.2237  -0.1923  -0.1455  -0.0971  -0.0485  -0.0084
     0.0691   0.1310   0.1466   0.2279   0.2886   0.3436   0.4193   0.4588
     0.5010   0.5294   0.5995   0.6689   0.7001   0.7301   0.8538   1.0353
     1.2240   1.3144   1.4068   1.5446   1.6047   3.0223   3.3714   3.4730
     3.6654   3.6781   3.7140   3.7525   3.7722   3.7830   3.8549   3.8733

          k = 0.0380-0.0839 0.0000 ( 17916 PWs)   bands (ev):

   -56.0053 -56.0031 -55.7895 -55.7747 -55.7095 -55.7020 -55.6454 -55.6420
   -55.6238 -55.6158 -55.5677 -55.4961 -55.2366 -54.9002 -54.9000 -54.7812
   -32.3037 -32.3028 -32.3010 -32.2993 -32.1508 -32.1387 -32.1294 -32.1271
   -32.0473 -32.0346 -32.0216 -32.0192 -32.0139 -32.0069 -31.9663 -31.9611
   -31.9558 -31.9548 -31.9095 -31.9066 -31.9026 -31.9002 -31.8882 -31.8717
   -31.8687 -31.8611 -31.8533 -31.8474 -31.8406 -31.8226 -31.8180 -31.8142
   -31.7936 -31.7913 -31.7604 -31.7048 -31.6034 -31.4645 -31.4601 -31.2497
   -31.2305 -31.2304 -31.1339 -31.1337 -31.0951 -31.0951 -30.9991 -30.9085
   -17.3124 -16.0395 -16.0088 -15.9080 -15.8937 -15.6990 -15.6791 -15.6610
   -15.6373 -15.5514 -15.5117 -15.4698 -15.4350 -15.4107 -15.3756 -15.3508
   -15.3444 -15.2645 -15.2597 -15.2491 -15.2263 -15.1523 -15.1425 -15.1093
   -15.0600 -15.0172 -14.9084 -14.8722 -14.6649 -14.6198 -13.4061 -13.4058
   -11.5543  -8.2934  -5.0235  -3.9218  -3.8427  -3.2756  -3.2395  -3.0878
    -3.0724  -3.0481  -3.0426  -3.0047  -2.9926  -2.9808  -2.9344  -2.8572
    -2.8191  -2.8087  -2.7843  -2.7363  -2.7282  -2.7127  -2.7046  -2.6580
    -2.6210  -2.5756  -2.5579  -2.5475  -2.4960  -2.4421  -2.4020  -2.3304
    -2.2792  -2.2476  -2.1103  -2.0008  -1.9122  -1.8926  -1.8424  -1.7491
    -1.7373  -1.7070  -1.6966  -1.6081  -1.5918  -1.5806  -1.5318  -1.4948
    -1.4700  -1.4341  -1.3623  -1.3008  -1.2629  -1.1590  -1.0826  -0.9687
    -0.9161  -0.8780  -0.8580  -0.8013  -0.7688  -0.6785  -0.6649  -0.6239
    -0.5985  -0.5658  -0.5531  -0.5343  -0.5163  -0.4862  -0.4738  -0.4256
    -0.3734  -0.3382  -0.2679  -0.2010  -0.1894  -0.1209  -0.0818  -0.0425
     0.0473   0.1291   0.1763   0.2036   0.2137   0.2673   0.3145   0.3299
     0.4094   0.4695   0.5226   0.5719   0.7088   0.8000   0.9166   1.0336
     1.0645   1.4599   1.4606   1.5475   1.5497   3.0171   3.5970   3.6022
     3.6840   3.7227   3.7825   3.7990   3.8063   3.8167   3.9201   3.9378

          k = 0.0380-0.0419 0.0000 ( 17876 PWs)   bands (ev):

   -56.0162 -55.9921 -55.7967 -55.7674 -55.7181 -55.6933 -55.6558 -55.6323
   -55.6315 -55.6072 -55.5696 -55.4940 -55.2369 -54.9121 -54.8881 -54.7809
   -32.4348 -32.3107 -32.2926 -32.2860 -32.1673 -32.1603 -32.1418 -32.1166
   -32.0956 -32.0826 -32.0796 -32.0199 -32.0025 -31.9922 -31.9698 -31.9598
   -31.9459 -31.9270 -31.9103 -31.8962 -31.8943 -31.8936 -31.8623 -31.8546
   -31.8534 -31.8440 -31.8413 -31.8402 -31.8305 -31.8172 -31.8030 -31.8004
   -31.7899 -31.7824 -31.7040 -31.6649 -31.6330 -31.4654 -31.4599 -31.2663
   -31.2403 -31.2223 -31.2206 -31.1253 -31.0646 -30.9975 -30.9931 -30.9068
   -17.3198 -16.3502 -16.1676 -15.8800 -15.8495 -15.7532 -15.7312 -15.6962
   -15.6539 -15.6401 -15.6085 -15.4271 -15.4041 -15.3992 -15.3513 -15.3080
   -15.2717 -15.2442 -15.2103 -15.1993 -15.1583 -15.1146 -15.0937 -15.0738
   -15.0360 -15.0196 -14.9081 -14.8101 -14.6248 -14.5270 -13.4210 -13.3437
   -11.5578  -8.2953  -5.0267  -3.9350  -3.8265  -3.6833  -3.4295  -3.3895
    -3.3436  -3.2312  -3.1397  -3.1096  -3.0744  -2.9875  -2.9394  -2.8888
    -2.8318  -2.8201  -2.7915  -2.7171  -2.6705  -2.6397  -2.6155  -2.5982
    -2.5795  -2.5661  -2.5136  -2.4995  -2.4631  -2.4386  -2.3501  -2.3282
    -2.3033  -2.1899  -2.1559  -2.0573  -2.0408  -2.0014  -1.8770  -1.8067
    -1.7672  -1.7067  -1.6367  -1.5916  -1.5332  -1.4097  -1.3836  -1.3036
    -1.2926  -1.2632  -1.1935  -1.1696  -1.1379  -1.0633  -1.0359  -1.0068
    -0.9373  -0.9193  -0.8527  -0.8021  -0.7710  -0.7265  -0.6914  -0.6676
    -0.6324  -0.5949  -0.5416  -0.5290  -0.5012  -0.4439  -0.4081  -0.3484
    -0.2942  -0.2589  -0.2144  -0.1823  -0.1253  -0.0921  -0.0506  -0.0024
     0.0298   0.1208   0.1682   0.2481   0.2843   0.3289   0.3887   0.4686
     0.4944   0.5233   0.5673   0.6201   0.6889   0.7305   0.8279   1.0401
     1.2217   1.3143   1.4062   1.5443   1.6052   3.0184   3.3725   3.4738
     3.6669   3.6871   3.6988   3.7487   3.7648   3.7892   3.8613   3.8751

          k =-0.0760-0.0000 0.0000 ( 17886 PWs)   bands (ev):

   -56.0211 -55.9872 -55.8014 -55.7626 -55.7228 -55.6885 -55.6608 -55.6372
   -55.6265 -55.6024 -55.5715 -55.4921 -55.2371 -54.9170 -54.8831 -54.7806
   -32.4895 -32.3439 -32.3151 -32.2918 -32.1905 -32.1753 -32.1710 -32.1373
   -32.1104 -32.0960 -32.0824 -32.0199 -32.0063 -31.9789 -31.9574 -31.9394
   -31.9277 -31.9236 -31.9200 -31.9157 -31.8808 -31.8804 -31.8664 -31.8616
   -31.8558 -31.8373 -31.8336 -31.8220 -31.8167 -31.7936 -31.7918 -31.7885
   -31.7736 -31.7500 -31.6932 -31.6540 -31.6123 -31.4682 -31.4606 -31.3198
   -31.2475 -31.2153 -31.1999 -31.1378 -31.0518 -30.9869 -30.9404 -30.9053
   -17.3251 -16.3782 -16.1832 -15.9419 -15.9205 -15.7848 -15.7639 -15.7530
   -15.7251 -15.6065 -15.5825 -15.5689 -15.5418 -15.4538 -15.3409 -15.3052
   -15.2588 -15.2314 -15.1893 -15.1435 -15.1340 -15.1317 -15.0669 -14.9958
   -14.9332 -14.9315 -14.8908 -14.7628 -14.5941 -14.4522 -13.4123 -13.3029
   -11.5660  -8.2888  -5.0375  -3.9366  -3.8442  -3.8165  -3.4941  -3.4069
    -3.3232  -3.2373  -3.2293  -3.2247  -3.1904  -3.0717  -3.0614  -3.0187
    -2.8769  -2.8309  -2.6824  -2.6394  -2.6066  -2.5821  -2.5422  -2.4758
    -2.4443  -2.4205  -2.4188  -2.3256  -2.2930  -2.2157  -2.2109  -2.1642
    -2.1396  -2.1114  -2.0890  -2.0308  -2.0026  -1.9423  -1.8702  -1.8466
    -1.7361  -1.6719  -1.6341  -1.5546  -1.5024  -1.5001  -1.4483  -1.4389
    -1.4317  -1.4073  -1.3688  -1.3279  -1.2672  -1.1993  -1.1671  -1.0660
    -1.0526  -1.0115  -1.0002  -0.9812  -0.9520  -0.8561  -0.6304  -0.5969
    -0.5520  -0.5290  -0.5079  -0.4944  -0.4841  -0.4361  -0.3058  -0.2782
    -0.2644  -0.2196  -0.1801  -0.1099  -0.0791  -0.0608  -0.0177   0.0064
     0.0201   0.1070   0.1814   0.2065   0.3190   0.3511   0.3794   0.4687
     0.5484   0.5887   0.6598   0.7023   0.7538   0.7961   0.9829   1.0196
     1.1094   1.1379   1.2580   1.4311   1.5714   2.9772   3.2373   3.2780
     3.4578   3.5222   3.6082   3.6458   3.7095   3.7284   3.8308   3.8825

          k =-0.0760 0.0419 0.0000 ( 17914 PWs)   bands (ev):

   -56.0162 -55.9922 -55.7967 -55.7674 -55.7181 -55.6933 -55.6559 -55.6324
   -55.6315 -55.6072 -55.5697 -55.4941 -55.2369 -54.9121 -54.8881 -54.7809
   -32.4357 -32.3108 -32.2927 -32.2863 -32.1675 -32.1584 -32.1422 -32.1236
   -32.0956 -32.0860 -32.0822 -32.0050 -32.0024 -31.9921 -31.9618 -31.9594
   -31.9272 -31.9217 -31.9118 -31.9095 -31.8966 -31.8833 -31.8680 -31.8619
   -31.8546 -31.8517 -31.8463 -31.8404 -31.8300 -31.8172 -31.8049 -31.8022
   -31.7901 -31.7802 -31.7041 -31.6657 -31.6314 -31.4672 -31.4600 -31.2661
   -31.2429 -31.2226 -31.2200 -31.1254 -31.0646 -30.9975 -30.9932 -30.9073
   -17.3183 -16.2564 -16.0745 -15.8442 -15.8238 -15.7465 -15.7113 -15.6749
   -15.6564 -15.6534 -15.6326 -15.5223 -15.4768 -15.4439 -15.3309 -15.2907
   -15.2542 -15.2492 -15.2387 -15.2176 -15.1938 -15.1835 -15.1631 -15.0431
   -15.0246 -15.0079 -14.9038 -14.8129 -14.6211 -14.5283 -13.4190 -13.3440
   -11.5620  -8.2869  -5.0323  -3.9231  -3.8300  -3.6698  -3.3330  -3.1620
    -3.1071  -3.0350  -3.0100  -2.9480  -2.9362  -2.9192  -2.8947  -2.8659
    -2.8323  -2.7977  -2.7623  -2.7005  -2.6740  -2.6402  -2.5925  -2.5741
    -2.5493  -2.5280  -2.5155  -2.4797  -2.4414  -2.4330  -2.3356  -2.3179
    -2.2026  -2.1198  -2.0541  -1.9963  -1.9628  -1.9190  -1.8970  -1.8200
    -1.7789  -1.7552  -1.6021  -1.5421  -1.4881  -1.4661  -1.4082  -1.3893
    -1.3753  -1.3081  -1.2506  -1.2237  -1.2046  -1.1812  -1.1484  -1.0970
    -1.0900  -1.0264  -0.9901  -0.9614  -0.9312  -0.8641  -0.8218  -0.7733
    -0.7324  -0.6900  -0.6386  -0.6222  -0.6085  -0.5422  -0.5179  -0.4673
    -0.4174  -0.3556  -0.2997  -0.2943  -0.1630  -0.1430  -0.1019  -0.0688
    -0.0165   0.1105   0.1867   0.3086   0.3989   0.4339   0.4948   0.5241
     0.5412   0.5803   0.6182   0.6798   0.6960   0.7434   0.7847   1.0048
     1.0793   1.3285   1.4126   1.4699   1.5936   2.9896   3.3594   3.4755
     3.5339   3.6208   3.6589   3.6844   3.7292   3.8793   3.9518   3.9638

          k =-0.0760-0.0839 0.0000 ( 17948 PWs)   bands (ev):

   -56.0053 -56.0032 -55.7895 -55.7747 -55.7094 -55.7020 -55.6455 -55.6420
   -55.6238 -55.6159 -55.5677 -55.4961 -55.2367 -54.9002 -54.9001 -54.7812
   -32.3043 -32.3033 -32.3012 -32.2994 -32.1511 -32.1390 -32.1283 -32.1260
   -32.0475 -32.0348 -32.0247 -32.0217 -32.0146 -32.0114 -31.9686 -31.9631
   -31.9530 -31.9409 -31.9093 -31.9006 -31.8884 -31.8839 -31.8791 -31.8779
   -31.8718 -31.8689 -31.8535 -31.8476 -31.8407 -31.8385 -31.8335 -31.8143
   -31.7936 -31.7915 -31.7609 -31.7025 -31.6030 -31.4664 -31.4602 -31.2498
   -31.2314 -31.2313 -31.1339 -31.1337 -31.0952 -31.0951 -30.9991 -30.9089
   -17.3114 -15.9734 -15.9450 -15.8388 -15.8194 -15.7301 -15.7169 -15.6024
   -15.5945 -15.5813 -15.5151 -15.4700 -15.4593 -15.3756 -15.3496 -15.3378
   -15.3141 -15.3043 -15.2977 -15.2867 -15.2734 -15.1950 -15.1897 -15.1861
   -15.1108 -15.0889 -14.9016 -14.8586 -14.6607 -14.6163 -13.4059 -13.4056
   -11.5581  -8.2851  -5.0276  -3.9145  -3.8433  -3.2755  -3.2394  -3.0247
    -2.9981  -2.9777  -2.9492  -2.7640  -2.7501  -2.7441  -2.7265  -2.7133
    -2.6760  -2.6571  -2.6444  -2.5788  -2.5690  -2.5487  -2.5440  -2.5337
    -2.5148  -2.4999  -2.4921  -2.4723  -2.4568  -2.4132  -2.3580  -2.3352
    -2.2849  -2.1903  -2.0869  -2.0411  -2.0279  -2.0197  -1.9965  -1.9874
    -1.9463  -1.9334  -1.8478  -1.6636  -1.6173  -1.5554  -1.5492  -1.5366
    -1.4831  -1.4264  -1.3902  -1.3128  -1.2483  -1.1912  -1.1612  -1.1367
    -1.1023  -1.0360  -0.9684  -0.9479  -0.9369  -0.9084  -0.9049  -0.8859
    -0.8081  -0.7233  -0.6845  -0.6530  -0.6306  -0.6164  -0.6011  -0.5784
    -0.4719  -0.4029  -0.3551  -0.3089  -0.2659  -0.2247  -0.1066  -0.0917
     0.1026   0.1683   0.1935   0.2723   0.3694   0.3946   0.4047   0.4701
     0.5450   0.6082   0.6430   0.6975   0.7122   0.7333   0.8006   1.0090
     1.0704   1.4792   1.4808   1.5297   1.5306   2.9892   3.6733   3.6804
     3.6837   3.6938   3.7150   3.7385   3.7913   3.8259   3.9264   3.9472

     the Fermi energy is     3.1366 ev

!    total energy              =   -2940.35206428 Ry
     estimated scf accuracy    <       0.00000005 Ry
     smearing contrib. (-TS)   =      -0.01866378 Ry
     internal energy E=F+TS    =   -2940.33340050 Ry

     The total energy is F=E-TS. E is the sum of the following terms:
     one-electron contribution =  -24664.40970019 Ry
     hartree contribution      =   12421.36730955 Ry
     xc contribution           =    -486.04813968 Ry
     ewald contribution        =    9788.75609571 Ry
     electric field correction =       0.00103410 Ry

     convergence has been achieved in  77 iterations

     Forces acting on atoms (cartesian axes, Ry/au):

     atom    1 type  1   force =     0.00026723   -0.00036508    0.10152216
     atom    2 type  1   force =     0.00003481   -0.00086371   -0.17137421
     atom    3 type  2   force =     0.00029209    0.00021907   -0.03324821
     atom    4 type  2   force =     0.00003358   -0.00078374    0.04480912
     atom    5 type  2   force =    -0.01194837   -0.00020596   -0.00233678
     atom    6 type  2   force =     0.01438490    0.00038653   -0.00113827
     atom    7 type  1   force =     0.00140316   -0.00128674   -0.00425711
     atom    8 type  1   force =    -0.00077993    0.02219532    0.05624889
     atom    9 type  2   force =     0.00003418   -0.00032134    0.00041103
     atom   10 type  2   force =    -0.00266251    0.00207637   -0.02598827
     atom   11 type  2   force =     0.00002551    0.00024434   -0.00008104
     atom   12 type  2   force =     0.00008586    0.00074628   -0.00001047
     atom   13 type  1   force =    -0.00005412    0.00013868    0.00035298
     atom   14 type  1   force =     0.00027947    0.00027783    0.00004715
     atom   15 type  2   force =     0.00014941   -0.00013035   -0.00011435
     atom   16 type  2   force =    -0.00003368   -0.00012665    0.00069652
     atom   17 type  2   force =    -0.00016237   -0.00093708   -0.00001428
     atom   18 type  2   force =     0.00058153   -0.00072973    0.00028975
     atom   19 type  1   force =    -0.00008739   -0.00042967    0.00015284
     atom   20 type  1   force =     0.00015075    0.00003601   -0.00026356
     atom   21 type  2   force =     0.00006919   -0.00000775    0.10212676
     atom   22 type  2   force =    -0.00001851   -0.00012283    0.00044402
     atom   23 type  2   force =    -0.07328098   -0.00015430   -0.02888978
     atom   24 type  2   force =     0.07323750    0.00033707   -0.02893932
     atom   25 type  1   force =    -0.00029394   -0.00032828    0.10195405
     atom   26 type  1   force =     0.00002128   -0.00016957   -0.17138053
     atom   27 type  2   force =     0.00036501   -0.00022970   -0.03197950
     atom   28 type  2   force =     0.00009285   -0.00057021    0.04542489
     atom   29 type  2   force =    -0.01209896    0.00213325   -0.00288987
     atom   30 type  2   force =     0.01441402    0.00229240   -0.00163769
     atom   31 type  1   force =     0.00159572    0.00092727   -0.00558660
     atom   32 type  1   force =    -0.00059012   -0.02475314    0.05729715
     atom   33 type  2   force =     0.00015191    0.00035932    0.00056778
     atom   34 type  2   force =    -0.00420357    0.00212267   -0.04836840
     atom   35 type  2   force =     0.00062367   -0.00058706   -0.00001785
     atom   36 type  2   force =    -0.00040645   -0.00074686    0.00011802
     atom   37 type  1   force =     0.00006202    0.00060209    0.00008051
     atom   38 type  1   force =     0.00001328   -0.00013767   -0.00005565
     atom   39 type  2   force =     0.00018043   -0.00004564   -0.00074197
     atom   40 type  2   force =    -0.00008620   -0.00003129   -0.00043085
     atom   41 type  2   force =    -0.00040704    0.00091232   -0.00048070
     atom   42 type  2   force =     0.00010076    0.00037450    0.00074376
     atom   43 type  1   force =    -0.00018888   -0.00022814    0.00009962
     atom   44 type  1   force =     0.00097435    0.00055994   -0.00113042
     atom   45 type  2   force =     0.00004815   -0.00005208    0.10218006
     atom   46 type  2   force =    -0.07329284   -0.00009814   -0.02886524
     atom   47 type  2   force =     0.07324553    0.00028100   -0.02889981
     atom   48 type  3   force =     0.00251366   -0.00180614   -0.00287776
     atom   49 type  4   force =    -0.00149726   -0.00019678    0.00018860
     atom   50 type  5   force =    -0.00012707   -0.00008236   -0.00003280
     atom   51 type  5   force =    -0.00050973   -0.00051123    0.00060951
     atom   52 type  5   force =    -0.00033902   -0.00043351    0.00002885
     atom   53 type  3   force =     0.00012171    0.00555151    0.01663968
     atom   54 type  5   force =    -0.00248457   -0.00530102   -0.01100244

     Total force =     0.378433     Total SCF correction =     0.000623
  @ DRIVER MODE: Message from server: STATUS
  @ DRIVER MODE: Message from server: GETFORCE
  @ DRIVER MODE: Returning v,forces,stress,ensemble 

     Writing output data file ./calc.save/
  @ DRIVER MODE: Message from server: EXIT
  @ DRIVE MODE: Exiting  
 
     init_run     :      7.29s CPU      7.42s WALL (       1 calls)
     electrons    :    950.91s CPU    966.17s WALL (       1 calls)
     forces       :      2.26s CPU      2.90s WALL (       1 calls)

     Called by init_run:
     wfcinit      :      3.29s CPU      3.33s WALL (       1 calls)
     potinit      :      3.54s CPU      3.59s WALL (       1 calls)
     hinit0       :      0.19s CPU      0.20s WALL (       1 calls)

     Called by electrons:
     c_bands      :    815.44s CPU    824.89s WALL (      77 calls)
     sum_band     :     97.00s CPU     99.20s WALL (      77 calls)
     v_of_rho     :     26.97s CPU     27.67s WALL (      78 calls)
     newd         :     12.08s CPU     14.82s WALL (      78 calls)
     mix_rho      :      1.71s CPU      1.74s WALL (      77 calls)
     vdW_kernel   :      3.03s CPU      3.04s WALL (       1 calls)

     Called by c_bands:
     init_us_2    :      5.23s CPU      5.27s WALL (    1560 calls)
     cegterg      :    801.18s CPU    810.31s WALL (     780 calls)

     Called by *egterg:
     cdiaghg      :    196.56s CPU    199.88s WALL (    6588 calls)
     h_psi        :    395.66s CPU    400.28s WALL (    6598 calls)
     s_psi        :     43.63s CPU     43.78s WALL (    6598 calls)
     g_psi        :      1.07s CPU      1.08s WALL (    5808 calls)

     Called by h_psi:
     h_psi:calbec :     43.94s CPU     44.10s WALL (    6598 calls)
     vloc_psi     :    305.80s CPU    310.10s WALL (    6598 calls)
     add_vuspsi   :     44.34s CPU     44.49s WALL (    6598 calls)

     General routines
     calbec       :     59.50s CPU     60.05s WALL (    7408 calls)
     fft          :     15.05s CPU     15.19s WALL (    4914 calls)
     ffts         :      0.21s CPU      0.23s WALL (     155 calls)
     fftw         :    355.00s CPU    359.67s WALL (  996832 calls)
     interpolate  :      0.46s CPU      0.51s WALL (      78 calls)
     davcio       :      0.00s CPU      0.13s WALL (      10 calls)
 
     Parallel routines
 
     PWSCF        :  16m 4.05s CPU  16m22.23s WALL

 
   This run was terminated on:  21:47:34   2Aug2021            

=------------------------------------------------------------------------------=
   JOB DONE.
=------------------------------------------------------------------------------=
