
     Program PWSCF v.6.7GPU starts on 18Oct2021 at 12:21:35 

     This program is part of the open-source Quantum ESPRESSO suite
     for quantum simulation of materials; please cite
         "P. Giannozzi et al., J. Phys.:Condens. Matter 21 395502 (2009);
         "P. Giannozzi et al., J. Phys.:Condens. Matter 29 465901 (2017);
         "P. Giannozzi et al., J. Chem. Phys. 152 154105 (2020);
          URL http://www.quantum-espresso.org", 
     in publications or presentations arising from this work. More details at
     http://www.quantum-espresso.org/quote

     Parallel version (MPI), running on     8 processors

     MPI processes distributed on     1 nodes
     R & G space division:  proc/nbgrp/npool/nimage =       8
     Reading input from /storage/home/hcoda1/3/ntian30/research/carbon/CxH_vib/Thiel_calc/ads_slab/NH2NHH_perslab/out_0002/pw.inp
Warning: card &CELL ignored
Warning: card   CELL_DYNAMICS='IPI', ignored
Warning: card / ignored

     Current dimensions of program PWSCF are:
     Max number of different atomic species (ntypx) = 10
     Max number of k-points (npk) =  40000
     Max angular momentum in pseudopotentials (lmaxx) =  3
     Presently no symmetry can be used with electric field

     Message from routine cell_base_init:
     DEPRECATED: use true lattice parameter, not A to a.u. conversion factor

     **************************************************************************
     Initializing libbeef V0.1.2 with the BEEF-vdW functional.
     Citation: Wellendorff et al., PRB 85, 235149 (2012).
     **************************************************************************


     IMPORTANT: XC functional enforced from input :
     Exchange-correlation= BEEF-VDW
                           (   1   4  43  14   2   0   0)
     Any further DFT definition will be discarded
     Please, verify this is what you really want


     Subspace diagonalization in iterative solution of the eigenvalue problem:
     one sub-group per band group will be used
     scalapack distributed-memory algorithm (size of sub-group:  2*  2 procs)

  @ DRIVER MODE: Connecting to 
 qe_1139763_3255134.sched-torque.pace.gatech.educ1kcqyj9_scratch
  using UNIX socket
  @ DRIVER MODE: Message from server: STATUS
  @ DRIVER MODE: Message from server: INIT
  @ DRIVER MODE: Receiving replica           0          -1
  @ DRIVER MODE: Receiving encoded integer          25
  @ DRIVER MODE:  SCF:  T  FORCE:  T  STRESS:  F  VC:  F  ENSEMBLE:  F
  @ DRIVER MODE:  SCF:  T  FORCE:  T  STRESS:  F  VC:  F  ENSEMBLE:  F
 
     Parallelization info
     --------------------
     sticks:   dense  smooth     PW     G-vecs:    dense   smooth      PW
     Min         614     246     69               106272    26887    3981
     Max         615     248     70               106275    26893    3990
     Sum        4915    1977    553               850181   215109   31863
 
     Using Slab Decomposition
 


     bravais-lattice index     =            0
     lattice parameter (alat)  =       1.8897  a.u.
     unit-cell volume          =    9988.4706 (a.u.)^3
     number of atoms/cell      =           59
     number of atomic types    =            4
     number of electrons       =       440.00
     number of Kohn-Sham states=          230
     kinetic-energy cutoff     =      29.3995  Ry
     charge density cutoff     =     293.9946  Ry
     scf convergence threshold =      7.3E-08
     mixing beta               =       0.0500
     number of iterations used =            8  plain     mixing
     Exchange-correlation= BEEF-VDW
                           (   1   4  43  14   2   0   0)

     celldm(1)=   1.889726  celldm(2)=   0.000000  celldm(3)=   0.000000
     celldm(4)=   0.000000  celldm(5)=   0.000000  celldm(6)=   0.000000

     crystal axes: (cart. coord. in units of alat)
               a(1) = (   6.579727   0.000000   0.000000 )  
               a(2) = (  -0.001163   8.942395   0.000000 )  
               a(3) = (   0.000000   0.000000  25.155947 )  

     reciprocal axes: (cart. coord. in units 2 pi/alat)
               b(1) = (  0.151982  0.000020  0.000000 )  
               b(2) = (  0.000000  0.111827  0.000000 )  
               b(3) = (  0.000000  0.000000  0.039752 )  


     PseudoPot. # 1 for O  read from file:
     /storage/coda1/p-amedford6/0/shared/rich_project_chbe-medford/medford-share/data/pseudos_module/espresso/nninc/pbe/van/O.UPF
     MD5 check sum: 78c19812648e8988a0fe644b0f25305e
     Pseudo is Ultrasoft, Zval =  6.0
     Generated by new atomic code, or converted to UPF format
     Using radial grid of  737 points,  4 beta functions with: 
                l(1) =   0
                l(2) =   0
                l(3) =   1
                l(4) =   1
     Q(r) pseudized with  8 coefficients,  rinner =    0.800   0.800   0.800


     PseudoPot. # 2 for Ti read from file:
     /storage/coda1/p-amedford6/0/shared/rich_project_chbe-medford/medford-share/data/pseudos_module/espresso/nninc/pbe/van/Ti.UPF
     MD5 check sum: 8e4df49b7f0d34bbd5052bf3f5ea0213
     Pseudo is Ultrasoft, Zval = 12.0
     Generated by new atomic code, or converted to UPF format
     Using radial grid of  851 points,  6 beta functions with: 
                l(1) =   0
                l(2) =   0
                l(3) =   1
                l(4) =   1
                l(5) =   2
                l(6) =   2
     Q(r) pseudized with  8 coefficients,  rinner =    1.000   1.000   1.000
                                                       1.000   1.000

     PseudoPot. # 3 for H  read from file:
     /storage/coda1/p-amedford6/0/shared/rich_project_chbe-medford/medford-share/data/pseudos_module/espresso/nninc/pbe/van/H.UPF
     MD5 check sum: b5ee9d7bfd3a09ee7748110bda690ff7
     Pseudo is Ultrasoft, Zval =  1.0
     Generated by new atomic code, or converted to UPF format
     Using radial grid of  615 points,  1 beta functions with: 
                l(1) =   0
     Q(r) pseudized with  8 coefficients,  rinner =    0.800

     PseudoPot. # 4 for N  read from file:
     /storage/coda1/p-amedford6/0/shared/rich_project_chbe-medford/medford-share/data/pseudos_module/espresso/nninc/pbe/van/N.UPF
     MD5 check sum: 90d10febe142ad51ac9d5be1deb811c4
     Pseudo is Ultrasoft, Zval =  5.0
     Generated by new atomic code, or converted to UPF format
     Using radial grid of  729 points,  4 beta functions with: 
                l(1) =   0
                l(2) =   0
                l(3) =   1
                l(4) =   1
     Q(r) pseudized with  8 coefficients,  rinner =    0.800   0.800   0.800


     atomic species   valence    mass     pseudopotential
        O1             6.00    15.99900     O ( 1.00)
        Ti1           12.00    47.86700     Ti( 1.00)
        H1             1.00     1.00800     H ( 1.00)
        N1             5.00    14.00700     N ( 1.00)

     No symmetry found



   Cartesian axes

     site n.     atom                  positions (alat units)
         1           O1  tau(   1) = (   0.0007354   0.0005023  10.5931620  )
         2           O1  tau(   2) = (   3.2887669   8.9343558  13.7857904  )
         3           O1  tau(   3) = (  -0.0004435   8.9037079  17.1656601  )
         4           O1  tau(   4) = (   0.0006271   0.0005054   7.9858123  )
         5           O1  tau(   5) = (   3.2907596   0.0056730  11.1454013  )
         6           O1  tau(   6) = (   0.0000918   8.9024801  14.5153886  )
         7           O1  tau(   7) = (   1.9868534   1.4903216   9.2879459  )
         8           O1  tau(   8) = (   5.2129768   1.5767634  12.5412193  )
         9           O1  tau(   9) = (   2.0410104   1.4081166  15.9738913  )
        10           Ti1 tau(  10) = (   0.0007404   1.4906270   9.2895810  )
        11           Ti1 tau(  11) = (   3.2923993   1.3029312  12.4395176  )
        12           Ti1 tau(  12) = (   6.5786190   1.6682186  16.0479855  )
        13           O1  tau(  13) = (   4.5942328   1.4918067   9.2879030  )
        14           O1  tau(  14) = (   1.3693608   1.5763615  12.5409223  )
        15           O1  tau(  15) = (   4.5388119   1.4066068  15.9736107  )
        16           Ti1 tau(  16) = (   3.2902859   2.9801868   9.2893338  )
        17           Ti1 tau(  17) = (   0.0025983   2.7818652  12.5490862  )
        18           Ti1 tau(  18) = (   3.2890997   3.0957086  15.6341045  )
        19           O1  tau(  19) = (   0.0003479   2.9813005  10.5931620  )
        20           O1  tau(  20) = (   3.2906043   2.9558292  13.7911244  )
        21           O1  tau(  21) = (   0.0002396   2.9813036   7.9858123  )
        22           O1  tau(  22) = (   3.2907828   2.9846389  11.1656624  )
        23           O1  tau(  23) = (   0.0000664   2.9755257  14.5967958  )
        24           O1  tau(  24) = (   1.9864658   4.4711199   9.2879459  )
        25           O1  tau(  25) = (   5.2254851   4.5442098  12.5530165  )
        26           O1  tau(  26) = (   2.0413797   4.3804877  15.9810922  )
        27           Ti1 tau(  27) = (   0.0003529   4.4714252   9.2895810  )
        28           Ti1 tau(  28) = (   3.2927641   4.3249026  12.5337624  )
        29           Ti1 tau(  29) = (  -0.0001393   4.3779101  16.0758329  )
        30           O1  tau(  30) = (   4.5938453   4.4726049   9.2879030  )
        31           O1  tau(  31) = (   1.3554856   4.5423027  12.5528228  )
        32           O1  tau(  32) = (   4.5375453   4.3808357  15.9816482  )
        33           Ti1 tau(  33) = (   3.2898983   5.9609850   9.2893338  )
        34           Ti1 tau(  34) = (   0.0022780   5.7553130  12.5179661  )
        35           Ti1 tau(  35) = (   3.2911749   6.0723021  16.2828521  )
        36           O1  tau(  36) = (  -0.0000397   5.9620987  10.5931620  )
        37           O1  tau(  37) = (   3.2898444   5.9099340  13.7874885  )
        38           O1  tau(  38) = (  -0.0002305   5.9963729  17.1613877  )
        39           O1  tau(  39) = (  -0.0001480   5.9621018   7.9858123  )
        40           O1  tau(  40) = (   3.2898933   5.9403142  11.1650959  )
        41           O1  tau(  41) = (   0.0001730   6.0398540  14.5337486  )
        42           O1  tau(  42) = (   1.9860782   7.4519181   9.2879459  )
        43           O1  tau(  43) = (   5.2203866   7.5240042  12.5266709  )
        44           O1  tau(  44) = (   2.0308607   7.4363189  15.9936472  )
        45           Ti1 tau(  45) = (  -0.0000347   7.4522234   9.2895810  )
        46           Ti1 tau(  46) = (   3.2897547   7.2013570  12.5904776  )
        47           Ti1 tau(  47) = (  -0.0001197   7.5007381  15.6461876  )
        48           O1  tau(  48) = (   4.5934577   7.4534031   9.2879030  )
        49           O1  tau(  49) = (   1.3580612   7.5226468  12.5263262  )
        50           O1  tau(  50) = (   4.5486487   7.4363691  15.9933312  )
        51           Ti1 tau(  51) = (   3.2895107   8.9417832   9.2893338  )
        52           Ti1 tau(  52) = (  -0.0005051   8.7269297  12.4809553  )
        53           Ti1 tau(  53) = (   3.2886672   0.0795926  15.6360096  )
        54           H1  tau(  54) = (   0.0086751   6.0277306  18.1241331  )
        55           H1  tau(  55) = (   6.5784455   8.8634660  18.1266539  )
        56           N1  tau(  56) = (   6.5791914   3.0063145  17.2269018  )
        57           N1  tau(  57) = (   3.2902358   5.9939226  18.1904466  )
        58           H1  tau(  58) = (   3.2886139   5.1344262  18.7255412  )
        59           H1  tau(  59) = (   3.2892998   6.7958846  18.8069972  )

     number of k points=    10  Fermi-Dirac smearing, width (Ry)=  0.0073
                       cart. coord. in units 2pi/alat
        k(    1) = (   0.0000000   0.0000000   0.0000000), wk =   0.1250000
        k(    2) = (   0.0000000   0.0279567   0.0000000), wk =   0.2500000
        k(    3) = (   0.0000000  -0.0559134   0.0000000), wk =   0.1250000
        k(    4) = (   0.0379955   0.0000049   0.0000000), wk =   0.2500000
        k(    5) = (   0.0379955   0.0279617   0.0000000), wk =   0.2500000
        k(    6) = (   0.0379955  -0.0559085   0.0000000), wk =   0.2500000
        k(    7) = (   0.0379955  -0.0279518   0.0000000), wk =   0.2500000
        k(    8) = (  -0.0759910  -0.0000099   0.0000000), wk =   0.1250000
        k(    9) = (  -0.0759910   0.0279468   0.0000000), wk =   0.2500000
        k(   10) = (  -0.0759910  -0.0559233   0.0000000), wk =   0.1250000

     Dense  grid:   850181 G-vectors     FFT dimensions: (  72,  96, 270)

     Smooth grid:   215109 G-vectors     FFT dimensions: (  45,  60, 180)

     Estimated max dynamical RAM per process >     706.31 MB

     Estimated total dynamical RAM >       5.52 GB
     Cannot read rho : file not found

     Initial potential from superposition of free atoms

     starting charge  421.99910, renormalised to  440.00000

     negative rho (up, down):  3.748E-02 0.000E+00


     %%%%%%%%%%%%%%%%%%%%%%%%%%%%%%%%%%%%%%%%%%%%%%%%%%%%%%%%%%%%%%%%%%%%%%%%
     %                                                                      %
     % You are using vdW-DF, which was implemented by the Thonhauser group. %
     % Please cite the following two papers that made this development      %
     % possible and the two reviews that describe the various versions:     %
     %                                                                      %
     %   T. Thonhauser et al., PRL 115, 136402 (2015).                      %
     %   T. Thonhauser et al., PRB 76, 125112 (2007).                       %
     %   K. Berland et al., Rep. Prog. Phys. 78, 066501 (2015).             %
     %   D.C. Langreth et al., J. Phys.: Condens. Matter 21, 084203 (2009). %
     %                                                                      %
     %                                                                      %
     % If you are calculating the stress with vdW-DF, please also cite:     %
     %                                                                      %
     %   R. Sabatini et al., J. Phys.: Condens. Matter 24, 424209 (2012).   %
     %                                                                      %
     %%%%%%%%%%%%%%%%%%%%%%%%%%%%%%%%%%%%%%%%%%%%%%%%%%%%%%%%%%%%%%%%%%%%%%%%


 
     Adding external electric field

     Computed dipole along edir(3) : 
        Dipole               -3.9322 Ry au,         -9.9948 Debye
        Dipole field         -0.0049 Ry au, 
 
        Potential amp.        0.4586 Ry
        Total length         46.3494 bohr
 
     Starting wfcs are  332 atomic wfcs
  @ DRIVER MODE: Message from server: STATUS
  @ DRIVER MODE: Message from server: POSDATA
  @ DRIVER MODE: Reading and sharing cell 
  @ DRIVER MODE: Reading and sharing positions 
  @ DRIVER MODE: Received positions 

     total cpu time spent up to now is       18.5 secs

     Self-consistent Calculation

     iteration #  1     ecut=    29.40 Ry     beta= 0.05
     Davidson diagonalization with overlap
     c_bands:  2 eigenvalues not converged
     c_bands:  3 eigenvalues not converged
     c_bands:  5 eigenvalues not converged
     c_bands:  4 eigenvalues not converged
     c_bands:  1 eigenvalues not converged
     c_bands:  4 eigenvalues not converged
     c_bands:  5 eigenvalues not converged
     c_bands:  3 eigenvalues not converged
     c_bands:  3 eigenvalues not converged
     ethr =  1.00E-05,  avg # of iterations = 19.8

     negative rho (up, down):  3.707E-02 0.000E+00
 
     Adding external electric field

     Computed dipole along edir(3) : 
        Dipole               -1.5455 Ry au,         -3.9283 Debye
        Dipole field         -0.0019 Ry au, 
 
        Potential amp.        0.1802 Ry
        Total length         46.3494 bohr
 

     total cpu time spent up to now is       92.5 secs

     total energy              =   -3294.69841464 Ry
     estimated scf accuracy    <      19.95555391 Ry

     iteration #  2     ecut=    29.40 Ry     beta= 0.05
     Davidson diagonalization with overlap
     ethr =  4.54E-03,  avg # of iterations =  1.4

     negative rho (up, down):  3.677E-02 0.000E+00
 
     Adding external electric field

     Computed dipole along edir(3) : 
        Dipole               -0.2666 Ry au,         -0.6776 Debye
        Dipole field         -0.0003 Ry au, 
 
        Potential amp.        0.0311 Ry
        Total length         46.3494 bohr
 

     total cpu time spent up to now is      112.9 secs

     total energy              =   -3293.69540616 Ry
     estimated scf accuracy    <      10.86173330 Ry

     iteration #  3     ecut=    29.40 Ry     beta= 0.05
     Davidson diagonalization with overlap
     ethr =  2.47E-03,  avg # of iterations =  3.6

     negative rho (up, down):  3.743E-02 0.000E+00
 
     Adding external electric field

     Computed dipole along edir(3) : 
        Dipole                2.2126 Ry au,          5.6238 Debye
        Dipole field          0.0028 Ry au, 
 
        Potential amp.       -0.2580 Ry
        Total length         46.3494 bohr
 

     total cpu time spent up to now is      134.5 secs

     total energy              =   -3291.97945652 Ry
     estimated scf accuracy    <       5.73497922 Ry

     iteration #  4     ecut=    29.40 Ry     beta= 0.05
     Davidson diagonalization with overlap
     c_bands:  2 eigenvalues not converged
     c_bands:  1 eigenvalues not converged
     c_bands:  3 eigenvalues not converged
     c_bands:  1 eigenvalues not converged
     c_bands:  2 eigenvalues not converged
     c_bands:  2 eigenvalues not converged
     c_bands:  2 eigenvalues not converged
     c_bands:  5 eigenvalues not converged
     ethr =  1.30E-03,  avg # of iterations = 20.6

     negative rho (up, down):  3.692E-02 0.000E+00
 
     Adding external electric field

     Computed dipole along edir(3) : 
        Dipole                2.3946 Ry au,          6.0863 Debye
        Dipole field          0.0030 Ry au, 
 
        Potential amp.       -0.2793 Ry
        Total length         46.3494 bohr
 

     total cpu time spent up to now is      177.3 secs

     total energy              =   -3293.69923028 Ry
     estimated scf accuracy    <      44.15215445 Ry

     iteration #  5     ecut=    29.40 Ry     beta= 0.05
     Davidson diagonalization with overlap
     c_bands:  1 eigenvalues not converged
     ethr =  1.30E-03,  avg # of iterations =  6.6

     negative rho (up, down):  3.664E-02 0.000E+00
 
     Adding external electric field

     Computed dipole along edir(3) : 
        Dipole                2.4699 Ry au,          6.2779 Debye
        Dipole field          0.0031 Ry au, 
 
        Potential amp.       -0.2880 Ry
        Total length         46.3494 bohr
 

     total cpu time spent up to now is      201.0 secs

     total energy              =   -3293.91097966 Ry
     estimated scf accuracy    <      74.08279698 Ry

     iteration #  6     ecut=    29.40 Ry     beta= 0.05
     Davidson diagonalization with overlap
     ethr =  1.30E-03,  avg # of iterations =  1.5

     negative rho (up, down):  3.674E-02 0.000E+00
 
     Adding external electric field

     Computed dipole along edir(3) : 
        Dipole                1.9632 Ry au,          4.9899 Debye
        Dipole field          0.0025 Ry au, 
 
        Potential amp.       -0.2290 Ry
        Total length         46.3494 bohr
 

     total cpu time spent up to now is      221.9 secs

     total energy              =   -3293.31616976 Ry
     estimated scf accuracy    <      89.38994440 Ry

     iteration #  7     ecut=    29.40 Ry     beta= 0.05
     Davidson diagonalization with overlap
     ethr =  1.30E-03,  avg # of iterations =  4.9

     negative rho (up, down):  3.624E-02 0.000E+00
 
     Adding external electric field

     Computed dipole along edir(3) : 
        Dipole                1.5183 Ry au,          3.8592 Debye
        Dipole field          0.0019 Ry au, 
 
        Potential amp.       -0.1771 Ry
        Total length         46.3494 bohr
 

     total cpu time spent up to now is      245.0 secs

     total energy              =   -3293.19726388 Ry
     estimated scf accuracy    <      24.21500925 Ry

     iteration #  8     ecut=    29.40 Ry     beta= 0.05
     Davidson diagonalization with overlap
     ethr =  1.30E-03,  avg # of iterations =  1.3

     negative rho (up, down):  3.572E-02 0.000E+00
 
     Adding external electric field

     Computed dipole along edir(3) : 
        Dipole                1.0189 Ry au,          2.5898 Debye
        Dipole field          0.0013 Ry au, 
 
        Potential amp.       -0.1188 Ry
        Total length         46.3494 bohr
 

     total cpu time spent up to now is      265.6 secs

     total energy              =   -3293.16202259 Ry
     estimated scf accuracy    <       2.27260274 Ry

     iteration #  9     ecut=    29.40 Ry     beta= 0.05
     Davidson diagonalization with overlap
     ethr =  5.17E-04,  avg # of iterations =  5.9

     negative rho (up, down):  3.566E-02 0.000E+00
 
     Adding external electric field

     Computed dipole along edir(3) : 
        Dipole                0.6013 Ry au,          1.5283 Debye
        Dipole field          0.0008 Ry au, 
 
        Potential amp.       -0.0701 Ry
        Total length         46.3494 bohr
 

     total cpu time spent up to now is      289.4 secs

     total energy              =   -3293.18088241 Ry
     estimated scf accuracy    <       0.76557153 Ry

     iteration # 10     ecut=    29.40 Ry     beta= 0.05
     Davidson diagonalization with overlap
     c_bands:  1 eigenvalues not converged
     c_bands:  2 eigenvalues not converged
     c_bands:  1 eigenvalues not converged
     c_bands:  1 eigenvalues not converged
     c_bands:  1 eigenvalues not converged
     ethr =  1.74E-04,  avg # of iterations = 18.0

     negative rho (up, down):  3.630E-02 0.000E+00
 
     Adding external electric field

     Computed dipole along edir(3) : 
        Dipole                0.8626 Ry au,          2.1924 Debye
        Dipole field          0.0011 Ry au, 
 
        Potential amp.       -0.1006 Ry
        Total length         46.3494 bohr
 

     total cpu time spent up to now is      323.1 secs

     total energy              =   -3293.26171690 Ry
     estimated scf accuracy    <       0.37553527 Ry

     iteration # 11     ecut=    29.40 Ry     beta= 0.05
     Davidson diagonalization with overlap
     c_bands:  1 eigenvalues not converged
     c_bands:  3 eigenvalues not converged
     ethr =  8.53E-05,  avg # of iterations = 10.5

     negative rho (up, down):  3.672E-02 0.000E+00
 
     Adding external electric field

     Computed dipole along edir(3) : 
        Dipole                0.8717 Ry au,          2.2157 Debye
        Dipole field          0.0011 Ry au, 
 
        Potential amp.       -0.1017 Ry
        Total length         46.3494 bohr
 

     total cpu time spent up to now is      354.8 secs

     total energy              =   -3293.31393912 Ry
     estimated scf accuracy    <       0.50217560 Ry

     iteration # 12     ecut=    29.40 Ry     beta= 0.05
     Davidson diagonalization with overlap
     c_bands:  2 eigenvalues not converged
     c_bands:  5 eigenvalues not converged
     c_bands:  4 eigenvalues not converged
     ethr =  8.53E-05,  avg # of iterations = 12.3

     negative rho (up, down):  3.705E-02 0.000E+00
 
     Adding external electric field

     Computed dipole along edir(3) : 
        Dipole                0.2833 Ry au,          0.7200 Debye
        Dipole field          0.0004 Ry au, 
 
        Potential amp.       -0.0330 Ry
        Total length         46.3494 bohr
 

     total cpu time spent up to now is      382.6 secs

     total energy              =   -3293.18326230 Ry
     estimated scf accuracy    <       0.58946748 Ry

     iteration # 13     ecut=    29.40 Ry     beta= 0.05
     Davidson diagonalization with overlap
     c_bands:  1 eigenvalues not converged
     c_bands:  1 eigenvalues not converged
     ethr =  8.53E-05,  avg # of iterations = 14.4

     negative rho (up, down):  3.704E-02 0.000E+00
 
     Adding external electric field

     Computed dipole along edir(3) : 
        Dipole                0.0262 Ry au,          0.0667 Debye
        Dipole field          0.0000 Ry au, 
 
        Potential amp.       -0.0031 Ry
        Total length         46.3494 bohr
 

     total cpu time spent up to now is      420.6 secs

     total energy              =   -3293.36060129 Ry
     estimated scf accuracy    <       1.11230365 Ry

     iteration # 14     ecut=    29.40 Ry     beta= 0.05
     Davidson diagonalization with overlap
     ethr =  8.53E-05,  avg # of iterations =  6.4

     negative rho (up, down):  3.659E-02 0.000E+00
 
     Adding external electric field

     Computed dipole along edir(3) : 
        Dipole                0.2346 Ry au,          0.5963 Debye
        Dipole field          0.0003 Ry au, 
 
        Potential amp.       -0.0274 Ry
        Total length         46.3494 bohr
 

     total cpu time spent up to now is      444.7 secs

     total energy              =   -3293.31349410 Ry
     estimated scf accuracy    <       5.49236904 Ry

     iteration # 15     ecut=    29.40 Ry     beta= 0.05
     Davidson diagonalization with overlap
     ethr =  8.53E-05,  avg # of iterations =  2.7

     negative rho (up, down):  3.602E-02 0.000E+00
 
     Adding external electric field

     Computed dipole along edir(3) : 
        Dipole                0.8811 Ry au,          2.2395 Debye
        Dipole field          0.0011 Ry au, 
 
        Potential amp.       -0.1028 Ry
        Total length         46.3494 bohr
 

     total cpu time spent up to now is      465.9 secs

     total energy              =   -3293.13510118 Ry
     estimated scf accuracy    <       2.45714680 Ry

     iteration # 16     ecut=    29.40 Ry     beta= 0.05
     Davidson diagonalization with overlap
     ethr =  8.53E-05,  avg # of iterations =  6.5

     negative rho (up, down):  3.657E-02 0.000E+00
 
     Adding external electric field

     Computed dipole along edir(3) : 
        Dipole                0.6720 Ry au,          1.7082 Debye
        Dipole field          0.0008 Ry au, 
 
        Potential amp.       -0.0784 Ry
        Total length         46.3494 bohr
 

     total cpu time spent up to now is      498.9 secs

     total energy              =   -3293.24783696 Ry
     estimated scf accuracy    <       0.41277545 Ry

     iteration # 17     ecut=    29.40 Ry     beta= 0.05
     Davidson diagonalization with overlap
     ethr =  8.53E-05,  avg # of iterations =  3.8

     negative rho (up, down):  3.807E-02 0.000E+00
 
     Adding external electric field

     Computed dipole along edir(3) : 
        Dipole                0.6146 Ry au,          1.5622 Debye
        Dipole field          0.0008 Ry au, 
 
        Potential amp.       -0.0717 Ry
        Total length         46.3494 bohr
 

     total cpu time spent up to now is      521.7 secs

     total energy              =   -3293.22634282 Ry
     estimated scf accuracy    <       0.23826848 Ry

     iteration # 18     ecut=    29.40 Ry     beta= 0.05
     Davidson diagonalization with overlap
     ethr =  5.42E-05,  avg # of iterations =  5.6

     negative rho (up, down):  3.778E-02 0.000E+00
 
     Adding external electric field

     Computed dipole along edir(3) : 
        Dipole                0.6500 Ry au,          1.6521 Debye
        Dipole field          0.0008 Ry au, 
 
        Potential amp.       -0.0758 Ry
        Total length         46.3494 bohr
 

     total cpu time spent up to now is      552.0 secs

     total energy              =   -3293.29588283 Ry
     estimated scf accuracy    <       0.23115007 Ry

     iteration # 19     ecut=    29.40 Ry     beta= 0.05
     Davidson diagonalization with overlap
     ethr =  5.25E-05,  avg # of iterations =  2.0

     negative rho (up, down):  3.758E-02 0.000E+00
 
     Adding external electric field

     Computed dipole along edir(3) : 
        Dipole                0.8269 Ry au,          2.1019 Debye
        Dipole field          0.0010 Ry au, 
 
        Potential amp.       -0.0964 Ry
        Total length         46.3494 bohr
 

     total cpu time spent up to now is      573.8 secs

     total energy              =   -3293.27611138 Ry
     estimated scf accuracy    <       0.23087968 Ry

     iteration # 20     ecut=    29.40 Ry     beta= 0.05
     Davidson diagonalization with overlap
     ethr =  5.25E-05,  avg # of iterations =  5.6

     negative rho (up, down):  3.772E-02 0.000E+00
 
     Adding external electric field

     Computed dipole along edir(3) : 
        Dipole                0.7963 Ry au,          2.0239 Debye
        Dipole field          0.0010 Ry au, 
 
        Potential amp.       -0.0929 Ry
        Total length         46.3494 bohr
 

     total cpu time spent up to now is      598.2 secs

     total energy              =   -3293.28320049 Ry
     estimated scf accuracy    <       0.15569795 Ry

     iteration # 21     ecut=    29.40 Ry     beta= 0.05
     Davidson diagonalization with overlap
     ethr =  3.54E-05,  avg # of iterations =  5.0

     negative rho (up, down):  3.764E-02 0.000E+00
 
     Adding external electric field

     Computed dipole along edir(3) : 
        Dipole                0.9069 Ry au,          2.3051 Debye
        Dipole field          0.0011 Ry au, 
 
        Potential amp.       -0.1058 Ry
        Total length         46.3494 bohr
 

     total cpu time spent up to now is      621.7 secs

     total energy              =   -3293.27426793 Ry
     estimated scf accuracy    <       0.12980695 Ry

     iteration # 22     ecut=    29.40 Ry     beta= 0.05
     Davidson diagonalization with overlap
     ethr =  2.95E-05,  avg # of iterations =  3.0

     negative rho (up, down):  3.757E-02 0.000E+00
 
     Adding external electric field

     Computed dipole along edir(3) : 
        Dipole                1.0343 Ry au,          2.6290 Debye
        Dipole field          0.0013 Ry au, 
 
        Potential amp.       -0.1206 Ry
        Total length         46.3494 bohr
 

     total cpu time spent up to now is      644.0 secs

     total energy              =   -3293.26653182 Ry
     estimated scf accuracy    <       0.08119898 Ry

     iteration # 23     ecut=    29.40 Ry     beta= 0.05
     Davidson diagonalization with overlap
     ethr =  1.85E-05,  avg # of iterations =  4.8

     negative rho (up, down):  3.740E-02 0.000E+00
 
     Adding external electric field

     Computed dipole along edir(3) : 
        Dipole                1.0325 Ry au,          2.6243 Debye
        Dipole field          0.0013 Ry au, 
 
        Potential amp.       -0.1204 Ry
        Total length         46.3494 bohr
 

     total cpu time spent up to now is      669.4 secs

     total energy              =   -3293.27383642 Ry
     estimated scf accuracy    <       0.03304433 Ry

     iteration # 24     ecut=    29.40 Ry     beta= 0.05
     Davidson diagonalization with overlap
     c_bands:  1 eigenvalues not converged
     ethr =  7.51E-06,  avg # of iterations =  8.6

     negative rho (up, down):  3.738E-02 0.000E+00
 
     Adding external electric field

     Computed dipole along edir(3) : 
        Dipole                1.0931 Ry au,          2.7784 Debye
        Dipole field          0.0014 Ry au, 
 
        Potential amp.       -0.1275 Ry
        Total length         46.3494 bohr
 

     total cpu time spent up to now is      694.4 secs

     total energy              =   -3293.27069640 Ry
     estimated scf accuracy    <       0.02855182 Ry

     iteration # 25     ecut=    29.40 Ry     beta= 0.05
     Davidson diagonalization with overlap
     c_bands:  1 eigenvalues not converged
     ethr =  6.49E-06,  avg # of iterations = 12.7

     negative rho (up, down):  3.774E-02 0.000E+00
 
     Adding external electric field

     Computed dipole along edir(3) : 
        Dipole                1.3079 Ry au,          3.3244 Debye
        Dipole field          0.0016 Ry au, 
 
        Potential amp.       -0.1525 Ry
        Total length         46.3494 bohr
 

     total cpu time spent up to now is      730.2 secs

     total energy              =   -3293.26754028 Ry
     estimated scf accuracy    <       0.05402990 Ry

     iteration # 26     ecut=    29.40 Ry     beta= 0.05
     Davidson diagonalization with overlap
     c_bands:  2 eigenvalues not converged
     ethr =  6.49E-06,  avg # of iterations = 10.6

     negative rho (up, down):  3.763E-02 0.000E+00
 
     Adding external electric field

     Computed dipole along edir(3) : 
        Dipole                1.3697 Ry au,          3.4815 Debye
        Dipole field          0.0017 Ry au, 
 
        Potential amp.       -0.1597 Ry
        Total length         46.3494 bohr
 

     total cpu time spent up to now is      760.4 secs

     total energy              =   -3293.27163109 Ry
     estimated scf accuracy    <       0.01973882 Ry

     iteration # 27     ecut=    29.40 Ry     beta= 0.05
     Davidson diagonalization with overlap
     c_bands:  1 eigenvalues not converged
     c_bands:  1 eigenvalues not converged
     c_bands:  1 eigenvalues not converged
     ethr =  4.49E-06,  avg # of iterations = 15.4

     negative rho (up, down):  3.696E-02 0.000E+00
 
     Adding external electric field

     Computed dipole along edir(3) : 
        Dipole                1.3212 Ry au,          3.3582 Debye
        Dipole field          0.0017 Ry au, 
 
        Potential amp.       -0.1541 Ry
        Total length         46.3494 bohr
 

     total cpu time spent up to now is      799.5 secs

     total energy              =   -3293.27024350 Ry
     estimated scf accuracy    <       0.02890984 Ry

     iteration # 28     ecut=    29.40 Ry     beta= 0.05
     Davidson diagonalization with overlap
     ethr =  4.49E-06,  avg # of iterations =  5.9

     negative rho (up, down):  3.672E-02 0.000E+00
 
     Adding external electric field

     Computed dipole along edir(3) : 
        Dipole                1.3093 Ry au,          3.3279 Debye
        Dipole field          0.0016 Ry au, 
 
        Potential amp.       -0.1527 Ry
        Total length         46.3494 bohr
 

     total cpu time spent up to now is      824.0 secs

     total energy              =   -3293.27084715 Ry
     estimated scf accuracy    <       0.00581509 Ry

     iteration # 29     ecut=    29.40 Ry     beta= 0.05
     Davidson diagonalization with overlap
     ethr =  1.32E-06,  avg # of iterations = 10.3

     negative rho (up, down):  3.652E-02 0.000E+00
 
     Adding external electric field

     Computed dipole along edir(3) : 
        Dipole                1.2935 Ry au,          3.2878 Debye
        Dipole field          0.0016 Ry au, 
 
        Potential amp.       -0.1509 Ry
        Total length         46.3494 bohr
 

     total cpu time spent up to now is      857.4 secs

     total energy              =   -3293.27188973 Ry
     estimated scf accuracy    <       0.00194777 Ry

     iteration # 30     ecut=    29.40 Ry     beta= 0.05
     Davidson diagonalization with overlap
     ethr =  4.43E-07,  avg # of iterations =  2.0

     negative rho (up, down):  3.642E-02 0.000E+00
 
     Adding external electric field

     Computed dipole along edir(3) : 
        Dipole                1.2787 Ry au,          3.2502 Debye
        Dipole field          0.0016 Ry au, 
 
        Potential amp.       -0.1491 Ry
        Total length         46.3494 bohr
 

     total cpu time spent up to now is      879.4 secs

     total energy              =   -3293.27182406 Ry
     estimated scf accuracy    <       0.00130914 Ry

     iteration # 31     ecut=    29.40 Ry     beta= 0.05
     Davidson diagonalization with overlap
     ethr =  2.98E-07,  avg # of iterations =  5.9

     negative rho (up, down):  3.637E-02 0.000E+00
 
     Adding external electric field

     Computed dipole along edir(3) : 
        Dipole                1.2917 Ry au,          3.2832 Debye
        Dipole field          0.0016 Ry au, 
 
        Potential amp.       -0.1506 Ry
        Total length         46.3494 bohr
 

     total cpu time spent up to now is      911.5 secs

     total energy              =   -3293.27177339 Ry
     estimated scf accuracy    <       0.00197203 Ry

     iteration # 32     ecut=    29.40 Ry     beta= 0.05
     Davidson diagonalization with overlap
     ethr =  2.98E-07,  avg # of iterations =  5.1

     negative rho (up, down):  3.633E-02 0.000E+00
 
     Adding external electric field

     Computed dipole along edir(3) : 
        Dipole                1.3025 Ry au,          3.3105 Debye
        Dipole field          0.0016 Ry au, 
 
        Potential amp.       -0.1519 Ry
        Total length         46.3494 bohr
 

     total cpu time spent up to now is      943.5 secs

     total energy              =   -3293.27217393 Ry
     estimated scf accuracy    <       0.00105093 Ry

     iteration # 33     ecut=    29.40 Ry     beta= 0.05
     Davidson diagonalization with overlap
     ethr =  2.39E-07,  avg # of iterations =  1.5

     negative rho (up, down):  3.627E-02 0.000E+00
 
     Adding external electric field

     Computed dipole along edir(3) : 
        Dipole                1.3138 Ry au,          3.3394 Debye
        Dipole field          0.0017 Ry au, 
 
        Potential amp.       -0.1532 Ry
        Total length         46.3494 bohr
 

     total cpu time spent up to now is      964.5 secs

     total energy              =   -3293.27212571 Ry
     estimated scf accuracy    <       0.00055417 Ry

     iteration # 34     ecut=    29.40 Ry     beta= 0.05
     Davidson diagonalization with overlap
     ethr =  1.26E-07,  avg # of iterations =  6.3

     negative rho (up, down):  3.619E-02 0.000E+00
 
     Adding external electric field

     Computed dipole along edir(3) : 
        Dipole                1.3142 Ry au,          3.3403 Debye
        Dipole field          0.0017 Ry au, 
 
        Potential amp.       -0.1533 Ry
        Total length         46.3494 bohr
 

     total cpu time spent up to now is     1003.9 secs

     total energy              =   -3293.27244400 Ry
     estimated scf accuracy    <       0.00223761 Ry

     iteration # 35     ecut=    29.40 Ry     beta= 0.05
     Davidson diagonalization with overlap
     ethr =  1.26E-07,  avg # of iterations =  2.0

     negative rho (up, down):  3.615E-02 0.000E+00
 
     Adding external electric field

     Computed dipole along edir(3) : 
        Dipole                1.3242 Ry au,          3.3658 Debye
        Dipole field          0.0017 Ry au, 
 
        Potential amp.       -0.1544 Ry
        Total length         46.3494 bohr
 

     total cpu time spent up to now is     1025.8 secs

     total energy              =   -3293.27222284 Ry
     estimated scf accuracy    <       0.00159034 Ry

     iteration # 36     ecut=    29.40 Ry     beta= 0.05
     Davidson diagonalization with overlap
     ethr =  1.26E-07,  avg # of iterations =  5.1

     negative rho (up, down):  3.610E-02 0.000E+00
 
     Adding external electric field

     Computed dipole along edir(3) : 
        Dipole                1.3242 Ry au,          3.3658 Debye
        Dipole field          0.0017 Ry au, 
 
        Potential amp.       -0.1544 Ry
        Total length         46.3494 bohr
 

     total cpu time spent up to now is     1054.8 secs

     total energy              =   -3293.27239155 Ry
     estimated scf accuracy    <       0.00023292 Ry

     iteration # 37     ecut=    29.40 Ry     beta= 0.05
     Davidson diagonalization with overlap
     ethr =  5.29E-08,  avg # of iterations =  2.0

     negative rho (up, down):  3.604E-02 0.000E+00
 
     Adding external electric field

     Computed dipole along edir(3) : 
        Dipole                1.3163 Ry au,          3.3458 Debye
        Dipole field          0.0017 Ry au, 
 
        Potential amp.       -0.1535 Ry
        Total length         46.3494 bohr
 

     total cpu time spent up to now is     1077.0 secs

     total energy              =   -3293.27242000 Ry
     estimated scf accuracy    <       0.00014595 Ry

     iteration # 38     ecut=    29.40 Ry     beta= 0.05
     Davidson diagonalization with overlap
     ethr =  3.32E-08,  avg # of iterations =  5.2

     negative rho (up, down):  3.599E-02 0.000E+00
 
     Adding external electric field

     Computed dipole along edir(3) : 
        Dipole                1.3163 Ry au,          3.3456 Debye
        Dipole field          0.0017 Ry au, 
 
        Potential amp.       -0.1535 Ry
        Total length         46.3494 bohr
 

     total cpu time spent up to now is     1103.8 secs

     total energy              =   -3293.27246127 Ry
     estimated scf accuracy    <       0.00005614 Ry

     iteration # 39     ecut=    29.40 Ry     beta= 0.05
     Davidson diagonalization with overlap
     ethr =  1.28E-08,  avg # of iterations =  5.2

     negative rho (up, down):  3.597E-02 0.000E+00
 
     Adding external electric field

     Computed dipole along edir(3) : 
        Dipole                1.3212 Ry au,          3.3582 Debye
        Dipole field          0.0017 Ry au, 
 
        Potential amp.       -0.1541 Ry
        Total length         46.3494 bohr
 

     total cpu time spent up to now is     1138.7 secs

     total energy              =   -3293.27251474 Ry
     estimated scf accuracy    <       0.00007903 Ry

     iteration # 40     ecut=    29.40 Ry     beta= 0.05
     Davidson diagonalization with overlap
     ethr =  1.28E-08,  avg # of iterations =  2.0

     negative rho (up, down):  3.594E-02 0.000E+00
 
     Adding external electric field

     Computed dipole along edir(3) : 
        Dipole                1.3268 Ry au,          3.3723 Debye
        Dipole field          0.0017 Ry au, 
 
        Potential amp.       -0.1547 Ry
        Total length         46.3494 bohr
 

     total cpu time spent up to now is     1160.5 secs

     total energy              =   -3293.27254253 Ry
     estimated scf accuracy    <       0.00005542 Ry

     iteration # 41     ecut=    29.40 Ry     beta= 0.05
     Davidson diagonalization with overlap
     ethr =  1.26E-08,  avg # of iterations =  5.3

     negative rho (up, down):  3.591E-02 0.000E+00
 
     Adding external electric field

     Computed dipole along edir(3) : 
        Dipole                1.3233 Ry au,          3.3634 Debye
        Dipole field          0.0017 Ry au, 
 
        Potential amp.       -0.1543 Ry
        Total length         46.3494 bohr
 

     total cpu time spent up to now is     1194.6 secs

     total energy              =   -3293.27256961 Ry
     estimated scf accuracy    <       0.00014279 Ry

     iteration # 42     ecut=    29.40 Ry     beta= 0.05
     Davidson diagonalization with overlap
     ethr =  1.26E-08,  avg # of iterations =  5.0

     negative rho (up, down):  3.589E-02 0.000E+00
 
     Adding external electric field

     Computed dipole along edir(3) : 
        Dipole                1.3204 Ry au,          3.3561 Debye
        Dipole field          0.0017 Ry au, 
 
        Potential amp.       -0.1540 Ry
        Total length         46.3494 bohr
 

     total cpu time spent up to now is     1221.3 secs

     total energy              =   -3293.27258874 Ry
     estimated scf accuracy    <       0.00006987 Ry

     iteration # 43     ecut=    29.40 Ry     beta= 0.05
     Davidson diagonalization with overlap
     ethr =  1.26E-08,  avg # of iterations =  3.5

     negative rho (up, down):  3.589E-02 0.000E+00
 
     Adding external electric field

     Computed dipole along edir(3) : 
        Dipole                1.3177 Ry au,          3.3492 Debye
        Dipole field          0.0017 Ry au, 
 
        Potential amp.       -0.1537 Ry
        Total length         46.3494 bohr
 

     total cpu time spent up to now is     1244.0 secs

     total energy              =   -3293.27260357 Ry
     estimated scf accuracy    <       0.00002887 Ry

     iteration # 44     ecut=    29.40 Ry     beta= 0.05
     Davidson diagonalization with overlap
     ethr =  6.56E-09,  avg # of iterations =  7.4

     negative rho (up, down):  3.587E-02 0.000E+00
 
     Adding external electric field

     Computed dipole along edir(3) : 
        Dipole                1.3187 Ry au,          3.3517 Debye
        Dipole field          0.0017 Ry au, 
 
        Potential amp.       -0.1538 Ry
        Total length         46.3494 bohr
 

     total cpu time spent up to now is     1280.7 secs

     total energy              =   -3293.27263449 Ry
     estimated scf accuracy    <       0.00003569 Ry

     iteration # 45     ecut=    29.40 Ry     beta= 0.05
     Davidson diagonalization with overlap
     ethr =  6.56E-09,  avg # of iterations =  5.0

     negative rho (up, down):  3.585E-02 0.000E+00
 
     Adding external electric field

     Computed dipole along edir(3) : 
        Dipole                1.3202 Ry au,          3.3557 Debye
        Dipole field          0.0017 Ry au, 
 
        Potential amp.       -0.1540 Ry
        Total length         46.3494 bohr
 

     total cpu time spent up to now is     1304.2 secs

     total energy              =   -3293.27265001 Ry
     estimated scf accuracy    <       0.00001495 Ry

     iteration # 46     ecut=    29.40 Ry     beta= 0.05
     Davidson diagonalization with overlap
     ethr =  3.40E-09,  avg # of iterations =  5.3

     negative rho (up, down):  3.584E-02 0.000E+00
 
     Adding external electric field

     Computed dipole along edir(3) : 
        Dipole                1.3202 Ry au,          3.3557 Debye
        Dipole field          0.0017 Ry au, 
 
        Potential amp.       -0.1540 Ry
        Total length         46.3494 bohr
 

     total cpu time spent up to now is     1334.0 secs

     total energy              =   -3293.27266863 Ry
     estimated scf accuracy    <       0.00000849 Ry

     iteration # 47     ecut=    29.40 Ry     beta= 0.05
     Davidson diagonalization with overlap
     ethr =  1.93E-09,  avg # of iterations =  5.0

     negative rho (up, down):  3.584E-02 0.000E+00
 
     Adding external electric field

     Computed dipole along edir(3) : 
        Dipole                1.3215 Ry au,          3.3590 Debye
        Dipole field          0.0017 Ry au, 
 
        Potential amp.       -0.1541 Ry
        Total length         46.3494 bohr
 

     total cpu time spent up to now is     1357.9 secs

     total energy              =   -3293.27268396 Ry
     estimated scf accuracy    <       0.00000381 Ry

     iteration # 48     ecut=    29.40 Ry     beta= 0.05
     Davidson diagonalization with overlap
     ethr =  8.65E-10,  avg # of iterations =  6.9

     negative rho (up, down):  3.583E-02 0.000E+00
 
     Adding external electric field

     Computed dipole along edir(3) : 
        Dipole                1.3200 Ry au,          3.3550 Debye
        Dipole field          0.0017 Ry au, 
 
        Potential amp.       -0.1539 Ry
        Total length         46.3494 bohr
 

     total cpu time spent up to now is     1401.4 secs

     total energy              =   -3293.27269791 Ry
     estimated scf accuracy    <       0.00004429 Ry

     iteration # 49     ecut=    29.40 Ry     beta= 0.05
     Davidson diagonalization with overlap
     ethr =  8.65E-10,  avg # of iterations =  5.2

     negative rho (up, down):  3.583E-02 0.000E+00
 
     Adding external electric field

     Computed dipole along edir(3) : 
        Dipole                1.3190 Ry au,          3.3526 Debye
        Dipole field          0.0017 Ry au, 
 
        Potential amp.       -0.1538 Ry
        Total length         46.3494 bohr
 

     total cpu time spent up to now is     1432.1 secs

     total energy              =   -3293.27270832 Ry
     estimated scf accuracy    <       0.00001421 Ry

     iteration # 50     ecut=    29.40 Ry     beta= 0.05
     Davidson diagonalization with overlap
     ethr =  8.65E-10,  avg # of iterations =  5.0

     negative rho (up, down):  3.582E-02 0.000E+00
 
     Adding external electric field

     Computed dipole along edir(3) : 
        Dipole                1.3186 Ry au,          3.3516 Debye
        Dipole field          0.0017 Ry au, 
 
        Potential amp.       -0.1538 Ry
        Total length         46.3494 bohr
 

     total cpu time spent up to now is     1460.8 secs

     total energy              =   -3293.27271935 Ry
     estimated scf accuracy    <       0.00000320 Ry

     iteration # 51     ecut=    29.40 Ry     beta= 0.05
     Davidson diagonalization with overlap
     ethr =  7.27E-10,  avg # of iterations =  1.6

     negative rho (up, down):  3.582E-02 0.000E+00
 
     Adding external electric field

     Computed dipole along edir(3) : 
        Dipole                1.3182 Ry au,          3.3505 Debye
        Dipole field          0.0017 Ry au, 
 
        Potential amp.       -0.1537 Ry
        Total length         46.3494 bohr
 

     total cpu time spent up to now is     1481.9 secs

     total energy              =   -3293.27272887 Ry
     estimated scf accuracy    <       0.00000202 Ry

     iteration # 52     ecut=    29.40 Ry     beta= 0.05
     Davidson diagonalization with overlap
     ethr =  4.58E-10,  avg # of iterations =  4.5

     negative rho (up, down):  3.582E-02 0.000E+00
 
     Adding external electric field

     Computed dipole along edir(3) : 
        Dipole                1.3176 Ry au,          3.3491 Debye
        Dipole field          0.0017 Ry au, 
 
        Potential amp.       -0.1537 Ry
        Total length         46.3494 bohr
 

     total cpu time spent up to now is     1508.3 secs

     total energy              =   -3293.27273780 Ry
     estimated scf accuracy    <       0.00000086 Ry

     iteration # 53     ecut=    29.40 Ry     beta= 0.05
     Davidson diagonalization with overlap
     ethr =  1.96E-10,  avg # of iterations =  5.0

     negative rho (up, down):  3.582E-02 0.000E+00
 
     Adding external electric field

     Computed dipole along edir(3) : 
        Dipole                1.3175 Ry au,          3.3486 Debye
        Dipole field          0.0017 Ry au, 
 
        Potential amp.       -0.1536 Ry
        Total length         46.3494 bohr
 

     total cpu time spent up to now is     1535.9 secs

     total energy              =   -3293.27274574 Ry
     estimated scf accuracy    <       0.00000032 Ry

     iteration # 54     ecut=    29.40 Ry     beta= 0.05
     Davidson diagonalization with overlap
     ethr =  7.28E-11,  avg # of iterations =  4.8

     negative rho (up, down):  3.582E-02 0.000E+00
 
     Adding external electric field

     Computed dipole along edir(3) : 
        Dipole                1.3172 Ry au,          3.3481 Debye
        Dipole field          0.0017 Ry au, 
 
        Potential amp.       -0.1536 Ry
        Total length         46.3494 bohr
 

     total cpu time spent up to now is     1560.3 secs

     total energy              =   -3293.27275283 Ry
     estimated scf accuracy    <       0.00000021 Ry

     iteration # 55     ecut=    29.40 Ry     beta= 0.05
     Davidson diagonalization with overlap
     ethr =  4.87E-11,  avg # of iterations =  5.0

     negative rho (up, down):  3.582E-02 0.000E+00
 
     Adding external electric field

     Computed dipole along edir(3) : 
        Dipole                1.3174 Ry au,          3.3485 Debye
        Dipole field          0.0017 Ry au, 
 
        Potential amp.       -0.1536 Ry
        Total length         46.3494 bohr
 

     total cpu time spent up to now is     1587.4 secs

     total energy              =   -3293.27275919 Ry
     estimated scf accuracy    <       0.00000015 Ry

     iteration # 56     ecut=    29.40 Ry     beta= 0.05
     Davidson diagonalization with overlap
     ethr =  3.44E-11,  avg # of iterations =  4.6

     negative rho (up, down):  3.582E-02 0.000E+00
 
     Adding external electric field

     Computed dipole along edir(3) : 
        Dipole                1.3177 Ry au,          3.3494 Debye
        Dipole field          0.0017 Ry au, 
 
        Potential amp.       -0.1537 Ry
        Total length         46.3494 bohr
 

     total cpu time spent up to now is     1610.8 secs

     total energy              =   -3293.27276504 Ry
     estimated scf accuracy    <       0.00000008 Ry

     iteration # 57     ecut=    29.40 Ry     beta= 0.05
     Davidson diagonalization with overlap
     ethr =  1.74E-11,  avg # of iterations =  6.0

     negative rho (up, down):  3.582E-02 0.000E+00
 
     Adding external electric field

     Computed dipole along edir(3) : 
        Dipole                1.3176 Ry au,          3.3490 Debye
        Dipole field          0.0017 Ry au, 
 
        Potential amp.       -0.1537 Ry
        Total length         46.3494 bohr
 

     total cpu time spent up to now is     1652.0 secs

     total energy              =   -3293.27277026 Ry
     estimated scf accuracy    <       0.00000055 Ry

     iteration # 58     ecut=    29.40 Ry     beta= 0.05
     Davidson diagonalization with overlap
     ethr =  1.74E-11,  avg # of iterations =  2.0

     negative rho (up, down):  3.583E-02 0.000E+00
 
     Adding external electric field

     Computed dipole along edir(3) : 
        Dipole                1.3173 Ry au,          3.3481 Debye
        Dipole field          0.0017 Ry au, 
 
        Potential amp.       -0.1536 Ry
        Total length         46.3494 bohr
 

     total cpu time spent up to now is     1673.7 secs

     total energy              =   -3293.27277478 Ry
     estimated scf accuracy    <       0.00000047 Ry

     iteration # 59     ecut=    29.40 Ry     beta= 0.05
     Davidson diagonalization with overlap
     ethr =  1.74E-11,  avg # of iterations =  8.0

     negative rho (up, down):  3.595E-02 0.000E+00
 
     Adding external electric field

     Computed dipole along edir(3) : 
        Dipole                1.3173 Ry au,          3.3483 Debye
        Dipole field          0.0017 Ry au, 
 
        Potential amp.       -0.1536 Ry
        Total length         46.3494 bohr
 

     total cpu time spent up to now is     1711.7 secs

     End of self-consistent calculation

          k = 0.0000 0.0000 0.0000 ( 26871 PWs)   bands (ev):

   -58.2799 -58.2566 -58.2512 -58.2266 -58.1671 -57.7779 -57.7742 -57.7543
   -57.6694 -57.5725 -57.5685 -57.5459 -57.3362 -56.8618 -56.8378 -56.8211
   -56.7387 -56.6386 -34.6900 -34.6504 -34.6176 -34.6020 -34.5978 -34.5964
   -34.5473 -34.4927 -34.4551 -34.4117 -34.4055 -34.3892 -34.3842 -34.3641
   -34.3164 -34.1922 -34.1413 -34.1348 -34.1261 -34.1216 -34.0767 -34.0550
   -34.0540 -34.0136 -34.0012 -33.9576 -33.9561 -33.8580 -33.8535 -33.8264
   -33.8192 -33.8036 -33.7691 -33.7575 -33.7512 -33.7327 -33.6841 -33.5762
   -33.5446 -33.2339 -33.2065 -33.1883 -33.1717 -33.1656 -33.1484 -33.0698
   -33.0569 -33.0114 -32.9929 -32.9838 -32.9509 -32.8881 -32.8704 -32.7666
   -18.9498 -18.8275 -18.7368 -18.3607 -18.3012 -18.1685 -18.1115 -18.1046
   -18.0109 -17.9419 -17.7181 -17.6700 -17.6581 -17.6336 -17.5380 -17.5251
   -17.5158 -17.4838 -17.4595 -17.4535 -17.3511 -17.3136 -17.2992 -17.2942
   -17.2627 -17.1840 -17.1346 -17.0396 -17.0066 -17.0041 -16.8347 -16.7946
   -15.3386 -15.2976 -15.2888 -15.2481 -11.6044  -6.9830  -6.8107  -6.6988
    -6.1802  -5.9693  -5.7729  -5.6108  -5.5136  -5.4470  -5.3772  -5.3106
    -5.2756  -5.2543  -5.2033  -5.1630  -5.0629  -5.0546  -4.9621  -4.9058
    -4.8763  -4.8451  -4.7666  -4.7445  -4.7281  -4.6787  -4.6180  -4.6084
    -4.5693  -4.4939  -4.4853  -4.4706  -4.4321  -4.4259  -4.3717  -4.2827
    -4.1943  -4.1638  -4.1539  -4.1129  -4.0408  -4.0314  -4.0086  -3.9815
    -3.9750  -3.9448  -3.8683  -3.8425  -3.7361  -3.6449  -3.6155  -3.6003
    -3.5115  -3.4298  -3.3732  -3.3468  -3.1725  -3.1459  -3.1030  -3.0395
    -3.0289  -2.9674  -2.9441  -2.9200  -2.8906  -2.8681  -2.8034  -2.7945
    -2.7933  -2.7729  -2.7483  -2.7010  -2.6512  -2.6305  -2.5681  -2.5385
    -2.5240  -2.4996  -2.4545  -2.4343  -2.3191  -2.2687  -2.2564  -2.2376
    -2.2323  -2.1530  -2.0753  -2.0179  -1.9992  -1.8718  -1.8665  -1.7512
    -1.7082  -1.7023  -1.6493  -1.5765  -1.5308  -1.4832  -1.3722  -1.2408
    -1.1756  -1.0930  -1.0281  -0.7641  -0.6707  -0.5548  -0.5478  -0.5351
    -0.5151  -0.3666  -0.3521  -0.2558   0.9954   1.1313   1.2894   1.3127
     1.5131   1.6010   1.6243   1.6666   1.7667   1.8607

          k = 0.0000 0.0280 0.0000 ( 26907 PWs)   bands (ev):

   -58.2777 -58.2627 -58.2474 -58.2266 -58.1672 -57.7777 -57.7742 -57.7546
   -57.6693 -57.5725 -57.5689 -57.5456 -57.3363 -56.8603 -56.8408 -56.8196
   -56.7387 -56.6386 -34.7053 -34.6675 -34.6508 -34.6208 -34.5939 -34.5256
   -34.5074 -34.4910 -34.4490 -34.4110 -34.4099 -34.4048 -34.3702 -34.3643
   -34.3418 -34.2151 -34.1604 -34.1500 -34.1295 -34.1213 -34.0622 -34.0330
   -34.0122 -34.0006 -33.9995 -33.9593 -33.9568 -33.8722 -33.8595 -33.8402
   -33.8253 -33.8035 -33.7687 -33.7583 -33.7505 -33.7335 -33.6858 -33.5761
   -33.5446 -33.2276 -33.2251 -33.2056 -33.1899 -33.1711 -33.0675 -33.0604
   -33.0569 -33.0252 -32.9844 -32.9837 -32.9509 -32.8960 -32.8884 -32.7703
   -18.9359 -18.7848 -18.7435 -18.4151 -18.3204 -18.2243 -18.0881 -18.0274
   -17.9750 -17.9086 -17.8256 -17.7865 -17.6599 -17.5895 -17.5891 -17.5374
   -17.5225 -17.4445 -17.3950 -17.3848 -17.3560 -17.3135 -17.3130 -17.2821
   -17.2110 -17.2000 -17.1410 -17.0444 -17.0242 -17.0048 -16.8593 -16.7797
   -15.3443 -15.3306 -15.2481 -15.2481 -11.6041  -6.9623  -6.8266  -6.6991
    -6.1150  -5.8887  -5.7183  -5.6465  -5.5960  -5.5005  -5.4182  -5.3124
    -5.2841  -5.2563  -5.2237  -5.2172  -5.1243  -5.1088  -5.0563  -4.9532
    -4.8932  -4.8882  -4.7886  -4.7051  -4.6935  -4.6246  -4.5832  -4.5685
    -4.5622  -4.5205  -4.5054  -4.4788  -4.4672  -4.4077  -4.4020  -4.3422
    -4.3230  -4.2979  -4.2176  -4.1736  -4.0556  -3.9958  -3.9267  -3.8953
    -3.8232  -3.8039  -3.7559  -3.6893  -3.6376  -3.5902  -3.5285  -3.5222
    -3.4437  -3.3887  -3.2900  -3.2736  -3.2205  -3.2119  -3.1689  -3.1164
    -3.0331  -2.9885  -2.9770  -2.9648  -2.9146  -2.9124  -2.8730  -2.8302
    -2.7364  -2.7064  -2.6902  -2.6513  -2.6111  -2.5920  -2.5710  -2.5313
    -2.5082  -2.4680  -2.4374  -2.3367  -2.3218  -2.3109  -2.2680  -2.2511
    -2.2211  -2.1911  -2.1573  -2.0824  -2.0370  -2.0104  -1.8743  -1.7967
    -1.7549  -1.6568  -1.6073  -1.5296  -1.4551  -1.4324  -1.3689  -1.2639
    -1.1900  -1.1448  -1.0861  -0.9244  -0.7135  -0.6679  -0.5420  -0.5143
    -0.4439  -0.4000  -0.3051  -0.2976   1.0962   1.1885   1.2017   1.4277
     1.4789   1.5644   1.5879   1.6837   1.7170   1.8017

          k = 0.0000-0.0559 0.0000 ( 26942 PWs)   bands (ev):

   -58.2735 -58.2690 -58.2453 -58.2265 -58.1673 -57.7776 -57.7742 -57.7548
   -57.6693 -57.5725 -57.5694 -57.5453 -57.3363 -56.8586 -56.8438 -56.8183
   -56.7388 -56.6386 -34.7180 -34.6915 -34.6510 -34.6233 -34.5919 -34.5061
   -34.4916 -34.4350 -34.4300 -34.4176 -34.4095 -34.4063 -34.4050 -34.3648
   -34.3639 -34.2310 -34.1801 -34.1582 -34.1287 -34.1212 -34.0607 -34.0108
   -34.0001 -33.9928 -33.9612 -33.9574 -33.9419 -33.9004 -33.8782 -33.8609
   -33.8241 -33.8033 -33.7684 -33.7591 -33.7499 -33.7344 -33.6872 -33.5761
   -33.5447 -33.2495 -33.2212 -33.2048 -33.1916 -33.1705 -33.0570 -33.0563
   -33.0392 -32.9837 -32.9817 -32.9737 -32.9586 -32.9510 -32.8887 -32.7738
   -18.9214 -18.7620 -18.6905 -18.5521 -18.2771 -18.2355 -18.0798 -17.9668
   -17.9424 -17.9108 -17.8793 -17.8239 -17.7782 -17.6138 -17.5561 -17.5530
   -17.4716 -17.3984 -17.3896 -17.3779 -17.3460 -17.2899 -17.2774 -17.2763
   -17.2644 -17.1480 -17.1459 -17.0564 -17.0508 -17.0010 -16.8789 -16.7711
   -15.3518 -15.3410 -15.2482 -15.2282 -11.6037  -6.9340  -6.8500  -6.6993
    -5.9997  -5.8189  -5.6895  -5.6708  -5.6604  -5.5387  -5.4463  -5.4034
    -5.3344  -5.2768  -5.2666  -5.2015  -5.1588  -5.1145  -5.0520  -4.9882
    -4.9732  -4.9271  -4.8149  -4.7939  -4.7112  -4.6217  -4.6021  -4.5803
    -4.5509  -4.5458  -4.5150  -4.4823  -4.4589  -4.4497  -4.3722  -4.3042
    -4.2699  -4.2253  -4.1876  -4.1499  -4.0667  -3.9983  -3.9226  -3.8980
    -3.8115  -3.8098  -3.7465  -3.6973  -3.5726  -3.4844  -3.4472  -3.3928
    -3.3461  -3.2847  -3.2579  -3.2381  -3.1784  -3.1148  -3.1094  -3.1030
    -3.0049  -2.9726  -2.9631  -2.9458  -2.9182  -2.9048  -2.9042  -2.8885
    -2.7901  -2.7760  -2.7144  -2.6685  -2.6566  -2.6342  -2.5847  -2.5766
    -2.5320  -2.4447  -2.4048  -2.3853  -2.3674  -2.3280  -2.2968  -2.2658
    -2.2400  -2.1811  -2.1184  -2.0784  -1.9950  -1.9822  -1.9267  -1.8526
    -1.7819  -1.6379  -1.5384  -1.4622  -1.4046  -1.3861  -1.3364  -1.3211
    -1.2266  -1.2019  -1.1936  -1.0957  -0.8279  -0.6657  -0.5494  -0.4750
    -0.4288  -0.3818  -0.3685  -0.2778   1.1426   1.1889   1.3614   1.4480
     1.4513   1.5235   1.5695   1.6477   1.6488   1.6947

          k = 0.0380 0.0000 0.0000 ( 26897 PWs)   bands (ev):

   -58.2798 -58.2566 -58.2512 -58.2266 -58.1671 -57.7779 -57.7742 -57.7544
   -57.6694 -57.5725 -57.5685 -57.5460 -57.3363 -56.8617 -56.8379 -56.8211
   -56.7387 -56.6387 -34.6903 -34.6503 -34.6177 -34.6030 -34.5981 -34.5973
   -34.5475 -34.4927 -34.4532 -34.4117 -34.4033 -34.3889 -34.3840 -34.3645
   -34.3161 -34.1929 -34.1415 -34.1353 -34.1224 -34.1216 -34.0772 -34.0634
   -34.0548 -34.0117 -33.9822 -33.9610 -33.9563 -33.8654 -33.8535 -33.8316
   -33.8184 -33.8036 -33.7690 -33.7560 -33.7513 -33.7325 -33.6837 -33.5761
   -33.5469 -33.2337 -33.2084 -33.1882 -33.1716 -33.1657 -33.1485 -33.0696
   -33.0581 -33.0115 -32.9930 -32.9838 -32.9511 -32.8882 -32.8701 -32.7668
   -18.9370 -18.7857 -18.7359 -18.2999 -18.2858 -18.1584 -18.0954 -18.0674
   -17.9678 -17.9277 -17.7382 -17.7228 -17.7213 -17.6622 -17.5330 -17.5088
   -17.4695 -17.4667 -17.4488 -17.4389 -17.4235 -17.3968 -17.3388 -17.3239
   -17.2471 -17.2120 -17.1302 -17.1051 -17.0241 -16.9566 -16.8302 -16.7940
   -15.3360 -15.2980 -15.2891 -15.2482 -11.6032  -6.9729  -6.8075  -6.6988
    -6.1483  -5.6911  -5.5973  -5.5186  -5.4751  -5.4079  -5.3740  -5.3618
    -5.3211  -5.2169  -5.1626  -5.1052  -5.0398  -4.9718  -4.9409  -4.9233
    -4.8921  -4.7929  -4.7421  -4.6862  -4.6488  -4.6403  -4.6087  -4.5712
    -4.5646  -4.5575  -4.5289  -4.4447  -4.4208  -4.3879  -4.3759  -4.2997
    -4.1884  -4.1861  -4.1569  -4.1373  -4.1137  -4.0896  -4.0506  -3.9826
    -3.9487  -3.9243  -3.8741  -3.7598  -3.6743  -3.6625  -3.6074  -3.5302
    -3.4733  -3.4629  -3.4207  -3.3207  -3.2363  -3.1747  -3.1560  -3.1114
    -3.0851  -3.0398  -3.0292  -2.9849  -2.9493  -2.9411  -2.9031  -2.8996
    -2.8587  -2.8008  -2.7667  -2.7414  -2.6920  -2.6393  -2.5874  -2.5718
    -2.5463  -2.4951  -2.4569  -2.3901  -2.3374  -2.2968  -2.2684  -2.2150
    -2.1672  -2.1095  -2.0740  -2.0375  -1.9293  -1.8821  -1.8293  -1.7615
    -1.7179  -1.6583  -1.6431  -1.6284  -1.5409  -1.4994  -1.4656  -1.4184
    -1.1626  -1.1296  -1.0711  -0.7583  -0.7005  -0.6101  -0.5575  -0.5388
    -0.5284  -0.4144  -0.4031  -0.3430   1.0569   1.2222   1.2524   1.2826
     1.3559   1.5300   1.5562   1.6007   1.6728   1.7115

          k = 0.0380 0.0280 0.0000 ( 26880 PWs)   bands (ev):

   -58.2777 -58.2627 -58.2473 -58.2265 -58.1672 -57.7777 -57.7742 -57.7545
   -57.6693 -57.5724 -57.5689 -57.5456 -57.3362 -56.8603 -56.8408 -56.8195
   -56.7387 -56.6386 -34.7054 -34.6680 -34.6509 -34.6208 -34.5938 -34.5258
   -34.5079 -34.4910 -34.4474 -34.4110 -34.4092 -34.4029 -34.3699 -34.3648
   -34.3420 -34.2158 -34.1570 -34.1504 -34.1297 -34.1214 -34.0622 -34.0337
   -34.0148 -34.0105 -33.9736 -33.9613 -33.9579 -33.8724 -33.8681 -33.8394
   -33.8292 -33.8035 -33.7689 -33.7565 -33.7505 -33.7332 -33.6852 -33.5761
   -33.5468 -33.2274 -33.2248 -33.2073 -33.1903 -33.1705 -33.0675 -33.0604
   -33.0581 -33.0252 -32.9843 -32.9837 -32.9510 -32.8961 -32.8884 -32.7702
   -18.9266 -18.7518 -18.7341 -18.3923 -18.2666 -18.1978 -18.0458 -18.0149
   -17.9327 -17.8911 -17.7846 -17.7700 -17.7457 -17.7102 -17.6095 -17.5221
   -17.4835 -17.4652 -17.4484 -17.4106 -17.3815 -17.3573 -17.3320 -17.2782
   -17.2270 -17.1992 -17.1389 -17.1111 -17.0316 -16.9629 -16.8497 -16.7795
   -15.3423 -15.3301 -15.2483 -15.2481 -11.6029  -6.9538  -6.8216  -6.6991
    -6.0840  -5.6400  -5.6115  -5.5691  -5.5398  -5.5175  -5.3694  -5.3296
    -5.3035  -5.2241  -5.1283  -5.0917  -5.0672  -5.0341  -4.9628  -4.9437
    -4.8983  -4.8629  -4.8116  -4.7873  -4.7289  -4.6766  -4.6291  -4.6000
    -4.5702  -4.5334  -4.4964  -4.4626  -4.4243  -4.3977  -4.3486  -4.3110
    -4.2850  -4.1412  -4.1106  -4.0772  -4.0374  -4.0183  -3.9621  -3.8974
    -3.8556  -3.8153  -3.7817  -3.7264  -3.6471  -3.6175  -3.5694  -3.5257
    -3.4619  -3.4061  -3.3574  -3.3011  -3.2422  -3.2144  -3.1856  -3.1482
    -3.0913  -3.0624  -3.0270  -2.9977  -2.9599  -2.9253  -2.9113  -2.8452
    -2.8143  -2.8002  -2.7897  -2.7470  -2.6603  -2.6222  -2.5823  -2.5374
    -2.5157  -2.4952  -2.4817  -2.4308  -2.4013  -2.3581  -2.3109  -2.2690
    -2.2061  -2.1630  -2.1213  -2.0361  -1.9629  -1.8690  -1.8430  -1.8033
    -1.7104  -1.6962  -1.6518  -1.5848  -1.5189  -1.4909  -1.3696  -1.3549
    -1.1779  -1.1632  -1.1242  -0.9361  -0.7074  -0.6914  -0.6140  -0.5146
    -0.4388  -0.4079  -0.3881  -0.3480   1.1130   1.1380   1.3466   1.3915
     1.4072   1.4988   1.5184   1.5851   1.6826   1.7016

          k = 0.0380-0.0559 0.0000 ( 26850 PWs)   bands (ev):

   -58.2735 -58.2689 -58.2452 -58.2265 -58.1672 -57.7775 -57.7741 -57.7547
   -57.6692 -57.5724 -57.5694 -57.5452 -57.3362 -56.8586 -56.8438 -56.8182
   -56.7387 -56.6386 -34.7181 -34.6921 -34.6510 -34.6233 -34.5918 -34.5061
   -34.4916 -34.4337 -34.4287 -34.4176 -34.4097 -34.4063 -34.4030 -34.3653
   -34.3636 -34.2317 -34.1764 -34.1584 -34.1289 -34.1212 -34.0607 -34.0091
   -33.9944 -33.9932 -33.9620 -33.9597 -33.9356 -33.9006 -33.8781 -33.8686
   -33.8274 -33.8032 -33.7688 -33.7569 -33.7499 -33.7340 -33.6866 -33.5760
   -33.5468 -33.2492 -33.2209 -33.2060 -33.1925 -33.1695 -33.0581 -33.0562
   -33.0391 -32.9836 -32.9816 -32.9736 -32.9585 -32.9510 -32.8886 -32.7737
   -18.9154 -18.7565 -18.6606 -18.5121 -18.2573 -18.1860 -18.0213 -17.9269
   -17.9140 -17.8759 -17.8512 -17.7910 -17.7616 -17.7377 -17.7277 -17.5053
   -17.4886 -17.4751 -17.4148 -17.4133 -17.3636 -17.3252 -17.3119 -17.2430
   -17.2357 -17.1724 -17.1460 -17.1174 -17.0402 -16.9694 -16.8635 -16.7707
   -15.3504 -15.3397 -15.2483 -15.2279 -11.6025  -6.9284  -6.8419  -6.6994
    -5.9741  -5.7716  -5.6766  -5.5902  -5.4385  -5.4102  -5.4006  -5.3641
    -5.3189  -5.2243  -5.1597  -5.1387  -5.1130  -5.0475  -4.9972  -4.9528
    -4.9391  -4.9307  -4.9001  -4.8481  -4.7669  -4.6619  -4.6469  -4.6342
    -4.5952  -4.5374  -4.4944  -4.4658  -4.4412  -4.4209  -4.3068  -4.2629
    -4.2011  -4.1610  -4.0919  -4.0598  -4.0057  -3.9612  -3.9025  -3.8646
    -3.8264  -3.7783  -3.6886  -3.5921  -3.5537  -3.5029  -3.4802  -3.4628
    -3.4449  -3.3883  -3.3644  -3.3393  -3.2647  -3.1984  -3.1643  -3.1244
    -3.1143  -3.0998  -3.0343  -2.9899  -2.9468  -2.9048  -2.8907  -2.8637
    -2.8365  -2.8159  -2.7428  -2.7197  -2.6987  -2.6855  -2.6379  -2.5992
    -2.5602  -2.5326  -2.4776  -2.4574  -2.4122  -2.3703  -2.3241  -2.2941
    -2.2334  -2.1366  -2.1196  -2.0553  -1.9658  -1.9318  -1.8681  -1.8144
    -1.7623  -1.6928  -1.5733  -1.5584  -1.5012  -1.3831  -1.3573  -1.2813
    -1.2528  -1.2120  -1.1937  -1.0925  -0.8159  -0.6844  -0.6183  -0.4674
    -0.4222  -0.3889  -0.3830  -0.3717   1.0951   1.1987   1.3752   1.4102
     1.4594   1.5354   1.6102   1.6410   1.6486   1.6794

          k = 0.0380-0.0280 0.0000 ( 26873 PWs)   bands (ev):

   -58.2777 -58.2627 -58.2473 -58.2265 -58.1672 -57.7777 -57.7742 -57.7545
   -57.6693 -57.5724 -57.5689 -57.5456 -57.3362 -56.8603 -56.8408 -56.8195
   -56.7387 -56.6386 -34.7054 -34.6680 -34.6509 -34.6208 -34.5938 -34.5257
   -34.5079 -34.4910 -34.4474 -34.4110 -34.4091 -34.4029 -34.3699 -34.3648
   -34.3419 -34.2158 -34.1571 -34.1504 -34.1297 -34.1214 -34.0622 -34.0337
   -34.0146 -34.0104 -33.9738 -33.9612 -33.9579 -33.8724 -33.8681 -33.8393
   -33.8293 -33.8034 -33.7689 -33.7565 -33.7505 -33.7332 -33.6852 -33.5761
   -33.5468 -33.2274 -33.2248 -33.2073 -33.1903 -33.1705 -33.0675 -33.0604
   -33.0581 -33.0252 -32.9843 -32.9837 -32.9510 -32.8961 -32.8884 -32.7702
   -18.9266 -18.7518 -18.7341 -18.3922 -18.2665 -18.1978 -18.0457 -18.0153
   -17.9326 -17.8910 -17.7850 -17.7699 -17.7453 -17.7103 -17.6094 -17.5226
   -17.4835 -17.4648 -17.4481 -17.4108 -17.3814 -17.3577 -17.3317 -17.2783
   -17.2270 -17.1992 -17.1388 -17.1111 -17.0316 -16.9629 -16.8497 -16.7795
   -15.3423 -15.3301 -15.2483 -15.2481 -11.6029  -6.9539  -6.8215  -6.6991
    -6.0840  -5.6399  -5.6111  -5.5687  -5.5404  -5.5173  -5.3693  -5.3294
    -5.3036  -5.2243  -5.1292  -5.0919  -5.0669  -5.0340  -4.9628  -4.9437
    -4.8981  -4.8629  -4.8114  -4.7874  -4.7289  -4.6763  -4.6292  -4.6001
    -4.5708  -4.5334  -4.4969  -4.4625  -4.4241  -4.3969  -4.3491  -4.3106
    -4.2844  -4.1417  -4.1112  -4.0776  -4.0375  -4.0187  -3.9619  -3.8979
    -3.8558  -3.8149  -3.7815  -3.7261  -3.6469  -3.6172  -3.5688  -3.5256
    -3.4611  -3.4071  -3.3577  -3.3005  -3.2425  -3.2138  -3.1859  -3.1484
    -3.0921  -3.0621  -3.0265  -2.9979  -2.9595  -2.9256  -2.9113  -2.8453
    -2.8140  -2.7990  -2.7889  -2.7476  -2.6595  -2.6215  -2.5825  -2.5370
    -2.5155  -2.4953  -2.4820  -2.4307  -2.4017  -2.3582  -2.3108  -2.2683
    -2.2070  -2.1634  -2.1221  -2.0368  -1.9629  -1.8683  -1.8432  -1.8035
    -1.7110  -1.6964  -1.6519  -1.5851  -1.5188  -1.4910  -1.3696  -1.3550
    -1.1780  -1.1632  -1.1243  -0.9360  -0.7074  -0.6913  -0.6140  -0.5146
    -0.4387  -0.4086  -0.3881  -0.3476   1.1131   1.1382   1.3478   1.3919
     1.4078   1.4985   1.5186   1.5848   1.6817   1.7021

          k =-0.0760-0.0000 0.0000 ( 26902 PWs)   bands (ev):

   -58.2798 -58.2566 -58.2512 -58.2266 -58.1671 -57.7778 -57.7742 -57.7544
   -57.6694 -57.5725 -57.5685 -57.5460 -57.3363 -56.8617 -56.8379 -56.8211
   -56.7387 -56.6387 -34.6905 -34.6503 -34.6178 -34.6037 -34.5985 -34.5977
   -34.5477 -34.4927 -34.4514 -34.4117 -34.4015 -34.3886 -34.3837 -34.3645
   -34.3161 -34.1935 -34.1417 -34.1357 -34.1223 -34.1176 -34.0777 -34.0687
   -34.0550 -34.0099 -33.9693 -33.9609 -33.9553 -33.8751 -33.8535 -33.8362
   -33.8181 -33.8036 -33.7688 -33.7544 -33.7514 -33.7323 -33.6832 -33.5761
   -33.5492 -33.2335 -33.2102 -33.1881 -33.1714 -33.1656 -33.1485 -33.0696
   -33.0593 -33.0115 -32.9931 -32.9838 -32.9512 -32.8882 -32.8702 -32.7668
   -18.9262 -18.7385 -18.7358 -18.2965 -18.2012 -18.1439 -18.0839 -18.0312
   -17.9011 -17.8703 -17.7765 -17.7671 -17.7309 -17.6872 -17.6054 -17.5380
   -17.5302 -17.4928 -17.4545 -17.4201 -17.4136 -17.4070 -17.3788 -17.3436
   -17.2621 -17.2286 -17.1801 -17.0922 -17.0134 -16.9466 -16.8273 -16.7935
   -15.3335 -15.2983 -15.2894 -15.2484 -11.6020  -6.9641  -6.8042  -6.6989
    -6.1299  -5.4907  -5.4536  -5.4027  -5.3478  -5.3217  -5.3009  -5.2585
    -5.2392  -5.2131  -5.1391  -5.0680  -5.0310  -4.9634  -4.8731  -4.8648
    -4.8021  -4.7870  -4.7844  -4.7648  -4.7326  -4.6912  -4.6837  -4.6727
    -4.6326  -4.6013  -4.5060  -4.4466  -4.3615  -4.3469  -4.2837  -4.2714
    -4.2630  -4.2279  -4.1030  -4.0332  -4.0257  -4.0233  -4.0085  -3.9781
    -3.8982  -3.8793  -3.8490  -3.8206  -3.7033  -3.6481  -3.6195  -3.5371
    -3.5067  -3.4514  -3.4505  -3.4055  -3.3070  -3.2658  -3.2506  -3.1916
    -3.1615  -3.0975  -3.0674  -3.0075  -2.9973  -2.9528  -2.9336  -2.9114
    -2.8961  -2.8707  -2.7915  -2.7345  -2.7296  -2.7054  -2.6446  -2.6380
    -2.6303  -2.5626  -2.5573  -2.4908  -2.3416  -2.3116  -2.2537  -2.2426
    -2.1193  -2.0961  -2.0405  -1.9741  -1.9402  -1.8527  -1.7887  -1.7185
    -1.6715  -1.6451  -1.6254  -1.6120  -1.5613  -1.5471  -1.5294  -1.4599
    -1.2738  -1.1505  -1.0534  -0.7530  -0.7199  -0.6923  -0.5722  -0.5237
    -0.5171  -0.4626  -0.4546  -0.4044   1.0719   1.1114   1.2193   1.2429
     1.4034   1.4953   1.5184   1.5282   1.5968   1.6965

          k =-0.0760 0.0279 0.0000 ( 26908 PWs)   bands (ev):

   -58.2777 -58.2627 -58.2473 -58.2265 -58.1672 -57.7777 -57.7741 -57.7545
   -57.6693 -57.5725 -57.5689 -57.5456 -57.3363 -56.8603 -56.8408 -56.8195
   -56.7387 -56.6387 -34.7056 -34.6688 -34.6509 -34.6208 -34.5939 -34.5259
   -34.5084 -34.4911 -34.4459 -34.4110 -34.4084 -34.4014 -34.3699 -34.3650
   -34.3420 -34.2166 -34.1538 -34.1507 -34.1300 -34.1217 -34.0623 -34.0343
   -34.0179 -34.0089 -33.9681 -33.9574 -33.9537 -33.8794 -33.8726 -33.8386
   -33.8333 -33.8035 -33.7690 -33.7548 -33.7506 -33.7330 -33.6847 -33.5760
   -33.5493 -33.2273 -33.2247 -33.2091 -33.1908 -33.1701 -33.0675 -33.0604
   -33.0593 -33.0252 -32.9844 -32.9837 -32.9513 -32.8961 -32.8884 -32.7701
   -18.9183 -18.7437 -18.6969 -18.3714 -18.2200 -18.1511 -18.0157 -17.9891
   -17.8771 -17.8293 -17.8233 -17.7525 -17.7499 -17.6564 -17.6188 -17.5974
   -17.5802 -17.5524 -17.5382 -17.4928 -17.3898 -17.3480 -17.3301 -17.2766
   -17.2664 -17.1891 -17.1496 -17.0972 -17.0216 -16.9518 -16.8430 -16.7795
   -15.3406 -15.3295 -15.2485 -15.2481 -11.6017  -6.9464  -6.8164  -6.6991
    -6.0652  -5.6192  -5.6180  -5.5534  -5.3586  -5.2421  -5.2090  -5.2077
    -5.1967  -5.1433  -5.1070  -5.0955  -5.0797  -4.9889  -4.9477  -4.9198
    -4.8503  -4.8278  -4.8169  -4.7969  -4.6796  -4.6780  -4.6451  -4.6186
    -4.6179  -4.5330  -4.4912  -4.4631  -4.4343  -4.4123  -4.3820  -4.2928
    -4.2178  -4.1861  -4.1090  -4.0702  -4.0317  -4.0203  -3.9278  -3.8731
    -3.7678  -3.7610  -3.7394  -3.6876  -3.6782  -3.6406  -3.6087  -3.5311
    -3.4800  -3.4555  -3.4028  -3.3148  -3.3115  -3.2702  -3.2300  -3.2061
    -3.1876  -3.1328  -3.0741  -3.0525  -2.9840  -2.9749  -2.9501  -2.9203
    -2.8943  -2.7988  -2.7928  -2.7472  -2.7448  -2.7011  -2.6763  -2.6532
    -2.6176  -2.5725  -2.5283  -2.5034  -2.4775  -2.4609  -2.3339  -2.3098
    -2.2104  -2.0869  -2.0160  -1.9105  -1.9081  -1.8696  -1.7749  -1.7596
    -1.6728  -1.6721  -1.6436  -1.6092  -1.5950  -1.5889  -1.3678  -1.3282
    -1.2634  -1.1488  -1.1321  -0.9475  -0.7162  -0.6951  -0.6822  -0.5160
    -0.4777  -0.4230  -0.4190  -0.3787   1.0736   1.1215   1.2127   1.3572
     1.4450   1.4566   1.4821   1.5151   1.6433   1.6851

          k =-0.0760-0.0559 0.0000 ( 26868 PWs)   bands (ev):

   -58.2735 -58.2689 -58.2452 -58.2265 -58.1672 -57.7775 -57.7741 -57.7547
   -57.6692 -57.5724 -57.5694 -57.5452 -57.3362 -56.8586 -56.8438 -56.8182
   -56.7387 -56.6386 -34.7182 -34.6928 -34.6510 -34.6233 -34.5918 -34.5061
   -34.4916 -34.4325 -34.4276 -34.4179 -34.4100 -34.4064 -34.4017 -34.3656
   -34.3639 -34.2324 -34.1728 -34.1588 -34.1290 -34.1212 -34.0606 -34.0078
   -33.9938 -33.9895 -33.9667 -33.9586 -33.9260 -33.9011 -33.8833 -33.8751
   -33.8308 -33.8032 -33.7692 -33.7551 -33.7499 -33.7336 -33.6860 -33.5758
   -33.5493 -33.2489 -33.2208 -33.2075 -33.1937 -33.1690 -33.0594 -33.0562
   -33.0391 -32.9836 -32.9815 -32.9736 -32.9585 -32.9513 -32.8886 -32.7736
   -18.9096 -18.7523 -18.6282 -18.4711 -18.2345 -18.1318 -17.9704 -17.8868
   -17.8626 -17.8598 -17.8439 -17.7444 -17.7386 -17.7031 -17.6457 -17.6188
   -17.6082 -17.6038 -17.5547 -17.5518 -17.3568 -17.3473 -17.2921 -17.2507
   -17.2262 -17.2039 -17.1038 -17.1023 -17.0318 -16.9571 -16.8536 -16.7705
   -15.3492 -15.3385 -15.2485 -15.2276 -11.6013  -6.9234  -6.8338  -6.6995
    -5.9557  -5.7459  -5.7185  -5.6692  -5.3508  -5.2968  -5.1959  -5.1679
    -5.1293  -5.1129  -5.0726  -5.0706  -5.0006  -4.9562  -4.9422  -4.9154
    -4.9012  -4.8715  -4.8410  -4.8163  -4.7538  -4.7497  -4.7348  -4.6914
    -4.6443  -4.5594  -4.5366  -4.5182  -4.4677  -4.4284  -4.2539  -4.2078
    -4.1815  -4.1667  -4.0808  -4.0562  -3.9796  -3.9497  -3.9061  -3.8303
    -3.7358  -3.6884  -3.6386  -3.5832  -3.5577  -3.5270  -3.5215  -3.4689
    -3.4406  -3.3910  -3.3586  -3.3529  -3.3019  -3.2453  -3.1992  -3.1804
    -3.1541  -3.1491  -3.1261  -3.1003  -3.0698  -3.0471  -3.0426  -2.9845
    -2.9369  -2.9241  -2.8495  -2.8176  -2.7636  -2.7104  -2.6868  -2.6307
    -2.6236  -2.5697  -2.5640  -2.4996  -2.4716  -2.4231  -2.4102  -2.3389
    -2.1601  -2.0960  -1.9912  -1.9465  -1.9355  -1.8664  -1.8332  -1.8207
    -1.6814  -1.6708  -1.6077  -1.6045  -1.5794  -1.3674  -1.3399  -1.3039
    -1.2738  -1.2356  -1.2024  -1.0902  -0.7976  -0.7097  -0.6741  -0.4840
    -0.4620  -0.4179  -0.3871  -0.3727   1.0405   1.2089   1.2772   1.3584
     1.3796   1.4218   1.4516   1.6378   1.6688   1.6999

     the Fermi energy is     0.3952 ev

!    total energy              =   -3293.27281794 Ry
     estimated scf accuracy    <       0.00000004 Ry
     smearing contrib. (-TS)   =      -0.00047499 Ry
     internal energy E=F+TS    =   -3293.27234296 Ry

     The total energy is F=E-TS. E is the sum of the following terms:
     one-electron contribution =  -34645.90123642 Ry
     hartree contribution      =   17387.48486161 Ry
     xc contribution           =    -542.12973554 Ry
     ewald contribution        =   14507.27158422 Ry
     electric field correction =       0.00218317 Ry

     convergence has been achieved in  59 iterations

     Forces acting on atoms (cartesian axes, Ry/au):

     atom    1 type  1   force =     0.00002361    0.00608944    0.04335968
     atom    2 type  1   force =     0.00000510   -0.00403008   -0.00308232
     atom    3 type  1   force =     0.00004425    0.00280169   -0.00209924
     atom    4 type  1   force =     0.00005013   -0.00044823    0.10165807
     atom    5 type  1   force =    -0.00000523    0.00013679    0.00747949
     atom    6 type  1   force =     0.00001211    0.00310860    0.00047328
     atom    7 type  1   force =     0.07786303    0.00122627   -0.03552840
     atom    8 type  1   force =     0.00795491   -0.02606207    0.00024973
     atom    9 type  1   force =     0.00930154    0.01907072    0.00056730
     atom   10 type  2   force =    -0.00006635    0.00812320   -0.15940290
     atom   11 type  2   force =    -0.00006859    0.02226724   -0.00327722
     atom   12 type  2   force =     0.00002547   -0.02376124   -0.00520098
     atom   13 type  1   force =    -0.07795067    0.00076083   -0.03551884
     atom   14 type  1   force =    -0.00807826   -0.02593695    0.00026663
     atom   15 type  1   force =    -0.00939811    0.01915790    0.00060884
     atom   16 type  2   force =     0.00010041    0.00152098    0.07235843
     atom   17 type  2   force =     0.00009113    0.03130067    0.00147260
     atom   18 type  2   force =     0.00002968   -0.02630653    0.00309878
     atom   19 type  1   force =     0.00005432    0.00277627    0.05722142
     atom   20 type  1   force =     0.00000809   -0.00178953    0.00097240
     atom   21 type  1   force =     0.00005056   -0.00089369    0.10058666
     atom   22 type  1   force =     0.00000533   -0.00256034    0.00650266
     atom   23 type  1   force =    -0.00002617    0.00310905    0.00435734
     atom   24 type  1   force =     0.07897975    0.00059703   -0.03634549
     atom   25 type  1   force =     0.00962077   -0.02997715    0.00062813
     atom   26 type  1   force =     0.01027648    0.01558293    0.00402232
     atom   27 type  2   force =    -0.00008473   -0.00571209   -0.15463178
     atom   28 type  2   force =     0.00001676    0.02796747   -0.00280140
     atom   29 type  2   force =    -0.00004935   -0.01127868   -0.01283875
     atom   30 type  1   force =    -0.07906307    0.00019462   -0.03635032
     atom   31 type  1   force =    -0.00970248   -0.02981333    0.00063242
     atom   32 type  1   force =    -0.01025007    0.01556092    0.00398673
     atom   33 type  2   force =     0.00011943   -0.00294935    0.07717343
     atom   34 type  2   force =     0.00003906    0.03528523    0.00329608
     atom   35 type  2   force =     0.00000188   -0.01751726   -0.00023647
     atom   36 type  1   force =     0.00008335    0.00417237    0.05150835
     atom   37 type  1   force =    -0.00000191   -0.00284122   -0.00284372
     atom   38 type  1   force =    -0.00003838    0.00203107    0.00353755
     atom   39 type  1   force =     0.00004522    0.00293606    0.10099032
     atom   40 type  1   force =    -0.00000592   -0.00195050    0.00747913
     atom   41 type  1   force =    -0.00005237    0.00064087    0.00074086
     atom   42 type  1   force =     0.07838888    0.00162956   -0.03444907
     atom   43 type  1   force =     0.00608480   -0.02323135   -0.00032782
     atom   44 type  1   force =     0.01011054    0.01584498   -0.00666472
     atom   45 type  2   force =    -0.00005620   -0.00739856   -0.16394268
     atom   46 type  2   force =    -0.00003019    0.01847570    0.00057287
     atom   47 type  2   force =     0.00002314   -0.01468550    0.01691409
     atom   48 type  1   force =    -0.07849260    0.00118575   -0.03443306
     atom   49 type  1   force =    -0.00607426   -0.02325960   -0.00032176
     atom   50 type  1   force =    -0.01007848    0.01581793   -0.00667075
     atom   51 type  2   force =     0.00010222   -0.00344199    0.06016663
     atom   52 type  2   force =     0.00004573    0.02832091    0.00339439
     atom   53 type  2   force =     0.00009831   -0.02107835    0.00088265
     atom   54 type  3   force =     0.00003840    0.00068737   -0.00186726
     atom   55 type  3   force =    -0.00004911   -0.00074792   -0.00041481
     atom   56 type  4   force =     0.00001987    0.00036490    0.00164930
     atom   57 type  4   force =    -0.00018542   -0.00075935    0.00052364
     atom   58 type  3   force =     0.00003419   -0.00046315   -0.00033315
     atom   59 type  3   force =     0.00005946    0.00014865    0.00025067

     Total force =     0.434798     Total SCF correction =     0.000593
  @ DRIVER MODE: Message from server: STATUS
  @ DRIVER MODE: Message from server: GETFORCE
  @ DRIVER MODE: Returning v,forces,stress,ensemble 

     Writing output data file ./calc.save/
  @ DRIVER MODE: Message from server: EXIT
  @ DRIVE MODE: Exiting  
 
     init_run     :     17.84s CPU     18.22s WALL (       1 calls)
     electrons    :   1658.61s CPU   1693.24s WALL (       1 calls)
     forces       :      4.38s CPU      4.56s WALL (       1 calls)

     Called by init_run:
     wfcinit      :      9.58s CPU      9.71s WALL (       1 calls)
     potinit      :      7.23s CPU      7.32s WALL (       1 calls)
     hinit0       :      0.42s CPU      0.44s WALL (       1 calls)

     Called by electrons:
     c_bands      :   1381.91s CPU   1400.13s WALL (      59 calls)
     sum_band     :    192.96s CPU    200.63s WALL (      59 calls)
     v_of_rho     :     64.23s CPU     66.65s WALL (      60 calls)
     newd         :     23.24s CPU     29.23s WALL (      60 calls)
     mix_rho      :      2.46s CPU      2.67s WALL (      59 calls)
     vdW_kernel   :      5.84s CPU      5.85s WALL (       1 calls)

     Called by c_bands:
     init_us_2    :      9.46s CPU      9.55s WALL (    1200 calls)
     cegterg      :   1350.77s CPU   1368.45s WALL (     591 calls)

     Called by *egterg:
     cdiaghg      :    146.99s CPU    147.84s WALL (    4262 calls)
     h_psi        :    794.23s CPU    804.94s WALL (    4272 calls)
     s_psi        :    101.75s CPU    102.03s WALL (    4272 calls)
     g_psi        :      2.68s CPU      2.70s WALL (    3671 calls)

     Called by h_psi:
     h_psi:calbec :     95.68s CPU     96.66s WALL (    4272 calls)
     vloc_psi     :    592.84s CPU    597.99s WALL (    4272 calls)
     add_vuspsi   :    101.96s CPU    103.57s WALL (    4272 calls)

     General routines
     calbec       :    130.72s CPU    131.79s WALL (    4902 calls)
     fft          :     35.64s CPU     35.79s WALL (    3780 calls)
     ffts         :      0.20s CPU      0.20s WALL (     119 calls)
     fftw         :    661.35s CPU    666.98s WALL (  842582 calls)
     interpolate  :      0.68s CPU      0.69s WALL (      60 calls)
     davcio       :      0.00s CPU      0.31s WALL (      10 calls)
 
     Parallel routines
 
     PWSCF        :  28m 1.08s CPU  28m37.06s WALL

 
   This run was terminated on:  12:50:12  18Oct2021            

=------------------------------------------------------------------------------=
   JOB DONE.
=------------------------------------------------------------------------------=
