
     Program PWSCF v.6.7GPU starts on 26Sep2021 at 22:17: 7 

     This program is part of the open-source Quantum ESPRESSO suite
     for quantum simulation of materials; please cite
         "P. Giannozzi et al., J. Phys.:Condens. Matter 21 395502 (2009);
         "P. Giannozzi et al., J. Phys.:Condens. Matter 29 465901 (2017);
         "P. Giannozzi et al., J. Chem. Phys. 152 154105 (2020);
          URL http://www.quantum-espresso.org", 
     in publications or presentations arising from this work. More details at
     http://www.quantum-espresso.org/quote

     Parallel version (MPI), running on     8 processors

     MPI processes distributed on     1 nodes
     R & G space division:  proc/nbgrp/npool/nimage =       8
     Reading input from /storage/home/hcoda1/3/ntian30/research/carbon/CxH_vib/H2O_calc/ads_slab/CH2OHN2HO_a/out_0054/pw.inp
Warning: card &CELL ignored
Warning: card   CELL_DYNAMICS='IPI', ignored
Warning: card / ignored

     Current dimensions of program PWSCF are:
     Max number of different atomic species (ntypx) = 10
     Max number of k-points (npk) =  40000
     Max angular momentum in pseudopotentials (lmaxx) =  3
     Presently no symmetry can be used with electric field

     Message from routine cell_base_init:
     DEPRECATED: use true lattice parameter, not A to a.u. conversion factor

     **************************************************************************
     Initializing libbeef V0.1.2 with the BEEF-vdW functional.
     Citation: Wellendorff et al., PRB 85, 235149 (2012).
     **************************************************************************


     IMPORTANT: XC functional enforced from input :
     Exchange-correlation= BEEF-VDW
                           (   1   4  43  14   2   0   0)
     Any further DFT definition will be discarded
     Please, verify this is what you really want


     Subspace diagonalization in iterative solution of the eigenvalue problem:
     one sub-group per band group will be used
     scalapack distributed-memory algorithm (size of sub-group:  2*  2 procs)

  @ DRIVER MODE: Connecting to 
 qe_1139763_2971670.sched-torque.pace.gatech.edulgah6wz8_scratch
  using UNIX socket
  @ DRIVER MODE: Message from server: STATUS
  @ DRIVER MODE: Message from server: INIT
  @ DRIVER MODE: Receiving replica           0          -1
  @ DRIVER MODE: Receiving encoded integer          25
  @ DRIVER MODE:  SCF:  T  FORCE:  T  STRESS:  F  VC:  F  ENSEMBLE:  F
  @ DRIVER MODE:  SCF:  T  FORCE:  T  STRESS:  F  VC:  F  ENSEMBLE:  F
 
     Parallelization info
     --------------------
     sticks:   dense  smooth     PW     G-vecs:    dense   smooth      PW
     Min         409     164     47                70857    17926    2743
     Max         411     165     48                70858    17931    2751
     Sum        3275    1317    379               566857   143421   21985
 
     Using Slab Decomposition
 


     bravais-lattice index     =            0
     lattice parameter (alat)  =       1.8897  a.u.
     unit-cell volume          =    6658.9804 (a.u.)^3
     number of atoms/cell      =           56
     number of atomic types    =            5
     number of electrons       =       408.00
     number of Kohn-Sham states=          214
     kinetic-energy cutoff     =      29.3995  Ry
     charge density cutoff     =     293.9946  Ry
     scf convergence threshold =      7.3E-08
     mixing beta               =       0.0500
     number of iterations used =            8  plain     mixing
     Exchange-correlation= BEEF-VDW
                           (   1   4  43  14   2   0   0)

     celldm(1)=   1.889726  celldm(2)=   0.000000  celldm(3)=   0.000000
     celldm(4)=   0.000000  celldm(5)=   0.000000  celldm(6)=   0.000000

     crystal axes: (cart. coord. in units of alat)
               a(1) = (   6.579727   0.000000   0.000000 )  
               a(2) = (  -0.000775   5.961596   0.000000 )  
               a(3) = (   0.000000   0.000000  25.155947 )  

     reciprocal axes: (cart. coord. in units 2 pi/alat)
               b(1) = (  0.151982  0.000020  0.000000 )  
               b(2) = (  0.000000  0.167740  0.000000 )  
               b(3) = (  0.000000  0.000000  0.039752 )  


     PseudoPot. # 1 for C  read from file:
     /storage/coda1/p-amedford6/0/shared/rich_project_chbe-medford/medford-share/data/pseudos_module/espresso/nninc/pbe/van/C.UPF
     MD5 check sum: 1a69bf6b8db32088f5b2163dbdb77a27
     Pseudo is Ultrasoft, Zval =  4.0
     Generated by new atomic code, or converted to UPF format
     Using radial grid of  721 points,  4 beta functions with: 
                l(1) =   0
                l(2) =   0
                l(3) =   1
                l(4) =   1
     Q(r) pseudized with  8 coefficients,  rinner =    0.800   0.800   0.800


     PseudoPot. # 2 for H  read from file:
     /storage/coda1/p-amedford6/0/shared/rich_project_chbe-medford/medford-share/data/pseudos_module/espresso/nninc/pbe/van/H.UPF
     MD5 check sum: b5ee9d7bfd3a09ee7748110bda690ff7
     Pseudo is Ultrasoft, Zval =  1.0
     Generated by new atomic code, or converted to UPF format
     Using radial grid of  615 points,  1 beta functions with: 
                l(1) =   0
     Q(r) pseudized with  8 coefficients,  rinner =    0.800

     PseudoPot. # 3 for O  read from file:
     /storage/coda1/p-amedford6/0/shared/rich_project_chbe-medford/medford-share/data/pseudos_module/espresso/nninc/pbe/van/O.UPF
     MD5 check sum: 78c19812648e8988a0fe644b0f25305e
     Pseudo is Ultrasoft, Zval =  6.0
     Generated by new atomic code, or converted to UPF format
     Using radial grid of  737 points,  4 beta functions with: 
                l(1) =   0
                l(2) =   0
                l(3) =   1
                l(4) =   1
     Q(r) pseudized with  8 coefficients,  rinner =    0.800   0.800   0.800


     PseudoPot. # 4 for Ti read from file:
     /storage/coda1/p-amedford6/0/shared/rich_project_chbe-medford/medford-share/data/pseudos_module/espresso/nninc/pbe/van/Ti.UPF
     MD5 check sum: 8e4df49b7f0d34bbd5052bf3f5ea0213
     Pseudo is Ultrasoft, Zval = 12.0
     Generated by new atomic code, or converted to UPF format
     Using radial grid of  851 points,  6 beta functions with: 
                l(1) =   0
                l(2) =   0
                l(3) =   1
                l(4) =   1
                l(5) =   2
                l(6) =   2
     Q(r) pseudized with  8 coefficients,  rinner =    1.000   1.000   1.000
                                                       1.000   1.000

     PseudoPot. # 5 for N  read from file:
     /storage/coda1/p-amedford6/0/shared/rich_project_chbe-medford/medford-share/data/pseudos_module/espresso/nninc/pbe/van/N.UPF
     MD5 check sum: 90d10febe142ad51ac9d5be1deb811c4
     Pseudo is Ultrasoft, Zval =  5.0
     Generated by new atomic code, or converted to UPF format
     Using radial grid of  729 points,  4 beta functions with: 
                l(1) =   0
                l(2) =   0
                l(3) =   1
                l(4) =   1
     Q(r) pseudized with  8 coefficients,  rinner =    0.800   0.800   0.800


     atomic species   valence    mass     pseudopotential
        C1             4.00    12.01100     C ( 1.00)
        H1             1.00     1.00800     H ( 1.00)
        O1             6.00    15.99900     O ( 1.00)
        Ti1           12.00    47.86700     Ti( 1.00)
        N1             5.00    14.00700     N ( 1.00)

     No symmetry found



   Cartesian axes

     site n.     atom                  positions (alat units)
         1           C1  tau(   1) = (   4.4694424   3.1333252  19.5683752  )
         2           H1  tau(   2) = (   3.5225350   3.1610456  19.0510688  )
         3           H1  tau(   3) = (   5.8501665   2.9975095  17.9951248  )
         4           H1  tau(   4) = (   4.8161173   2.2403860  20.0673745  )
         5           O1  tau(   5) = (   0.0006271   0.0005054   7.9858123  )
         6           O1  tau(   6) = (   3.2906025   0.0005020   7.3038282  )
         7           O1  tau(   7) = (   4.5942328   1.4918067   9.2879030  )
         8           O1  tau(   8) = (   1.9868534   1.4903216   9.2879459  )
         9           O1  tau(   9) = (   3.2658522   0.0207364  11.3165592  )
        10           O1  tau(  10) = (   0.0022773   0.0111808  10.5833539  )
        11           O1  tau(  11) = (   1.2584498   1.5025451  12.6333345  )
        12           O1  tau(  12) = (   5.2827793   1.4879884  12.6049259  )
        13           O1  tau(  13) = (   6.5229081   0.0016576  14.6697044  )
        14           O1  tau(  14) = (   3.2671471   5.9223268  13.9212949  )
        15           O1  tau(  15) = (   4.5038562   1.5078053  16.0770842  )
        16           O1  tau(  16) = (   1.9713840   1.5400684  15.9915579  )
        17           O1  tau(  17) = (   3.2904802   0.0005063   4.7018136  )
        18           O1  tau(  18) = (   0.0083768   5.9574009  17.1899481  )
        19           O1  tau(  19) = (   1.3043587   1.4918075   6.0039043  )
        20           O1  tau(  20) = (   5.2767064   1.4903225   6.0039473  )
        21           O1  tau(  21) = (   0.0002396   2.9813036   7.9858123  )
        22           O1  tau(  22) = (   3.2902150   2.9813002   7.3038282  )
        23           O1  tau(  23) = (   4.5938453   4.4726049   9.2879030  )
        24           O1  tau(  24) = (   1.9864658   4.4711199   9.2879459  )
        25           O1  tau(  25) = (   3.2699439   2.9592623  11.2883102  )
        26           O1  tau(  26) = (   0.0014687   2.9942081  10.5424492  )
        27           O1  tau(  27) = (   1.2624719   4.4656417  12.6394791  )
        28           O1  tau(  28) = (   5.2897987   4.4902883  12.6063686  )
        29           O1  tau(  29) = (   6.5205774   2.9949485  14.6561412  )
        30           O1  tau(  30) = (   3.3050662   2.9767913  13.8748461  )
        31           O1  tau(  31) = (   4.4950179   4.4323158  16.0974573  )
        32           O1  tau(  32) = (   1.9671975   4.4064719  15.9829847  )
        33           O1  tau(  33) = (   3.2900926   2.9813045   4.7018136  )
        34           O1  tau(  34) = (   1.3039711   4.4726057   6.0039043  )
        35           O1  tau(  35) = (   5.2763189   4.4711207   6.0039473  )
        36           O1  tau(  36) = (   6.5424668   2.9800173  17.2949776  )
        37           Ti1 tau(  37) = (   0.0004258   2.9801865   6.0000000  )
        38           Ti1 tau(  38) = (   3.2906075   1.4906267   6.0002472  )
        39           Ti1 tau(  39) = (   3.3167600   3.1006338   9.2159236  )
        40           Ti1 tau(  40) = (   0.0391818   1.5627686   9.3440282  )
        41           Ti1 tau(  41) = (   6.5783755   3.0458713  12.7937554  )
        42           Ti1 tau(  42) = (   3.2318486   1.5634082  12.4209175  )
        43           Ti1 tau(  43) = (   3.2670811   2.9501284  15.6494465  )
        44           Ti1 tau(  44) = (   0.0280251   1.4030395  16.0254105  )
        45           Ti1 tau(  45) = (   0.0000382   5.9609847   6.0000000  )
        46           Ti1 tau(  46) = (   3.2902200   4.4714249   6.0002472  )
        47           Ti1 tau(  47) = (   3.3194908   0.1157174   9.1781592  )
        48           Ti1 tau(  48) = (   0.0398790   4.5135925   9.3581580  )
        49           Ti1 tau(  49) = (   6.5007586   0.0629955  12.6074658  )
        50           Ti1 tau(  50) = (   3.2510718   4.6571100  12.6672192  )
        51           Ti1 tau(  51) = (   3.3282601   5.9350673  16.2366838  )
        52           Ti1 tau(  52) = (   0.0495319   4.5308688  15.9870001  )
        53           N1  tau(  53) = (   5.2748021   5.2735043  20.4272172  )
        54           N1  tau(  54) = (   4.8779203   4.2732533  20.0576380  )
        55           O1  tau(  55) = (   3.0402417   5.9484128  18.0530970  )
        56           H1  tau(  56) = (   2.1234608   0.1014992  18.3642784  )

     number of k points=    10  Fermi-Dirac smearing, width (Ry)=  0.0073
                       cart. coord. in units 2pi/alat
        k(    1) = (   0.0000000   0.0000000   0.0000000), wk =   0.1250000
        k(    2) = (   0.0000000   0.0419351   0.0000000), wk =   0.2500000
        k(    3) = (   0.0000000  -0.0838702   0.0000000), wk =   0.1250000
        k(    4) = (   0.0379955   0.0000049   0.0000000), wk =   0.2500000
        k(    5) = (   0.0379955   0.0419400   0.0000000), wk =   0.2500000
        k(    6) = (   0.0379955  -0.0838652   0.0000000), wk =   0.2500000
        k(    7) = (   0.0379955  -0.0419301   0.0000000), wk =   0.2500000
        k(    8) = (  -0.0759910  -0.0000099   0.0000000), wk =   0.1250000
        k(    9) = (  -0.0759910   0.0419252   0.0000000), wk =   0.2500000
        k(   10) = (  -0.0759910  -0.0838800   0.0000000), wk =   0.1250000

     Dense  grid:   566857 G-vectors     FFT dimensions: (  72,  64, 270)

     Smooth grid:   143421 G-vectors     FFT dimensions: (  45,  40, 180)

     Estimated max dynamical RAM per process >     462.28 MB

     Estimated total dynamical RAM >       3.61 GB
     Cannot read rho : file not found

     Initial potential from superposition of free atoms

     starting charge  391.99915, renormalised to  408.00000

     negative rho (up, down):  1.414E-02 0.000E+00


     %%%%%%%%%%%%%%%%%%%%%%%%%%%%%%%%%%%%%%%%%%%%%%%%%%%%%%%%%%%%%%%%%%%%%%%%
     %                                                                      %
     % You are using vdW-DF, which was implemented by the Thonhauser group. %
     % Please cite the following two papers that made this development      %
     % possible and the two reviews that describe the various versions:     %
     %                                                                      %
     %   T. Thonhauser et al., PRL 115, 136402 (2015).                      %
     %   T. Thonhauser et al., PRB 76, 125112 (2007).                       %
     %   K. Berland et al., Rep. Prog. Phys. 78, 066501 (2015).             %
     %   D.C. Langreth et al., J. Phys.: Condens. Matter 21, 084203 (2009). %
     %                                                                      %
     %                                                                      %
     % If you are calculating the stress with vdW-DF, please also cite:     %
     %                                                                      %
     %   R. Sabatini et al., J. Phys.: Condens. Matter 24, 424209 (2012).   %
     %                                                                      %
     %%%%%%%%%%%%%%%%%%%%%%%%%%%%%%%%%%%%%%%%%%%%%%%%%%%%%%%%%%%%%%%%%%%%%%%%


 
     Adding external electric field

     Computed dipole along edir(3) : 
        Dipole              -15.5936 Ry au,        -39.6351 Debye
        Dipole field         -0.0294 Ry au, 
 
        Potential amp.        2.7279 Ry
        Total length         46.3494 bohr
 
     Starting wfcs are  308 atomic wfcs
  @ DRIVER MODE: Message from server: STATUS
  @ DRIVER MODE: Message from server: POSDATA
  @ DRIVER MODE: Reading and sharing cell 
  @ DRIVER MODE: Reading and sharing positions 
  @ DRIVER MODE: Received positions 

     total cpu time spent up to now is       24.1 secs

     Self-consistent Calculation

     iteration #  1     ecut=    29.40 Ry     beta= 0.05
     Davidson diagonalization with overlap
     c_bands:  3 eigenvalues not converged
     c_bands:  1 eigenvalues not converged
     c_bands:  1 eigenvalues not converged
     c_bands:  2 eigenvalues not converged
     c_bands:  4 eigenvalues not converged
     c_bands:  2 eigenvalues not converged
     ethr =  1.00E-05,  avg # of iterations = 30.3

     negative rho (up, down):  7.960E-03 0.000E+00
 
     Adding external electric field

     Computed dipole along edir(3) : 
        Dipole               61.2076 Ry au,        155.5743 Debye
        Dipole field          0.1155 Ry au, 
 
        Potential amp.      -10.7073 Ry
        Total length         46.3494 bohr
 

     total cpu time spent up to now is       91.3 secs

     total energy              =   -2234.29132570 Ry
     estimated scf accuracy    <    8817.46477581 Ry

     iteration #  2     ecut=    29.40 Ry     beta= 0.05
     Davidson diagonalization with overlap
     ethr =  1.00E-02,  avg # of iterations = 31.4

     negative rho (up, down):  2.187E-04 0.000E+00
 
     Adding external electric field

     Computed dipole along edir(3) : 
        Dipole                0.4325 Ry au,          1.0993 Debye
        Dipole field          0.0008 Ry au, 
 
        Potential amp.       -0.0757 Ry
        Total length         46.3494 bohr
 

     total cpu time spent up to now is      213.4 secs

     total energy              =   -2460.19003802 Ry
     estimated scf accuracy    <   79960.60825150 Ry

     iteration #  3     ecut=    29.40 Ry     beta= 0.05
     Davidson diagonalization with overlap
     ethr =  1.00E-02,  avg # of iterations = 17.1

     negative rho (up, down):  2.583E-04 0.000E+00
 
     Adding external electric field

     Computed dipole along edir(3) : 
        Dipole               -3.0079 Ry au,         -7.6454 Debye
        Dipole field         -0.0057 Ry au, 
 
        Potential amp.        0.5262 Ry
        Total length         46.3494 bohr
 

     total cpu time spent up to now is      283.3 secs

     total energy              =   -2994.90453430 Ry
     estimated scf accuracy    <    8006.51631508 Ry

     iteration #  4     ecut=    29.40 Ry     beta= 0.05
     Davidson diagonalization with overlap
     ethr =  1.00E-02,  avg # of iterations = 11.8

     negative rho (up, down):  2.683E-04 0.000E+00
 
     Adding external electric field

     Computed dipole along edir(3) : 
        Dipole               -4.4231 Ry au,        -11.2423 Debye
        Dipole field         -0.0083 Ry au, 
 
        Potential amp.        0.7737 Ry
        Total length         46.3494 bohr
 

     total cpu time spent up to now is      315.5 secs

     total energy              =   -3003.39536227 Ry
     estimated scf accuracy    <    2233.62635749 Ry

     iteration #  5     ecut=    29.40 Ry     beta= 0.05
     Davidson diagonalization with overlap
     ethr =  1.00E-02,  avg # of iterations =  2.6

     negative rho (up, down):  2.992E-04 0.000E+00
 
     Adding external electric field

     Computed dipole along edir(3) : 
        Dipole               -6.6064 Ry au,        -16.7917 Debye
        Dipole field         -0.0125 Ry au, 
 
        Potential amp.        1.1557 Ry
        Total length         46.3494 bohr
 

     total cpu time spent up to now is      329.7 secs

     total energy              =   -2970.01795036 Ry
     estimated scf accuracy    <    2125.77041714 Ry

     iteration #  6     ecut=    29.40 Ry     beta= 0.05
     Davidson diagonalization with overlap
     c_bands:  2 eigenvalues not converged
     ethr =  1.00E-02,  avg # of iterations = 12.5

     negative rho (up, down):  2.957E-04 0.000E+00
 
     Adding external electric field

     Computed dipole along edir(3) : 
        Dipole               -5.2133 Ry au,        -13.2509 Debye
        Dipole field         -0.0098 Ry au, 
 
        Potential amp.        0.9120 Ry
        Total length         46.3494 bohr
 

     total cpu time spent up to now is      395.2 secs

     total energy              =   -3009.72221538 Ry
     estimated scf accuracy    <      32.31750150 Ry

     iteration #  7     ecut=    29.40 Ry     beta= 0.05
     Davidson diagonalization with overlap
     ethr =  7.92E-03,  avg # of iterations =  2.7

     negative rho (up, down):  3.072E-04 0.000E+00
 
     Adding external electric field

     Computed dipole along edir(3) : 
        Dipole               -3.1098 Ry au,         -7.9044 Debye
        Dipole field         -0.0059 Ry au, 
 
        Potential amp.        0.5440 Ry
        Total length         46.3494 bohr
 

     total cpu time spent up to now is      409.5 secs

     total energy              =   -3008.19924519 Ry
     estimated scf accuracy    <      22.35794259 Ry

     iteration #  8     ecut=    29.40 Ry     beta= 0.05
     Davidson diagonalization with overlap
     ethr =  5.48E-03,  avg # of iterations =  4.7

     negative rho (up, down):  3.102E-04 0.000E+00
 
     Adding external electric field

     Computed dipole along edir(3) : 
        Dipole               -3.0263 Ry au,         -7.6921 Debye
        Dipole field         -0.0057 Ry au, 
 
        Potential amp.        0.5294 Ry
        Total length         46.3494 bohr
 

     total cpu time spent up to now is      469.6 secs

     total energy              =   -3009.11902459 Ry
     estimated scf accuracy    <     147.52510160 Ry

     iteration #  9     ecut=    29.40 Ry     beta= 0.05
     Davidson diagonalization with overlap
     ethr =  5.48E-03,  avg # of iterations =  1.0

     negative rho (up, down):  3.246E-04 0.000E+00
 
     Adding external electric field

     Computed dipole along edir(3) : 
        Dipole               -3.2497 Ry au,         -8.2598 Debye
        Dipole field         -0.0061 Ry au, 
 
        Potential amp.        0.5685 Ry
        Total length         46.3494 bohr
 

     total cpu time spent up to now is      488.6 secs

     total energy              =   -3007.69343269 Ry
     estimated scf accuracy    <     170.54079557 Ry

     iteration # 10     ecut=    29.40 Ry     beta= 0.05
     Davidson diagonalization with overlap
     ethr =  5.48E-03,  avg # of iterations =  1.0

     negative rho (up, down):  4.916E-04 0.000E+00
 
     Adding external electric field

     Computed dipole along edir(3) : 
        Dipole               -1.4354 Ry au,         -3.6483 Debye
        Dipole field         -0.0027 Ry au, 
 
        Potential amp.        0.2511 Ry
        Total length         46.3494 bohr
 

     total cpu time spent up to now is      501.7 secs

     total energy              =   -3006.41810747 Ry
     estimated scf accuracy    <      41.62491946 Ry

     iteration # 11     ecut=    29.40 Ry     beta= 0.05
     Davidson diagonalization with overlap
     c_bands:  3 eigenvalues not converged
     ethr =  5.48E-03,  avg # of iterations = 17.1

     negative rho (up, down):  5.413E-04 0.000E+00
 
     Adding external electric field

     Computed dipole along edir(3) : 
        Dipole               -2.8956 Ry au,         -7.3598 Debye
        Dipole field         -0.0055 Ry au, 
 
        Potential amp.        0.5065 Ry
        Total length         46.3494 bohr
 

     total cpu time spent up to now is      539.4 secs

     total energy              =   -3003.41836631 Ry
     estimated scf accuracy    <    2142.13710634 Ry

     iteration # 12     ecut=    29.40 Ry     beta= 0.05
     Davidson diagonalization with overlap
     ethr =  5.48E-03,  avg # of iterations =  2.6

     negative rho (up, down):  5.524E-04 0.000E+00
 
     Adding external electric field

     Computed dipole along edir(3) : 
        Dipole               -2.5233 Ry au,         -6.4136 Debye
        Dipole field         -0.0048 Ry au, 
 
        Potential amp.        0.4414 Ry
        Total length         46.3494 bohr
 

     total cpu time spent up to now is      553.8 secs

     total energy              =   -3009.35961937 Ry
     estimated scf accuracy    <    1168.83781430 Ry

     iteration # 13     ecut=    29.40 Ry     beta= 0.05
     Davidson diagonalization with overlap
     ethr =  5.48E-03,  avg # of iterations =  1.2

     negative rho (up, down):  5.515E-04 0.000E+00
 
     Adding external electric field

     Computed dipole along edir(3) : 
        Dipole               -3.1920 Ry au,         -8.1133 Debye
        Dipole field         -0.0060 Ry au, 
 
        Potential amp.        0.5584 Ry
        Total length         46.3494 bohr
 

     total cpu time spent up to now is      566.9 secs

     total energy              =   -3002.25158980 Ry
     estimated scf accuracy    <    1222.25693475 Ry

     iteration # 14     ecut=    29.40 Ry     beta= 0.05
     Davidson diagonalization with overlap
     c_bands:  4 eigenvalues not converged
     ethr =  5.48E-03,  avg # of iterations = 10.0

     negative rho (up, down):  4.913E-04 0.000E+00
 
     Adding external electric field

     Computed dipole along edir(3) : 
        Dipole               -2.7491 Ry au,         -6.9876 Debye
        Dipole field         -0.0052 Ry au, 
 
        Potential amp.        0.4809 Ry
        Total length         46.3494 bohr
 

     total cpu time spent up to now is      589.2 secs

     total energy              =   -3000.01605984 Ry
     estimated scf accuracy    <     487.90683229 Ry

     iteration # 15     ecut=    29.40 Ry     beta= 0.05
     Davidson diagonalization with overlap
     c_bands:  2 eigenvalues not converged
     c_bands:  2 eigenvalues not converged
     ethr =  5.48E-03,  avg # of iterations = 13.7

     negative rho (up, down):  5.332E-04 0.000E+00
 
     Adding external electric field

     Computed dipole along edir(3) : 
        Dipole               -3.2810 Ry au,         -8.3394 Debye
        Dipole field         -0.0062 Ry au, 
 
        Potential amp.        0.5740 Ry
        Total length         46.3494 bohr
 

     total cpu time spent up to now is      622.9 secs

     total energy              =   -3001.84683838 Ry
     estimated scf accuracy    <      62.89343684 Ry

     iteration # 16     ecut=    29.40 Ry     beta= 0.05
     Davidson diagonalization with overlap
     ethr =  5.48E-03,  avg # of iterations =  6.5

     negative rho (up, down):  6.409E-04 0.000E+00
 
     Adding external electric field

     Computed dipole along edir(3) : 
        Dipole               -3.6734 Ry au,         -9.3370 Debye
        Dipole field         -0.0069 Ry au, 
 
        Potential amp.        0.6426 Ry
        Total length         46.3494 bohr
 

     total cpu time spent up to now is      641.0 secs

     total energy              =   -3005.02874356 Ry
     estimated scf accuracy    <       3.49767505 Ry

     iteration # 17     ecut=    29.40 Ry     beta= 0.05
     Davidson diagonalization with overlap
     c_bands:  1 eigenvalues not converged
     ethr =  8.57E-04,  avg # of iterations = 17.5

     negative rho (up, down):  6.559E-04 0.000E+00
 
     Adding external electric field

     Computed dipole along edir(3) : 
        Dipole               -3.6167 Ry au,         -9.1926 Debye
        Dipole field         -0.0068 Ry au, 
 
        Potential amp.        0.6327 Ry
        Total length         46.3494 bohr
 

     total cpu time spent up to now is      670.6 secs

     total energy              =   -3007.04937010 Ry
     estimated scf accuracy    <     129.36215056 Ry

     iteration # 18     ecut=    29.40 Ry     beta= 0.05
     Davidson diagonalization with overlap
     ethr =  8.57E-04,  avg # of iterations =  1.0

     negative rho (up, down):  6.225E-04 0.000E+00
 
     Adding external electric field

     Computed dipole along edir(3) : 
        Dipole               -2.9725 Ry au,         -7.5554 Debye
        Dipole field         -0.0056 Ry au, 
 
        Potential amp.        0.5200 Ry
        Total length         46.3494 bohr
 

     total cpu time spent up to now is      683.6 secs

     total energy              =   -3005.48447308 Ry
     estimated scf accuracy    <     189.18580862 Ry

     iteration # 19     ecut=    29.40 Ry     beta= 0.05
     Davidson diagonalization with overlap
     ethr =  8.57E-04,  avg # of iterations =  2.5

     negative rho (up, down):  6.451E-04 0.000E+00
 
     Adding external electric field

     Computed dipole along edir(3) : 
        Dipole               -2.8163 Ry au,         -7.1584 Debye
        Dipole field         -0.0053 Ry au, 
 
        Potential amp.        0.4927 Ry
        Total length         46.3494 bohr
 

     total cpu time spent up to now is      697.5 secs

     total energy              =   -3006.14698429 Ry
     estimated scf accuracy    <      27.79159161 Ry

     iteration # 20     ecut=    29.40 Ry     beta= 0.05
     Davidson diagonalization with overlap
     ethr =  8.57E-04,  avg # of iterations =  1.0

     negative rho (up, down):  6.899E-04 0.000E+00
 
     Adding external electric field

     Computed dipole along edir(3) : 
        Dipole               -1.2667 Ry au,         -3.2196 Debye
        Dipole field         -0.0024 Ry au, 
 
        Potential amp.        0.2216 Ry
        Total length         46.3494 bohr
 

     total cpu time spent up to now is      710.5 secs

     total energy              =   -3005.06460535 Ry
     estimated scf accuracy    <      46.81630370 Ry

     iteration # 21     ecut=    29.40 Ry     beta= 0.05
     Davidson diagonalization with overlap
     ethr =  8.57E-04,  avg # of iterations =  2.0

     negative rho (up, down):  7.587E-04 0.000E+00
 
     Adding external electric field

     Computed dipole along edir(3) : 
        Dipole               -0.0470 Ry au,         -0.1196 Debye
        Dipole field         -0.0001 Ry au, 
 
        Potential amp.        0.0082 Ry
        Total length         46.3494 bohr
 

     total cpu time spent up to now is      724.4 secs

     total energy              =   -3004.87665258 Ry
     estimated scf accuracy    <      13.93652701 Ry

     iteration # 22     ecut=    29.40 Ry     beta= 0.05
     Davidson diagonalization with overlap
     ethr =  8.57E-04,  avg # of iterations =  1.4

     negative rho (up, down):  8.335E-04 0.000E+00
 
     Adding external electric field

     Computed dipole along edir(3) : 
        Dipole                1.2570 Ry au,          3.1950 Debye
        Dipole field          0.0024 Ry au, 
 
        Potential amp.       -0.2199 Ry
        Total length         46.3494 bohr
 

     total cpu time spent up to now is      737.8 secs

     total energy              =   -3004.23909225 Ry
     estimated scf accuracy    <      11.53811302 Ry

     iteration # 23     ecut=    29.40 Ry     beta= 0.05
     Davidson diagonalization with overlap
     c_bands:  2 eigenvalues not converged
     c_bands:  1 eigenvalues not converged
     c_bands:  1 eigenvalues not converged
     c_bands:  2 eigenvalues not converged
     c_bands:  1 eigenvalues not converged
     c_bands:  1 eigenvalues not converged
     c_bands:  1 eigenvalues not converged
     c_bands:  2 eigenvalues not converged
     ethr =  8.57E-04,  avg # of iterations = 19.6

     negative rho (up, down):  8.241E-04 0.000E+00
 
     Adding external electric field

     Computed dipole along edir(3) : 
        Dipole                1.1508 Ry au,          2.9250 Debye
        Dipole field          0.0022 Ry au, 
 
        Potential amp.       -0.2013 Ry
        Total length         46.3494 bohr
 

     total cpu time spent up to now is      767.3 secs

     total energy              =   -3005.88993007 Ry
     estimated scf accuracy    <      48.55091748 Ry

     iteration # 24     ecut=    29.40 Ry     beta= 0.05
     Davidson diagonalization with overlap
     ethr =  8.57E-04,  avg # of iterations =  1.0

     negative rho (up, down):  8.158E-04 0.000E+00
 
     Adding external electric field

     Computed dipole along edir(3) : 
        Dipole                0.6323 Ry au,          1.6072 Debye
        Dipole field          0.0012 Ry au, 
 
        Potential amp.       -0.1106 Ry
        Total length         46.3494 bohr
 

     total cpu time spent up to now is      781.0 secs

     total energy              =   -3005.26130645 Ry
     estimated scf accuracy    <      48.88820374 Ry

     iteration # 25     ecut=    29.40 Ry     beta= 0.05
     Davidson diagonalization with overlap
     c_bands:  2 eigenvalues not converged
     c_bands:  1 eigenvalues not converged
     ethr =  8.57E-04,  avg # of iterations = 16.2

     negative rho (up, down):  9.141E-04 0.000E+00
 
     Adding external electric field

     Computed dipole along edir(3) : 
        Dipole                1.1334 Ry au,          2.8808 Debye
        Dipole field          0.0021 Ry au, 
 
        Potential amp.       -0.1983 Ry
        Total length         46.3494 bohr
 

     total cpu time spent up to now is      802.3 secs

     total energy              =   -3005.64940877 Ry
     estimated scf accuracy    <      20.66006509 Ry

     iteration # 26     ecut=    29.40 Ry     beta= 0.05
     Davidson diagonalization with overlap
     ethr =  8.57E-04,  avg # of iterations =  2.7

     negative rho (up, down):  9.169E-04 0.000E+00
 
     Adding external electric field

     Computed dipole along edir(3) : 
        Dipole                1.0681 Ry au,          2.7150 Debye
        Dipole field          0.0020 Ry au, 
 
        Potential amp.       -0.1869 Ry
        Total length         46.3494 bohr
 

     total cpu time spent up to now is      816.5 secs

     total energy              =   -3005.64654105 Ry
     estimated scf accuracy    <      42.24953757 Ry

     iteration # 27     ecut=    29.40 Ry     beta= 0.05
     Davidson diagonalization with overlap
     ethr =  8.57E-04,  avg # of iterations =  1.1

     negative rho (up, down):  1.214E-03 0.000E+00
 
     Adding external electric field

     Computed dipole along edir(3) : 
        Dipole                2.1932 Ry au,          5.5745 Debye
        Dipole field          0.0041 Ry au, 
 
        Potential amp.       -0.3837 Ry
        Total length         46.3494 bohr
 

     total cpu time spent up to now is      829.5 secs

     total energy              =   -3005.81962483 Ry
     estimated scf accuracy    <      28.20162511 Ry

     iteration # 28     ecut=    29.40 Ry     beta= 0.05
     Davidson diagonalization with overlap
     ethr =  8.57E-04,  avg # of iterations =  2.9

     negative rho (up, down):  1.584E-03 0.000E+00
 
     Adding external electric field

     Computed dipole along edir(3) : 
        Dipole                2.3327 Ry au,          5.9291 Debye
        Dipole field          0.0044 Ry au, 
 
        Potential amp.       -0.4081 Ry
        Total length         46.3494 bohr
 

     total cpu time spent up to now is      843.9 secs

     total energy              =   -3006.07871281 Ry
     estimated scf accuracy    <      53.97372106 Ry

     iteration # 29     ecut=    29.40 Ry     beta= 0.05
     Davidson diagonalization with overlap
     ethr =  8.57E-04,  avg # of iterations =  2.8

     negative rho (up, down):  1.791E-03 0.000E+00
 
     Adding external electric field

     Computed dipole along edir(3) : 
        Dipole                1.7149 Ry au,          4.3589 Debye
        Dipole field          0.0032 Ry au, 
 
        Potential amp.       -0.3000 Ry
        Total length         46.3494 bohr
 

     total cpu time spent up to now is      857.8 secs

     total energy              =   -3005.50021287 Ry
     estimated scf accuracy    <      52.86668374 Ry

     iteration # 30     ecut=    29.40 Ry     beta= 0.05
     Davidson diagonalization with overlap
     ethr =  8.57E-04,  avg # of iterations =  3.2

     negative rho (up, down):  1.790E-03 0.000E+00
 
     Adding external electric field

     Computed dipole along edir(3) : 
        Dipole                1.7164 Ry au,          4.3626 Debye
        Dipole field          0.0032 Ry au, 
 
        Potential amp.       -0.3003 Ry
        Total length         46.3494 bohr
 

     total cpu time spent up to now is      872.0 secs

     total energy              =   -3005.59282011 Ry
     estimated scf accuracy    <      10.83792292 Ry

     iteration # 31     ecut=    29.40 Ry     beta= 0.05
     Davidson diagonalization with overlap
     ethr =  8.57E-04,  avg # of iterations =  1.7

     negative rho (up, down):  1.798E-03 0.000E+00
 
     Adding external electric field

     Computed dipole along edir(3) : 
        Dipole                0.6594 Ry au,          1.6761 Debye
        Dipole field          0.0012 Ry au, 
 
        Potential amp.       -0.1154 Ry
        Total length         46.3494 bohr
 

     total cpu time spent up to now is      885.4 secs

     total energy              =   -3005.02074869 Ry
     estimated scf accuracy    <      11.75891499 Ry

     iteration # 32     ecut=    29.40 Ry     beta= 0.05
     Davidson diagonalization with overlap
     ethr =  8.57E-04,  avg # of iterations =  2.2

     negative rho (up, down):  2.480E-03 0.000E+00
 
     Adding external electric field

     Computed dipole along edir(3) : 
        Dipole                0.7365 Ry au,          1.8721 Debye
        Dipole field          0.0014 Ry au, 
 
        Potential amp.       -0.1288 Ry
        Total length         46.3494 bohr
 

     total cpu time spent up to now is      899.2 secs

     total energy              =   -3005.24419861 Ry
     estimated scf accuracy    <       0.78451238 Ry

     iteration # 33     ecut=    29.40 Ry     beta= 0.05
     Davidson diagonalization with overlap
     c_bands:  3 eigenvalues not converged
     c_bands:  3 eigenvalues not converged
     c_bands:  3 eigenvalues not converged
     c_bands:  4 eigenvalues not converged
     c_bands:  3 eigenvalues not converged
     c_bands:  3 eigenvalues not converged
     c_bands:  4 eigenvalues not converged
     c_bands:  1 eigenvalues not converged
     c_bands:  4 eigenvalues not converged
     c_bands:  2 eigenvalues not converged
     ethr =  1.92E-04,  avg # of iterations = 20.0

     negative rho (up, down):  2.384E-03 0.000E+00
 
     Adding external electric field

     Computed dipole along edir(3) : 
        Dipole                0.7156 Ry au,          1.8190 Debye
        Dipole field          0.0014 Ry au, 
 
        Potential amp.       -0.1252 Ry
        Total length         46.3494 bohr
 

     total cpu time spent up to now is      927.9 secs

     total energy              =   -3005.23649902 Ry
     estimated scf accuracy    <       1.53843751 Ry

     iteration # 34     ecut=    29.40 Ry     beta= 0.05
     Davidson diagonalization with overlap
     ethr =  1.92E-04,  avg # of iterations =  4.8

     negative rho (up, down):  2.588E-03 0.000E+00
 
     Adding external electric field

     Computed dipole along edir(3) : 
        Dipole                0.6248 Ry au,          1.5882 Debye
        Dipole field          0.0012 Ry au, 
 
        Potential amp.       -0.1093 Ry
        Total length         46.3494 bohr
 

     total cpu time spent up to now is      942.9 secs

     total energy              =   -3005.25626792 Ry
     estimated scf accuracy    <       0.55326496 Ry

     iteration # 35     ecut=    29.40 Ry     beta= 0.05
     Davidson diagonalization with overlap
     c_bands:  1 eigenvalues not converged
     ethr =  1.36E-04,  avg # of iterations =  3.4

     negative rho (up, down):  2.598E-03 0.000E+00
 
     Adding external electric field

     Computed dipole along edir(3) : 
        Dipole                0.3221 Ry au,          0.8186 Debye
        Dipole field          0.0006 Ry au, 
 
        Potential amp.       -0.0563 Ry
        Total length         46.3494 bohr
 

     total cpu time spent up to now is      957.1 secs

     total energy              =   -3005.22829262 Ry
     estimated scf accuracy    <       0.50185370 Ry

     iteration # 36     ecut=    29.40 Ry     beta= 0.05
     Davidson diagonalization with overlap
     ethr =  1.23E-04,  avg # of iterations =  2.3

     negative rho (up, down):  3.354E-03 0.000E+00
 
     Adding external electric field

     Computed dipole along edir(3) : 
        Dipole               -0.0726 Ry au,         -0.1847 Debye
        Dipole field         -0.0001 Ry au, 
 
        Potential amp.        0.0127 Ry
        Total length         46.3494 bohr
 

     total cpu time spent up to now is      971.2 secs

     total energy              =   -3005.19831149 Ry
     estimated scf accuracy    <       0.43304777 Ry

     iteration # 37     ecut=    29.40 Ry     beta= 0.05
     Davidson diagonalization with overlap
     c_bands:  1 eigenvalues not converged
     c_bands:  1 eigenvalues not converged
     ethr =  1.06E-04,  avg # of iterations =  9.1

     negative rho (up, down):  1.223E-02 0.000E+00
 
     Adding external electric field

     Computed dipole along edir(3) : 
        Dipole                0.1131 Ry au,          0.2874 Debye
        Dipole field          0.0002 Ry au, 
 
        Potential amp.       -0.0198 Ry
        Total length         46.3494 bohr
 

     total cpu time spent up to now is      988.3 secs

     total energy              =   -3005.17598180 Ry
     estimated scf accuracy    <       0.36059840 Ry

     iteration # 38     ecut=    29.40 Ry     beta= 0.05
     Davidson diagonalization with overlap
     c_bands:  2 eigenvalues not converged
     c_bands:  1 eigenvalues not converged
     c_bands:  1 eigenvalues not converged
     c_bands:  1 eigenvalues not converged
     c_bands:  2 eigenvalues not converged
     ethr =  8.84E-05,  avg # of iterations = 11.0

     negative rho (up, down):  1.577E-02 0.000E+00
 
     Adding external electric field

     Computed dipole along edir(3) : 
        Dipole                0.0075 Ry au,          0.0192 Debye
        Dipole field          0.0000 Ry au, 
 
        Potential amp.       -0.0013 Ry
        Total length         46.3494 bohr
 

     total cpu time spent up to now is     1047.9 secs

     total energy              =   -3005.17172486 Ry
     estimated scf accuracy    <       0.62617931 Ry

     iteration # 39     ecut=    29.40 Ry     beta= 0.05
     Davidson diagonalization with overlap
     c_bands:  1 eigenvalues not converged
     ethr =  8.84E-05,  avg # of iterations =  6.3

     negative rho (up, down):  1.808E-02 0.000E+00
 
     Adding external electric field

     Computed dipole along edir(3) : 
        Dipole                0.2647 Ry au,          0.6727 Debye
        Dipole field          0.0005 Ry au, 
 
        Potential amp.       -0.0463 Ry
        Total length         46.3494 bohr
 

     total cpu time spent up to now is     1063.6 secs

     total energy              =   -3005.17909457 Ry
     estimated scf accuracy    <       0.29964804 Ry

     iteration # 40     ecut=    29.40 Ry     beta= 0.05
     Davidson diagonalization with overlap
     ethr =  7.34E-05,  avg # of iterations =  2.0

     negative rho (up, down):  1.446E-02 0.000E+00
 
     Adding external electric field

     Computed dipole along edir(3) : 
        Dipole                0.3445 Ry au,          0.8757 Debye
        Dipole field          0.0007 Ry au, 
 
        Potential amp.       -0.0603 Ry
        Total length         46.3494 bohr
 

     total cpu time spent up to now is     1077.5 secs

     total energy              =   -3005.17329577 Ry
     estimated scf accuracy    <       0.19720456 Ry

     iteration # 41     ecut=    29.40 Ry     beta= 0.05
     Davidson diagonalization with overlap
     c_bands:  1 eigenvalues not converged
     ethr =  4.83E-05,  avg # of iterations =  6.5

     negative rho (up, down):  1.325E-02 0.000E+00
 
     Adding external electric field

     Computed dipole along edir(3) : 
        Dipole                0.5276 Ry au,          1.3411 Debye
        Dipole field          0.0010 Ry au, 
 
        Potential amp.       -0.0923 Ry
        Total length         46.3494 bohr
 

     total cpu time spent up to now is     1093.1 secs

     total energy              =   -3005.15012132 Ry
     estimated scf accuracy    <       0.12843852 Ry

     iteration # 42     ecut=    29.40 Ry     beta= 0.05
     Davidson diagonalization with overlap
     c_bands:  3 eigenvalues not converged
     c_bands:  2 eigenvalues not converged
     c_bands:  1 eigenvalues not converged
     c_bands:  3 eigenvalues not converged
     c_bands:  1 eigenvalues not converged
     c_bands:  2 eigenvalues not converged
     c_bands:  3 eigenvalues not converged
     c_bands:  3 eigenvalues not converged
     c_bands:  1 eigenvalues not converged
     c_bands:  2 eigenvalues not converged
     ethr =  3.15E-05,  avg # of iterations = 20.0

     negative rho (up, down):  1.683E-02 0.000E+00
 
     Adding external electric field

     Computed dipole along edir(3) : 
        Dipole                0.3898 Ry au,          0.9907 Debye
        Dipole field          0.0007 Ry au, 
 
        Potential amp.       -0.0682 Ry
        Total length         46.3494 bohr
 

     total cpu time spent up to now is     1186.0 secs

     total energy              =   -3005.15977723 Ry
     estimated scf accuracy    <       0.04625823 Ry

     iteration # 43     ecut=    29.40 Ry     beta= 0.05
     Davidson diagonalization with overlap
     c_bands:  2 eigenvalues not converged
     c_bands:  2 eigenvalues not converged
     c_bands:  1 eigenvalues not converged
     c_bands:  1 eigenvalues not converged
     c_bands:  1 eigenvalues not converged
     ethr =  1.13E-05,  avg # of iterations = 17.7

     negative rho (up, down):  2.034E-02 0.000E+00
 
     Adding external electric field

     Computed dipole along edir(3) : 
        Dipole                0.3538 Ry au,          0.8993 Debye
        Dipole field          0.0007 Ry au, 
 
        Potential amp.       -0.0619 Ry
        Total length         46.3494 bohr
 

     total cpu time spent up to now is     1226.6 secs

     total energy              =   -3005.15893687 Ry
     estimated scf accuracy    <       0.02745895 Ry

     iteration # 44     ecut=    29.40 Ry     beta= 0.05
     Davidson diagonalization with overlap
     c_bands:  3 eigenvalues not converged
     c_bands:  1 eigenvalues not converged
     c_bands:  1 eigenvalues not converged
     c_bands:  1 eigenvalues not converged
     c_bands:  1 eigenvalues not converged
     ethr =  6.73E-06,  avg # of iterations = 16.3

     negative rho (up, down):  1.397E-02 0.000E+00
 
     Adding external electric field

     Computed dipole along edir(3) : 
        Dipole                0.4989 Ry au,          1.2680 Debye
        Dipole field          0.0009 Ry au, 
 
        Potential amp.       -0.0873 Ry
        Total length         46.3494 bohr
 

     total cpu time spent up to now is     1250.9 secs

     total energy              =   -3005.15634973 Ry
     estimated scf accuracy    <       0.02801494 Ry

     iteration # 45     ecut=    29.40 Ry     beta= 0.05
     Davidson diagonalization with overlap
     c_bands:  2 eigenvalues not converged
     c_bands:  3 eigenvalues not converged
     c_bands:  2 eigenvalues not converged
     c_bands:  2 eigenvalues not converged
     c_bands:  4 eigenvalues not converged
     c_bands:  1 eigenvalues not converged
     ethr =  6.73E-06,  avg # of iterations = 16.0

     negative rho (up, down):  1.397E-02 0.000E+00
 
     Adding external electric field

     Computed dipole along edir(3) : 
        Dipole                0.5419 Ry au,          1.3775 Debye
        Dipole field          0.0010 Ry au, 
 
        Potential amp.       -0.0948 Ry
        Total length         46.3494 bohr
 

     total cpu time spent up to now is     1276.2 secs

     total energy              =   -3005.15828082 Ry
     estimated scf accuracy    <       0.00680798 Ry

     iteration # 46     ecut=    29.40 Ry     beta= 0.05
     Davidson diagonalization with overlap
     c_bands:  2 eigenvalues not converged
     c_bands:  5 eigenvalues not converged
     c_bands:  2 eigenvalues not converged
     c_bands:  5 eigenvalues not converged
     c_bands:  3 eigenvalues not converged
     c_bands:  3 eigenvalues not converged
     c_bands:  5 eigenvalues not converged
     c_bands:  1 eigenvalues not converged
     c_bands:  2 eigenvalues not converged
     c_bands:  4 eigenvalues not converged
     ethr =  1.67E-06,  avg # of iterations = 20.0

     negative rho (up, down):  1.445E-02 0.000E+00
 
     Adding external electric field

     Computed dipole along edir(3) : 
        Dipole                0.5101 Ry au,          1.2966 Debye
        Dipole field          0.0010 Ry au, 
 
        Potential amp.       -0.0892 Ry
        Total length         46.3494 bohr
 

     total cpu time spent up to now is     1318.2 secs

     total energy              =   -3005.15923886 Ry
     estimated scf accuracy    <       0.00596997 Ry

     iteration # 47     ecut=    29.40 Ry     beta= 0.05
     Davidson diagonalization with overlap
     c_bands:  1 eigenvalues not converged
     c_bands:  2 eigenvalues not converged
     c_bands:  2 eigenvalues not converged
     c_bands:  1 eigenvalues not converged
     c_bands:  2 eigenvalues not converged
     c_bands:  2 eigenvalues not converged
     ethr =  1.46E-06,  avg # of iterations = 14.9

     negative rho (up, down):  1.489E-02 0.000E+00
 
     Adding external electric field

     Computed dipole along edir(3) : 
        Dipole                0.4130 Ry au,          1.0498 Debye
        Dipole field          0.0008 Ry au, 
 
        Potential amp.       -0.0723 Ry
        Total length         46.3494 bohr
 

     total cpu time spent up to now is     1337.2 secs

     total energy              =   -3005.15831154 Ry
     estimated scf accuracy    <       0.00446144 Ry

     iteration # 48     ecut=    29.40 Ry     beta= 0.05
     Davidson diagonalization with overlap
     c_bands:  1 eigenvalues not converged
     c_bands:  1 eigenvalues not converged
     c_bands:  2 eigenvalues not converged
     c_bands:  1 eigenvalues not converged
     c_bands:  1 eigenvalues not converged
     c_bands:  1 eigenvalues not converged
     ethr =  1.09E-06,  avg # of iterations = 18.1

     negative rho (up, down):  1.489E-02 0.000E+00
 
     Adding external electric field

     Computed dipole along edir(3) : 
        Dipole                0.4572 Ry au,          1.1622 Debye
        Dipole field          0.0009 Ry au, 
 
        Potential amp.       -0.0800 Ry
        Total length         46.3494 bohr
 

     total cpu time spent up to now is     1366.6 secs

     total energy              =   -3005.15850640 Ry
     estimated scf accuracy    <       0.00535217 Ry

     iteration # 49     ecut=    29.40 Ry     beta= 0.05
     Davidson diagonalization with overlap
     c_bands:  2 eigenvalues not converged
     ethr =  1.09E-06,  avg # of iterations =  8.7

     negative rho (up, down):  1.476E-02 0.000E+00
 
     Adding external electric field

     Computed dipole along edir(3) : 
        Dipole                0.4974 Ry au,          1.2643 Debye
        Dipole field          0.0009 Ry au, 
 
        Potential amp.       -0.0870 Ry
        Total length         46.3494 bohr
 

     total cpu time spent up to now is     1386.5 secs

     total energy              =   -3005.15865656 Ry
     estimated scf accuracy    <       0.00140906 Ry

     iteration # 50     ecut=    29.40 Ry     beta= 0.05
     Davidson diagonalization with overlap
     c_bands:  2 eigenvalues not converged
     c_bands:  2 eigenvalues not converged
     c_bands:  2 eigenvalues not converged
     c_bands:  1 eigenvalues not converged
     c_bands:  1 eigenvalues not converged
     c_bands:  1 eigenvalues not converged
     ethr =  3.45E-07,  avg # of iterations = 17.3

     negative rho (up, down):  1.462E-02 0.000E+00
 
     Adding external electric field

     Computed dipole along edir(3) : 
        Dipole                0.5108 Ry au,          1.2983 Debye
        Dipole field          0.0010 Ry au, 
 
        Potential amp.       -0.0894 Ry
        Total length         46.3494 bohr
 

     total cpu time spent up to now is     1410.8 secs

     total energy              =   -3005.15876025 Ry
     estimated scf accuracy    <       0.00067701 Ry

     iteration # 51     ecut=    29.40 Ry     beta= 0.05
     Davidson diagonalization with overlap
     c_bands:  1 eigenvalues not converged
     ethr =  1.66E-07,  avg # of iterations =  8.1

     negative rho (up, down):  1.460E-02 0.000E+00
 
     Adding external electric field

     Computed dipole along edir(3) : 
        Dipole                0.5078 Ry au,          1.2906 Debye
        Dipole field          0.0010 Ry au, 
 
        Potential amp.       -0.0888 Ry
        Total length         46.3494 bohr
 

     total cpu time spent up to now is     1430.1 secs

     total energy              =   -3005.15883942 Ry
     estimated scf accuracy    <       0.00060587 Ry

     iteration # 52     ecut=    29.40 Ry     beta= 0.05
     Davidson diagonalization with overlap
     ethr =  1.48E-07,  avg # of iterations =  1.0

     negative rho (up, down):  1.427E-02 0.000E+00
 
     Adding external electric field

     Computed dipole along edir(3) : 
        Dipole                0.4602 Ry au,          1.1696 Debye
        Dipole field          0.0009 Ry au, 
 
        Potential amp.       -0.0805 Ry
        Total length         46.3494 bohr
 

     total cpu time spent up to now is     1443.2 secs

     total energy              =   -3005.15870591 Ry
     estimated scf accuracy    <       0.00056631 Ry

     iteration # 53     ecut=    29.40 Ry     beta= 0.05
     Davidson diagonalization with overlap
     ethr =  1.39E-07,  avg # of iterations =  8.4

     negative rho (up, down):  1.447E-02 0.000E+00
 
     Adding external electric field

     Computed dipole along edir(3) : 
        Dipole                0.4745 Ry au,          1.2061 Debye
        Dipole field          0.0009 Ry au, 
 
        Potential amp.       -0.0830 Ry
        Total length         46.3494 bohr
 

     total cpu time spent up to now is     1468.7 secs

     total energy              =   -3005.15874092 Ry
     estimated scf accuracy    <       0.00113533 Ry

     iteration # 54     ecut=    29.40 Ry     beta= 0.05
     Davidson diagonalization with overlap
     ethr =  1.39E-07,  avg # of iterations =  5.3

     negative rho (up, down):  1.472E-02 0.000E+00
 
     Adding external electric field

     Computed dipole along edir(3) : 
        Dipole                0.4914 Ry au,          1.2491 Debye
        Dipole field          0.0009 Ry au, 
 
        Potential amp.       -0.0860 Ry
        Total length         46.3494 bohr
 

     total cpu time spent up to now is     1486.5 secs

     total energy              =   -3005.15875637 Ry
     estimated scf accuracy    <       0.00034693 Ry

     iteration # 55     ecut=    29.40 Ry     beta= 0.05
     Davidson diagonalization with overlap
     ethr =  8.50E-08,  avg # of iterations =  6.6

     negative rho (up, down):  1.471E-02 0.000E+00
 
     Adding external electric field

     Computed dipole along edir(3) : 
        Dipole                0.5028 Ry au,          1.2779 Debye
        Dipole field          0.0009 Ry au, 
 
        Potential amp.       -0.0880 Ry
        Total length         46.3494 bohr
 

     total cpu time spent up to now is     1509.1 secs

     total energy              =   -3005.15886969 Ry
     estimated scf accuracy    <       0.00015550 Ry

     iteration # 56     ecut=    29.40 Ry     beta= 0.05
     Davidson diagonalization with overlap
     ethr =  3.81E-08,  avg # of iterations =  5.3

     negative rho (up, down):  1.446E-02 0.000E+00
 
     Adding external electric field

     Computed dipole along edir(3) : 
        Dipole                0.5035 Ry au,          1.2797 Debye
        Dipole field          0.0010 Ry au, 
 
        Potential amp.       -0.0881 Ry
        Total length         46.3494 bohr
 

     total cpu time spent up to now is     1524.8 secs

     total energy              =   -3005.15885167 Ry
     estimated scf accuracy    <       0.00016946 Ry

     iteration # 57     ecut=    29.40 Ry     beta= 0.05
     Davidson diagonalization with overlap
     ethr =  3.81E-08,  avg # of iterations =  3.2

     negative rho (up, down):  1.431E-02 0.000E+00
 
     Adding external electric field

     Computed dipole along edir(3) : 
        Dipole                0.4984 Ry au,          1.2669 Debye
        Dipole field          0.0009 Ry au, 
 
        Potential amp.       -0.0872 Ry
        Total length         46.3494 bohr
 

     total cpu time spent up to now is     1539.7 secs

     total energy              =   -3005.15886101 Ry
     estimated scf accuracy    <       0.00006653 Ry

     iteration # 58     ecut=    29.40 Ry     beta= 0.05
     Davidson diagonalization with overlap
     ethr =  1.63E-08,  avg # of iterations =  5.0

     negative rho (up, down):  1.433E-02 0.000E+00
 
     Adding external electric field

     Computed dipole along edir(3) : 
        Dipole                0.4986 Ry au,          1.2673 Debye
        Dipole field          0.0009 Ry au, 
 
        Potential amp.       -0.0872 Ry
        Total length         46.3494 bohr
 

     total cpu time spent up to now is     1557.7 secs

     total energy              =   -3005.15887805 Ry
     estimated scf accuracy    <       0.00001997 Ry

     iteration # 59     ecut=    29.40 Ry     beta= 0.05
     Davidson diagonalization with overlap
     ethr =  4.89E-09,  avg # of iterations =  4.4

     negative rho (up, down):  1.436E-02 0.000E+00
 
     Adding external electric field

     Computed dipole along edir(3) : 
        Dipole                0.4969 Ry au,          1.2630 Debye
        Dipole field          0.0009 Ry au, 
 
        Potential amp.       -0.0869 Ry
        Total length         46.3494 bohr
 

     total cpu time spent up to now is     1573.9 secs

     total energy              =   -3005.15888469 Ry
     estimated scf accuracy    <       0.00001801 Ry

     iteration # 60     ecut=    29.40 Ry     beta= 0.05
     Davidson diagonalization with overlap
     ethr =  4.41E-09,  avg # of iterations =  2.9

     negative rho (up, down):  1.426E-02 0.000E+00
 
     Adding external electric field

     Computed dipole along edir(3) : 
        Dipole                0.4925 Ry au,          1.2519 Debye
        Dipole field          0.0009 Ry au, 
 
        Potential amp.       -0.0862 Ry
        Total length         46.3494 bohr
 

     total cpu time spent up to now is     1588.6 secs

     total energy              =   -3005.15889159 Ry
     estimated scf accuracy    <       0.00001200 Ry

     iteration # 61     ecut=    29.40 Ry     beta= 0.05
     Davidson diagonalization with overlap
     ethr =  2.94E-09,  avg # of iterations =  5.9

     negative rho (up, down):  1.432E-02 0.000E+00
 
     Adding external electric field

     Computed dipole along edir(3) : 
        Dipole                0.4961 Ry au,          1.2609 Debye
        Dipole field          0.0009 Ry au, 
 
        Potential amp.       -0.0868 Ry
        Total length         46.3494 bohr
 

     total cpu time spent up to now is     1612.1 secs

     total energy              =   -3005.15890060 Ry
     estimated scf accuracy    <       0.00002025 Ry

     iteration # 62     ecut=    29.40 Ry     beta= 0.05
     Davidson diagonalization with overlap
     ethr =  2.94E-09,  avg # of iterations =  1.6

     negative rho (up, down):  1.434E-02 0.000E+00
 
     Adding external electric field

     Computed dipole along edir(3) : 
        Dipole                0.4966 Ry au,          1.2622 Debye
        Dipole field          0.0009 Ry au, 
 
        Potential amp.       -0.0869 Ry
        Total length         46.3494 bohr
 

     total cpu time spent up to now is     1626.4 secs

     total energy              =   -3005.15890576 Ry
     estimated scf accuracy    <       0.00001268 Ry

     iteration # 63     ecut=    29.40 Ry     beta= 0.05
     Davidson diagonalization with overlap
     ethr =  2.94E-09,  avg # of iterations =  1.4

     negative rho (up, down):  1.435E-02 0.000E+00
 
     Adding external electric field

     Computed dipole along edir(3) : 
        Dipole                0.4962 Ry au,          1.2611 Debye
        Dipole field          0.0009 Ry au, 
 
        Potential amp.       -0.0868 Ry
        Total length         46.3494 bohr
 

     total cpu time spent up to now is     1640.0 secs

     total energy              =   -3005.15891042 Ry
     estimated scf accuracy    <       0.00000902 Ry

     iteration # 64     ecut=    29.40 Ry     beta= 0.05
     Davidson diagonalization with overlap
     ethr =  2.21E-09,  avg # of iterations =  2.0

     negative rho (up, down):  1.438E-02 0.000E+00
 
     Adding external electric field

     Computed dipole along edir(3) : 
        Dipole                0.4961 Ry au,          1.2610 Debye
        Dipole field          0.0009 Ry au, 
 
        Potential amp.       -0.0868 Ry
        Total length         46.3494 bohr
 

     total cpu time spent up to now is     1654.2 secs

     total energy              =   -3005.15891479 Ry
     estimated scf accuracy    <       0.00000648 Ry

     iteration # 65     ecut=    29.40 Ry     beta= 0.05
     Davidson diagonalization with overlap
     ethr =  1.59E-09,  avg # of iterations =  2.0

     negative rho (up, down):  1.441E-02 0.000E+00
 
     Adding external electric field

     Computed dipole along edir(3) : 
        Dipole                0.4984 Ry au,          1.2668 Debye
        Dipole field          0.0009 Ry au, 
 
        Potential amp.       -0.0872 Ry
        Total length         46.3494 bohr
 

     total cpu time spent up to now is     1668.8 secs

     total energy              =   -3005.15891838 Ry
     estimated scf accuracy    <       0.00000475 Ry

     iteration # 66     ecut=    29.40 Ry     beta= 0.05
     Davidson diagonalization with overlap
     ethr =  1.17E-09,  avg # of iterations =  4.6

     negative rho (up, down):  1.435E-02 0.000E+00
 
     Adding external electric field

     Computed dipole along edir(3) : 
        Dipole                0.4988 Ry au,          1.2679 Debye
        Dipole field          0.0009 Ry au, 
 
        Potential amp.       -0.0873 Ry
        Total length         46.3494 bohr
 

     total cpu time spent up to now is     1686.5 secs

     total energy              =   -3005.15892234 Ry
     estimated scf accuracy    <       0.00000274 Ry

     iteration # 67     ecut=    29.40 Ry     beta= 0.05
     Davidson diagonalization with overlap
     ethr =  6.70E-10,  avg # of iterations =  4.9

     negative rho (up, down):  1.435E-02 0.000E+00
 
     Adding external electric field

     Computed dipole along edir(3) : 
        Dipole                0.4984 Ry au,          1.2668 Debye
        Dipole field          0.0009 Ry au, 
 
        Potential amp.       -0.0872 Ry
        Total length         46.3494 bohr
 

     total cpu time spent up to now is     1702.4 secs

     total energy              =   -3005.15892583 Ry
     estimated scf accuracy    <       0.00000091 Ry

     iteration # 68     ecut=    29.40 Ry     beta= 0.05
     Davidson diagonalization with overlap
     ethr =  2.22E-10,  avg # of iterations =  5.0

     negative rho (up, down):  1.435E-02 0.000E+00
 
     Adding external electric field

     Computed dipole along edir(3) : 
        Dipole                0.4993 Ry au,          1.2691 Debye
        Dipole field          0.0009 Ry au, 
 
        Potential amp.       -0.0873 Ry
        Total length         46.3494 bohr
 

     total cpu time spent up to now is     1719.6 secs

     total energy              =   -3005.15892879 Ry
     estimated scf accuracy    <       0.00000069 Ry

     iteration # 69     ecut=    29.40 Ry     beta= 0.05
     Davidson diagonalization with overlap
     ethr =  1.70E-10,  avg # of iterations =  5.2

     negative rho (up, down):  1.435E-02 0.000E+00
 
     Adding external electric field

     Computed dipole along edir(3) : 
        Dipole                0.4985 Ry au,          1.2672 Debye
        Dipole field          0.0009 Ry au, 
 
        Potential amp.       -0.0872 Ry
        Total length         46.3494 bohr
 

     total cpu time spent up to now is     1737.1 secs

     total energy              =   -3005.15893151 Ry
     estimated scf accuracy    <       0.00000043 Ry

     iteration # 70     ecut=    29.40 Ry     beta= 0.05
     Davidson diagonalization with overlap
     ethr =  1.05E-10,  avg # of iterations =  5.0

     negative rho (up, down):  1.436E-02 0.000E+00
 
     Adding external electric field

     Computed dipole along edir(3) : 
        Dipole                0.4991 Ry au,          1.2686 Debye
        Dipole field          0.0009 Ry au, 
 
        Potential amp.       -0.0873 Ry
        Total length         46.3494 bohr
 

     total cpu time spent up to now is     1753.4 secs

     total energy              =   -3005.15893393 Ry
     estimated scf accuracy    <       0.00000034 Ry

     iteration # 71     ecut=    29.40 Ry     beta= 0.05
     Davidson diagonalization with overlap
     ethr =  8.28E-11,  avg # of iterations =  5.0

     negative rho (up, down):  1.437E-02 0.000E+00
 
     Adding external electric field

     Computed dipole along edir(3) : 
        Dipole                0.5000 Ry au,          1.2710 Debye
        Dipole field          0.0009 Ry au, 
 
        Potential amp.       -0.0875 Ry
        Total length         46.3494 bohr
 

     total cpu time spent up to now is     1770.3 secs

     total energy              =   -3005.15893606 Ry
     estimated scf accuracy    <       0.00000020 Ry

     iteration # 72     ecut=    29.40 Ry     beta= 0.05
     Davidson diagonalization with overlap
     ethr =  4.88E-11,  avg # of iterations =  6.0

     negative rho (up, down):  1.438E-02 0.000E+00
 
     Adding external electric field

     Computed dipole along edir(3) : 
        Dipole                0.5000 Ry au,          1.2709 Debye
        Dipole field          0.0009 Ry au, 
 
        Potential amp.       -0.0875 Ry
        Total length         46.3494 bohr
 

     total cpu time spent up to now is     1790.4 secs

     total energy              =   -3005.15893808 Ry
     estimated scf accuracy    <       0.00000013 Ry

     iteration # 73     ecut=    29.40 Ry     beta= 0.05
     Davidson diagonalization with overlap
     ethr =  3.30E-11,  avg # of iterations =  1.0

     negative rho (up, down):  1.438E-02 0.000E+00
 
     Adding external electric field

     Computed dipole along edir(3) : 
        Dipole                0.5000 Ry au,          1.2709 Debye
        Dipole field          0.0009 Ry au, 
 
        Potential amp.       -0.0875 Ry
        Total length         46.3494 bohr
 

     total cpu time spent up to now is     1803.8 secs

     total energy              =   -3005.15893985 Ry
     estimated scf accuracy    <       0.00000014 Ry

     iteration # 74     ecut=    29.40 Ry     beta= 0.05
     Davidson diagonalization with overlap
     ethr =  3.30E-11,  avg # of iterations =  1.0

     negative rho (up, down):  1.438E-02 0.000E+00
 
     Adding external electric field

     Computed dipole along edir(3) : 
        Dipole                0.4999 Ry au,          1.2707 Debye
        Dipole field          0.0009 Ry au, 
 
        Potential amp.       -0.0875 Ry
        Total length         46.3494 bohr
 

     total cpu time spent up to now is     1853.0 secs

     total energy              =   -3005.15894145 Ry
     estimated scf accuracy    <       0.00000015 Ry

     iteration # 75     ecut=    29.40 Ry     beta= 0.05
     Davidson diagonalization with overlap
     ethr =  3.30E-11,  avg # of iterations =  2.4

     negative rho (up, down):  1.439E-02 0.000E+00
 
     Adding external electric field

     Computed dipole along edir(3) : 
        Dipole                0.4998 Ry au,          1.2705 Debye
        Dipole field          0.0009 Ry au, 
 
        Potential amp.       -0.0874 Ry
        Total length         46.3494 bohr
 

     total cpu time spent up to now is     1890.8 secs

     total energy              =   -3005.15894288 Ry
     estimated scf accuracy    <       0.00000014 Ry

     iteration # 76     ecut=    29.40 Ry     beta= 0.05
     Davidson diagonalization with overlap
     ethr =  3.30E-11,  avg # of iterations =  1.5

     negative rho (up, down):  1.439E-02 0.000E+00
 
     Adding external electric field

     Computed dipole along edir(3) : 
        Dipole                0.4998 Ry au,          1.2705 Debye
        Dipole field          0.0009 Ry au, 
 
        Potential amp.       -0.0874 Ry
        Total length         46.3494 bohr
 

     total cpu time spent up to now is     1928.0 secs

     total energy              =   -3005.15894419 Ry
     estimated scf accuracy    <       0.00000012 Ry

     iteration # 77     ecut=    29.40 Ry     beta= 0.05
     Davidson diagonalization with overlap
     ethr =  2.95E-11,  avg # of iterations =  1.0

     negative rho (up, down):  1.440E-02 0.000E+00
 
     Adding external electric field

     Computed dipole along edir(3) : 
        Dipole                0.4999 Ry au,          1.2707 Debye
        Dipole field          0.0009 Ry au, 
 
        Potential amp.       -0.0875 Ry
        Total length         46.3494 bohr
 

     total cpu time spent up to now is     1953.1 secs

     total energy              =   -3005.15894537 Ry
     estimated scf accuracy    <       0.00000012 Ry

     iteration # 78     ecut=    29.40 Ry     beta= 0.05
     Davidson diagonalization with overlap
     ethr =  2.95E-11,  avg # of iterations =  5.0

     negative rho (up, down):  1.440E-02 0.000E+00
 
     Adding external electric field

     Computed dipole along edir(3) : 
        Dipole                0.5001 Ry au,          1.2711 Debye
        Dipole field          0.0009 Ry au, 
 
        Potential amp.       -0.0875 Ry
        Total length         46.3494 bohr
 

     total cpu time spent up to now is     1970.6 secs

     total energy              =   -3005.15894645 Ry
     estimated scf accuracy    <       0.00000020 Ry

     iteration # 79     ecut=    29.40 Ry     beta= 0.05
     Davidson diagonalization with overlap
     ethr =  2.95E-11,  avg # of iterations =  2.0

     negative rho (up, down):  1.440E-02 0.000E+00
 
     Adding external electric field

     Computed dipole along edir(3) : 
        Dipole                0.4998 Ry au,          1.2703 Debye
        Dipole field          0.0009 Ry au, 
 
        Potential amp.       -0.0874 Ry
        Total length         46.3494 bohr
 

     total cpu time spent up to now is     1984.7 secs

     total energy              =   -3005.15894740 Ry
     estimated scf accuracy    <       0.00000026 Ry

     iteration # 80     ecut=    29.40 Ry     beta= 0.05
     Davidson diagonalization with overlap
     ethr =  2.95E-11,  avg # of iterations =  3.8

     negative rho (up, down):  1.441E-02 0.000E+00
 
     Adding external electric field

     Computed dipole along edir(3) : 
        Dipole                0.4997 Ry au,          1.2700 Debye
        Dipole field          0.0009 Ry au, 
 
        Potential amp.       -0.0874 Ry
        Total length         46.3494 bohr
 

     total cpu time spent up to now is     1999.6 secs

     total energy              =   -3005.15894828 Ry
     estimated scf accuracy    <       0.00000025 Ry

     iteration # 81     ecut=    29.40 Ry     beta= 0.05
     Davidson diagonalization with overlap
     ethr =  2.95E-11,  avg # of iterations =  5.0

     negative rho (up, down):  1.441E-02 0.000E+00
 
     Adding external electric field

     Computed dipole along edir(3) : 
        Dipole                0.4996 Ry au,          1.2699 Debye
        Dipole field          0.0009 Ry au, 
 
        Potential amp.       -0.0874 Ry
        Total length         46.3494 bohr
 

     total cpu time spent up to now is     2022.6 secs

     total energy              =   -3005.15894905 Ry
     estimated scf accuracy    <       0.00000028 Ry

     iteration # 82     ecut=    29.40 Ry     beta= 0.05
     Davidson diagonalization with overlap
     ethr =  2.95E-11,  avg # of iterations =  1.3

     negative rho (up, down):  1.441E-02 0.000E+00
 
     Adding external electric field

     Computed dipole along edir(3) : 
        Dipole                0.4996 Ry au,          1.2699 Debye
        Dipole field          0.0009 Ry au, 
 
        Potential amp.       -0.0874 Ry
        Total length         46.3494 bohr
 

     total cpu time spent up to now is     2036.1 secs

     total energy              =   -3005.15894976 Ry
     estimated scf accuracy    <       0.00000025 Ry

     iteration # 83     ecut=    29.40 Ry     beta= 0.05
     Davidson diagonalization with overlap
     ethr =  2.95E-11,  avg # of iterations =  1.0

     negative rho (up, down):  1.441E-02 0.000E+00
 
     Adding external electric field

     Computed dipole along edir(3) : 
        Dipole                0.4995 Ry au,          1.2695 Debye
        Dipole field          0.0009 Ry au, 
 
        Potential amp.       -0.0874 Ry
        Total length         46.3494 bohr
 

     total cpu time spent up to now is     2049.3 secs

     total energy              =   -3005.15895034 Ry
     estimated scf accuracy    <       0.00000027 Ry

     iteration # 84     ecut=    29.40 Ry     beta= 0.05
     Davidson diagonalization with overlap
     ethr =  2.95E-11,  avg # of iterations =  5.0

     negative rho (up, down):  1.441E-02 0.000E+00
 
     Adding external electric field

     Computed dipole along edir(3) : 
        Dipole                0.4995 Ry au,          1.2696 Debye
        Dipole field          0.0009 Ry au, 
 
        Potential amp.       -0.0874 Ry
        Total length         46.3494 bohr
 

     total cpu time spent up to now is     2084.1 secs

     total energy              =   -3005.15895093 Ry
     estimated scf accuracy    <       0.00000011 Ry

     iteration # 85     ecut=    29.40 Ry     beta= 0.05
     Davidson diagonalization with overlap
     ethr =  2.65E-11,  avg # of iterations =  1.0

     negative rho (up, down):  1.441E-02 0.000E+00
 
     Adding external electric field

     Computed dipole along edir(3) : 
        Dipole                0.4997 Ry au,          1.2702 Debye
        Dipole field          0.0009 Ry au, 
 
        Potential amp.       -0.0874 Ry
        Total length         46.3494 bohr
 

     total cpu time spent up to now is     2103.7 secs

     total energy              =   -3005.15895145 Ry
     estimated scf accuracy    <       0.00000010 Ry

     iteration # 86     ecut=    29.40 Ry     beta= 0.05
     Davidson diagonalization with overlap
     ethr =  2.43E-11,  avg # of iterations =  2.9

     negative rho (up, down):  1.447E-02 0.000E+00
 
     Adding external electric field

     Computed dipole along edir(3) : 
        Dipole                0.5001 Ry au,          1.2712 Debye
        Dipole field          0.0009 Ry au, 
 
        Potential amp.       -0.0875 Ry
        Total length         46.3494 bohr
 

     total cpu time spent up to now is     2118.3 secs

     End of self-consistent calculation

          k = 0.0000 0.0000 0.0000 ( 18029 PWs)   bands (ev):

   -56.1931 -56.1467 -55.6491 -55.6434 -55.6247 -55.5792 -55.5663 -55.5271
   -55.5144 -55.4863 -55.4430 -55.4005 -55.3962 -55.2727 -54.8176 -54.7836
   -32.6073 -32.4564 -32.4077 -32.3734 -32.2790 -32.2337 -32.1427 -32.0843
   -32.0743 -32.0195 -31.9521 -31.9406 -31.9390 -31.8831 -31.8826 -31.8752
   -31.8602 -31.8415 -31.8258 -31.8088 -31.7992 -31.7898 -31.7536 -31.7310
   -31.7275 -31.7093 -31.7037 -31.7000 -31.6994 -31.6919 -31.6857 -31.6772
   -31.6659 -31.6488 -31.6456 -31.6042 -31.5953 -31.5880 -31.5624 -31.5265
   -31.4863 -31.4744 -31.2124 -31.1568 -31.1325 -31.0294 -30.9444 -30.8334
   -20.6120 -16.8415 -16.3981 -16.3541 -16.2120 -15.9818 -15.8445 -15.7612
   -15.5305 -15.5143 -15.3998 -15.3926 -15.3491 -15.2373 -15.2216 -15.1855
   -15.1800 -15.1656 -15.1536 -15.1187 -15.1140 -15.1071 -15.0394 -15.0116
   -14.9841 -14.9405 -14.8843 -14.8445 -14.7752 -14.7687 -14.7254 -14.5218
   -13.7567 -13.3183 -13.2093  -6.3535  -5.3716  -4.8359  -4.2713  -4.0080
    -3.8815  -3.6653  -3.5696  -3.5615  -3.4005  -3.3699  -3.2729  -3.0534
    -2.9204  -2.8380  -2.8074  -2.7477  -2.7245  -2.6542  -2.6200  -2.6110
    -2.5705  -2.5210  -2.4694  -2.4542  -2.4419  -2.4014  -2.3848  -2.3527
    -2.3372  -2.3333  -2.2923  -2.1456  -2.1334  -2.0758  -2.0669  -2.0201
    -2.0137  -1.9856  -1.9745  -1.9291  -1.8918  -1.7523  -1.7348  -1.7207
    -1.6531  -1.4346  -1.4006  -1.3036  -1.2436  -1.2089  -1.1132  -1.1118
    -1.0799  -1.0492  -1.0009  -0.9198  -0.8872  -0.8308  -0.7850  -0.7772
    -0.7293  -0.6618  -0.6108  -0.5533  -0.5177  -0.4744  -0.3999  -0.3478
    -0.2817  -0.2631  -0.2135  -0.1740  -0.0819  -0.0491  -0.0200   0.0319
     0.0570   0.1216   0.1252   0.1658   0.1848   0.2635   0.2925   0.3102
     0.3600   0.3856   0.4014   0.4633   0.5258   0.5703   0.6145   0.7167
     0.7622   0.7865   0.8569   0.9331   1.1022   1.2008   1.2297   1.4257
     1.4575   1.7546   1.8026   1.8530   3.1050   3.2698   3.5575   3.6474
     3.6846   3.7155   3.8125   3.8430   3.9999   4.0412

          k = 0.0000 0.0419 0.0000 ( 17933 PWs)   bands (ev):

   -56.1898 -56.1499 -55.6482 -55.6424 -55.6221 -55.5761 -55.5689 -55.5301
   -55.5150 -55.4872 -55.4392 -55.4041 -55.3950 -55.2737 -54.8125 -54.7885
   -32.5543 -32.4541 -32.4094 -32.3609 -32.2914 -32.2893 -32.0965 -32.0302
   -32.0250 -31.9842 -31.9454 -31.9158 -31.8856 -31.8753 -31.8732 -31.8661
   -31.8435 -31.8344 -31.8293 -31.7994 -31.7963 -31.7943 -31.7700 -31.7499
   -31.7474 -31.7383 -31.7313 -31.7224 -31.7207 -31.7073 -31.7013 -31.6988
   -31.6851 -31.6464 -31.6434 -31.6179 -31.6106 -31.5974 -31.5871 -31.5492
   -31.5144 -31.4739 -31.1588 -31.1531 -31.1358 -31.0169 -30.9570 -30.8901
   -20.6117 -16.8058 -16.3848 -16.2284 -16.1001 -15.8821 -15.7511 -15.6776
   -15.5554 -15.4643 -15.4547 -15.4214 -15.3275 -15.3011 -15.2499 -15.1943
   -15.1700 -15.1668 -15.1582 -15.1407 -15.1207 -15.0781 -15.0653 -15.0585
   -15.0055 -14.9337 -14.9160 -14.9001 -14.8486 -14.8323 -14.7838 -14.5825
   -13.7602 -13.3259 -13.2506  -6.3199  -5.3910  -4.8082  -4.2549  -4.0069
    -3.6986  -3.4862  -3.4508  -3.4334  -3.4034  -3.2084  -3.1325  -2.8624
    -2.8080  -2.8004  -2.7838  -2.7228  -2.6898  -2.6596  -2.6491  -2.6326
    -2.6164  -2.5777  -2.5425  -2.5089  -2.4863  -2.4653  -2.4350  -2.4194
    -2.3767  -2.3526  -2.3219  -2.3086  -2.2666  -2.2474  -2.2082  -2.1651
    -2.0112  -1.9935  -1.9685  -1.9132  -1.8738  -1.8401  -1.6846  -1.5391
    -1.4436  -1.4038  -1.3549  -1.2960  -1.1744  -1.0943  -1.0325  -0.9601
    -0.9341  -0.9098  -0.8857  -0.8597  -0.8419  -0.7769  -0.7155  -0.6678
    -0.6479  -0.6014  -0.5797  -0.5495  -0.5215  -0.4876  -0.4471  -0.4183
    -0.3889  -0.3695  -0.3247  -0.2668  -0.2408  -0.1930  -0.1673  -0.0440
    -0.0056   0.0405   0.1019   0.1219   0.1534   0.1725   0.1925   0.2210
     0.2558   0.3475   0.3734   0.4175   0.5277   0.5580   0.5773   0.5983
     0.6349   0.7170   0.7354   0.7954   0.8765   1.0078   1.3049   1.4118
     1.5342   1.6989   1.7199   1.8220   3.3707   3.3741   3.5492   3.7710
     3.8262   3.8617   3.8718   3.9334   3.9464   3.9576

          k = 0.0000-0.0839 0.0000 ( 17884 PWs)   bands (ev):

   -56.1858 -56.1538 -55.6474 -55.6414 -55.6191 -55.5724 -55.5718 -55.5337
   -55.5157 -55.4880 -55.4345 -55.4088 -55.3938 -55.2748 -54.8007 -54.8003
   -32.4516 -32.4367 -32.4118 -32.4094 -32.3397 -32.3126 -32.0308 -31.9469
   -31.9453 -31.9368 -31.9174 -31.8821 -31.8756 -31.8670 -31.8657 -31.8497
   -31.8389 -31.8246 -31.8139 -31.8037 -31.8021 -31.7906 -31.7878 -31.7847
   -31.7803 -31.7791 -31.7628 -31.7517 -31.7497 -31.7459 -31.7170 -31.7011
   -31.6989 -31.6739 -31.6473 -31.6337 -31.6243 -31.6209 -31.5879 -31.5854
   -31.5262 -31.4734 -31.1443 -31.1442 -31.0279 -31.0262 -30.9866 -30.9857
   -20.6113 -16.7696 -16.3771 -15.9070 -15.9017 -15.8602 -15.7738 -15.6191
   -15.6139 -15.5195 -15.4632 -15.4142 -15.3930 -15.3111 -15.3105 -15.2417
   -15.2118 -15.1503 -15.1066 -15.0972 -15.0537 -15.0502 -15.0464 -15.0400
   -15.0203 -14.9906 -14.9809 -14.9648 -14.9249 -14.9163 -14.8532 -14.6755
   -13.7638 -13.3137 -13.3127  -6.2843  -5.4127  -4.7815  -4.2374  -4.0065
    -3.4969  -3.2401  -3.2390  -3.1067  -3.0941  -3.0604  -3.0279  -3.0072
    -2.9927  -2.8811  -2.8759  -2.7912  -2.7807  -2.7695  -2.7386  -2.7306
    -2.7046  -2.6458  -2.6218  -2.5838  -2.5749  -2.5397  -2.4831  -2.4173
[...]

   -56.1897 -56.1499 -55.6481 -55.6423 -55.6221 -55.5760 -55.5688 -55.5301
   -55.5150 -55.4871 -55.4392 -55.4041 -55.3949 -55.2737 -54.8124 -54.7885
   -32.5549 -32.4540 -32.4094 -32.3594 -32.2911 -32.2892 -32.0969 -32.0306
   -32.0266 -31.9887 -31.9364 -31.9170 -31.8930 -31.8728 -31.8721 -31.8643
   -31.8435 -31.8347 -31.8307 -31.7968 -31.7907 -31.7851 -31.7699 -31.7498
   -31.7475 -31.7321 -31.7256 -31.7226 -31.7212 -31.7062 -31.7032 -31.6988
   -31.6850 -31.6605 -31.6458 -31.6157 -31.6137 -31.5974 -31.5904 -31.5489
   -31.5143 -31.4756 -31.1585 -31.1549 -31.1349 -31.0167 -30.9571 -30.8900
   -20.6116 -16.7998 -16.3795 -16.1366 -16.0214 -15.8147 -15.7243 -15.6525
   -15.6461 -15.5209 -15.4196 -15.3820 -15.3612 -15.3367 -15.3207 -15.2696
   -15.2532 -15.2005 -15.1620 -15.1328 -15.1016 -15.0799 -15.0602 -14.9869
   -14.9750 -14.9546 -14.9112 -14.8863 -14.8700 -14.8490 -14.8387 -14.5798
   -13.7602 -13.3239 -13.2508  -6.3202  -5.3919  -4.8105  -4.2572  -3.9947
    -3.4506  -3.4210  -3.3202  -3.2351  -3.1864  -3.1355  -3.0553  -2.9217
    -2.8568  -2.8228  -2.7768  -2.7506  -2.6992  -2.6720  -2.6246  -2.5961
    -2.5801  -2.5225  -2.5055  -2.4676  -2.4507  -2.4244  -2.3986  -2.3840
    -2.3645  -2.3445  -2.3203  -2.2860  -2.2268  -2.2080  -2.1304  -2.1139
    -1.9803  -1.9543  -1.9296  -1.8939  -1.8063  -1.7643  -1.6683  -1.6058
    -1.4574  -1.3722  -1.3377  -1.2599  -1.1948  -1.1589  -1.1192  -1.0905
    -1.0360  -1.0141  -0.9485  -0.8959  -0.8720  -0.8378  -0.8170  -0.7874
    -0.7328  -0.6835  -0.6565  -0.6258  -0.5988  -0.5737  -0.5203  -0.4802
    -0.4289  -0.4123  -0.3848  -0.3365  -0.3122  -0.2326  -0.2158  -0.1370
    -0.0727  -0.0268  -0.0122   0.0140   0.0686   0.1020   0.1454   0.1838
     0.2620   0.3334   0.3932   0.4829   0.5124   0.5482   0.5814   0.6253
     0.6694   0.6952   0.7217   0.7620   0.8540   0.9891   1.2438   1.4244
     1.5388   1.6241   1.6882   1.8222   3.3569   3.5137   3.6055   3.7586
     3.7969   3.8642   3.9120   3.9382   3.9754   3.9997

          k = 0.0380-0.0839 0.0000 ( 17916 PWs)   bands (ev):

   -56.1858 -56.1538 -55.6474 -55.6414 -55.6192 -55.5724 -55.5718 -55.5337
   -55.5157 -55.4880 -55.4345 -55.4088 -55.3938 -55.2749 -54.8007 -54.8003
   -32.4517 -32.4373 -32.4119 -32.4099 -32.3390 -32.3119 -32.0314 -31.9486
   -31.9469 -31.9308 -31.9177 -31.8822 -31.8783 -31.8691 -31.8646 -31.8500
   -31.8358 -31.8269 -31.8142 -31.8046 -31.8034 -31.7946 -31.7892 -31.7872
   -31.7793 -31.7739 -31.7730 -31.7509 -31.7373 -31.7205 -31.7126 -31.7082
   -31.6989 -31.6739 -31.6475 -31.6426 -31.6302 -31.6236 -31.5898 -31.5865
   -31.5262 -31.4757 -31.1450 -31.1448 -31.0279 -31.0262 -30.9866 -30.9858
   -20.6113 -16.7675 -16.3732 -15.8513 -15.8330 -15.8077 -15.7146 -15.5712
   -15.5628 -15.4843 -15.4659 -15.4196 -15.4044 -15.3877 -15.3752 -15.2511
   -15.2441 -15.1564 -15.1367 -15.1173 -15.1019 -15.0879 -15.0478 -15.0373
   -15.0220 -15.0119 -14.9941 -14.9896 -14.9678 -14.9340 -14.8437 -14.6681
   -13.7638 -13.3136 -13.3126  -6.2849  -5.4138  -4.7834  -4.2398  -3.9939
    -3.4959  -3.0470  -3.0289  -3.0207  -2.9408  -2.8909  -2.8674  -2.8500
    -2.8245  -2.8057  -2.7785  -2.7435  -2.6952  -2.6701  -2.6619  -2.6454
    -2.6197  -2.5987  -2.5783  -2.5396  -2.5132  -2.5071  -2.4523  -2.4269
    -2.3865  -2.3473  -2.3258  -2.2942  -2.2903  -2.2811  -1.9787  -1.9156
    -1.8881  -1.8404  -1.7954  -1.7260  -1.7025  -1.6620  -1.6344  -1.6072
    -1.5152  -1.5019  -1.4581  -1.4274  -1.4126  -1.3728  -1.3551  -1.2959
    -1.2566  -1.1911  -1.1498  -1.0148  -0.9187  -0.8829  -0.7688  -0.7141
    -0.6828  -0.6566  -0.6028  -0.5624  -0.5269  -0.5165  -0.5032  -0.4775
    -0.4230  -0.4113  -0.3848  -0.3601  -0.3439  -0.3203  -0.3034  -0.2291
    -0.1397  -0.1025  -0.0751   0.0051   0.0377   0.1139   0.1514   0.2156
     0.2276   0.3431   0.3656   0.3882   0.4043   0.4484   0.4840   0.5646
     0.5926   0.6252   0.6465   0.8471   0.8998   1.0278   1.0697   1.5665
     1.5839   1.6279   1.6364   1.7912   3.5815   3.5937   3.7421   3.7503
     3.8509   3.9187   3.9635   3.9828   3.9875   4.0713

          k = 0.0380-0.0419 0.0000 ( 17876 PWs)   bands (ev):

   -56.1897 -56.1499 -55.6481 -55.6423 -55.6221 -55.5760 -55.5688 -55.5301
   -55.5150 -55.4871 -55.4392 -55.4041 -55.3949 -55.2737 -54.8124 -54.7885
   -32.5549 -32.4540 -32.4094 -32.3594 -32.2911 -32.2893 -32.0969 -32.0306
   -32.0267 -31.9892 -31.9357 -31.9163 -31.8930 -31.8731 -31.8716 -31.8656
   -31.8432 -31.8343 -31.8292 -31.7968 -31.7938 -31.7852 -31.7698 -31.7498
   -31.7471 -31.7317 -31.7261 -31.7222 -31.7209 -31.7065 -31.7030 -31.6988
   -31.6850 -31.6600 -31.6459 -31.6159 -31.6137 -31.5973 -31.5907 -31.5490
   -31.5143 -31.4755 -31.1585 -31.1549 -31.1348 -31.0167 -30.9571 -30.8900
   -20.6116 -16.7997 -16.3796 -16.1368 -16.0215 -15.8147 -15.7229 -15.6533
   -15.6470 -15.5206 -15.4190 -15.3822 -15.3695 -15.3306 -15.3199 -15.2719
   -15.2510 -15.2001 -15.1621 -15.1321 -15.0998 -15.0801 -15.0589 -14.9870
   -14.9777 -14.9543 -14.9115 -14.8863 -14.8705 -14.8492 -14.8374 -14.5802
   -13.7602 -13.3239 -13.2508  -6.3204  -5.3916  -4.8112  -4.2552  -3.9970
    -3.4496  -3.4202  -3.3183  -3.2394  -3.1794  -3.1339  -3.0558  -2.9206
    -2.8575  -2.8210  -2.7746  -2.7528  -2.7051  -2.6612  -2.6313  -2.6033
    -2.5828  -2.5342  -2.4988  -2.4733  -2.4593  -2.4211  -2.3997  -2.3824
    -2.3622  -2.3471  -2.3202  -2.2780  -2.2274  -2.2017  -2.1401  -2.1021
    -1.9906  -1.9487  -1.9344  -1.8723  -1.8139  -1.7595  -1.6652  -1.5991
    -1.4673  -1.3688  -1.3373  -1.2713  -1.2081  -1.1577  -1.1268  -1.0990
    -1.0380  -1.0151  -0.9412  -0.8950  -0.8668  -0.8402  -0.7955  -0.7662
    -0.7201  -0.6887  -0.6607  -0.6373  -0.5949  -0.5662  -0.5249  -0.4778
    -0.4426  -0.4004  -0.3654  -0.3325  -0.3087  -0.2390  -0.2200  -0.1614
    -0.0799  -0.0595  -0.0070   0.0327   0.0520   0.1136   0.1365   0.1813
     0.2426   0.3187   0.3995   0.4799   0.5112   0.5615   0.6119   0.6358
     0.6542   0.7038   0.7192   0.7704   0.8548   0.9961   1.2417   1.4238
     1.5404   1.6231   1.6894   1.8195   3.3609   3.5140   3.6055   3.7503
     3.7770   3.8813   3.9060   3.9400   3.9778   4.0093

          k =-0.0760-0.0000 0.0000 ( 17886 PWs)   bands (ev):

   -56.1929 -56.1466 -55.6487 -55.6432 -55.6248 -55.5790 -55.5662 -55.5270
   -55.5143 -55.4862 -55.4429 -55.4004 -55.3960 -55.2726 -54.8174 -54.7835
   -32.6086 -32.4561 -32.4075 -32.3696 -32.2789 -32.2334 -32.1432 -32.0847
   -32.0781 -32.0290 -31.9508 -31.9417 -31.9280 -31.8820 -31.8795 -31.8664
   -31.8583 -31.8423 -31.8382 -31.7991 -31.7820 -31.7688 -31.7532 -31.7281
   -31.7123 -31.7100 -31.7090 -31.6981 -31.6956 -31.6931 -31.6917 -31.6841
   -31.6787 -31.6654 -31.6458 -31.6050 -31.5975 -31.5951 -31.5621 -31.5263
   -31.4863 -31.4766 -31.2117 -31.1614 -31.1296 -31.0291 -30.9442 -30.8333
   -20.6119 -16.8221 -16.3816 -16.0805 -16.0457 -15.8970 -15.7652 -15.7546
   -15.6703 -15.6439 -15.4880 -15.4713 -15.4167 -15.3820 -15.3719 -15.3535
   -15.2008 -15.1814 -15.1786 -15.1356 -15.0733 -15.0165 -15.0016 -14.9652
   -14.9511 -14.9117 -14.8405 -14.8359 -14.8047 -14.7701 -14.7578 -14.5192
   -13.7566 -13.3130 -13.2086  -6.3543  -5.3729  -4.8421  -4.2708  -3.9881
    -3.4247  -3.3974  -3.3633  -3.2166  -3.2014  -3.1450  -3.1345  -3.1050
    -3.0066  -2.9804  -2.9739  -2.9387  -2.9002  -2.6656  -2.6237  -2.5202
    -2.4899  -2.4519  -2.4087  -2.2985  -2.2820  -2.2570  -2.2491  -2.2027
    -2.1657  -2.1608  -2.1446  -2.0899  -2.0621  -2.0335  -2.0229  -2.0129
    -2.0017  -1.9925  -1.9436  -1.8337  -1.7935  -1.7655  -1.5675  -1.5369
    -1.4813  -1.4310  -1.4081  -1.3787  -1.3482  -1.3186  -1.2953  -1.2075
    -1.2001  -1.1591  -1.1272  -1.0734  -1.0458  -0.9840  -0.9736  -0.9291
    -0.8846  -0.7679  -0.7218  -0.6739  -0.6132  -0.5165  -0.4764  -0.3756
    -0.3523  -0.2964  -0.2850  -0.2270  -0.1931  -0.1794  -0.1241  -0.0644
    -0.0433  -0.0065   0.0192   0.0556   0.1031   0.1712   0.1993   0.2693
     0.3208   0.3494   0.3615   0.4057   0.4574   0.4792   0.5586   0.5857
     0.6395   0.7867   0.8677   0.8708   0.9719   1.0251   1.2325   1.2659
     1.4102   1.5215   1.6412   1.8501   3.2413   3.3947   3.4673   3.5750
     3.6962   3.7153   3.7871   3.8558   3.8606   3.9541

          k =-0.0760 0.0419 0.0000 ( 17914 PWs)   bands (ev):

   -56.1897 -56.1499 -55.6480 -55.6423 -55.6222 -55.5760 -55.5689 -55.5301
   -55.5150 -55.4871 -55.4392 -55.4041 -55.3950 -55.2737 -54.8125 -54.7885
   -32.5557 -32.4540 -32.4094 -32.3581 -32.2910 -32.2895 -32.0973 -32.0313
   -32.0284 -31.9937 -31.9249 -31.9181 -31.8999 -31.8728 -31.8695 -31.8621
   -31.8458 -31.8358 -31.8324 -31.7967 -31.7874 -31.7694 -31.7679 -31.7503
   -31.7477 -31.7320 -31.7236 -31.7213 -31.7123 -31.7112 -31.7001 -31.6982
   -31.6849 -31.6816 -31.6459 -31.6178 -31.6147 -31.5974 -31.5946 -31.5490
   -31.5144 -31.4773 -31.1583 -31.1570 -31.1342 -31.0167 -30.9571 -30.8900
   -20.6116 -16.7940 -16.3750 -15.9588 -15.9491 -15.7928 -15.7113 -15.6924
   -15.5840 -15.5647 -15.4592 -15.4212 -15.4047 -15.3769 -15.3644 -15.3324
   -15.2442 -15.2220 -15.1797 -15.1564 -15.0786 -15.0658 -15.0626 -15.0276
   -14.9881 -14.9595 -14.9281 -14.8770 -14.8592 -14.8526 -14.8342 -14.5791
   -13.7602 -13.3221 -13.2511  -6.3209  -5.3926  -4.8133  -4.2572  -3.9844
    -3.4494  -3.2534  -3.2262  -3.0008  -2.9151  -2.9061  -2.8885  -2.8814
    -2.8265  -2.8201  -2.7560  -2.7268  -2.7056  -2.6657  -2.6097  -2.5924
    -2.5619  -2.5499  -2.4781  -2.4594  -2.4390  -2.3837  -2.3591  -2.3489
    -2.3203  -2.2750  -2.2519  -2.2263  -2.2044  -2.1928  -2.1304  -2.0992
    -1.9689  -1.9336  -1.7825  -1.7687  -1.7441  -1.7210  -1.6633  -1.5982
    -1.5170  -1.4845  -1.3011  -1.2880  -1.2631  -1.2338  -1.1860  -1.1701
    -1.1486  -1.1256  -1.0751  -1.0353  -1.0013  -0.9628  -0.9163  -0.8902
    -0.8477  -0.8225  -0.7949  -0.7486  -0.7222  -0.6518  -0.6255  -0.5740
    -0.5076  -0.4944  -0.4555  -0.3820  -0.3597  -0.3243  -0.2743  -0.2417
    -0.1456  -0.1169  -0.0568  -0.0319   0.0368   0.0701   0.1531   0.1988
     0.2983   0.3522   0.3829   0.4631   0.5235   0.5619   0.6260   0.6940
     0.6983   0.7615   0.7783   0.8730   0.9153   0.9786   1.0230   1.4387
     1.5436   1.5526   1.6688   1.8198   3.3581   3.5361   3.5578   3.6770
     3.7387   3.8096   3.8726   3.9546   4.0185   4.0332

          k =-0.0760-0.0839 0.0000 ( 17948 PWs)   bands (ev):

   -56.1859 -56.1538 -55.6473 -55.6414 -55.6193 -55.5724 -55.5718 -55.5337
   -55.5158 -55.4880 -55.4345 -55.4089 -55.3939 -55.2749 -54.8007 -54.8003
   -32.4517 -32.4378 -32.4120 -32.4104 -32.3383 -32.3111 -32.0320 -31.9503
   -31.9495 -31.9217 -31.9180 -31.8831 -31.8820 -31.8705 -31.8618 -31.8502
   -31.8405 -31.8282 -31.8144 -31.8064 -31.8005 -31.7969 -31.7886 -31.7865
   -31.7804 -31.7793 -31.7669 -31.7509 -31.7216 -31.7171 -31.7083 -31.6989
   -31.6982 -31.6738 -31.6570 -31.6468 -31.6420 -31.6228 -31.5929 -31.5869
   -31.5263 -31.4779 -31.1456 -31.1454 -31.0279 -31.0262 -30.9866 -30.9858
   -20.6113 -16.7654 -16.3694 -15.7968 -15.6673 -15.6596 -15.6589 -15.6236
   -15.5823 -15.5299 -15.5026 -15.4479 -15.3792 -15.3527 -15.3348 -15.3104
   -15.2665 -15.2345 -15.2206 -15.1474 -15.1098 -15.0981 -15.0831 -15.0722
   -15.0284 -15.0260 -15.0069 -14.9984 -14.9915 -14.9362 -14.8386 -14.6625
   -13.7639 -13.3134 -13.3124  -6.2856  -5.4147  -4.7852  -4.2418  -3.9814
    -3.4948  -3.0247  -2.9230  -2.8449  -2.8372  -2.7494  -2.7082  -2.6774
    -2.6576  -2.6392  -2.6125  -2.5630  -2.5394  -2.5036  -2.4943  -2.4929
    -2.4740  -2.4667  -2.4455  -2.4213  -2.4086  -2.3933  -2.3817  -2.3578
    -2.3457  -2.3360  -2.3206  -2.2897  -2.2449  -2.2247  -2.0461  -2.0166
    -2.0087  -2.0081  -1.9407  -1.9367  -1.8785  -1.8054  -1.7893  -1.7682
    -1.7495  -1.6358  -1.4984  -1.4511  -1.3942  -1.3734  -1.3045  -1.2527
    -1.1564  -1.1382  -1.1269  -1.1091  -1.0650  -1.0613  -0.9747  -0.9214
    -0.8783  -0.8741  -0.8522  -0.8084  -0.6902  -0.6811  -0.6429  -0.6197
    -0.6055  -0.5035  -0.4717  -0.4514  -0.4368  -0.4249  -0.3208  -0.2713
    -0.2248  -0.1772  -0.1152  -0.0580   0.0649   0.0902   0.1841   0.2143
     0.2564   0.3897   0.4153   0.4645   0.5001   0.5524   0.5908   0.6060
     0.7321   0.7881   0.8062   0.8728   0.8930   0.9319   0.9556   1.5933
     1.5994   1.6067   1.6091   1.7910   3.6473   3.6738   3.6800   3.7145
     3.8986   3.9275   4.0060   4.0300   4.0445   4.0551

     the Fermi energy is     2.5631 ev

!    total energy              =   -3005.15895620 Ry
     estimated scf accuracy    <       0.00000007 Ry
     smearing contrib. (-TS)   =      -0.00023684 Ry
     internal energy E=F+TS    =   -3005.15871936 Ry

     The total energy is F=E-TS. E is the sum of the following terms:
     one-electron contribution =  -22951.71191320 Ry
     hartree contribution      =   11571.80018763 Ry
     xc contribution           =    -500.30271271 Ry
     ewald contribution        =    8875.05524691 Ry
     electric field correction =       0.00047199 Ry

     convergence has been achieved in  86 iterations

     Forces acting on atoms (cartesian axes, Ry/au):

     atom    1 type  1   force =     0.00058310   -0.00023463    0.00024743
     atom    2 type  2   force =    -0.00018817    0.00021057   -0.00009952
     atom    3 type  2   force =     0.00002268    0.00000240   -0.00035267
     atom    4 type  2   force =    -0.00038560   -0.00010673    0.00011203
     atom    5 type  3   force =     0.00027495   -0.00316686   -0.05387359
     atom    6 type  3   force =     0.00044720    0.00119894    0.04055508
     atom    7 type  3   force =    -0.00981449   -0.00222039    0.00042230
     atom    8 type  3   force =     0.00889191   -0.00512145   -0.00067876
     atom    9 type  3   force =     0.00010140    0.00002647    0.00000088
     atom   10 type  3   force =    -0.00010207    0.00004275   -0.00001707
     atom   11 type  3   force =     0.00014505   -0.00000691   -0.00011248
     atom   12 type  3   force =     0.00000854    0.00014382    0.00000811
     atom   13 type  3   force =     0.00000428    0.00002413   -0.00003845
     atom   14 type  3   force =     0.00007613   -0.00009250    0.00044910
     atom   15 type  3   force =    -0.00004270    0.00009112    0.00012806
     atom   16 type  3   force =    -0.00000080   -0.00003927   -0.00006070
     atom   17 type  3   force =    -0.00006823    0.00016314    0.09944337
     atom   18 type  3   force =    -0.00000439   -0.00005638    0.00004008
     atom   19 type  3   force =    -0.08021957    0.00059055   -0.03416035
     atom   20 type  3   force =     0.07999248    0.00110470   -0.03418712
     atom   21 type  3   force =     0.00051517    0.00002057   -0.05295088
     atom   22 type  3   force =     0.00038346    0.00049077    0.04231354
     atom   23 type  3   force =    -0.01094735    0.00575324    0.00233749
     atom   24 type  3   force =     0.01007077    0.00212837    0.00119208
     atom   25 type  3   force =     0.00007731    0.00000602    0.00008952
     atom   26 type  3   force =     0.00000880    0.00006673   -0.00001364
     atom   27 type  3   force =     0.00008847    0.00008516   -0.00001707
     atom   28 type  3   force =     0.00004389   -0.00002186    0.00006201
     atom   29 type  3   force =     0.00012718   -0.00013443    0.00005976
     atom   30 type  3   force =    -0.00001513   -0.00005473   -0.00002029
     atom   31 type  3   force =     0.00009823   -0.00010376   -0.00004634
     atom   32 type  3   force =    -0.00001107   -0.00022823    0.00011301
     atom   33 type  3   force =    -0.00007942    0.00025453    0.09900291
     atom   34 type  3   force =    -0.08021899   -0.00145018   -0.03416045
     atom   35 type  3   force =     0.08000183   -0.00092659   -0.03421050
     atom   36 type  3   force =     0.00001200   -0.00014189    0.00016621
     atom   37 type  4   force =     0.00020235    0.00016883    0.13338206
     atom   38 type  4   force =     0.00002175    0.00798794   -0.15913758
     atom   39 type  4   force =    -0.00006183   -0.00005681   -0.00002369
     atom   40 type  4   force =    -0.00007630    0.00015562    0.00004559
     atom   41 type  4   force =    -0.00028684   -0.00001524   -0.00004019
     atom   42 type  4   force =    -0.00008007    0.00015863   -0.00007507
     atom   43 type  4   force =     0.00004789   -0.00005757    0.00003051
     atom   44 type  4   force =     0.00026819   -0.00012811   -0.00006704
     atom   45 type  4   force =    -0.00024395   -0.00009037    0.14213841
     atom   46 type  4   force =    -0.00018549   -0.00646908   -0.15860993
     atom   47 type  4   force =     0.00011989   -0.00007705    0.00001620
     atom   48 type  4   force =    -0.00015977    0.00016151    0.00013702
     atom   49 type  4   force =    -0.00012326   -0.00001704    0.00011380
     atom   50 type  4   force =    -0.00010006   -0.00011999   -0.00005655
     atom   51 type  4   force =    -0.00025880    0.00013749    0.00069147
     atom   52 type  4   force =     0.00015449    0.00003737    0.00015543
     atom   53 type  5   force =     0.00026495    0.00002482   -0.00039605
     atom   54 type  5   force =    -0.00004661    0.00001345    0.00050579
     atom   55 type  3   force =    -0.00542991    0.00100202    0.00179261
     atom   56 type  2   force =     0.00609654   -0.00111365   -0.00234590

     Total force =     0.385132     Total SCF correction =     0.000550
  @ DRIVER MODE: Message from server: STATUS
  @ DRIVER MODE: Message from server: GETFORCE
  @ DRIVER MODE: Returning v,forces,stress,ensemble 

     Writing output data file ./calc.save/
  @ DRIVER MODE: Message from server: EXIT
  @ DRIVE MODE: Exiting  
 
     init_run     :     14.02s CPU     14.47s WALL (       1 calls)
     electrons    :   2000.84s CPU   2094.20s WALL (       1 calls)
     forces       :      4.15s CPU      4.29s WALL (       1 calls)

     Called by init_run:
     wfcinit      :      5.96s CPU      6.13s WALL (       1 calls)
     potinit      :      6.84s CPU      6.92s WALL (       1 calls)
     hinit0       :      0.42s CPU      0.44s WALL (       1 calls)

     Called by electrons:
     c_bands      :   1659.24s CPU   1719.18s WALL (      86 calls)
     sum_band     :    247.70s CPU    268.16s WALL (      86 calls)
     v_of_rho     :     63.56s CPU     67.74s WALL (      87 calls)
     newd         :     25.15s CPU     32.29s WALL (      87 calls)
     mix_rho      :      9.91s CPU     11.21s WALL (      86 calls)
     vdW_kernel   :      5.84s CPU      5.86s WALL (       1 calls)

     Called by c_bands:
     init_us_2    :      9.70s CPU      9.79s WALL (    1740 calls)
     cegterg      :   1628.85s CPU   1687.73s WALL (     880 calls)

     Called by *egterg:
     cdiaghg      :    221.66s CPU    229.78s WALL (    6794 calls)
     h_psi        :    973.20s CPU   1013.75s WALL (    6811 calls)
     s_psi        :     97.96s CPU     98.59s WALL (    6811 calls)
     g_psi        :      2.62s CPU      2.64s WALL (    5921 calls)

     Called by h_psi:
     h_psi:calbec :    100.40s CPU    102.74s WALL (    6811 calls)
     vloc_psi     :    771.32s CPU    803.57s WALL (    6811 calls)
     add_vuspsi   :     98.28s CPU    101.32s WALL (    6811 calls)

     General routines
     calbec       :    135.72s CPU    138.96s WALL (    7711 calls)
     fft          :     35.98s CPU     37.31s WALL (    5481 calls)
     ffts         :      0.36s CPU      0.39s WALL (     173 calls)
     fftw         :    905.92s CPU    949.62s WALL ( 1180740 calls)
     interpolate  :      0.84s CPU      0.85s WALL (      87 calls)
     davcio       :      0.00s CPU      0.19s WALL (      10 calls)
 
     Parallel routines
 
     PWSCF        :  33m46.84s CPU  35m23.45s WALL

 
   This run was terminated on:  22:52:30  26Sep2021            

=------------------------------------------------------------------------------=
   JOB DONE.
=------------------------------------------------------------------------------=
