
     Program PWSCF v.6.7GPU starts on  9Sep2021 at 22:26: 0 

     This program is part of the open-source Quantum ESPRESSO suite
     for quantum simulation of materials; please cite
         "P. Giannozzi et al., J. Phys.:Condens. Matter 21 395502 (2009);
         "P. Giannozzi et al., J. Phys.:Condens. Matter 29 465901 (2017);
         "P. Giannozzi et al., J. Chem. Phys. 152 154105 (2020);
          URL http://www.quantum-espresso.org", 
     in publications or presentations arising from this work. More details at
     http://www.quantum-espresso.org/quote

     Parallel version (MPI), running on    10 processors

     MPI processes distributed on     1 nodes
     R & G space division:  proc/nbgrp/npool/nimage =      10
     Reading input from /storage/home/hcoda1/3/ntian30/research/carbon/CxH_vib/CH3_calc/ads_slab/CH3N2H2O_g/out_0006/pw.inp
Warning: card &CELL ignored
Warning: card   CELL_DYNAMICS='IPI', ignored
Warning: card / ignored

     Current dimensions of program PWSCF are:
     Max number of different atomic species (ntypx) = 10
     Max number of k-points (npk) =  40000
     Max angular momentum in pseudopotentials (lmaxx) =  3
     Presently no symmetry can be used with electric field

     Message from routine cell_base_init:
     DEPRECATED: use true lattice parameter, not A to a.u. conversion factor

     **************************************************************************
     Initializing libbeef V0.1.2 with the BEEF-vdW functional.
     Citation: Wellendorff et al., PRB 85, 235149 (2012).
     **************************************************************************


     IMPORTANT: XC functional enforced from input :
     Exchange-correlation= BEEF-VDW
                           (   1   4  43  14   2   0   0)
     Any further DFT definition will be discarded
     Please, verify this is what you really want


     Subspace diagonalization in iterative solution of the eigenvalue problem:
     one sub-group per band group will be used
     scalapack distributed-memory algorithm (size of sub-group:  3*  3 procs)

  @ DRIVER MODE: Connecting to 
 qe_1139763_2779714.sched-torque.pace.gatech.eduymnmz_qf_scratch
  using UNIX socket
  @ DRIVER MODE: Message from server: STATUS
  @ DRIVER MODE: Message from server: INIT
  @ DRIVER MODE: Receiving replica           0          -1
  @ DRIVER MODE: Receiving encoded integer          25
  @ DRIVER MODE:  SCF:  T  FORCE:  T  STRESS:  F  VC:  F  ENSEMBLE:  F
  @ DRIVER MODE:  SCF:  T  FORCE:  T  STRESS:  F  VC:  F  ENSEMBLE:  F
 
     Parallelization info
     --------------------
     sticks:   dense  smooth     PW     G-vecs:    dense   smooth      PW
     Min         327     131     37                56683    14340    2191
     Max         328     133     38                56694    14346    2206
     Sum        3275    1317    379               566857   143421   21985
 
     Using Slab Decomposition
 


     bravais-lattice index     =            0
     lattice parameter (alat)  =       1.8897  a.u.
     unit-cell volume          =    6658.9804 (a.u.)^3
     number of atoms/cell      =           56
     number of atomic types    =            5
     number of electrons       =       403.00
     number of Kohn-Sham states=          211
     kinetic-energy cutoff     =      29.3995  Ry
     charge density cutoff     =     293.9946  Ry
     scf convergence threshold =      7.3E-08
     mixing beta               =       0.0500
     number of iterations used =            8  plain     mixing
     Exchange-correlation= BEEF-VDW
                           (   1   4  43  14   2   0   0)

     celldm(1)=   1.889726  celldm(2)=   0.000000  celldm(3)=   0.000000
     celldm(4)=   0.000000  celldm(5)=   0.000000  celldm(6)=   0.000000

     crystal axes: (cart. coord. in units of alat)
               a(1) = (   6.579727   0.000000   0.000000 )  
               a(2) = (  -0.000775   5.961596   0.000000 )  
               a(3) = (   0.000000   0.000000  25.155947 )  

     reciprocal axes: (cart. coord. in units 2 pi/alat)
               b(1) = (  0.151982  0.000020  0.000000 )  
               b(2) = (  0.000000  0.167740  0.000000 )  
               b(3) = (  0.000000  0.000000  0.039752 )  


     PseudoPot. # 1 for Ti read from file:
     /storage/coda1/p-amedford6/0/shared/rich_project_chbe-medford/medford-share/data/pseudos_module/espresso/nninc/pbe/van/Ti.UPF
     MD5 check sum: 8e4df49b7f0d34bbd5052bf3f5ea0213
     Pseudo is Ultrasoft, Zval = 12.0
     Generated by new atomic code, or converted to UPF format
     Using radial grid of  851 points,  6 beta functions with: 
                l(1) =   0
                l(2) =   0
                l(3) =   1
                l(4) =   1
                l(5) =   2
                l(6) =   2
     Q(r) pseudized with  8 coefficients,  rinner =    1.000   1.000   1.000
                                                       1.000   1.000

     PseudoPot. # 2 for O  read from file:
     /storage/coda1/p-amedford6/0/shared/rich_project_chbe-medford/medford-share/data/pseudos_module/espresso/nninc/pbe/van/O.UPF
     MD5 check sum: 78c19812648e8988a0fe644b0f25305e
     Pseudo is Ultrasoft, Zval =  6.0
     Generated by new atomic code, or converted to UPF format
     Using radial grid of  737 points,  4 beta functions with: 
                l(1) =   0
                l(2) =   0
                l(3) =   1
                l(4) =   1
     Q(r) pseudized with  8 coefficients,  rinner =    0.800   0.800   0.800


     PseudoPot. # 3 for N  read from file:
     /storage/coda1/p-amedford6/0/shared/rich_project_chbe-medford/medford-share/data/pseudos_module/espresso/nninc/pbe/van/N.UPF
     MD5 check sum: 90d10febe142ad51ac9d5be1deb811c4
     Pseudo is Ultrasoft, Zval =  5.0
     Generated by new atomic code, or converted to UPF format
     Using radial grid of  729 points,  4 beta functions with: 
                l(1) =   0
                l(2) =   0
                l(3) =   1
                l(4) =   1
     Q(r) pseudized with  8 coefficients,  rinner =    0.800   0.800   0.800


     PseudoPot. # 4 for C  read from file:
     /storage/coda1/p-amedford6/0/shared/rich_project_chbe-medford/medford-share/data/pseudos_module/espresso/nninc/pbe/van/C.UPF
     MD5 check sum: 1a69bf6b8db32088f5b2163dbdb77a27
     Pseudo is Ultrasoft, Zval =  4.0
     Generated by new atomic code, or converted to UPF format
     Using radial grid of  721 points,  4 beta functions with: 
                l(1) =   0
                l(2) =   0
                l(3) =   1
                l(4) =   1
     Q(r) pseudized with  8 coefficients,  rinner =    0.800   0.800   0.800


     PseudoPot. # 5 for H  read from file:
     /storage/coda1/p-amedford6/0/shared/rich_project_chbe-medford/medford-share/data/pseudos_module/espresso/nninc/pbe/van/H.UPF
     MD5 check sum: b5ee9d7bfd3a09ee7748110bda690ff7
     Pseudo is Ultrasoft, Zval =  1.0
     Generated by new atomic code, or converted to UPF format
     Using radial grid of  615 points,  1 beta functions with: 
                l(1) =   0
     Q(r) pseudized with  8 coefficients,  rinner =    0.800

     atomic species   valence    mass     pseudopotential
        Ti1           12.00    47.86700     Ti( 1.00)
        O1             6.00    15.99900     O ( 1.00)
        N1             5.00    14.00700     N ( 1.00)
        C1             4.00    12.01100     C ( 1.00)
        H1             1.00     1.00800     H ( 1.00)

     No symmetry found



   Cartesian axes

     site n.     atom                  positions (alat units)
         1           Ti1 tau(   1) = (   0.0004258   2.9801865   6.0000000  )
         2           Ti1 tau(   2) = (   3.2906075   1.4906267   6.0002472  )
         3           O1  tau(   3) = (   0.0006271   0.0005054   7.9858123  )
         4           O1  tau(   4) = (   3.2906025   0.0005020   7.3038282  )
         5           O1  tau(   5) = (   4.5942328   1.4918067   9.2879030  )
         6           O1  tau(   6) = (   1.9868534   1.4903216   9.2879459  )
         7           Ti1 tau(   7) = (   3.2907910   2.8959150   9.1758416  )
         8           Ti1 tau(   8) = (   0.0015273   1.4827037   9.2680791  )
         9           O1  tau(   9) = (   3.3002115   5.9463602  11.3460011  )
        10           O1  tau(  10) = (   0.0116148   5.9584955  10.6183126  )
        11           O1  tau(  11) = (   1.3192008   1.4768417  12.6238339  )
        12           O1  tau(  12) = (   5.3062067   1.4698383  12.6193417  )
        13           Ti1 tau(  13) = (   6.5330844   2.9444840  12.6148558  )
        14           Ti1 tau(  14) = (   3.2222230   1.4676475  12.5013840  )
        15           O1  tau(  15) = (   0.0064324   5.9471174  14.6352917  )
        16           O1  tau(  16) = (   3.3028336   5.9445487  13.9678148  )
        17           O1  tau(  17) = (   4.5628415   1.5226527  16.0793330  )
        18           O1  tau(  18) = (   2.0474444   1.5206590  16.0184434  )
        19           Ti1 tau(  19) = (   3.3141275   2.9607752  15.6908890  )
        20           Ti1 tau(  20) = (   6.5660065   1.5097775  15.7997320  )
        21           O1  tau(  21) = (   3.2904802   0.0005063   4.7018136  )
        22           O1  tau(  22) = (   0.0269361   0.0086655  17.1987262  )
        23           O1  tau(  23) = (   1.3043587   1.4918075   6.0039043  )
        24           O1  tau(  24) = (   5.2767064   1.4903225   6.0039473  )
        25           Ti1 tau(  25) = (   0.0000382   5.9609847   6.0000000  )
        26           Ti1 tau(  26) = (   3.2902200   4.4714249   6.0002472  )
        27           O1  tau(  27) = (   0.0002396   2.9813036   7.9858123  )
        28           O1  tau(  28) = (   3.2902150   2.9813002   7.3038282  )
        29           O1  tau(  29) = (   4.5938453   4.4726049   9.2879030  )
        30           O1  tau(  30) = (   1.9864658   4.4711199   9.2879459  )
        31           Ti1 tau(  31) = (   3.2891106   5.8743827   9.1763621  )
        32           Ti1 tau(  32) = (   0.0006254   4.4649316   9.2693709  )
        33           O1  tau(  33) = (   3.2944391   2.9688829  11.3444728  )
        34           O1  tau(  34) = (   0.0092240   2.9805883  10.6323155  )
        35           O1  tau(  35) = (   1.3142520   4.4635248  12.6275686  )
        36           O1  tau(  36) = (   5.3078217   4.4601700  12.6226734  )
        37           Ti1 tau(  37) = (   6.5374036   5.9186568  12.5467527  )
        38           Ti1 tau(  38) = (   3.2213306   4.4595164  12.5065882  )
        39           O1  tau(  39) = (   6.5756885   2.9534048  14.6511233  )
        40           O1  tau(  40) = (   3.3206316   2.9687378  13.8980937  )
        41           O1  tau(  41) = (   4.5543359   4.4428353  16.0905846  )
        42           O1  tau(  42) = (   2.0427057   4.4323087  16.0570365  )
        43           Ti1 tau(  43) = (   3.2570595   5.9269474  15.8069103  )
        44           Ti1 tau(  44) = (   6.5609319   4.6488967  16.0725391  )
        45           O1  tau(  45) = (   3.2900926   2.9813045   4.7018136  )
        46           O1  tau(  46) = (   1.3039711   4.4726057   6.0039043  )
        47           O1  tau(  47) = (   5.2763189   4.4711207   6.0039473  )
        48           N1  tau(  48) = (   0.2492319   2.6641403  18.6409932  )
        49           N1  tau(  49) = (   0.0782707   2.8835230  17.4382120  )
        50           C1  tau(  50) = (   0.2622466   3.8234900  19.5663878  )
        51           H1  tau(  51) = (   6.1755609   4.6233469  19.2444151  )
        52           H1  tau(  52) = (   6.5754044   3.4477461  20.5519103  )
        53           H1  tau(  53) = (   1.2857956   4.2073973  19.6006198  )
        54           O1  tau(  54) = (   3.1761146   0.0362278  18.2233714  )
        55           H1  tau(  55) = (   3.9097821   0.6076051  18.5038283  )
        56           H1  tau(  56) = (   2.3516031   0.5117379  18.4309238  )

     number of k points=    10  Fermi-Dirac smearing, width (Ry)=  0.0073
                       cart. coord. in units 2pi/alat
        k(    1) = (   0.0000000   0.0000000   0.0000000), wk =   0.1250000
        k(    2) = (   0.0000000   0.0419351   0.0000000), wk =   0.2500000
        k(    3) = (   0.0000000  -0.0838702   0.0000000), wk =   0.1250000
        k(    4) = (   0.0379955   0.0000049   0.0000000), wk =   0.2500000
        k(    5) = (   0.0379955   0.0419400   0.0000000), wk =   0.2500000
        k(    6) = (   0.0379955  -0.0838652   0.0000000), wk =   0.2500000
        k(    7) = (   0.0379955  -0.0419301   0.0000000), wk =   0.2500000
        k(    8) = (  -0.0759910  -0.0000099   0.0000000), wk =   0.1250000
        k(    9) = (  -0.0759910   0.0419252   0.0000000), wk =   0.2500000
        k(   10) = (  -0.0759910  -0.0838800   0.0000000), wk =   0.1250000

     Dense  grid:   566857 G-vectors     FFT dimensions: (  72,  64, 270)

     Smooth grid:   143421 G-vectors     FFT dimensions: (  45,  40, 180)

     Estimated max dynamical RAM per process >     367.48 MB

     Estimated total dynamical RAM >       3.59 GB
     Cannot read rho : file not found

     Initial potential from superposition of free atoms

     starting charge  386.99914, renormalised to  403.00000

     negative rho (up, down):  1.448E-02 0.000E+00


     %%%%%%%%%%%%%%%%%%%%%%%%%%%%%%%%%%%%%%%%%%%%%%%%%%%%%%%%%%%%%%%%%%%%%%%%
     %                                                                      %
     % You are using vdW-DF, which was implemented by the Thonhauser group. %
     % Please cite the following two papers that made this development      %
     % possible and the two reviews that describe the various versions:     %
     %                                                                      %
     %   T. Thonhauser et al., PRL 115, 136402 (2015).                      %
     %   T. Thonhauser et al., PRB 76, 125112 (2007).                       %
     %   K. Berland et al., Rep. Prog. Phys. 78, 066501 (2015).             %
     %   D.C. Langreth et al., J. Phys.: Condens. Matter 21, 084203 (2009). %
     %                                                                      %
     %                                                                      %
     % If you are calculating the stress with vdW-DF, please also cite:     %
     %                                                                      %
     %   R. Sabatini et al., J. Phys.: Condens. Matter 24, 424209 (2012).   %
     %                                                                      %
     %%%%%%%%%%%%%%%%%%%%%%%%%%%%%%%%%%%%%%%%%%%%%%%%%%%%%%%%%%%%%%%%%%%%%%%%


 
     Adding external electric field

     Computed dipole along edir(3) : 
        Dipole              -13.2128 Ry au,        -33.5836 Debye
        Dipole field         -0.0249 Ry au, 
 
        Potential amp.        2.3114 Ry
        Total length         46.3494 bohr
 
     Starting wfcs are  305 atomic wfcs
  @ DRIVER MODE: Message from server: STATUS
  @ DRIVER MODE: Message from server: POSDATA
  @ DRIVER MODE: Reading and sharing cell 
  @ DRIVER MODE: Reading and sharing positions 
  @ DRIVER MODE: Received positions 

     total cpu time spent up to now is       11.7 secs

     Self-consistent Calculation

     iteration #  1     ecut=    29.40 Ry     beta= 0.05
     Davidson diagonalization with overlap
     c_bands:  4 eigenvalues not converged
     c_bands:  2 eigenvalues not converged
     c_bands:  2 eigenvalues not converged
     c_bands:  5 eigenvalues not converged
     c_bands:  1 eigenvalues not converged
     c_bands:  1 eigenvalues not converged
     c_bands:  4 eigenvalues not converged
     c_bands:  1 eigenvalues not converged
     c_bands:  1 eigenvalues not converged
     ethr =  1.00E-05,  avg # of iterations = 28.0

     negative rho (up, down):  8.907E-03 0.000E+00
 
     Adding external electric field

     Computed dipole along edir(3) : 
        Dipole               53.0735 Ry au,        134.8994 Debye
        Dipole field          0.1002 Ry au, 
 
        Potential amp.       -9.2844 Ry
        Total length         46.3494 bohr
 

     total cpu time spent up to now is       60.0 secs

     total energy              =   -2366.75963115 Ry
     estimated scf accuracy    <    6924.74232664 Ry

     iteration #  2     ecut=    29.40 Ry     beta= 0.05
     Davidson diagonalization with overlap
     ethr =  1.00E-02,  avg # of iterations = 22.8

     negative rho (up, down):  4.605E-04 0.000E+00
 
     Adding external electric field

     Computed dipole along edir(3) : 
        Dipole               -1.1828 Ry au,         -3.0065 Debye
        Dipole field         -0.0022 Ry au, 
 
        Potential amp.        0.2069 Ry
        Total length         46.3494 bohr
 

     total cpu time spent up to now is      140.9 secs

     total energy              =   -2459.50187560 Ry
     estimated scf accuracy    <   71910.89970709 Ry

     iteration #  3     ecut=    29.40 Ry     beta= 0.05
     Davidson diagonalization with overlap
     c_bands:  1 eigenvalues not converged
     ethr =  1.00E-02,  avg # of iterations = 16.9

     negative rho (up, down):  5.150E-04 0.000E+00
 
     Adding external electric field

     Computed dipole along edir(3) : 
        Dipole               -4.0419 Ry au,        -10.2736 Debye
        Dipole field         -0.0076 Ry au, 
 
        Potential amp.        0.7071 Ry
        Total length         46.3494 bohr
 

     total cpu time spent up to now is      191.7 secs

     total energy              =   -2962.31318680 Ry
     estimated scf accuracy    <    5784.03075309 Ry

     iteration #  4     ecut=    29.40 Ry     beta= 0.05
     Davidson diagonalization with overlap
     ethr =  1.00E-02,  avg # of iterations = 13.7

     negative rho (up, down):  5.312E-04 0.000E+00
 
     Adding external electric field

     Computed dipole along edir(3) : 
        Dipole               -5.4575 Ry au,        -13.8716 Debye
        Dipole field         -0.0103 Ry au, 
 
        Potential amp.        0.9547 Ry
        Total length         46.3494 bohr
 

     total cpu time spent up to now is      214.4 secs

     total energy              =   -2967.15346269 Ry
     estimated scf accuracy    <    1764.94267778 Ry

     iteration #  5     ecut=    29.40 Ry     beta= 0.05
     Davidson diagonalization with overlap
     ethr =  1.00E-02,  avg # of iterations =  1.8

     negative rho (up, down):  5.935E-04 0.000E+00
 
     Adding external electric field

     Computed dipole along edir(3) : 
        Dipole               -8.0126 Ry au,        -20.3661 Debye
        Dipole field         -0.0151 Ry au, 
 
        Potential amp.        1.4017 Ry
        Total length         46.3494 bohr
 

     total cpu time spent up to now is      224.9 secs

     total energy              =   -2942.04412794 Ry
     estimated scf accuracy    <    1776.74699488 Ry

     iteration #  6     ecut=    29.40 Ry     beta= 0.05
     Davidson diagonalization with overlap
     ethr =  1.00E-02,  avg # of iterations = 13.9

     negative rho (up, down):  5.615E-04 0.000E+00
 
     Adding external electric field

     Computed dipole along edir(3) : 
        Dipole               -6.4754 Ry au,        -16.4587 Debye
        Dipole field         -0.0122 Ry au, 
 
        Potential amp.        1.1328 Ry
        Total length         46.3494 bohr
 

     total cpu time spent up to now is      251.5 secs

     total energy              =   -2977.57263624 Ry
     estimated scf accuracy    <     173.62697831 Ry

     iteration #  7     ecut=    29.40 Ry     beta= 0.05
     Davidson diagonalization with overlap
     ethr =  1.00E-02,  avg # of iterations =  1.3

     negative rho (up, down):  5.749E-04 0.000E+00
 
     Adding external electric field

     Computed dipole along edir(3) : 
        Dipole               -5.9480 Ry au,        -15.1184 Debye
        Dipole field         -0.0112 Ry au, 
 
        Potential amp.        1.0405 Ry
        Total length         46.3494 bohr
 

     total cpu time spent up to now is      262.1 secs

     total energy              =   -2977.71146688 Ry
     estimated scf accuracy    <      32.61590127 Ry

     iteration #  8     ecut=    29.40 Ry     beta= 0.05
     Davidson diagonalization with overlap
     ethr =  8.09E-03,  avg # of iterations =  1.0

     negative rho (up, down):  5.886E-04 0.000E+00
 
     Adding external electric field

     Computed dipole along edir(3) : 
        Dipole               -5.9793 Ry au,        -15.1980 Debye
        Dipole field         -0.0113 Ry au, 
 
        Potential amp.        1.0460 Ry
        Total length         46.3494 bohr
 

     total cpu time spent up to now is      272.1 secs

     total energy              =   -2977.56883244 Ry
     estimated scf accuracy    <      20.45338755 Ry

     iteration #  9     ecut=    29.40 Ry     beta= 0.05
     Davidson diagonalization with overlap
     ethr =  5.08E-03,  avg # of iterations =  1.0

     negative rho (up, down):  9.421E-04 0.000E+00
 
     Adding external electric field

     Computed dipole along edir(3) : 
        Dipole               -4.7611 Ry au,        -12.1016 Debye
        Dipole field         -0.0090 Ry au, 
 
        Potential amp.        0.8329 Ry
        Total length         46.3494 bohr
 

     total cpu time spent up to now is      282.1 secs

     total energy              =   -2973.18727021 Ry
     estimated scf accuracy    <      19.74912283 Ry

     iteration # 10     ecut=    29.40 Ry     beta= 0.05
     Davidson diagonalization with overlap
     ethr =  4.90E-03,  avg # of iterations =  7.0

     negative rho (up, down):  3.286E-03 0.000E+00
 
     Adding external electric field

     Computed dipole along edir(3) : 
        Dipole               -2.6060 Ry au,         -6.6239 Debye
        Dipole field         -0.0049 Ry au, 
 
        Potential amp.        0.4559 Ry
        Total length         46.3494 bohr
 

     total cpu time spent up to now is      295.1 secs

     total energy              =   -2972.97993001 Ry
     estimated scf accuracy    <      75.74210589 Ry

     iteration # 11     ecut=    29.40 Ry     beta= 0.05
     Davidson diagonalization with overlap
     ethr =  4.90E-03,  avg # of iterations = 12.3

     negative rho (up, down):  5.644E-03 0.000E+00
 
     Adding external electric field

     Computed dipole along edir(3) : 
        Dipole               -2.7061 Ry au,         -6.8782 Debye
        Dipole field         -0.0051 Ry au, 
 
        Potential amp.        0.4734 Ry
        Total length         46.3494 bohr
 

     total cpu time spent up to now is      312.4 secs

     total energy              =   -2978.13707051 Ry
     estimated scf accuracy    <     199.86987480 Ry

     iteration # 12     ecut=    29.40 Ry     beta= 0.05
     Davidson diagonalization with overlap
     ethr =  4.90E-03,  avg # of iterations =  1.2

     negative rho (up, down):  7.571E-03 0.000E+00
 
     Adding external electric field

     Computed dipole along edir(3) : 
        Dipole               -3.0468 Ry au,         -7.7443 Debye
        Dipole field         -0.0057 Ry au, 
 
        Potential amp.        0.5330 Ry
        Total length         46.3494 bohr
 

     total cpu time spent up to now is      322.6 secs

     total energy              =   -2978.87498462 Ry
     estimated scf accuracy    <     157.89017854 Ry

     iteration # 13     ecut=    29.40 Ry     beta= 0.05
     Davidson diagonalization with overlap
     ethr =  4.90E-03,  avg # of iterations =  1.1

     negative rho (up, down):  3.763E-03 0.000E+00
 
     Adding external electric field

     Computed dipole along edir(3) : 
        Dipole               -2.7147 Ry au,         -6.9001 Debye
        Dipole field         -0.0051 Ry au, 
 
        Potential amp.        0.4749 Ry
        Total length         46.3494 bohr
 

     total cpu time spent up to now is      332.8 secs

     total energy              =   -2978.81480632 Ry
     estimated scf accuracy    <     136.91392737 Ry

     iteration # 14     ecut=    29.40 Ry     beta= 0.05
     Davidson diagonalization with overlap
     ethr =  4.90E-03,  avg # of iterations =  1.0

     negative rho (up, down):  2.425E-03 0.000E+00
 
     Adding external electric field

     Computed dipole along edir(3) : 
        Dipole               -2.7116 Ry au,         -6.8923 Debye
        Dipole field         -0.0051 Ry au, 
 
        Potential amp.        0.4744 Ry
        Total length         46.3494 bohr
 

     total cpu time spent up to now is      342.8 secs

     total energy              =   -2977.24083687 Ry
     estimated scf accuracy    <     185.41108683 Ry

     iteration # 15     ecut=    29.40 Ry     beta= 0.05
     Davidson diagonalization with overlap
     ethr =  4.90E-03,  avg # of iterations =  1.0

     negative rho (up, down):  1.301E-03 0.000E+00
 
     Adding external electric field

     Computed dipole along edir(3) : 
        Dipole               -4.4234 Ry au,        -11.2431 Debye
        Dipole field         -0.0083 Ry au, 
 
        Potential amp.        0.7738 Ry
        Total length         46.3494 bohr
 

     total cpu time spent up to now is      352.9 secs

     total energy              =   -2974.38048637 Ry
     estimated scf accuracy    <     176.20276683 Ry

     iteration # 16     ecut=    29.40 Ry     beta= 0.05
     Davidson diagonalization with overlap
     ethr =  4.90E-03,  avg # of iterations =  2.0

     negative rho (up, down):  8.284E-04 0.000E+00
 
     Adding external electric field

     Computed dipole along edir(3) : 
        Dipole               -4.8654 Ry au,        -12.3667 Debye
        Dipole field         -0.0092 Ry au, 
 
        Potential amp.        0.8511 Ry
        Total length         46.3494 bohr
 

     total cpu time spent up to now is      363.4 secs

     total energy              =   -2971.95769511 Ry
     estimated scf accuracy    <     114.39652370 Ry

     iteration # 17     ecut=    29.40 Ry     beta= 0.05
     Davidson diagonalization with overlap
     ethr =  4.90E-03,  avg # of iterations =  5.8

     negative rho (up, down):  8.871E-04 0.000E+00
 
     Adding external electric field

     Computed dipole along edir(3) : 
        Dipole               -4.5748 Ry au,        -11.6279 Debye
        Dipole field         -0.0086 Ry au, 
 
        Potential amp.        0.8003 Ry
        Total length         46.3494 bohr
 

     total cpu time spent up to now is      376.2 secs

     total energy              =   -2972.37571024 Ry
     estimated scf accuracy    <      41.75048426 Ry

     iteration # 18     ecut=    29.40 Ry     beta= 0.05
     Davidson diagonalization with overlap
     ethr =  4.90E-03,  avg # of iterations =  8.0

     negative rho (up, down):  9.169E-04 0.000E+00
 
     Adding external electric field

     Computed dipole along edir(3) : 
        Dipole               -4.2885 Ry au,        -10.9003 Debye
        Dipole field         -0.0081 Ry au, 
 
        Potential amp.        0.7502 Ry
        Total length         46.3494 bohr
 

     total cpu time spent up to now is      389.1 secs

     total energy              =   -2973.86917217 Ry
     estimated scf accuracy    <       5.99238770 Ry

     iteration # 19     ecut=    29.40 Ry     beta= 0.05
     Davidson diagonalization with overlap
     ethr =  1.49E-03,  avg # of iterations =  6.6

     negative rho (up, down):  1.291E-03 0.000E+00
 
     Adding external electric field

     Computed dipole along edir(3) : 
        Dipole               -3.7035 Ry au,         -9.4134 Debye
        Dipole field         -0.0070 Ry au, 
 
        Potential amp.        0.6479 Ry
        Total length         46.3494 bohr
 

     total cpu time spent up to now is      401.7 secs

     total energy              =   -2973.73422730 Ry
     estimated scf accuracy    <       3.26825849 Ry

     iteration # 20     ecut=    29.40 Ry     beta= 0.05
     Davidson diagonalization with overlap
     ethr =  8.11E-04,  avg # of iterations =  8.7

     negative rho (up, down):  1.523E-03 0.000E+00
 
     Adding external electric field

     Computed dipole along edir(3) : 
        Dipole               -3.2676 Ry au,         -8.3054 Debye
        Dipole field         -0.0062 Ry au, 
 
        Potential amp.        0.5716 Ry
        Total length         46.3494 bohr
 

     total cpu time spent up to now is      416.7 secs

     total energy              =   -2974.25901969 Ry
     estimated scf accuracy    <       5.58638655 Ry

     iteration # 21     ecut=    29.40 Ry     beta= 0.05
     Davidson diagonalization with overlap
     ethr =  8.11E-04,  avg # of iterations =  1.3

     negative rho (up, down):  1.267E-03 0.000E+00
 
     Adding external electric field

     Computed dipole along edir(3) : 
        Dipole               -3.2707 Ry au,         -8.3134 Debye
        Dipole field         -0.0062 Ry au, 
 
        Potential amp.        0.5722 Ry
        Total length         46.3494 bohr
 

     total cpu time spent up to now is      427.0 secs

     total energy              =   -2974.15377885 Ry
     estimated scf accuracy    <       2.91082721 Ry

     iteration # 22     ecut=    29.40 Ry     beta= 0.05
     Davidson diagonalization with overlap
     ethr =  7.22E-04,  avg # of iterations =  1.1

     negative rho (up, down):  1.362E-03 0.000E+00
 
     Adding external electric field

     Computed dipole along edir(3) : 
        Dipole               -2.5481 Ry au,         -6.4766 Debye
        Dipole field         -0.0048 Ry au, 
 
        Potential amp.        0.4458 Ry
        Total length         46.3494 bohr
 

     total cpu time spent up to now is      437.2 secs

     total energy              =   -2974.07909804 Ry
     estimated scf accuracy    <       1.37997138 Ry

     iteration # 23     ecut=    29.40 Ry     beta= 0.05
     Davidson diagonalization with overlap
     ethr =  3.42E-04,  avg # of iterations =  4.7

     negative rho (up, down):  2.996E-03 0.000E+00
 
     Adding external electric field

     Computed dipole along edir(3) : 
        Dipole               -0.9562 Ry au,         -2.4304 Debye
        Dipole field         -0.0018 Ry au, 
 
        Potential amp.        0.1673 Ry
        Total length         46.3494 bohr
 

     total cpu time spent up to now is      450.0 secs

     total energy              =   -2973.90723905 Ry
     estimated scf accuracy    <       1.22490311 Ry

     iteration # 24     ecut=    29.40 Ry     beta= 0.05
     Davidson diagonalization with overlap
     c_bands:  1 eigenvalues not converged
     c_bands:  1 eigenvalues not converged
     ethr =  3.04E-04,  avg # of iterations = 14.0

     negative rho (up, down):  3.563E-03 0.000E+00
 
     Adding external electric field

     Computed dipole along edir(3) : 
        Dipole               -0.6740 Ry au,         -1.7132 Debye
        Dipole field         -0.0013 Ry au, 
 
        Potential amp.        0.1179 Ry
        Total length         46.3494 bohr
 

     total cpu time spent up to now is      467.4 secs

     total energy              =   -2974.05913539 Ry
     estimated scf accuracy    <       0.59539065 Ry

     iteration # 25     ecut=    29.40 Ry     beta= 0.05
     Davidson diagonalization with overlap
     ethr =  1.48E-04,  avg # of iterations =  5.0

     negative rho (up, down):  3.204E-03 0.000E+00
 
     Adding external electric field

     Computed dipole along edir(3) : 
        Dipole               -0.5733 Ry au,         -1.4573 Debye
        Dipole field         -0.0011 Ry au, 
 
        Potential amp.        0.1003 Ry
        Total length         46.3494 bohr
 

     total cpu time spent up to now is      480.3 secs

     total energy              =   -2974.04595286 Ry
     estimated scf accuracy    <       0.67183986 Ry

     iteration # 26     ecut=    29.40 Ry     beta= 0.05
     Davidson diagonalization with overlap
     ethr =  1.48E-04,  avg # of iterations =  1.9

     negative rho (up, down):  3.519E-03 0.000E+00
 
     Adding external electric field

     Computed dipole along edir(3) : 
        Dipole                0.3266 Ry au,          0.8301 Debye
        Dipole field          0.0006 Ry au, 
 
        Potential amp.       -0.0571 Ry
        Total length         46.3494 bohr
 

     total cpu time spent up to now is      490.9 secs

     total energy              =   -2973.91387763 Ry
     estimated scf accuracy    <       0.47459776 Ry

     iteration # 27     ecut=    29.40 Ry     beta= 0.05
     Davidson diagonalization with overlap
     c_bands:  2 eigenvalues not converged
     c_bands:  2 eigenvalues not converged
     ethr =  1.18E-04,  avg # of iterations = 17.2

     negative rho (up, down):  3.880E-03 0.000E+00
 
     Adding external electric field

     Computed dipole along edir(3) : 
        Dipole                0.3744 Ry au,          0.9515 Debye
        Dipole field          0.0007 Ry au, 
 
        Potential amp.       -0.0655 Ry
        Total length         46.3494 bohr
 

     total cpu time spent up to now is      512.5 secs

     total energy              =   -2973.99425952 Ry
     estimated scf accuracy    <       0.34270637 Ry

     iteration # 28     ecut=    29.40 Ry     beta= 0.05
     Davidson diagonalization with overlap
     ethr =  8.50E-05,  avg # of iterations =  2.7

     negative rho (up, down):  4.376E-03 0.000E+00
 
     Adding external electric field

     Computed dipole along edir(3) : 
        Dipole                0.3477 Ry au,          0.8837 Debye
        Dipole field          0.0007 Ry au, 
 
        Potential amp.       -0.0608 Ry
        Total length         46.3494 bohr
 

     total cpu time spent up to now is      523.4 secs

     total energy              =   -2973.98975544 Ry
     estimated scf accuracy    <       0.10376908 Ry

     iteration # 29     ecut=    29.40 Ry     beta= 0.05
     Davidson diagonalization with overlap
     c_bands:  1 eigenvalues not converged
     ethr =  2.57E-05,  avg # of iterations = 17.3

     negative rho (up, down):  4.313E-03 0.000E+00
 
     Adding external electric field

     Computed dipole along edir(3) : 
        Dipole                0.4473 Ry au,          1.1369 Debye
        Dipole field          0.0008 Ry au, 
 
        Potential amp.       -0.0782 Ry
        Total length         46.3494 bohr
 

     total cpu time spent up to now is      545.2 secs

     total energy              =   -2973.98602516 Ry
     estimated scf accuracy    <       0.14336832 Ry

     iteration # 30     ecut=    29.40 Ry     beta= 0.05
     Davidson diagonalization with overlap
     c_bands:  1 eigenvalues not converged
     c_bands:  1 eigenvalues not converged
     c_bands:  1 eigenvalues not converged
     c_bands:  1 eigenvalues not converged
     ethr =  2.57E-05,  avg # of iterations = 15.6

     negative rho (up, down):  4.885E-03 0.000E+00
 
     Adding external electric field

     Computed dipole along edir(3) : 
        Dipole                0.5776 Ry au,          1.4682 Debye
        Dipole field          0.0011 Ry au, 
 
        Potential amp.       -0.1010 Ry
        Total length         46.3494 bohr
 

     total cpu time spent up to now is      561.6 secs

     total energy              =   -2973.99640751 Ry
     estimated scf accuracy    <       0.03707039 Ry

     iteration # 31     ecut=    29.40 Ry     beta= 0.05
     Davidson diagonalization with overlap
     c_bands:  2 eigenvalues not converged
     ethr =  9.20E-06,  avg # of iterations = 13.4

     negative rho (up, down):  5.422E-03 0.000E+00
 
     Adding external electric field

     Computed dipole along edir(3) : 
        Dipole                0.6510 Ry au,          1.6547 Debye
        Dipole field          0.0012 Ry au, 
 
        Potential amp.       -0.1139 Ry
        Total length         46.3494 bohr
 

     total cpu time spent up to now is      576.3 secs

     total energy              =   -2973.99738899 Ry
     estimated scf accuracy    <       0.02423129 Ry

     iteration # 32     ecut=    29.40 Ry     beta= 0.05
     Davidson diagonalization with overlap
     ethr =  6.01E-06,  avg # of iterations =  6.8

     negative rho (up, down):  7.409E-03 0.000E+00
 
     Adding external electric field

     Computed dipole along edir(3) : 
        Dipole                0.7293 Ry au,          1.8538 Debye
        Dipole field          0.0014 Ry au, 
 
        Potential amp.       -0.1276 Ry
        Total length         46.3494 bohr
 

     total cpu time spent up to now is      589.5 secs

     total energy              =   -2974.00113692 Ry
     estimated scf accuracy    <       0.01235308 Ry

     iteration # 33     ecut=    29.40 Ry     beta= 0.05
     Davidson diagonalization with overlap
     c_bands:  1 eigenvalues not converged
     c_bands:  2 eigenvalues not converged
     c_bands:  4 eigenvalues not converged
     c_bands:  1 eigenvalues not converged
     c_bands:  1 eigenvalues not converged
     ethr =  3.07E-06,  avg # of iterations = 16.2

     negative rho (up, down):  6.931E-03 0.000E+00
 
     Adding external electric field

     Computed dipole along edir(3) : 
        Dipole                0.7144 Ry au,          1.8159 Debye
        Dipole field          0.0013 Ry au, 
 
        Potential amp.       -0.1250 Ry
        Total length         46.3494 bohr
 

     total cpu time spent up to now is      613.1 secs

     total energy              =   -2974.00621159 Ry
     estimated scf accuracy    <       0.05255537 Ry

     iteration # 34     ecut=    29.40 Ry     beta= 0.05
     Davidson diagonalization with overlap
     ethr =  3.07E-06,  avg # of iterations =  4.4

     negative rho (up, down):  7.080E-03 0.000E+00
 
     Adding external electric field

     Computed dipole along edir(3) : 
        Dipole                0.7214 Ry au,          1.8336 Debye
        Dipole field          0.0014 Ry au, 
 
        Potential amp.       -0.1262 Ry
        Total length         46.3494 bohr
 

     total cpu time spent up to now is      624.2 secs

     total energy              =   -2974.00159870 Ry
     estimated scf accuracy    <       0.04918158 Ry

     iteration # 35     ecut=    29.40 Ry     beta= 0.05
     Davidson diagonalization with overlap
     ethr =  3.07E-06,  avg # of iterations =  3.1

     negative rho (up, down):  7.381E-03 0.000E+00
 
     Adding external electric field

     Computed dipole along edir(3) : 
        Dipole                0.7394 Ry au,          1.8794 Debye
        Dipole field          0.0014 Ry au, 
 
        Potential amp.       -0.1293 Ry
        Total length         46.3494 bohr
 

     total cpu time spent up to now is      635.7 secs

     total energy              =   -2974.00790838 Ry
     estimated scf accuracy    <       0.02876178 Ry

     iteration # 36     ecut=    29.40 Ry     beta= 0.05
     Davidson diagonalization with overlap
     c_bands:  1 eigenvalues not converged
     ethr =  3.07E-06,  avg # of iterations =  9.6

     negative rho (up, down):  9.072E-03 0.000E+00
 
     Adding external electric field

     Computed dipole along edir(3) : 
        Dipole                0.8122 Ry au,          2.0645 Debye
        Dipole field          0.0015 Ry au, 
 
        Potential amp.       -0.1421 Ry
        Total length         46.3494 bohr
 

     total cpu time spent up to now is      649.6 secs

     total energy              =   -2973.99724124 Ry
     estimated scf accuracy    <       0.04870568 Ry

     iteration # 37     ecut=    29.40 Ry     beta= 0.05
     Davidson diagonalization with overlap
     c_bands:  3 eigenvalues not converged
     c_bands:  2 eigenvalues not converged
     c_bands:  1 eigenvalues not converged
     c_bands:  1 eigenvalues not converged
     ethr =  3.07E-06,  avg # of iterations = 16.5

     negative rho (up, down):  9.328E-03 0.000E+00
 
     Adding external electric field

     Computed dipole along edir(3) : 
        Dipole                0.8167 Ry au,          2.0759 Debye
        Dipole field          0.0015 Ry au, 
 
        Potential amp.       -0.1429 Ry
        Total length         46.3494 bohr
 

     total cpu time spent up to now is      672.5 secs

     total energy              =   -2974.00314414 Ry
     estimated scf accuracy    <       0.00976848 Ry

     iteration # 38     ecut=    29.40 Ry     beta= 0.05
     Davidson diagonalization with overlap
     ethr =  2.42E-06,  avg # of iterations = 11.6

     negative rho (up, down):  9.456E-03 0.000E+00
 
     Adding external electric field

     Computed dipole along edir(3) : 
        Dipole                0.8344 Ry au,          2.1209 Debye
        Dipole field          0.0016 Ry au, 
 
        Potential amp.       -0.1460 Ry
        Total length         46.3494 bohr
 

     total cpu time spent up to now is      689.5 secs

     total energy              =   -2974.00441829 Ry
     estimated scf accuracy    <       0.01776905 Ry

     iteration # 39     ecut=    29.40 Ry     beta= 0.05
     Davidson diagonalization with overlap
     ethr =  2.42E-06,  avg # of iterations =  2.0

     negative rho (up, down):  9.715E-03 0.000E+00
 
     Adding external electric field

     Computed dipole along edir(3) : 
        Dipole                0.8525 Ry au,          2.1667 Debye
        Dipole field          0.0016 Ry au, 
 
        Potential amp.       -0.1491 Ry
        Total length         46.3494 bohr
 

     total cpu time spent up to now is      699.9 secs

     total energy              =   -2974.00429774 Ry
     estimated scf accuracy    <       0.01830810 Ry

     iteration # 40     ecut=    29.40 Ry     beta= 0.05
     Davidson diagonalization with overlap
     ethr =  2.42E-06,  avg # of iterations =  1.0

     negative rho (up, down):  1.039E-02 0.000E+00
 
     Adding external electric field

     Computed dipole along edir(3) : 
        Dipole                0.8880 Ry au,          2.2572 Debye
        Dipole field          0.0017 Ry au, 
 
        Potential amp.       -0.1553 Ry
        Total length         46.3494 bohr
 

     total cpu time spent up to now is      709.9 secs

     total energy              =   -2974.00428416 Ry
     estimated scf accuracy    <       0.01720005 Ry

     iteration # 41     ecut=    29.40 Ry     beta= 0.05
     Davidson diagonalization with overlap
     ethr =  2.42E-06,  avg # of iterations =  1.0

     negative rho (up, down):  1.246E-02 0.000E+00
 
     Adding external electric field

     Computed dipole along edir(3) : 
        Dipole                0.9795 Ry au,          2.4897 Debye
        Dipole field          0.0018 Ry au, 
 
        Potential amp.       -0.1714 Ry
        Total length         46.3494 bohr
 

     total cpu time spent up to now is      719.9 secs

     total energy              =   -2974.00026493 Ry
     estimated scf accuracy    <       0.01658107 Ry

     iteration # 42     ecut=    29.40 Ry     beta= 0.05
     Davidson diagonalization with overlap
     ethr =  2.42E-06,  avg # of iterations = 10.5

     negative rho (up, down):  1.132E-02 0.000E+00
 
     Adding external electric field

     Computed dipole along edir(3) : 
        Dipole                0.9211 Ry au,          2.3412 Debye
        Dipole field          0.0017 Ry au, 
 
        Potential amp.       -0.1611 Ry
        Total length         46.3494 bohr
 

     total cpu time spent up to now is      737.5 secs

     total energy              =   -2974.00178686 Ry
     estimated scf accuracy    <       0.00246551 Ry

     iteration # 43     ecut=    29.40 Ry     beta= 0.05
     Davidson diagonalization with overlap
     c_bands:  1 eigenvalues not converged
     ethr =  6.12E-07,  avg # of iterations = 10.2

     negative rho (up, down):  1.148E-02 0.000E+00
 
     Adding external electric field

     Computed dipole along edir(3) : 
        Dipole                0.9044 Ry au,          2.2988 Debye
        Dipole field          0.0017 Ry au, 
 
        Potential amp.       -0.1582 Ry
        Total length         46.3494 bohr
 

     total cpu time spent up to now is      756.5 secs

     total energy              =   -2974.00181257 Ry
     estimated scf accuracy    <       0.00285035 Ry

     iteration # 44     ecut=    29.40 Ry     beta= 0.05
     Davidson diagonalization with overlap
     ethr =  6.12E-07,  avg # of iterations =  5.6

     negative rho (up, down):  1.161E-02 0.000E+00
 
     Adding external electric field

     Computed dipole along edir(3) : 
        Dipole                0.8635 Ry au,          2.1947 Debye
        Dipole field          0.0016 Ry au, 
 
        Potential amp.       -0.1511 Ry
        Total length         46.3494 bohr
 

     total cpu time spent up to now is      770.5 secs

     total energy              =   -2974.00202302 Ry
     estimated scf accuracy    <       0.00100478 Ry

     iteration # 45     ecut=    29.40 Ry     beta= 0.05
     Davidson diagonalization with overlap
     ethr =  2.49E-07,  avg # of iterations = 11.0

     negative rho (up, down):  1.190E-02 0.000E+00
 
     Adding external electric field

     Computed dipole along edir(3) : 
        Dipole                0.8533 Ry au,          2.1690 Debye
        Dipole field          0.0016 Ry au, 
 
        Potential amp.       -0.1493 Ry
        Total length         46.3494 bohr
 

     total cpu time spent up to now is      791.9 secs

     total energy              =   -2974.00163837 Ry
     estimated scf accuracy    <       0.00329922 Ry

     iteration # 46     ecut=    29.40 Ry     beta= 0.05
     Davidson diagonalization with overlap
     ethr =  2.49E-07,  avg # of iterations = 10.7

     negative rho (up, down):  1.318E-02 0.000E+00
 
     Adding external electric field

     Computed dipole along edir(3) : 
        Dipole                0.8812 Ry au,          2.2397 Debye
        Dipole field          0.0017 Ry au, 
 
        Potential amp.       -0.1541 Ry
        Total length         46.3494 bohr
 

     total cpu time spent up to now is      813.9 secs

     total energy              =   -2974.00221033 Ry
     estimated scf accuracy    <       0.00057405 Ry

     iteration # 47     ecut=    29.40 Ry     beta= 0.05
     Davidson diagonalization with overlap
     ethr =  1.42E-07,  avg # of iterations =  6.7

     negative rho (up, down):  1.400E-02 0.000E+00
 
     Adding external electric field

     Computed dipole along edir(3) : 
        Dipole                0.8906 Ry au,          2.2638 Debye
        Dipole field          0.0017 Ry au, 
 
        Potential amp.       -0.1558 Ry
        Total length         46.3494 bohr
 

     total cpu time spent up to now is      826.5 secs

     total energy              =   -2974.00231679 Ry
     estimated scf accuracy    <       0.00022302 Ry

     iteration # 48     ecut=    29.40 Ry     beta= 0.05
     Davidson diagonalization with overlap
     ethr =  5.53E-08,  avg # of iterations = 11.0

     negative rho (up, down):  1.414E-02 0.000E+00
 
     Adding external electric field

     Computed dipole along edir(3) : 
        Dipole                0.8900 Ry au,          2.2623 Debye
        Dipole field          0.0017 Ry au, 
 
        Potential amp.       -0.1557 Ry
        Total length         46.3494 bohr
 

     total cpu time spent up to now is      844.2 secs

     total energy              =   -2974.00233971 Ry
     estimated scf accuracy    <       0.00038862 Ry

     iteration # 49     ecut=    29.40 Ry     beta= 0.05
     Davidson diagonalization with overlap
     ethr =  5.53E-08,  avg # of iterations =  1.1

     negative rho (up, down):  1.446E-02 0.000E+00
 
     Adding external electric field

     Computed dipole along edir(3) : 
        Dipole                0.8801 Ry au,          2.2369 Debye
        Dipole field          0.0017 Ry au, 
 
        Potential amp.       -0.1540 Ry
        Total length         46.3494 bohr
 

     total cpu time spent up to now is      854.3 secs

     total energy              =   -2974.00226467 Ry
     estimated scf accuracy    <       0.00028999 Ry

     iteration # 50     ecut=    29.40 Ry     beta= 0.05
     Davidson diagonalization with overlap
     ethr =  5.53E-08,  avg # of iterations = 10.4

     negative rho (up, down):  1.456E-02 0.000E+00
 
     Adding external electric field

     Computed dipole along edir(3) : 
        Dipole                0.8867 Ry au,          2.2537 Debye
        Dipole field          0.0017 Ry au, 
 
        Potential amp.       -0.1551 Ry
        Total length         46.3494 bohr
 

     total cpu time spent up to now is      874.5 secs

     total energy              =   -2974.00234531 Ry
     estimated scf accuracy    <       0.00018194 Ry

     iteration # 51     ecut=    29.40 Ry     beta= 0.05
     Davidson diagonalization with overlap
     ethr =  4.51E-08,  avg # of iterations =  4.5

     negative rho (up, down):  1.463E-02 0.000E+00
 
     Adding external electric field

     Computed dipole along edir(3) : 
        Dipole                0.8898 Ry au,          2.2616 Debye
        Dipole field          0.0017 Ry au, 
 
        Potential amp.       -0.1557 Ry
        Total length         46.3494 bohr
 

     total cpu time spent up to now is      886.1 secs

     total energy              =   -2974.00236206 Ry
     estimated scf accuracy    <       0.00009126 Ry

     iteration # 52     ecut=    29.40 Ry     beta= 0.05
     Davidson diagonalization with overlap
     ethr =  2.26E-08,  avg # of iterations =  5.5

     negative rho (up, down):  1.479E-02 0.000E+00
 
     Adding external electric field

     Computed dipole along edir(3) : 
        Dipole                0.9007 Ry au,          2.2893 Debye
        Dipole field          0.0017 Ry au, 
 
        Potential amp.       -0.1576 Ry
        Total length         46.3494 bohr
 

     total cpu time spent up to now is      898.2 secs

     total energy              =   -2974.00236870 Ry
     estimated scf accuracy    <       0.00005521 Ry

     iteration # 53     ecut=    29.40 Ry     beta= 0.05
     Davidson diagonalization with overlap
     ethr =  1.37E-08,  avg # of iterations = 11.8

     negative rho (up, down):  1.500E-02 0.000E+00
 
     Adding external electric field

     Computed dipole along edir(3) : 
        Dipole                0.8973 Ry au,          2.2808 Debye
        Dipole field          0.0017 Ry au, 
 
        Potential amp.       -0.1570 Ry
        Total length         46.3494 bohr
 

     total cpu time spent up to now is      922.2 secs

     total energy              =   -2974.00238506 Ry
     estimated scf accuracy    <       0.00029744 Ry

     iteration # 54     ecut=    29.40 Ry     beta= 0.05
     Davidson diagonalization with overlap
     ethr =  1.37E-08,  avg # of iterations =  6.7

     negative rho (up, down):  1.495E-02 0.000E+00
 
     Adding external electric field

     Computed dipole along edir(3) : 
        Dipole                0.8933 Ry au,          2.2705 Debye
        Dipole field          0.0017 Ry au, 
 
        Potential amp.       -0.1563 Ry
        Total length         46.3494 bohr
 

     total cpu time spent up to now is      937.2 secs

     total energy              =   -2974.00237972 Ry
     estimated scf accuracy    <       0.00012384 Ry

     iteration # 55     ecut=    29.40 Ry     beta= 0.05
     Davidson diagonalization with overlap
     ethr =  1.37E-08,  avg # of iterations =  6.7

     negative rho (up, down):  1.492E-02 0.000E+00
 
     Adding external electric field

     Computed dipole along edir(3) : 
        Dipole                0.8902 Ry au,          2.2627 Debye
        Dipole field          0.0017 Ry au, 
 
        Potential amp.       -0.1557 Ry
        Total length         46.3494 bohr
 

     total cpu time spent up to now is      955.3 secs

     total energy              =   -2974.00240783 Ry
     estimated scf accuracy    <       0.00001978 Ry

     iteration # 56     ecut=    29.40 Ry     beta= 0.05
     Davidson diagonalization with overlap
     ethr =  4.91E-09,  avg # of iterations =  8.8

     negative rho (up, down):  1.489E-02 0.000E+00
 
     Adding external electric field

     Computed dipole along edir(3) : 
        Dipole                0.8864 Ry au,          2.2530 Debye
        Dipole field          0.0017 Ry au, 
 
        Potential amp.       -0.1551 Ry
        Total length         46.3494 bohr
 

     total cpu time spent up to now is      969.4 secs

     total energy              =   -2974.00241814 Ry
     estimated scf accuracy    <       0.00001886 Ry

     iteration # 57     ecut=    29.40 Ry     beta= 0.05
     Davidson diagonalization with overlap
     ethr =  4.68E-09,  avg # of iterations =  9.2

     negative rho (up, down):  1.482E-02 0.000E+00
 
     Adding external electric field

     Computed dipole along edir(3) : 
        Dipole                0.8849 Ry au,          2.2492 Debye
        Dipole field          0.0017 Ry au, 
 
        Potential amp.       -0.1548 Ry
        Total length         46.3494 bohr
 

     total cpu time spent up to now is      986.7 secs

     total energy              =   -2974.00242314 Ry
     estimated scf accuracy    <       0.00005448 Ry

     iteration # 58     ecut=    29.40 Ry     beta= 0.05
     Davidson diagonalization with overlap
     ethr =  4.68E-09,  avg # of iterations =  5.5

     negative rho (up, down):  1.476E-02 0.000E+00
 
     Adding external electric field

     Computed dipole along edir(3) : 
        Dipole                0.8870 Ry au,          2.2546 Debye
        Dipole field          0.0017 Ry au, 
 
        Potential amp.       -0.1552 Ry
        Total length         46.3494 bohr
 

     total cpu time spent up to now is      998.8 secs

     total energy              =   -2974.00242380 Ry
     estimated scf accuracy    <       0.00003380 Ry

     iteration # 59     ecut=    29.40 Ry     beta= 0.05
     Davidson diagonalization with overlap
     ethr =  4.68E-09,  avg # of iterations =  6.9

     negative rho (up, down):  1.474E-02 0.000E+00
 
     Adding external electric field

     Computed dipole along edir(3) : 
        Dipole                0.8867 Ry au,          2.2538 Debye
        Dipole field          0.0017 Ry au, 
 
        Potential amp.       -0.1551 Ry
        Total length         46.3494 bohr
 

     total cpu time spent up to now is     1014.2 secs

     total energy              =   -2974.00243289 Ry
     estimated scf accuracy    <       0.00000266 Ry

     iteration # 60     ecut=    29.40 Ry     beta= 0.05
     Davidson diagonalization with overlap
     ethr =  6.60E-10,  avg # of iterations = 11.2

     negative rho (up, down):  1.472E-02 0.000E+00
 
     Adding external electric field

     Computed dipole along edir(3) : 
        Dipole                0.8861 Ry au,          2.2521 Debye
        Dipole field          0.0017 Ry au, 
 
        Potential amp.       -0.1550 Ry
        Total length         46.3494 bohr
 

     total cpu time spent up to now is     1034.2 secs

     total energy              =   -2974.00243873 Ry
     estimated scf accuracy    <       0.00000208 Ry

     iteration # 61     ecut=    29.40 Ry     beta= 0.05
     Davidson diagonalization with overlap
     ethr =  5.17E-10,  avg # of iterations =  4.6

     negative rho (up, down):  1.469E-02 0.000E+00
 
     Adding external electric field

     Computed dipole along edir(3) : 
        Dipole                0.8847 Ry au,          2.2486 Debye
        Dipole field          0.0017 Ry au, 
 
        Potential amp.       -0.1548 Ry
        Total length         46.3494 bohr
 

     total cpu time spent up to now is     1046.0 secs

     total energy              =   -2974.00244348 Ry
     estimated scf accuracy    <       0.00000091 Ry

     iteration # 62     ecut=    29.40 Ry     beta= 0.05
     Davidson diagonalization with overlap
     ethr =  2.26E-10,  avg # of iterations = 12.8

     negative rho (up, down):  1.470E-02 0.000E+00
 
     Adding external electric field

     Computed dipole along edir(3) : 
        Dipole                0.8850 Ry au,          2.2495 Debye
        Dipole field          0.0017 Ry au, 
 
        Potential amp.       -0.1548 Ry
        Total length         46.3494 bohr
 

     total cpu time spent up to now is     1069.7 secs

     total energy              =   -2974.00244764 Ry
     estimated scf accuracy    <       0.00000419 Ry

     iteration # 63     ecut=    29.40 Ry     beta= 0.05
     Davidson diagonalization with overlap
     ethr =  2.26E-10,  avg # of iterations =  6.8

     negative rho (up, down):  1.470E-02 0.000E+00
 
     Adding external electric field

     Computed dipole along edir(3) : 
        Dipole                0.8850 Ry au,          2.2495 Debye
        Dipole field          0.0017 Ry au, 
 
        Potential amp.       -0.1548 Ry
        Total length         46.3494 bohr
 

     total cpu time spent up to now is     1088.8 secs

     total energy              =   -2974.00245196 Ry
     estimated scf accuracy    <       0.00000027 Ry

     iteration # 64     ecut=    29.40 Ry     beta= 0.05
     Davidson diagonalization with overlap
     ethr =  6.66E-11,  avg # of iterations =  8.4

     negative rho (up, down):  1.470E-02 0.000E+00
 
     Adding external electric field

     Computed dipole along edir(3) : 
        Dipole                0.8846 Ry au,          2.2483 Debye
        Dipole field          0.0017 Ry au, 
 
        Potential amp.       -0.1547 Ry
        Total length         46.3494 bohr
 

     total cpu time spent up to now is     1106.6 secs

     total energy              =   -2974.00245563 Ry
     estimated scf accuracy    <       0.00000031 Ry

     iteration # 65     ecut=    29.40 Ry     beta= 0.05
     Davidson diagonalization with overlap
     ethr =  6.66E-11,  avg # of iterations =  3.6

     negative rho (up, down):  1.472E-02 0.000E+00
 
     Adding external electric field

     Computed dipole along edir(3) : 
        Dipole                0.8844 Ry au,          2.2479 Debye
        Dipole field          0.0017 Ry au, 
 
        Potential amp.       -0.1547 Ry
        Total length         46.3494 bohr
 

     total cpu time spent up to now is     1118.2 secs

     total energy              =   -2974.00245885 Ry
     estimated scf accuracy    <       0.00000013 Ry

     iteration # 66     ecut=    29.40 Ry     beta= 0.05
     Davidson diagonalization with overlap
     ethr =  3.33E-11,  avg # of iterations =  8.8

     negative rho (up, down):  1.479E-02 0.000E+00
 
     Adding external electric field

     Computed dipole along edir(3) : 
        Dipole                0.8855 Ry au,          2.2507 Debye
        Dipole field          0.0017 Ry au, 
 
        Potential amp.       -0.1549 Ry
        Total length         46.3494 bohr
 

     total cpu time spent up to now is     1134.1 secs

     End of self-consistent calculation

          k = 0.0000 0.0000 0.0000 ( 18029 PWs)   bands (ev):

   -55.6252 -55.5912 -55.5833 -55.5635 -55.5466 -55.4529 -55.4351 -55.4139
   -55.4012 -55.4003 -55.3687 -55.3666 -55.0074 -54.8629 -54.6043 -54.5702
   -32.1254 -32.1077 -31.9648 -31.9504 -31.9339 -31.9181 -31.8898 -31.8829
   -31.8681 -31.8130 -31.8073 -31.7871 -31.7775 -31.7615 -31.7426 -31.7366
   -31.7295 -31.7166 -31.7108 -31.6824 -31.6734 -31.6559 -31.6276 -31.6234
   -31.6072 -31.6046 -31.6039 -31.5993 -31.5751 -31.5674 -31.5671 -31.5622
   -31.5530 -31.5450 -31.5417 -31.5120 -31.5114 -31.2767 -31.2017 -31.1233
   -31.1078 -31.0724 -31.0114 -30.9229 -30.9005 -30.8281 -30.7416 -30.6306
   -18.8596 -18.1622 -16.3159 -16.0878 -15.8552 -15.7699 -15.7214 -15.5220
   -15.4203 -15.3485 -15.2250 -15.1633 -15.1498 -15.1367 -15.1148 -15.1115
   -15.0636 -15.0557 -15.0502 -15.0431 -15.0101 -14.9710 -14.9561 -14.9437
   -14.8503 -14.7759 -14.7602 -14.7352 -14.6910 -14.6754 -14.1959 -13.1065
   -12.9901 -11.2649  -6.8794  -6.6338  -4.1803  -3.8194  -3.7646  -3.6888
    -3.5618  -3.5291  -3.4460  -3.3677  -3.2365  -3.1982  -3.0391  -2.8521
    -2.7911  -2.7646  -2.7121  -2.6448  -2.5309  -2.4714  -2.4287  -2.4183
    -2.4036  -2.3938  -2.3720  -2.3601  -2.2543  -2.2367  -2.1560  -2.1475
    -2.0986  -1.9856  -1.9703  -1.9373  -1.9209  -1.8986  -1.8760  -1.8545
    -1.8478  -1.8238  -1.7711  -1.6943  -1.6185  -1.5904  -1.4872  -1.4258
    -1.3949  -1.3483  -1.2350  -1.1354  -1.1004  -1.0653  -1.0556  -1.0390
    -1.0165  -0.9964  -0.8860  -0.7711  -0.7520  -0.6853  -0.6289  -0.5472
    -0.5177  -0.4400  -0.3879  -0.3695  -0.3660  -0.3190  -0.2785  -0.2274
    -0.0971  -0.0416  -0.0112  -0.0008   0.0597   0.1003   0.1284   0.2176
     0.2240   0.2680   0.3053   0.3388   0.3509   0.3673   0.3852   0.4149
     0.4292   0.6218   0.6569   0.6984   0.7337   0.7789   0.9149   0.9425
     1.0361   1.1478   1.3443   1.4180   1.5242   1.6102   1.9895   2.0353
     2.7181   3.5101   3.5973   3.6422   3.6717   3.7550   3.7725   3.9648
     3.9801   4.0198   4.1536

          k = 0.0000 0.0419 0.0000 ( 17933 PWs)   bands (ev):

   -55.6202 -55.5961 -55.5782 -55.5627 -55.5516 -55.4486 -55.4301 -55.4181
   -55.4061 -55.3954 -55.3714 -55.3693 -55.0064 -54.8637 -54.5992 -54.5751
   -32.0687 -32.0537 -31.9176 -31.9135 -31.9062 -31.8956 -31.8700 -31.8478
   -31.8365 -31.8152 -31.7990 -31.7941 -31.7862 -31.7822 -31.7636 -31.7544
   -31.7457 -31.7333 -31.7033 -31.6963 -31.6626 -31.6522 -31.6375 -31.6241
   -31.6222 -31.6124 -31.6103 -31.6064 -31.6026 -31.5958 -31.5907 -31.5719
   -31.5715 -31.5704 -31.5671 -31.5555 -31.4745 -31.2761 -31.1986 -31.1400
   -31.1212 -31.0868 -30.9573 -30.9194 -30.9035 -30.8155 -30.7542 -30.6877
   -18.8592 -18.1603 -16.1805 -15.9679 -15.7455 -15.6630 -15.6259 -15.4804
   -15.4381 -15.3755 -15.3389 -15.1807 -15.1468 -15.1356 -15.1098 -15.1048
   -15.0928 -15.0787 -15.0728 -15.0562 -15.0358 -15.0066 -14.9626 -14.9188
   -14.8526 -14.8304 -14.8171 -14.7909 -14.7324 -14.7057 -14.2712 -13.1106
   -13.0296 -11.2640  -6.8885  -6.6313  -4.1430  -3.8246  -3.7489  -3.5017
    -3.3938  -3.3545  -3.3029  -3.2285  -3.1443  -3.0770  -2.8607  -2.7708
    -2.7465  -2.6685  -2.6426  -2.6286  -2.5742  -2.5593  -2.5104  -2.4792
    -2.4683  -2.4435  -2.4150  -2.3639  -2.3510  -2.3189  -2.2863  -2.2835
    -2.2572  -2.1447  -2.1266  -2.0996  -2.0864  -2.0422  -1.9603  -1.8643
    -1.8577  -1.7796  -1.7098  -1.6535  -1.5345  -1.4468  -1.3817  -1.3264
    -1.3064  -1.2819  -1.2326  -1.1845  -1.0423  -0.9711  -0.9283  -0.8508
    -0.8270  -0.8100  -0.7944  -0.6850  -0.6272  -0.5833  -0.5764  -0.5221
    -0.5119  -0.4796  -0.4486  -0.4331  -0.4070  -0.3464  -0.2641  -0.2145
    -0.1490  -0.1298  -0.1221  -0.0312  -0.0210   0.0042   0.1133   0.1289
     0.1812   0.1940   0.2106   0.2249   0.2480   0.2664   0.3783   0.3902
     0.4536   0.5149   0.5945   0.6382   0.6517   0.7187   0.7280   0.7674
     0.8944   1.0370   1.0647   1.4008   1.6073   1.6910   1.9436   1.9474
     2.6979   3.7031   3.7545   3.7854   3.8360   3.8644   3.9035   3.9257
     4.0057   4.0428   4.0760

          k = 0.0000-0.0839 0.0000 ( 17884 PWs)   bands (ev):

   -55.6086 -55.6076 -55.5691 -55.5623 -55.5603 -55.4425 -55.4244 -55.4189
   -55.4170 -55.3850 -55.3817 -55.3700 -55.0055 -54.8646 -54.5873 -54.5870
   -31.9385 -31.9220 -31.9217 -31.9211 -31.9039 -31.9030 -31.8497 -31.8437
   -31.8253 -31.7806 -31.7755 -31.7749 -31.7697 -31.7669 -31.7528 -31.7362
   -31.7305 -31.7302 -31.7295 -31.7292 -31.7047 -31.7015 -31.6715 -31.6714
   -31.6700 -31.6401 -31.6380 -31.6295 -31.6221 -31.6155 -31.6094 -31.5852
   -31.5842 -31.5776 -31.5640 -31.5618 -31.4231 -31.2755 -31.2163 -31.1655
   -31.1221 -31.0985 -30.9113 -30.9112 -30.8244 -30.8242 -30.7849 -30.7848
   -18.8589 -18.1584 -15.8568 -15.8210 -15.6926 -15.6497 -15.4962 -15.4948
   -15.4055 -15.3860 -15.3780 -15.3476 -15.3148 -15.2248 -15.1582 -15.1506
   -15.0443 -15.0122 -15.0023 -14.9723 -14.9623 -14.9588 -14.9491 -14.9485
   -14.9311 -14.9170 -14.8762 -14.8630 -14.8429 -14.6865 -14.3727 -13.0924
   -13.0921 -11.2631  -6.8975  -6.6290  -4.1084  -3.8299  -3.7377  -3.2251
    -3.0639  -3.0056  -2.9981  -2.9848  -2.9715  -2.9182  -2.9153  -2.8775
    -2.8110  -2.7917  -2.7399  -2.7030  -2.6822  -2.6728  -2.6563  -2.5923
    -2.5673  -2.5624  -2.4887  -2.4199  -2.3947  -2.3757  -2.3491  -2.3156
    -2.2795  -2.2004  -2.1822  -2.1331  -2.0652  -1.9716  -1.9627  -1.8779
    -1.7033  -1.6245  -1.5418  -1.5164  -1.4956  -1.4276  -1.3462  -1.2977
    -1.2436  -1.2286  -1.1506  -1.0898  -1.0663  -1.0296  -1.0153  -1.0058
    -0.9887  -0.9163  -0.8284  -0.7981  -0.7679  -0.6227  -0.5791  -0.5337
    -0.5022  -0.3495  -0.2827  -0.2531  -0.2351  -0.2300  -0.1793  -0.1625
    -0.1361  -0.0915  -0.0735  -0.0363  -0.0241   0.0069   0.0387   0.0584
     0.0814   0.0994   0.1217   0.1478   0.1713   0.2035   0.2237   0.2490
     0.2783   0.2946   0.3979   0.5385   0.6168   0.6245   0.6331   0.6600
     0.9587   0.9955   1.1040   1.1269   1.7498   1.7509   1.8805   1.8814
     2.7053   3.8052   3.8535   3.8888   3.9115   3.9422   3.9554   3.9626
     4.0721   4.1017   4.1070

          k = 0.0380 0.0000 0.0000 ( 17913 PWs)   bands (ev):

   -55.6251 -55.5911 -55.5832 -55.5634 -55.5465 -55.4529 -55.4349 -55.4138
   -55.4011 -55.4004 -55.3685 -55.3665 -55.0073 -54.8628 -54.6042 -54.5701
   -32.1255 -32.1085 -31.9659 -31.9562 -31.9341 -31.9179 -31.8945 -31.8827
   -31.8681 -31.8106 -31.7927 -31.7843 -31.7746 -31.7614 -31.7424 -31.7297
   -31.7293 -31.7103 -31.6962 -31.6822 -31.6744 -31.6716 -31.6274 -31.6165
   -31.6070 -31.6046 -31.6040 -31.5991 -31.5960 -31.5671 -31.5667 -31.5621
   -31.5532 -31.5449 -31.5408 -31.5123 -31.5092 -31.2787 -31.2016 -31.1234
   -31.1078 -31.0722 -31.0110 -30.9262 -30.8985 -30.8279 -30.7415 -30.6304
   -18.8593 -18.1620 -16.2365 -16.0042 -15.7698 -15.7455 -15.6660 -15.5410
   -15.4504 -15.3466 -15.3172 -15.2935 -15.2405 -15.2371 -15.2205 -15.1758
   -15.1567 -15.0566 -14.9799 -14.9677 -14.9169 -14.8713 -14.8704 -14.8546
   -14.8300 -14.8119 -14.8006 -14.7921 -14.7683 -14.6715 -14.1939 -13.1032
   -12.9897 -11.2644  -6.8767  -6.6278  -4.1520  -3.8470  -3.7611  -3.5864
    -3.3450  -3.3032  -3.2526  -3.2208  -3.1604  -3.1477  -3.0455  -3.0209
    -2.8593  -2.8547  -2.7148  -2.7059  -2.6913  -2.6024  -2.4209  -2.3949
    -2.3802  -2.3181  -2.2776  -2.2414  -2.2107  -2.1789  -2.1578  -2.0900
    -2.0769  -2.0156  -1.9704  -1.9425  -1.8976  -1.8440  -1.8207  -1.8080
    -1.7178  -1.6754  -1.6278  -1.6047  -1.5588  -1.5005  -1.4482  -1.4295
    -1.3634  -1.3340  -1.2399  -1.2282  -1.1940  -1.1093  -1.0589  -1.0419
    -1.0300  -0.9431  -0.8981  -0.8807  -0.8593  -0.8446  -0.7465  -0.6469
    -0.5784  -0.4995  -0.4201  -0.4000  -0.3602  -0.3184  -0.2824  -0.2644
    -0.1566  -0.0788  -0.0116   0.0099   0.0534   0.0581   0.1114   0.1366
     0.1758   0.2042   0.2134   0.2441   0.2572   0.2813   0.2975   0.3601
     0.4555   0.5161   0.5674   0.5809   0.6870   0.7572   0.7997   0.8136
     1.0326   1.0673   1.3481   1.3910   1.4298   1.5796   1.8780   1.9525
     2.7326   3.5440   3.5676   3.8255   3.8681   3.9073   3.9138   3.9415
     3.9641   3.9950   4.0388

          k = 0.0380 0.0419 0.0000 ( 17878 PWs)   bands (ev):

   -55.6201 -55.5961 -55.5781 -55.5627 -55.5516 -55.4486 -55.4299 -55.4181
   -55.4060 -55.3955 -55.3714 -55.3693 -55.0064 -54.8636 -54.5991 -54.5751
   -32.0688 -32.0545 -31.9186 -31.9133 -31.9064 -31.9024 -31.8698 -31.8481
   -31.8417 -31.8149 -31.7956 -31.7863 -31.7845 -31.7798 -31.7611 -31.7539
   -31.7363 -31.7329 -31.6960 -31.6859 -31.6676 -31.6619 -31.6263 -31.6234
   -31.6219 -31.6149 -31.6100 -31.6065 -31.6026 -31.5964 -31.5947 -31.5895
   -31.5707 -31.5689 -31.5633 -31.5602 -31.4734 -31.2778 -31.1987 -31.1399
   -31.1218 -31.0867 -30.9570 -30.9220 -30.9025 -30.8153 -30.7542 -30.6876
   -18.8590 -18.1601 -16.1082 -15.8917 -15.6680 -15.6439 -15.5618 -15.4915
   -15.4431 -15.3768 -15.3694 -15.2809 -15.2349 -15.2079 -15.1966 -15.1276
   -15.1158 -15.0903 -15.0288 -15.0058 -14.9918 -14.9494 -14.9286 -14.8912
   -14.8786 -14.8713 -14.8547 -14.8254 -14.7955 -14.6894 -14.2697 -13.1083
   -13.0298 -11.2636  -6.8902  -6.6229  -4.1272  -3.8435  -3.7438  -3.4197
    -3.1961  -3.1609  -3.1368  -3.0791  -3.0061  -2.9937  -2.8818  -2.8394
    -2.7224  -2.6974  -2.6171  -2.5803  -2.5467  -2.5121  -2.5068  -2.4726
    -2.4362  -2.4101  -2.3792  -2.3366  -2.3237  -2.3082  -2.2655  -2.2549
    -2.2288  -2.1764  -2.1064  -2.0914  -2.0546  -1.9635  -1.8940  -1.8305
    -1.7709  -1.7388  -1.6411  -1.6064  -1.5675  -1.4971  -1.3742  -1.3543
    -1.3061  -1.2217  -1.1995  -1.1343  -1.0696  -1.0297  -1.0099  -0.9343
    -0.8887  -0.8657  -0.8475  -0.8006  -0.7402  -0.6992  -0.6747  -0.6494
    -0.5617  -0.5438  -0.4785  -0.4502  -0.4069  -0.3522  -0.3347  -0.3165
    -0.2826  -0.2455  -0.2349  -0.1693  -0.1354  -0.0832  -0.0466  -0.0060
     0.0472   0.0846   0.1175   0.1612   0.1849   0.2915   0.3379   0.4141
     0.4730   0.5286   0.6037   0.6333   0.7042   0.7348   0.7767   0.8156
     0.8255   0.9721   1.0455   1.3345   1.6182   1.6955   1.8661   1.9280
     2.7161   3.6882   3.7560   3.7823   3.8906   3.9413   3.9697   3.9943
     4.0572   4.0908   4.0980

          k = 0.0380-0.0839 0.0000 ( 17916 PWs)   bands (ev):

   -55.6086 -55.6076 -55.5691 -55.5623 -55.5603 -55.4425 -55.4244 -55.4188
   -55.4170 -55.3851 -55.3818 -55.3701 -55.0055 -54.8646 -54.5873 -54.5871
   -31.9387 -31.9225 -31.9224 -31.9219 -31.9039 -31.9030 -31.8502 -31.8443
   -31.8253 -31.7933 -31.7824 -31.7784 -31.7743 -31.7427 -31.7366 -31.7339
   -31.7304 -31.7293 -31.7284 -31.7282 -31.7151 -31.7124 -31.6727 -31.6488
   -31.6483 -31.6469 -31.6382 -31.6300 -31.6296 -31.6155 -31.6094 -31.5853
   -31.5843 -31.5759 -31.5752 -31.5735 -31.4230 -31.2771 -31.2161 -31.1655
   -31.1231 -31.0985 -30.9123 -30.9121 -30.8243 -30.8241 -30.7849 -30.7848
   -18.8587 -18.1583 -15.8179 -15.7633 -15.6395 -15.5947 -15.4682 -15.4506
   -15.3876 -15.3706 -15.3379 -15.3167 -15.3040 -15.2670 -15.1655 -15.1630
   -15.0551 -15.0448 -15.0397 -15.0361 -15.0192 -14.9994 -14.9826 -14.9773
   -14.9615 -14.9336 -14.9215 -14.9085 -14.8148 -14.6791 -14.3694 -13.0922
   -13.0919 -11.2629  -6.9021  -6.6199  -4.1062  -3.8406  -3.7320  -3.2181
    -3.0561  -2.8769  -2.8402  -2.8092  -2.7886  -2.7636  -2.7381  -2.7219
    -2.6996  -2.6752  -2.6401  -2.6034  -2.5941  -2.5829  -2.5658  -2.5373
    -2.4703  -2.4612  -2.4530  -2.4157  -2.3857  -2.3323  -2.3168  -2.2866
    -2.2766  -2.2520  -2.2030  -2.1428  -2.1174  -1.9793  -1.7560  -1.7192
    -1.7038  -1.5938  -1.5277  -1.5027  -1.4922  -1.4746  -1.4432  -1.4008
    -1.3616  -1.3494  -1.3354  -1.2772  -1.2517  -1.2254  -1.2047  -1.1510
    -1.0573  -1.0236  -0.8662  -0.7305  -0.7002  -0.6664  -0.6493  -0.5995
    -0.5383  -0.4665  -0.4335  -0.4163  -0.3809  -0.3657  -0.3500  -0.3219
    -0.3135  -0.2790  -0.2228  -0.2073  -0.1919  -0.1698  -0.1563  -0.1087
    -0.0263   0.0183   0.0542   0.1726   0.2070   0.2884   0.3109   0.4408
     0.4772   0.4830   0.5234   0.5366   0.5835   0.6745   0.7356   0.7512
     0.9161   0.9506   1.0725   1.1250   1.7631   1.7642   1.8697   1.8706
     2.7230   3.7460   3.8288   3.9007   3.9201   3.9319   3.9646   4.0019
     4.1169   4.1350   4.1407

          k = 0.0380-0.0419 0.0000 ( 17876 PWs)   bands (ev):

   -55.6201 -55.5960 -55.5781 -55.5627 -55.5516 -55.4486 -55.4299 -55.4181
   -55.4060 -55.3955 -55.3714 -55.3693 -55.0064 -54.8636 -54.5991 -54.5751
   -32.0688 -32.0545 -31.9186 -31.9133 -31.9064 -31.9024 -31.8698 -31.8481
   -31.8417 -31.8148 -31.7956 -31.7863 -31.7845 -31.7798 -31.7612 -31.7540
   -31.7362 -31.7330 -31.6959 -31.6859 -31.6674 -31.6620 -31.6263 -31.6234
   -31.6218 -31.6148 -31.6102 -31.6065 -31.6026 -31.5960 -31.5946 -31.5896
   -31.5709 -31.5690 -31.5634 -31.5601 -31.4735 -31.2779 -31.1986 -31.1398
   -31.1219 -31.0867 -30.9569 -30.9220 -30.9025 -30.8153 -30.7542 -30.6876
   -18.8590 -18.1601 -16.1080 -15.8916 -15.6675 -15.6436 -15.5613 -15.4916
   -15.4437 -15.3776 -15.3702 -15.2813 -15.2360 -15.2085 -15.1971 -15.1277
   -15.1158 -15.0889 -15.0299 -15.0046 -14.9886 -14.9491 -14.9297 -14.8896
   -14.8797 -14.8713 -14.8551 -14.8257 -14.7956 -14.6894 -14.2697 -13.1083
   -13.0298 -11.2636  -6.8891  -6.6243  -4.1282  -3.8433  -3.7433  -3.4203
    -3.1933  -3.1636  -3.1330  -3.0782  -3.0057  -2.9968  -2.8820  -2.8366
    -2.7184  -2.7059  -2.6224  -2.5784  -2.5450  -2.5188  -2.5106  -2.4694
    -2.4335  -2.4046  -2.3807  -2.3388  -2.3192  -2.3137  -2.2640  -2.2503
    -2.2403  -2.1780  -2.1053  -2.0851  -2.0571  -1.9633  -1.8946  -1.8266
    -1.7579  -1.7256  -1.6227  -1.6080  -1.5612  -1.5181  -1.3581  -1.3531
    -1.3191  -1.2557  -1.1892  -1.1386  -1.0724  -1.0311  -1.0058  -0.9290
    -0.8821  -0.8699  -0.8563  -0.8000  -0.7414  -0.7168  -0.6639  -0.6444
    -0.5736  -0.5479  -0.4792  -0.4500  -0.4110  -0.3715  -0.3382  -0.3210
    -0.2642  -0.2448  -0.2356  -0.1672  -0.1219  -0.0694  -0.0360  -0.0014
     0.0532   0.0818   0.1044   0.1612   0.1960   0.2817   0.3373   0.4164
     0.4697   0.5285   0.6061   0.6421   0.7086   0.7273   0.7771   0.8106
     0.8239   0.9732   1.0452   1.3350   1.6181   1.6953   1.8658   1.9286
     2.7128   3.6904   3.7554   3.7886   3.9016   3.9155   3.9644   3.9907
     4.0504   4.0837   4.1005

          k =-0.0760-0.0000 0.0000 ( 17886 PWs)   bands (ev):

   -55.6251 -55.5911 -55.5831 -55.5634 -55.5465 -55.4529 -55.4346 -55.4138
   -55.4011 -55.4005 -55.3685 -55.3665 -55.0073 -54.8627 -54.6041 -54.5701
   -32.1257 -32.1094 -31.9672 -31.9616 -31.9342 -31.9178 -31.8991 -31.8825
   -31.8682 -31.8103 -31.7824 -31.7717 -31.7681 -31.7613 -31.7422 -31.7292
   -31.7237 -31.7102 -31.6980 -31.6826 -31.6727 -31.6503 -31.6431 -31.6266
   -31.6103 -31.6070 -31.6047 -31.6041 -31.5990 -31.5670 -31.5664 -31.5622
   -31.5541 -31.5450 -31.5400 -31.5130 -31.5072 -31.2811 -31.2016 -31.1238
   -31.1078 -31.0722 -31.0106 -30.9295 -30.8972 -30.8278 -30.7414 -30.6305
   -18.8589 -18.1619 -16.1232 -15.9312 -15.7075 -15.7051 -15.5868 -15.4841
   -15.4824 -15.4003 -15.3739 -15.3431 -15.3229 -15.2997 -15.2991 -15.2534
   -15.2125 -15.0465 -15.0055 -14.9726 -14.9147 -14.9078 -14.8719 -14.8541
   -14.8393 -14.7967 -14.7810 -14.7663 -14.7122 -14.6682 -14.1924 -13.1002
   -12.9894 -11.2640  -6.8742  -6.6217  -4.1274  -3.8711  -3.7579  -3.5617
    -3.2956  -3.2221  -3.1632  -3.0390  -3.0212  -2.9683  -2.9019  -2.8867
    -2.8720  -2.8631  -2.8439  -2.8186  -2.6157  -2.4309  -2.4254  -2.3888
    -2.3245  -2.2344  -2.2078  -2.1919  -2.1377  -2.1189  -2.1060  -2.0384
    -2.0209  -1.9596  -1.9297  -1.9229  -1.8999  -1.8594  -1.8550  -1.8200
    -1.8046  -1.7618  -1.7011  -1.6349  -1.5213  -1.4610  -1.3815  -1.3623
    -1.2976  -1.2393  -1.2353  -1.2179  -1.2085  -1.2025  -1.1534  -1.0899
    -1.0852  -0.9823  -0.9534  -0.8959  -0.8465  -0.8278  -0.7954  -0.7844
    -0.7676  -0.7319  -0.6210  -0.4089  -0.3665  -0.3237  -0.2581  -0.2402
    -0.2359  -0.1921  -0.1018  -0.0931  -0.0842  -0.0342   0.0070   0.0595
     0.1007   0.1331   0.1812   0.2007   0.2353   0.2579   0.2707   0.3724
     0.4729   0.4754   0.5552   0.6038   0.6395   0.7201   0.8697   0.8773
     1.0172   1.0665   1.1142   1.3587   1.4510   1.5552   1.7486   1.8967
     2.7446   3.5444   3.5496   3.7011   3.7919   3.8471   3.8499   3.9636
     3.9750   4.0327   4.0486

          k =-0.0760 0.0419 0.0000 ( 17914 PWs)   bands (ev):

   -55.6201 -55.5961 -55.5781 -55.5627 -55.5516 -55.4486 -55.4298 -55.4181
   -55.4060 -55.3956 -55.3715 -55.3693 -55.0064 -54.8637 -54.5992 -54.5751
   -32.0692 -32.0555 -31.9199 -31.9133 -31.9094 -31.9062 -31.8698 -31.8482
   -31.8472 -31.8147 -31.7954 -31.7866 -31.7786 -31.7663 -31.7590 -31.7542
   -31.7336 -31.7260 -31.6959 -31.6865 -31.6622 -31.6519 -31.6330 -31.6226
   -31.6215 -31.6174 -31.6136 -31.6096 -31.6052 -31.6025 -31.5968 -31.5893
   -31.5702 -31.5681 -31.5670 -31.5635 -31.4725 -31.2799 -31.1987 -31.1399
   -31.1227 -31.0867 -30.9567 -30.9249 -30.9018 -30.8154 -30.7542 -30.6877
   -18.8587 -18.1600 -16.0070 -15.8184 -15.6214 -15.6011 -15.4981 -15.4423
   -15.4212 -15.3853 -15.3766 -15.3585 -15.2813 -15.2581 -15.2548 -15.2123
   -15.2011 -15.0825 -15.0643 -14.9996 -14.9715 -14.9577 -14.9530 -14.9099
   -14.8954 -14.8814 -14.8684 -14.8031 -14.7811 -14.6850 -14.2686 -13.1062
   -13.0302 -11.2633  -6.8907  -6.6161  -4.1153  -3.8595  -3.7386  -3.4040
    -3.1745  -3.1352  -2.9042  -2.8557  -2.7833  -2.7371  -2.7261  -2.6771
    -2.6708  -2.6575  -2.6351  -2.5867  -2.5743  -2.5177  -2.4988  -2.4813
    -2.4334  -2.3937  -2.3580  -2.3148  -2.2907  -2.2688  -2.1932  -2.1798
    -2.1371  -2.1088  -2.1006  -2.0980  -1.9976  -1.9193  -1.9038  -1.7208
    -1.7151  -1.6910  -1.6266  -1.6092  -1.5542  -1.4605  -1.4110  -1.3649
    -1.3018  -1.2356  -1.2054  -1.1855  -1.1371  -1.0973  -1.0486  -1.0085
    -0.9786  -0.9203  -0.8997  -0.8662  -0.8487  -0.8391  -0.8264  -0.7937
    -0.7617  -0.6972  -0.6272  -0.6124  -0.5754  -0.5208  -0.4828  -0.4116
    -0.3735  -0.3349  -0.3211  -0.2599  -0.2287  -0.2032  -0.1438  -0.0838
    -0.0257   0.0364   0.0716   0.1015   0.2054   0.2913   0.3825   0.3972
     0.5610   0.6302   0.6530   0.6914   0.7480   0.7815   0.8386   0.8790
     0.8942   0.9555   0.9887   1.1654   1.6328   1.6985   1.7895   1.9172
     2.7307   3.6816   3.7428   3.7527   3.8144   3.8623   3.8756   3.9481
     4.0171   4.0990   4.1545

          k =-0.0760-0.0839 0.0000 ( 17948 PWs)   bands (ev):

   -55.6086 -55.6077 -55.5691 -55.5623 -55.5604 -55.4426 -55.4245 -55.4188
   -55.4169 -55.3852 -55.3819 -55.3701 -55.0055 -54.8646 -54.5873 -54.5871
   -31.9390 -31.9232 -31.9227 -31.9226 -31.9039 -31.9031 -31.8507 -31.8448
   -31.8255 -31.8007 -31.7886 -31.7784 -31.7731 -31.7375 -31.7314 -31.7305
   -31.7282 -31.7272 -31.7244 -31.7219 -31.7196 -31.7135 -31.6742 -31.6598
   -31.6414 -31.6372 -31.6297 -31.6181 -31.6177 -31.6148 -31.6092 -31.5999
   -31.5964 -31.5853 -31.5843 -31.5728 -31.4228 -31.2786 -31.2160 -31.1656
   -31.1242 -31.0985 -30.9133 -30.9131 -30.8243 -30.8241 -30.7849 -30.7849
   -18.8586 -18.1582 -15.7736 -15.6643 -15.5742 -15.5402 -15.4819 -15.4117
   -15.4042 -15.3176 -15.3023 -15.2989 -15.2300 -15.2109 -15.1732 -15.1674
   -15.1449 -15.1285 -15.1233 -15.0743 -15.0619 -15.0597 -15.0530 -15.0479
   -14.9702 -14.9418 -14.9379 -14.9270 -14.8001 -14.6742 -14.3665 -13.0920
   -13.0917 -11.2627  -6.9064  -6.6111  -4.1045  -3.8510  -3.7266  -3.2130
    -3.0564  -2.8422  -2.8245  -2.7284  -2.7174  -2.6827  -2.5510  -2.5111
    -2.4691  -2.4525  -2.4350  -2.4337  -2.4158  -2.4101  -2.3873  -2.3571
    -2.3372  -2.3170  -2.2898  -2.2872  -2.2742  -2.2596  -2.2363  -2.2252
    -2.2071  -2.1781  -2.1519  -2.1348  -2.0661  -1.9928  -1.8359  -1.7980
    -1.7601  -1.7534  -1.7332  -1.7038  -1.6907  -1.6717  -1.6179  -1.5663
    -1.4703  -1.3535  -1.3390  -1.3159  -1.2902  -1.2740  -1.2134  -1.1056
    -1.0867  -1.0154  -1.0067  -0.8996  -0.8914  -0.8061  -0.7954  -0.7840
    -0.7136  -0.6870  -0.6715  -0.5851  -0.5824  -0.5523  -0.5071  -0.4764
    -0.4142  -0.3752  -0.3436  -0.3415  -0.2950  -0.2727  -0.2288  -0.1550
    -0.1067  -0.0716   0.0253   0.1290   0.2329   0.3447   0.4585   0.4741
     0.5579   0.5888   0.6756   0.6883   0.6967   0.7711   0.7759   0.8778
     0.9173   0.9320   0.9732   1.0955   1.7813   1.7827   1.8549   1.8552
     2.7408   3.7257   3.8488   3.8914   3.9081   3.9809   4.0248   4.0436
     4.0461   4.0793   4.1874

     the Fermi energy is     3.5089 ev

!    total energy              =   -2974.00248777 Ry
     estimated scf accuracy    <       0.00000007 Ry
     smearing contrib. (-TS)   =      -0.02180322 Ry
     internal energy E=F+TS    =   -2973.98068455 Ry

     The total energy is F=E-TS. E is the sum of the following terms:
     one-electron contribution =  -23845.37311002 Ry
     hartree contribution      =   12017.07692838 Ry
     xc contribution           =    -494.01761485 Ry
     ewald contribution        =    9348.33163218 Ry
     electric field correction =       0.00147975 Ry

     convergence has been achieved in  66 iterations

     Forces acting on atoms (cartesian axes, Ry/au):

     atom    1 type  1   force =     0.00004032   -0.00023969    0.09650009
     atom    2 type  1   force =     0.00005785   -0.00043809   -0.17542331
     atom    3 type  2   force =     0.00011459   -0.00010147   -0.02475490
     atom    4 type  2   force =     0.00004156   -0.00157753    0.05348570
     atom    5 type  2   force =    -0.01196998   -0.00100701    0.00308145
     atom    6 type  2   force =     0.01371013   -0.00065252    0.00291769
     atom    7 type  1   force =     0.00074793    0.00068535   -0.00680560
     atom    8 type  1   force =     0.00022635    0.00948540    0.02715345
     atom    9 type  2   force =    -0.00014225   -0.00006166   -0.00008625
     atom   10 type  2   force =    -0.00204692    0.00048092   -0.01824833
     atom   11 type  2   force =    -0.00055169    0.00032578    0.00008115
     atom   12 type  2   force =     0.00069287    0.00011959    0.00027184
     atom   13 type  1   force =    -0.00017493   -0.00009075    0.00004243
     atom   14 type  1   force =    -0.00042483   -0.00015095    0.00037586
     atom   15 type  2   force =     0.00001784   -0.00048324    0.00045384
     atom   16 type  2   force =    -0.00026032   -0.00007071   -0.00059464
     atom   17 type  2   force =    -0.00039937    0.00010301   -0.00050972
     atom   18 type  2   force =     0.00019980    0.00008498   -0.00050552
     atom   19 type  1   force =    -0.00033704    0.00014525    0.00033405
     atom   20 type  1   force =    -0.00032128    0.00036331    0.00187412
     atom   21 type  2   force =     0.00008338    0.00001386    0.10323567
     atom   22 type  2   force =     0.00011401    0.00018468   -0.00026849
     atom   23 type  2   force =    -0.07145829   -0.00008887   -0.02774457
     atom   24 type  2   force =     0.07141288    0.00036563   -0.02781998
     atom   25 type  1   force =     0.00018851   -0.00033813    0.09617269
     atom   26 type  1   force =     0.00001483   -0.00037081   -0.17575814
     atom   27 type  2   force =     0.00020899   -0.00020281   -0.02375286
     atom   28 type  2   force =     0.00002390   -0.00128043    0.05294187
     atom   29 type  2   force =    -0.01220413    0.00024419    0.00290817
     atom   30 type  2   force =     0.01386434    0.00082258    0.00272800
     atom   31 type  1   force =     0.00041905    0.00343755   -0.00982811
     atom   32 type  1   force =     0.00036437   -0.01132518    0.02756565
     atom   33 type  2   force =     0.00010400    0.00014380   -0.00003114
     atom   34 type  2   force =    -0.00188176   -0.00044505   -0.02420993
     atom   35 type  2   force =     0.00042810    0.00003588   -0.00030651
     atom   36 type  2   force =    -0.00028159   -0.00005386    0.00003865
     atom   37 type  1   force =    -0.00032399   -0.00013681    0.00024675
     atom   38 type  1   force =    -0.00081030    0.00013271   -0.00036802
     atom   39 type  2   force =     0.00007873   -0.00039345   -0.00045537
     atom   40 type  2   force =     0.00019621    0.00034648    0.00023542
     atom   41 type  2   force =     0.00005341    0.00018467   -0.00048057
     atom   42 type  2   force =    -0.00020375    0.00003849   -0.00052172
     atom   43 type  1   force =     0.00027980    0.00075465    0.00064229
     atom   44 type  1   force =    -0.00001019    0.00055386    0.00045484
     atom   45 type  2   force =     0.00008328   -0.00002741    0.10322264
     atom   46 type  2   force =    -0.07146474   -0.00002973   -0.02775535
     atom   47 type  2   force =     0.07142323    0.00039777   -0.02781501
     atom   48 type  3   force =    -0.00342932    0.00203256   -0.02732830
     atom   49 type  3   force =     0.00273139   -0.00423516    0.02220416
     atom   50 type  4   force =    -0.00021773    0.00129215    0.00267038
     atom   51 type  5   force =     0.00117279   -0.00065579   -0.00041944
     atom   52 type  5   force =     0.00001854    0.00122063    0.00067364
     atom   53 type  5   force =     0.00012497   -0.00037043    0.00042324
     atom   54 type  2   force =     0.00012103    0.00059973   -0.00082975
     atom   55 type  5   force =    -0.00005406   -0.00006419   -0.00001497
     atom   56 type  5   force =    -0.00039050    0.00029627   -0.00029920

     Total force =     0.369730     Total SCF correction =     0.000519
  @ DRIVER MODE: Message from server: STATUS
  @ DRIVER MODE: Message from server: GETFORCE
  @ DRIVER MODE: Returning v,forces,stress,ensemble 

     Writing output data file ./calc.save/
  @ DRIVER MODE: Message from server: EXIT
  @ DRIVE MODE: Exiting  
 
     init_run     :     11.00s CPU     11.32s WALL (       1 calls)
     electrons    :   1105.62s CPU   1122.39s WALL (       1 calls)
     forces       :      2.39s CPU      2.48s WALL (       1 calls)

     Called by init_run:
     wfcinit      :      4.94s CPU      5.04s WALL (       1 calls)
     potinit      :      5.40s CPU      5.51s WALL (       1 calls)
     hinit0       :      0.29s CPU      0.31s WALL (       1 calls)

     Called by electrons:
     c_bands      :    947.06s CPU    954.57s WALL (      66 calls)
     sum_band     :    107.59s CPU    111.33s WALL (      66 calls)
     v_of_rho     :     38.50s CPU     40.55s WALL (      67 calls)
     newd         :     15.61s CPU     18.97s WALL (      67 calls)
     mix_rho      :      1.46s CPU      1.57s WALL (      66 calls)
     vdW_kernel   :      4.56s CPU      4.57s WALL (       1 calls)

     Called by c_bands:
     init_us_2    :      6.34s CPU      6.40s WALL (    1340 calls)
     cegterg      :    928.82s CPU    935.96s WALL (     674 calls)

     Called by *egterg:
     cdiaghg      :    144.05s CPU    144.95s WALL (    5875 calls)
     h_psi        :    501.03s CPU    505.82s WALL (    5889 calls)
     s_psi        :     63.89s CPU     64.13s WALL (    5889 calls)
     g_psi        :      1.92s CPU      1.93s WALL (    5205 calls)

     Called by h_psi:
     h_psi:calbec :     61.41s CPU     61.75s WALL (    5889 calls)
     vloc_psi     :    372.13s CPU    375.92s WALL (    5889 calls)
     add_vuspsi   :     64.05s CPU     64.48s WALL (    5889 calls)

     General routines
     calbec       :     80.56s CPU     80.98s WALL (    6589 calls)
     fft          :     19.89s CPU     20.12s WALL (    4221 calls)
     ffts         :      0.13s CPU      0.14s WALL (     133 calls)
     fftw         :    412.62s CPU    416.88s WALL (  972974 calls)
     interpolate  :      0.44s CPU      0.44s WALL (      67 calls)
     davcio       :      0.00s CPU      0.08s WALL (      10 calls)
 
     Parallel routines
 
     PWSCF        :  18m39.45s CPU  18m56.95s WALL

 
   This run was terminated on:  22:44:57   9Sep2021            

=------------------------------------------------------------------------------=
   JOB DONE.
=------------------------------------------------------------------------------=
