
     Program PWSCF v.6.7GPU starts on  2Aug2021 at 12:40:21 

     This program is part of the open-source Quantum ESPRESSO suite
     for quantum simulation of materials; please cite
         "P. Giannozzi et al., J. Phys.:Condens. Matter 21 395502 (2009);
         "P. Giannozzi et al., J. Phys.:Condens. Matter 29 465901 (2017);
         "P. Giannozzi et al., J. Chem. Phys. 152 154105 (2020);
          URL http://www.quantum-espresso.org", 
     in publications or presentations arising from this work. More details at
     http://www.quantum-espresso.org/quote

     Parallel version (MPI), running on    16 processors

     MPI processes distributed on     1 nodes
     R & G space division:  proc/nbgrp/npool/nimage =      16
     Reading input from /storage/home/hcoda1/3/ntian30/research/carbon/02Aug_vib_paired/ads_slab/CH3N_a/out_0003/pw.inp
Warning: card &CELL ignored
Warning: card   CELL_DYNAMICS='IPI', ignored
Warning: card / ignored

     Current dimensions of program PWSCF are:
     Max number of different atomic species (ntypx) = 10
     Max number of k-points (npk) =  40000
     Max angular momentum in pseudopotentials (lmaxx) =  3
     Presently no symmetry can be used with electric field

     Message from routine cell_base_init:
     DEPRECATED: use true lattice parameter, not A to a.u. conversion factor

     **************************************************************************
     Initializing libbeef V0.1.2 with the BEEF-vdW functional.
     Citation: Wellendorff et al., PRB 85, 235149 (2012).
     **************************************************************************


     IMPORTANT: XC functional enforced from input :
     Exchange-correlation= BEEF-VDW
                           (   1   4  43  14   2   0   0)
     Any further DFT definition will be discarded
     Please, verify this is what you really want


     Subspace diagonalization in iterative solution of the eigenvalue problem:
     one sub-group per band group will be used
     scalapack distributed-memory algorithm (size of sub-group:  4*  4 procs)

  @ DRIVER MODE: Connecting to 
 qe_1139763_2482542.sched-torque.pace.gatech.edumn5eb1nw_scratch
  using UNIX socket
  @ DRIVER MODE: Message from server: STATUS
  @ DRIVER MODE: Message from server: INIT
  @ DRIVER MODE: Receiving replica           0          -1
  @ DRIVER MODE: Receiving encoded integer          25
  @ DRIVER MODE:  SCF:  T  FORCE:  T  STRESS:  F  VC:  F  ENSEMBLE:  F
  @ DRIVER MODE:  SCF:  T  FORCE:  T  STRESS:  F  VC:  F  ENSEMBLE:  F
 
     Parallelization info
     --------------------
     sticks:   dense  smooth     PW     G-vecs:    dense   smooth      PW
     Min         204      82     23                35422     8962    1367
     Max         205      84     24                35435     8968    1382
     Sum        3275    1317    379               566857   143421   21985
 
     Using Slab Decomposition
 


     bravais-lattice index     =            0
     lattice parameter (alat)  =       1.8897  a.u.
     unit-cell volume          =    6658.9804 (a.u.)^3
     number of atoms/cell      =           52
     number of atomic types    =            5
     number of electrons       =       390.00
     number of Kohn-Sham states=          205
     kinetic-energy cutoff     =      29.3995  Ry
     charge density cutoff     =     293.9946  Ry
     scf convergence threshold =      7.3E-08
     mixing beta               =       0.0500
     number of iterations used =            8  plain     mixing
     Exchange-correlation= BEEF-VDW
                           (   1   4  43  14   2   0   0)

     celldm(1)=   1.889726  celldm(2)=   0.000000  celldm(3)=   0.000000
     celldm(4)=   0.000000  celldm(5)=   0.000000  celldm(6)=   0.000000

     crystal axes: (cart. coord. in units of alat)
               a(1) = (   6.579727   0.000000   0.000000 )  
               a(2) = (  -0.000775   5.961596   0.000000 )  
               a(3) = (   0.000000   0.000000  25.155947 )  

     reciprocal axes: (cart. coord. in units 2 pi/alat)
               b(1) = (  0.151982  0.000020  0.000000 )  
               b(2) = (  0.000000  0.167740  0.000000 )  
               b(3) = (  0.000000  0.000000  0.039752 )  


     PseudoPot. # 1 for Ti read from file:
     /storage/coda1/p-amedford6/0/shared/rich_project_chbe-medford/medford-share/data/pseudos_module/espresso/nninc/pbe/van/Ti.UPF
     MD5 check sum: 8e4df49b7f0d34bbd5052bf3f5ea0213
     Pseudo is Ultrasoft, Zval = 12.0
     Generated by new atomic code, or converted to UPF format
     Using radial grid of  851 points,  6 beta functions with: 
                l(1) =   0
                l(2) =   0
                l(3) =   1
                l(4) =   1
                l(5) =   2
                l(6) =   2
     Q(r) pseudized with  8 coefficients,  rinner =    1.000   1.000   1.000
                                                       1.000   1.000

     PseudoPot. # 2 for O  read from file:
     /storage/coda1/p-amedford6/0/shared/rich_project_chbe-medford/medford-share/data/pseudos_module/espresso/nninc/pbe/van/O.UPF
     MD5 check sum: 78c19812648e8988a0fe644b0f25305e
     Pseudo is Ultrasoft, Zval =  6.0
     Generated by new atomic code, or converted to UPF format
     Using radial grid of  737 points,  4 beta functions with: 
                l(1) =   0
                l(2) =   0
                l(3) =   1
                l(4) =   1
     Q(r) pseudized with  8 coefficients,  rinner =    0.800   0.800   0.800


     PseudoPot. # 3 for N  read from file:
     /storage/coda1/p-amedford6/0/shared/rich_project_chbe-medford/medford-share/data/pseudos_module/espresso/nninc/pbe/van/N.UPF
     MD5 check sum: 90d10febe142ad51ac9d5be1deb811c4
     Pseudo is Ultrasoft, Zval =  5.0
     Generated by new atomic code, or converted to UPF format
     Using radial grid of  729 points,  4 beta functions with: 
                l(1) =   0
                l(2) =   0
                l(3) =   1
                l(4) =   1
     Q(r) pseudized with  8 coefficients,  rinner =    0.800   0.800   0.800


     PseudoPot. # 4 for C  read from file:
     /storage/coda1/p-amedford6/0/shared/rich_project_chbe-medford/medford-share/data/pseudos_module/espresso/nninc/pbe/van/C.UPF
     MD5 check sum: 1a69bf6b8db32088f5b2163dbdb77a27
     Pseudo is Ultrasoft, Zval =  4.0
     Generated by new atomic code, or converted to UPF format
     Using radial grid of  721 points,  4 beta functions with: 
                l(1) =   0
                l(2) =   0
                l(3) =   1
                l(4) =   1
     Q(r) pseudized with  8 coefficients,  rinner =    0.800   0.800   0.800


     PseudoPot. # 5 for H  read from file:
     /storage/coda1/p-amedford6/0/shared/rich_project_chbe-medford/medford-share/data/pseudos_module/espresso/nninc/pbe/van/H.UPF
     MD5 check sum: b5ee9d7bfd3a09ee7748110bda690ff7
     Pseudo is Ultrasoft, Zval =  1.0
     Generated by new atomic code, or converted to UPF format
     Using radial grid of  615 points,  1 beta functions with: 
                l(1) =   0
     Q(r) pseudized with  8 coefficients,  rinner =    0.800

     atomic species   valence    mass     pseudopotential
        Ti1           12.00    47.86700     Ti( 1.00)
        O1             6.00    15.99900     O ( 1.00)
        N1             5.00    14.00700     N ( 1.00)
        C1             4.00    12.01100     C ( 1.00)
        H1             1.00     1.00800     H ( 1.00)

     No symmetry found



   Cartesian axes

     site n.     atom                  positions (alat units)
         1           Ti1 tau(   1) = (   0.0004258   2.9801865   6.0000000  )
         2           Ti1 tau(   2) = (   3.2906075   1.4906267   6.0002472  )
         3           O1  tau(   3) = (   0.0006271   0.0005054   7.9858123  )
         4           O1  tau(   4) = (   3.2906025   0.0005020   7.3038282  )
         5           O1  tau(   5) = (   4.5942328   1.4918067   9.2879030  )
         6           O1  tau(   6) = (   1.9868534   1.4903216   9.2879459  )
         7           Ti1 tau(   7) = (   3.2907910   2.8959150   9.1758416  )
         8           Ti1 tau(   8) = (   0.0015273   1.4827037   9.2680791  )
         9           O1  tau(   9) = (   3.2848820   0.0184509  11.2968037  )
        10           O1  tau(  10) = (   0.0116148   5.9584955  10.6183126  )
        11           O1  tau(  11) = (   1.3164307   1.5202202  12.6152053  )
        12           O1  tau(  12) = (   5.2938533   1.5248534  12.6363518  )
        13           Ti1 tau(  13) = (   6.4693392   3.0155455  12.7604093  )
        14           Ti1 tau(  14) = (   3.1621140   1.5165027  12.4659144  )
        15           O1  tau(  15) = (   0.0250032   0.0426882  14.5925537  )
        16           O1  tau(  16) = (   3.2896737   0.0171256  13.8799622  )
        17           O1  tau(  17) = (   4.5365032   1.4993634  16.0438468  )
        18           O1  tau(  18) = (   2.0814567   1.5015292  16.0591106  )
        19           Ti1 tau(  19) = (   3.3082904   2.9956922  15.6854367  )
        20           Ti1 tau(  20) = (   0.0032501   1.4479889  16.1249605  )
        21           O1  tau(  21) = (   3.2904802   0.0005063   4.7018136  )
        22           O1  tau(  22) = (   0.0161699   0.0004382  17.1970091  )
        23           O1  tau(  23) = (   1.3043587   1.4918075   6.0039043  )
        24           O1  tau(  24) = (   5.2767064   1.4903225   6.0039473  )
        25           Ti1 tau(  25) = (   0.0000382   5.9609847   6.0000000  )
        26           Ti1 tau(  26) = (   3.2902200   4.4714249   6.0002472  )
        27           O1  tau(  27) = (   0.0002396   2.9813036   7.9858123  )
        28           O1  tau(  28) = (   3.2902150   2.9813002   7.3038282  )
        29           O1  tau(  29) = (   4.5938453   4.4726049   9.2879030  )
        30           O1  tau(  30) = (   1.9864658   4.4711199   9.2879459  )
        31           Ti1 tau(  31) = (   3.2891106   5.8743827   9.1763621  )
        32           Ti1 tau(  32) = (   0.0006254   4.4649316   9.2693709  )
        33           O1  tau(  33) = (   3.2855107   2.9994495  11.2959752  )
        34           O1  tau(  34) = (   0.0092240   2.9805883  10.6323155  )
        35           O1  tau(  35) = (   1.3179678   4.4860142  12.6155112  )
        36           O1  tau(  36) = (   5.2920789   4.4901865  12.6316709  )
        37           Ti1 tau(  37) = (   6.5050993   0.0355131  12.7707974  )
        38           Ti1 tau(  38) = (   3.1594757   4.4963870  12.4672366  )
        39           O1  tau(  39) = (   6.5726527   3.0227966  14.6583025  )
        40           O1  tau(  40) = (   3.2932321   2.9979836  13.8792693  )
        41           O1  tau(  41) = (   4.5322310   4.4839795  16.0418810  )
        42           O1  tau(  42) = (   2.0800586   4.4799519  16.0553745  )
        43           Ti1 tau(  43) = (   3.2910362   0.0127607  15.6894215  )
        44           Ti1 tau(  44) = (   0.0049462   4.4269923  16.0943486  )
        45           O1  tau(  45) = (   3.2900926   2.9813045   4.7018136  )
        46           O1  tau(  46) = (   1.3039711   4.4726057   6.0039043  )
        47           O1  tau(  47) = (   5.2763189   4.4711207   6.0039473  )
        48           N1  tau(  48) = (   0.0596666   2.9842962  17.3216073  )
        49           C1  tau(  49) = (   0.3918855   2.9774893  18.7266025  )
        50           H1  tau(  50) = (   0.0017595   3.8652167  19.2343835  )
        51           H1  tau(  51) = (   0.0043965   2.0815098  19.2200810  )
        52           H1  tau(  52) = (   1.4843755   2.9788857  18.8581259  )

     number of k points=    10  Fermi-Dirac smearing, width (Ry)=  0.0073
                       cart. coord. in units 2pi/alat
        k(    1) = (   0.0000000   0.0000000   0.0000000), wk =   0.1250000
        k(    2) = (   0.0000000   0.0419351   0.0000000), wk =   0.2500000
        k(    3) = (   0.0000000  -0.0838702   0.0000000), wk =   0.1250000
        k(    4) = (   0.0379955   0.0000049   0.0000000), wk =   0.2500000
        k(    5) = (   0.0379955   0.0419400   0.0000000), wk =   0.2500000
        k(    6) = (   0.0379955  -0.0838652   0.0000000), wk =   0.2500000
        k(    7) = (   0.0379955  -0.0419301   0.0000000), wk =   0.2500000
        k(    8) = (  -0.0759910  -0.0000099   0.0000000), wk =   0.1250000
        k(    9) = (  -0.0759910   0.0419252   0.0000000), wk =   0.2500000
        k(   10) = (  -0.0759910  -0.0838800   0.0000000), wk =   0.1250000

     Dense  grid:   566857 G-vectors     FFT dimensions: (  72,  64, 270)

     Smooth grid:   143421 G-vectors     FFT dimensions: (  45,  40, 180)

     Estimated max dynamical RAM per process >     229.30 MB

     Estimated total dynamical RAM >       3.58 GB
     Cannot read rho : file not found

     Initial potential from superposition of free atoms

     starting charge  373.99917, renormalised to  390.00000

     negative rho (up, down):  1.731E-02 0.000E+00


     %%%%%%%%%%%%%%%%%%%%%%%%%%%%%%%%%%%%%%%%%%%%%%%%%%%%%%%%%%%%%%%%%%%%%%%%
     %                                                                      %
     % You are using vdW-DF, which was implemented by the Thonhauser group. %
     % Please cite the following two papers that made this development      %
     % possible and the two reviews that describe the various versions:     %
     %                                                                      %
     %   T. Thonhauser et al., PRL 115, 136402 (2015).                      %
     %   T. Thonhauser et al., PRB 76, 125112 (2007).                       %
     %   K. Berland et al., Rep. Prog. Phys. 78, 066501 (2015).             %
     %   D.C. Langreth et al., J. Phys.: Condens. Matter 21, 084203 (2009). %
     %                                                                      %
     %                                                                      %
     % If you are calculating the stress with vdW-DF, please also cite:     %
     %                                                                      %
     %   R. Sabatini et al., J. Phys.: Condens. Matter 24, 424209 (2012).   %
     %                                                                      %
     %%%%%%%%%%%%%%%%%%%%%%%%%%%%%%%%%%%%%%%%%%%%%%%%%%%%%%%%%%%%%%%%%%%%%%%%


 
     Adding external electric field

     Computed dipole along edir(3) : 
        Dipole               -4.6263 Ry au,        -11.7589 Debye
        Dipole field         -0.0087 Ry au, 
 
        Potential amp.        0.8093 Ry
        Total length         46.3494 bohr
 
     Starting wfcs are  295 atomic wfcs
  @ DRIVER MODE: Message from server: STATUS
  @ DRIVER MODE: Message from server: POSDATA
  @ DRIVER MODE: Reading and sharing cell 
  @ DRIVER MODE: Reading and sharing positions 
  @ DRIVER MODE: Received positions 

     total cpu time spent up to now is        7.8 secs

     Self-consistent Calculation

     iteration #  1     ecut=    29.40 Ry     beta= 0.05
     Davidson diagonalization with overlap
     c_bands:  4 eigenvalues not converged
     c_bands:  3 eigenvalues not converged
     c_bands:  2 eigenvalues not converged
     c_bands:  4 eigenvalues not converged
     c_bands:  4 eigenvalues not converged
     c_bands:  2 eigenvalues not converged
     c_bands:  2 eigenvalues not converged
     c_bands:  2 eigenvalues not converged
     ethr =  1.00E-05,  avg # of iterations = 19.7

     negative rho (up, down):  1.689E-02 0.000E+00
 
     Adding external electric field

     Computed dipole along edir(3) : 
        Dipole               12.7191 Ry au,         32.3287 Debye
        Dipole field          0.0240 Ry au, 
 
        Potential amp.       -2.2250 Ry
        Total length         46.3494 bohr
 

     total cpu time spent up to now is       36.2 secs

     total energy              =   -2877.20850908 Ry
     estimated scf accuracy    <     483.39335479 Ry

     iteration #  2     ecut=    29.40 Ry     beta= 0.05
     Davidson diagonalization with overlap
     ethr =  1.00E-02,  avg # of iterations = 13.6

     negative rho (up, down):  8.122E-03 0.000E+00
 
     Adding external electric field

     Computed dipole along edir(3) : 
        Dipole               -1.9787 Ry au,         -5.0295 Debye
        Dipole field         -0.0037 Ry au, 
 
        Potential amp.        0.3462 Ry
        Total length         46.3494 bohr
 

     total cpu time spent up to now is       57.4 secs

     total energy              =   -2827.46365157 Ry
     estimated scf accuracy    <   10792.85623313 Ry

     iteration #  3     ecut=    29.40 Ry     beta= 0.05
     Davidson diagonalization with overlap
     c_bands:  1 eigenvalues not converged
     c_bands:  1 eigenvalues not converged
     c_bands:  1 eigenvalues not converged
     ethr =  1.00E-02,  avg # of iterations = 19.1

     negative rho (up, down):  8.068E-03 0.000E+00
 
     Adding external electric field

     Computed dipole along edir(3) : 
        Dipole               -2.0885 Ry au,         -5.3084 Debye
        Dipole field         -0.0039 Ry au, 
 
        Potential amp.        0.3653 Ry
        Total length         46.3494 bohr
 

     total cpu time spent up to now is       79.7 secs

     total energy              =   -2920.96693275 Ry
     estimated scf accuracy    <      11.75251292 Ry

     iteration #  4     ecut=    29.40 Ry     beta= 0.05
     Davidson diagonalization with overlap
     ethr =  3.01E-03,  avg # of iterations =  2.0

     negative rho (up, down):  9.254E-03 0.000E+00
 
     Adding external electric field

     Computed dipole along edir(3) : 
        Dipole               -3.0303 Ry au,         -7.7022 Debye
        Dipole field         -0.0057 Ry au, 
 
        Potential amp.        0.5301 Ry
        Total length         46.3494 bohr
 

     total cpu time spent up to now is       88.2 secs

     total energy              =   -2916.01417953 Ry
     estimated scf accuracy    <      10.20676673 Ry

     iteration #  5     ecut=    29.40 Ry     beta= 0.05
     Davidson diagonalization with overlap
     ethr =  2.62E-03,  avg # of iterations = 12.8

     negative rho (up, down):  8.948E-03 0.000E+00
 
     Adding external electric field

     Computed dipole along edir(3) : 
        Dipole               -2.9103 Ry au,         -7.3972 Debye
        Dipole field         -0.0055 Ry au, 
 
        Potential amp.        0.5091 Ry
        Total length         46.3494 bohr
 

     total cpu time spent up to now is      104.8 secs

     total energy              =   -2922.36402010 Ry
     estimated scf accuracy    <     421.90106736 Ry

     iteration #  6     ecut=    29.40 Ry     beta= 0.05
     Davidson diagonalization with overlap
     ethr =  2.62E-03,  avg # of iterations =  2.0

     negative rho (up, down):  8.821E-03 0.000E+00
 
     Adding external electric field

     Computed dipole along edir(3) : 
        Dipole               -2.8525 Ry au,         -7.2504 Debye
        Dipole field         -0.0054 Ry au, 
 
        Potential amp.        0.4990 Ry
        Total length         46.3494 bohr
 

     total cpu time spent up to now is      115.7 secs

     total energy              =   -2922.12445220 Ry
     estimated scf accuracy    <     372.90388860 Ry

     iteration #  7     ecut=    29.40 Ry     beta= 0.05
     Davidson diagonalization with overlap
     ethr =  2.62E-03,  avg # of iterations =  1.0

     negative rho (up, down):  8.743E-03 0.000E+00
 
     Adding external electric field

     Computed dipole along edir(3) : 
        Dipole               -2.8079 Ry au,         -7.1369 Debye
        Dipole field         -0.0053 Ry au, 
 
        Potential amp.        0.4912 Ry
        Total length         46.3494 bohr
 

     total cpu time spent up to now is      124.7 secs

     total energy              =   -2921.71049783 Ry
     estimated scf accuracy    <     357.39536696 Ry

     iteration #  8     ecut=    29.40 Ry     beta= 0.05
     Davidson diagonalization with overlap
     ethr =  2.62E-03,  avg # of iterations =  1.0

     negative rho (up, down):  8.445E-03 0.000E+00
 
     Adding external electric field

     Computed dipole along edir(3) : 
        Dipole               -2.2205 Ry au,         -5.6439 Debye
        Dipole field         -0.0042 Ry au, 
 
        Potential amp.        0.3884 Ry
        Total length         46.3494 bohr
 

     total cpu time spent up to now is      131.6 secs

     total energy              =   -2917.57652967 Ry
     estimated scf accuracy    <     332.85368242 Ry

     iteration #  9     ecut=    29.40 Ry     beta= 0.05
     Davidson diagonalization with overlap
     ethr =  2.62E-03,  avg # of iterations =  2.2

     negative rho (up, down):  8.122E-03 0.000E+00
 
     Adding external electric field

     Computed dipole along edir(3) : 
        Dipole               -1.9303 Ry au,         -4.9064 Debye
        Dipole field         -0.0036 Ry au, 
 
        Potential amp.        0.3377 Ry
        Total length         46.3494 bohr
 

     total cpu time spent up to now is      139.2 secs

     total energy              =   -2918.60911382 Ry
     estimated scf accuracy    <      17.60558587 Ry

     iteration # 10     ecut=    29.40 Ry     beta= 0.05
     Davidson diagonalization with overlap
     ethr =  2.62E-03,  avg # of iterations =  1.9

     negative rho (up, down):  8.123E-03 0.000E+00
 
     Adding external electric field

     Computed dipole along edir(3) : 
        Dipole               -2.0141 Ry au,         -5.1192 Debye
        Dipole field         -0.0038 Ry au, 
 
        Potential amp.        0.3523 Ry
        Total length         46.3494 bohr
 

     total cpu time spent up to now is      146.8 secs

     total energy              =   -2918.94207561 Ry
     estimated scf accuracy    <      11.57135156 Ry

     iteration # 11     ecut=    29.40 Ry     beta= 0.05
     Davidson diagonalization with overlap
     ethr =  2.62E-03,  avg # of iterations =  1.0

     negative rho (up, down):  8.430E-03 0.000E+00
 
     Adding external electric field

     Computed dipole along edir(3) : 
        Dipole               -2.4475 Ry au,         -6.2209 Debye
        Dipole field         -0.0046 Ry au, 
 
        Potential amp.        0.4282 Ry
        Total length         46.3494 bohr
 

     total cpu time spent up to now is      153.7 secs

     total energy              =   -2919.31237986 Ry
     estimated scf accuracy    <      11.59319141 Ry

     iteration # 12     ecut=    29.40 Ry     beta= 0.05
     Davidson diagonalization with overlap
     ethr =  2.62E-03,  avg # of iterations =  1.7

     negative rho (up, down):  8.087E-03 0.000E+00
 
     Adding external electric field

     Computed dipole along edir(3) : 
        Dipole               -1.8393 Ry au,         -4.6751 Debye
        Dipole field         -0.0035 Ry au, 
 
        Potential amp.        0.3218 Ry
        Total length         46.3494 bohr
 

     total cpu time spent up to now is      161.0 secs

     total energy              =   -2918.75645097 Ry
     estimated scf accuracy    <      24.55282380 Ry

     iteration # 13     ecut=    29.40 Ry     beta= 0.05
     Davidson diagonalization with overlap
     ethr =  2.62E-03,  avg # of iterations =  3.2

     negative rho (up, down):  8.114E-03 0.000E+00
 
     Adding external electric field

     Computed dipole along edir(3) : 
        Dipole               -1.0138 Ry au,         -2.5768 Debye
        Dipole field         -0.0019 Ry au, 
 
        Potential amp.        0.1773 Ry
        Total length         46.3494 bohr
 

     total cpu time spent up to now is      168.6 secs

     total energy              =   -2918.78610786 Ry
     estimated scf accuracy    <       8.00507616 Ry

     iteration # 14     ecut=    29.40 Ry     beta= 0.05
     Davidson diagonalization with overlap
     ethr =  2.05E-03,  avg # of iterations =  2.6

     negative rho (up, down):  8.381E-03 0.000E+00
 
     Adding external electric field

     Computed dipole along edir(3) : 
        Dipole                0.2998 Ry au,          0.7621 Debye
        Dipole field          0.0006 Ry au, 
 
        Potential amp.       -0.0524 Ry
        Total length         46.3494 bohr
 

     total cpu time spent up to now is      176.3 secs

     total energy              =   -2918.49336460 Ry
     estimated scf accuracy    <       6.15299944 Ry

     iteration # 15     ecut=    29.40 Ry     beta= 0.05
     Davidson diagonalization with overlap
     ethr =  1.58E-03,  avg # of iterations =  6.5

     negative rho (up, down):  8.232E-03 0.000E+00
 
     Adding external electric field

     Computed dipole along edir(3) : 
        Dipole                0.0871 Ry au,          0.2214 Debye
        Dipole field          0.0002 Ry au, 
 
        Potential amp.       -0.0152 Ry
        Total length         46.3494 bohr
 

     total cpu time spent up to now is      185.5 secs

     total energy              =   -2919.29661525 Ry
     estimated scf accuracy    <       1.45878288 Ry

     iteration # 16     ecut=    29.40 Ry     beta= 0.05
     Davidson diagonalization with overlap
     ethr =  3.74E-04,  avg # of iterations =  3.2

     negative rho (up, down):  8.185E-03 0.000E+00
 
     Adding external electric field

     Computed dipole along edir(3) : 
        Dipole                0.0621 Ry au,          0.1578 Debye
        Dipole field          0.0001 Ry au, 
 
        Potential amp.       -0.0109 Ry
        Total length         46.3494 bohr
 

     total cpu time spent up to now is      193.4 secs

     total energy              =   -2919.32545983 Ry
     estimated scf accuracy    <       1.23372395 Ry

     iteration # 17     ecut=    29.40 Ry     beta= 0.05
     Davidson diagonalization with overlap
     ethr =  3.16E-04,  avg # of iterations =  1.1

     negative rho (up, down):  7.880E-03 0.000E+00
 
     Adding external electric field

     Computed dipole along edir(3) : 
        Dipole               -0.3621 Ry au,         -0.9204 Debye
        Dipole field         -0.0007 Ry au, 
 
        Potential amp.        0.0633 Ry
        Total length         46.3494 bohr
 

     total cpu time spent up to now is      200.5 secs

     total energy              =   -2919.15534669 Ry
     estimated scf accuracy    <       1.25768473 Ry

     iteration # 18     ecut=    29.40 Ry     beta= 0.05
     Davidson diagonalization with overlap
     c_bands:  4 eigenvalues not converged
     c_bands:  4 eigenvalues not converged
     c_bands:  4 eigenvalues not converged
     c_bands:  2 eigenvalues not converged
     c_bands:  3 eigenvalues not converged
     ethr =  3.16E-04,  avg # of iterations = 19.0

     negative rho (up, down):  7.913E-03 0.000E+00
 
     Adding external electric field

     Computed dipole along edir(3) : 
        Dipole                0.6211 Ry au,          1.5788 Debye
        Dipole field          0.0012 Ry au, 
 
        Potential amp.       -0.1087 Ry
        Total length         46.3494 bohr
 

     total cpu time spent up to now is      215.2 secs

     total energy              =   -2919.26944337 Ry
     estimated scf accuracy    <       0.76935719 Ry

     iteration # 19     ecut=    29.40 Ry     beta= 0.05
     Davidson diagonalization with overlap
     c_bands:  2 eigenvalues not converged
     c_bands:  4 eigenvalues not converged
     c_bands:  3 eigenvalues not converged
     c_bands:  1 eigenvalues not converged
     c_bands:  2 eigenvalues not converged
     c_bands:  4 eigenvalues not converged
     c_bands:  3 eigenvalues not converged
     ethr =  1.97E-04,  avg # of iterations = 21.9

     negative rho (up, down):  7.902E-03 0.000E+00
 
     Adding external electric field

     Computed dipole along edir(3) : 
        Dipole                0.5088 Ry au,          1.2934 Debye
        Dipole field          0.0010 Ry au, 
 
        Potential amp.       -0.0890 Ry
        Total length         46.3494 bohr
 

     total cpu time spent up to now is      231.0 secs

     total energy              =   -2919.28251081 Ry
     estimated scf accuracy    <      17.97270570 Ry

     iteration # 20     ecut=    29.40 Ry     beta= 0.05
     Davidson diagonalization with overlap
     ethr =  1.97E-04,  avg # of iterations =  4.5

     negative rho (up, down):  7.784E-03 0.000E+00
 
     Adding external electric field

     Computed dipole along edir(3) : 
        Dipole                0.1748 Ry au,          0.4444 Debye
        Dipole field          0.0003 Ry au, 
 
        Potential amp.       -0.0306 Ry
        Total length         46.3494 bohr
 

     total cpu time spent up to now is      239.1 secs

     total energy              =   -2919.18205199 Ry
     estimated scf accuracy    <       3.42545506 Ry

     iteration # 21     ecut=    29.40 Ry     beta= 0.05
     Davidson diagonalization with overlap
     ethr =  1.97E-04,  avg # of iterations =  2.0

     negative rho (up, down):  7.892E-03 0.000E+00
 
     Adding external electric field

     Computed dipole along edir(3) : 
        Dipole                0.2602 Ry au,          0.6614 Debye
        Dipole field          0.0005 Ry au, 
 
        Potential amp.       -0.0455 Ry
        Total length         46.3494 bohr
 

     total cpu time spent up to now is      259.8 secs

     total energy              =   -2919.18690085 Ry
     estimated scf accuracy    <       1.09846759 Ry

     iteration # 22     ecut=    29.40 Ry     beta= 0.05
     Davidson diagonalization with overlap
     c_bands:  1 eigenvalues not converged
     ethr =  1.97E-04,  avg # of iterations =  5.3

     negative rho (up, down):  8.120E-03 0.000E+00
 
     Adding external electric field

     Computed dipole along edir(3) : 
        Dipole               -0.1451 Ry au,         -0.3688 Debye
        Dipole field         -0.0003 Ry au, 
 
        Potential amp.        0.0254 Ry
        Total length         46.3494 bohr
 

     total cpu time spent up to now is      268.2 secs

     total energy              =   -2919.09626740 Ry
     estimated scf accuracy    <       0.74668320 Ry

     iteration # 23     ecut=    29.40 Ry     beta= 0.05
     Davidson diagonalization with overlap
     c_bands:  2 eigenvalues not converged
     c_bands:  1 eigenvalues not converged
     c_bands:  2 eigenvalues not converged
     c_bands:  2 eigenvalues not converged
     c_bands:  1 eigenvalues not converged
     c_bands:  1 eigenvalues not converged
     ethr =  1.91E-04,  avg # of iterations = 17.3

     negative rho (up, down):  8.184E-03 0.000E+00
 
     Adding external electric field

     Computed dipole along edir(3) : 
        Dipole                0.2054 Ry au,          0.5221 Debye
        Dipole field          0.0004 Ry au, 
 
        Potential amp.       -0.0359 Ry
        Total length         46.3494 bohr
 

     total cpu time spent up to now is      280.4 secs

     total energy              =   -2919.12383775 Ry
     estimated scf accuracy    <       0.33952650 Ry

     iteration # 24     ecut=    29.40 Ry     beta= 0.05
     Davidson diagonalization with overlap
     c_bands:  1 eigenvalues not converged
     c_bands:  2 eigenvalues not converged
     c_bands:  1 eigenvalues not converged
     c_bands:  4 eigenvalues not converged
     c_bands:  1 eigenvalues not converged
     c_bands:  1 eigenvalues not converged
     ethr =  8.71E-05,  avg # of iterations = 17.6

     negative rho (up, down):  8.282E-03 0.000E+00
 
     Adding external electric field

     Computed dipole along edir(3) : 
        Dipole                0.2693 Ry au,          0.6846 Debye
        Dipole field          0.0005 Ry au, 
 
        Potential amp.       -0.0471 Ry
        Total length         46.3494 bohr
 

     total cpu time spent up to now is      294.0 secs

     total energy              =   -2919.13579303 Ry
     estimated scf accuracy    <       0.31870561 Ry

     iteration # 25     ecut=    29.40 Ry     beta= 0.05
     Davidson diagonalization with overlap
     ethr =  8.17E-05,  avg # of iterations =  5.3

     negative rho (up, down):  9.228E-03 0.000E+00
 
     Adding external electric field

     Computed dipole along edir(3) : 
        Dipole                0.7247 Ry au,          1.8421 Debye
        Dipole field          0.0014 Ry au, 
 
        Potential amp.       -0.1268 Ry
        Total length         46.3494 bohr
 

     total cpu time spent up to now is      302.3 secs

     total energy              =   -2919.13122014 Ry
     estimated scf accuracy    <       0.23637454 Ry

     iteration # 26     ecut=    29.40 Ry     beta= 0.05
     Davidson diagonalization with overlap
     c_bands:  1 eigenvalues not converged
     ethr =  6.06E-05,  avg # of iterations =  7.3

     negative rho (up, down):  9.412E-03 0.000E+00
 
     Adding external electric field

     Computed dipole along edir(3) : 
        Dipole                0.6291 Ry au,          1.5990 Debye
        Dipole field          0.0012 Ry au, 
 
        Potential amp.       -0.1100 Ry
        Total length         46.3494 bohr
 

     total cpu time spent up to now is      311.7 secs

     total energy              =   -2919.14210089 Ry
     estimated scf accuracy    <       0.24249625 Ry

     iteration # 27     ecut=    29.40 Ry     beta= 0.05
     Davidson diagonalization with overlap
     ethr =  6.06E-05,  avg # of iterations =  1.1

     negative rho (up, down):  1.150E-02 0.000E+00
 
     Adding external electric field

     Computed dipole along edir(3) : 
        Dipole                0.3511 Ry au,          0.8925 Debye
        Dipole field          0.0007 Ry au, 
 
        Potential amp.       -0.0614 Ry
        Total length         46.3494 bohr
 

     total cpu time spent up to now is      318.6 secs

     total energy              =   -2919.12083856 Ry
     estimated scf accuracy    <       0.20048367 Ry

     iteration # 28     ecut=    29.40 Ry     beta= 0.05
     Davidson diagonalization with overlap
     c_bands:  3 eigenvalues not converged
     c_bands:  2 eigenvalues not converged
     c_bands:  4 eigenvalues not converged
     c_bands:  2 eigenvalues not converged
     c_bands:  1 eigenvalues not converged
     c_bands:  1 eigenvalues not converged
     c_bands:  2 eigenvalues not converged
     ethr =  5.14E-05,  avg # of iterations = 17.7

     negative rho (up, down):  1.422E-02 0.000E+00
 
     Adding external electric field

     Computed dipole along edir(3) : 
        Dipole                0.5052 Ry au,          1.2842 Debye
        Dipole field          0.0010 Ry au, 
 
        Potential amp.       -0.0884 Ry
        Total length         46.3494 bohr
 

     total cpu time spent up to now is      331.5 secs

     total energy              =   -2919.13066284 Ry
     estimated scf accuracy    <       0.07548613 Ry

     iteration # 29     ecut=    29.40 Ry     beta= 0.05
     Davidson diagonalization with overlap
     c_bands:  2 eigenvalues not converged
     c_bands:  4 eigenvalues not converged
     c_bands:  2 eigenvalues not converged
     c_bands:  3 eigenvalues not converged
     ethr =  1.94E-05,  avg # of iterations = 13.7

     negative rho (up, down):  1.687E-02 0.000E+00
 
     Adding external electric field

     Computed dipole along edir(3) : 
        Dipole                0.5119 Ry au,          1.3012 Debye
        Dipole field          0.0010 Ry au, 
 
        Potential amp.       -0.0896 Ry
        Total length         46.3494 bohr
 

     total cpu time spent up to now is      345.3 secs

     total energy              =   -2919.13260013 Ry
     estimated scf accuracy    <       0.05304259 Ry

     iteration # 30     ecut=    29.40 Ry     beta= 0.05
     Davidson diagonalization with overlap
     c_bands:  2 eigenvalues not converged
     c_bands:  3 eigenvalues not converged
     c_bands:  3 eigenvalues not converged
     ethr =  1.36E-05,  avg # of iterations = 12.0

     negative rho (up, down):  2.434E-02 0.000E+00
 
     Adding external electric field

     Computed dipole along edir(3) : 
        Dipole                0.0919 Ry au,          0.2335 Debye
        Dipole field          0.0002 Ry au, 
 
        Potential amp.       -0.0161 Ry
        Total length         46.3494 bohr
 

     total cpu time spent up to now is      360.8 secs

     total energy              =   -2919.12786931 Ry
     estimated scf accuracy    <       0.03681616 Ry

     iteration # 31     ecut=    29.40 Ry     beta= 0.05
     Davidson diagonalization with overlap
     c_bands:  4 eigenvalues not converged
     c_bands:  5 eigenvalues not converged
     c_bands:  1 eigenvalues not converged
     c_bands:  4 eigenvalues not converged
     c_bands:  1 eigenvalues not converged
     c_bands:  3 eigenvalues not converged
     c_bands:  3 eigenvalues not converged
     c_bands:  3 eigenvalues not converged
     ethr =  9.44E-06,  avg # of iterations = 19.7

     negative rho (up, down):  1.353E-02 0.000E+00
 
     Adding external electric field

     Computed dipole along edir(3) : 
        Dipole                0.5771 Ry au,          1.4669 Debye
        Dipole field          0.0011 Ry au, 
 
        Potential amp.       -0.1010 Ry
        Total length         46.3494 bohr
 

     total cpu time spent up to now is      377.8 secs

     total energy              =   -2919.07101062 Ry
     estimated scf accuracy    <       0.72834125 Ry

     iteration # 32     ecut=    29.40 Ry     beta= 0.05
     Davidson diagonalization with overlap
     c_bands:  4 eigenvalues not converged
     c_bands:  3 eigenvalues not converged
     c_bands:  4 eigenvalues not converged
     c_bands:  1 eigenvalues not converged
     c_bands:  1 eigenvalues not converged
     c_bands:  1 eigenvalues not converged
     c_bands:  3 eigenvalues not converged
     c_bands:  4 eigenvalues not converged
     ethr =  9.44E-06,  avg # of iterations = 18.6

     negative rho (up, down):  1.548E-02 0.000E+00
 
     Adding external electric field

     Computed dipole along edir(3) : 
        Dipole                0.4583 Ry au,          1.1648 Debye
        Dipole field          0.0009 Ry au, 
 
        Potential amp.       -0.0802 Ry
        Total length         46.3494 bohr
 

     total cpu time spent up to now is      394.9 secs

     total energy              =   -2919.13272080 Ry
     estimated scf accuracy    <       0.08262893 Ry

     iteration # 33     ecut=    29.40 Ry     beta= 0.05
     Davidson diagonalization with overlap
     ethr =  9.44E-06,  avg # of iterations =  7.6

     negative rho (up, down):  1.845E-02 0.000E+00
 
     Adding external electric field

     Computed dipole along edir(3) : 
        Dipole                0.2858 Ry au,          0.7264 Debye
        Dipole field          0.0005 Ry au, 
 
        Potential amp.       -0.0500 Ry
        Total length         46.3494 bohr
 

     total cpu time spent up to now is      404.1 secs

     total energy              =   -2919.12939100 Ry
     estimated scf accuracy    <       0.05046052 Ry

     iteration # 34     ecut=    29.40 Ry     beta= 0.05
     Davidson diagonalization with overlap
     c_bands:  1 eigenvalues not converged
     c_bands:  2 eigenvalues not converged
     c_bands:  2 eigenvalues not converged
     c_bands:  1 eigenvalues not converged
     c_bands:  1 eigenvalues not converged
     ethr =  9.44E-06,  avg # of iterations = 15.7

     negative rho (up, down):  1.717E-02 0.000E+00
 
     Adding external electric field

     Computed dipole along edir(3) : 
        Dipole                0.3572 Ry au,          0.9079 Debye
        Dipole field          0.0007 Ry au, 
 
        Potential amp.       -0.0625 Ry
        Total length         46.3494 bohr
 

     total cpu time spent up to now is      422.4 secs

     total energy              =   -2919.13219342 Ry
     estimated scf accuracy    <       0.01395275 Ry

     iteration # 35     ecut=    29.40 Ry     beta= 0.05
     Davidson diagonalization with overlap
     c_bands:  2 eigenvalues not converged
     c_bands:  1 eigenvalues not converged
     ethr =  3.58E-06,  avg # of iterations = 12.5

     negative rho (up, down):  1.667E-02 0.000E+00
 
     Adding external electric field

     Computed dipole along edir(3) : 
        Dipole                0.3881 Ry au,          0.9864 Debye
        Dipole field          0.0007 Ry au, 
 
        Potential amp.       -0.0679 Ry
        Total length         46.3494 bohr
 

     total cpu time spent up to now is      433.0 secs

     total energy              =   -2919.13357754 Ry
     estimated scf accuracy    <       0.01891295 Ry

     iteration # 36     ecut=    29.40 Ry     beta= 0.05
     Davidson diagonalization with overlap
     c_bands:  1 eigenvalues not converged
     ethr =  3.58E-06,  avg # of iterations =  4.6

     negative rho (up, down):  1.694E-02 0.000E+00
 
     Adding external electric field

     Computed dipole along edir(3) : 
        Dipole                0.3616 Ry au,          0.9190 Debye
        Dipole field          0.0007 Ry au, 
 
        Potential amp.       -0.0632 Ry
        Total length         46.3494 bohr
 

     total cpu time spent up to now is      441.3 secs

     total energy              =   -2919.13317780 Ry
     estimated scf accuracy    <       0.02365425 Ry

     iteration # 37     ecut=    29.40 Ry     beta= 0.05
     Davidson diagonalization with overlap
     ethr =  3.58E-06,  avg # of iterations =  3.0

     negative rho (up, down):  1.777E-02 0.000E+00
 
     Adding external electric field

     Computed dipole along edir(3) : 
        Dipole                0.2313 Ry au,          0.5879 Debye
        Dipole field          0.0004 Ry au, 
 
        Potential amp.       -0.0405 Ry
        Total length         46.3494 bohr
 

     total cpu time spent up to now is      449.1 secs

     total energy              =   -2919.13108936 Ry
     estimated scf accuracy    <       0.01733626 Ry

     iteration # 38     ecut=    29.40 Ry     beta= 0.05
     Davidson diagonalization with overlap
     c_bands:  1 eigenvalues not converged
     c_bands:  2 eigenvalues not converged
     c_bands:  2 eigenvalues not converged
     c_bands:  1 eigenvalues not converged
     ethr =  3.58E-06,  avg # of iterations = 15.8

     negative rho (up, down):  1.735E-02 0.000E+00
 
     Adding external electric field

     Computed dipole along edir(3) : 
        Dipole                0.2507 Ry au,          0.6372 Debye
        Dipole field          0.0005 Ry au, 
 
        Potential amp.       -0.0439 Ry
        Total length         46.3494 bohr
 

     total cpu time spent up to now is      460.8 secs

     total energy              =   -2919.13205978 Ry
     estimated scf accuracy    <       0.00352916 Ry

     iteration # 39     ecut=    29.40 Ry     beta= 0.05
     Davidson diagonalization with overlap
     c_bands:  2 eigenvalues not converged
     ethr =  9.05E-07,  avg # of iterations = 10.1

     negative rho (up, down):  1.743E-02 0.000E+00
 
     Adding external electric field

     Computed dipole along edir(3) : 
        Dipole                0.2402 Ry au,          0.6104 Debye
        Dipole field          0.0005 Ry au, 
 
        Potential amp.       -0.0420 Ry
        Total length         46.3494 bohr
 

     total cpu time spent up to now is      470.6 secs

     total energy              =   -2919.13233262 Ry
     estimated scf accuracy    <       0.00127761 Ry

     iteration # 40     ecut=    29.40 Ry     beta= 0.05
     Davidson diagonalization with overlap
     c_bands:  2 eigenvalues not converged
     ethr =  3.28E-07,  avg # of iterations =  7.2

     negative rho (up, down):  1.748E-02 0.000E+00
 
     Adding external electric field

     Computed dipole along edir(3) : 
        Dipole                0.2504 Ry au,          0.6364 Debye
        Dipole field          0.0005 Ry au, 
 
        Potential amp.       -0.0438 Ry
        Total length         46.3494 bohr
 

     total cpu time spent up to now is      489.6 secs

     total energy              =   -2919.13242442 Ry
     estimated scf accuracy    <       0.00056396 Ry

     iteration # 41     ecut=    29.40 Ry     beta= 0.05
     Davidson diagonalization with overlap
     ethr =  1.45E-07,  avg # of iterations =  6.9

     negative rho (up, down):  1.749E-02 0.000E+00
 
     Adding external electric field

     Computed dipole along edir(3) : 
        Dipole                0.2745 Ry au,          0.6977 Debye
        Dipole field          0.0005 Ry au, 
 
        Potential amp.       -0.0480 Ry
        Total length         46.3494 bohr
 

     total cpu time spent up to now is      502.0 secs

     total energy              =   -2919.13255668 Ry
     estimated scf accuracy    <       0.00051878 Ry

     iteration # 42     ecut=    29.40 Ry     beta= 0.05
     Davidson diagonalization with overlap
     ethr =  1.33E-07,  avg # of iterations =  2.8

     negative rho (up, down):  1.803E-02 0.000E+00
 
     Adding external electric field

     Computed dipole along edir(3) : 
        Dipole                0.2588 Ry au,          0.6579 Debye
        Dipole field          0.0005 Ry au, 
 
        Potential amp.       -0.0453 Ry
        Total length         46.3494 bohr
 

     total cpu time spent up to now is      510.0 secs

     total energy              =   -2919.13253832 Ry
     estimated scf accuracy    <       0.00120150 Ry

     iteration # 43     ecut=    29.40 Ry     beta= 0.05
     Davidson diagonalization with overlap
     ethr =  1.33E-07,  avg # of iterations =  6.2

     negative rho (up, down):  1.808E-02 0.000E+00
 
     Adding external electric field

     Computed dipole along edir(3) : 
        Dipole                0.2413 Ry au,          0.6134 Debye
        Dipole field          0.0005 Ry au, 
 
        Potential amp.       -0.0422 Ry
        Total length         46.3494 bohr
 

     total cpu time spent up to now is      519.7 secs

     total energy              =   -2919.13259129 Ry
     estimated scf accuracy    <       0.00023879 Ry

     iteration # 44     ecut=    29.40 Ry     beta= 0.05
     Davidson diagonalization with overlap
     ethr =  6.12E-08,  avg # of iterations =  6.0

     negative rho (up, down):  1.807E-02 0.000E+00
 
     Adding external electric field

     Computed dipole along edir(3) : 
        Dipole                0.2411 Ry au,          0.6129 Debye
        Dipole field          0.0005 Ry au, 
 
        Potential amp.       -0.0422 Ry
        Total length         46.3494 bohr
 

     total cpu time spent up to now is      529.1 secs

     total energy              =   -2919.13265752 Ry
     estimated scf accuracy    <       0.00072034 Ry

     iteration # 45     ecut=    29.40 Ry     beta= 0.05
     Davidson diagonalization with overlap
     ethr =  6.12E-08,  avg # of iterations =  1.0

     negative rho (up, down):  1.787E-02 0.000E+00
 
     Adding external electric field

     Computed dipole along edir(3) : 
        Dipole                0.2515 Ry au,          0.6392 Debye
        Dipole field          0.0005 Ry au, 
 
        Potential amp.       -0.0440 Ry
        Total length         46.3494 bohr
 

     total cpu time spent up to now is      536.0 secs

     total energy              =   -2919.13262075 Ry
     estimated scf accuracy    <       0.00074881 Ry

     iteration # 46     ecut=    29.40 Ry     beta= 0.05
     Davidson diagonalization with overlap
     ethr =  6.12E-08,  avg # of iterations =  6.0

     negative rho (up, down):  1.777E-02 0.000E+00
 
     Adding external electric field

     Computed dipole along edir(3) : 
        Dipole                0.2511 Ry au,          0.6384 Debye
        Dipole field          0.0005 Ry au, 
 
        Potential amp.       -0.0439 Ry
        Total length         46.3494 bohr
 

     total cpu time spent up to now is      548.2 secs

     total energy              =   -2919.13264965 Ry
     estimated scf accuracy    <       0.00014774 Ry

     iteration # 47     ecut=    29.40 Ry     beta= 0.05
     Davidson diagonalization with overlap
     ethr =  3.79E-08,  avg # of iterations =  4.5

     negative rho (up, down):  1.786E-02 0.000E+00
 
     Adding external electric field

     Computed dipole along edir(3) : 
        Dipole                0.2540 Ry au,          0.6457 Debye
        Dipole field          0.0005 Ry au, 
 
        Potential amp.       -0.0444 Ry
        Total length         46.3494 bohr
 

     total cpu time spent up to now is      557.1 secs

     total energy              =   -2919.13266119 Ry
     estimated scf accuracy    <       0.00012122 Ry

     iteration # 48     ecut=    29.40 Ry     beta= 0.05
     Davidson diagonalization with overlap
     ethr =  3.11E-08,  avg # of iterations =  6.4

     negative rho (up, down):  1.787E-02 0.000E+00
 
     Adding external electric field

     Computed dipole along edir(3) : 
        Dipole                0.2537 Ry au,          0.6449 Debye
        Dipole field          0.0005 Ry au, 
 
        Potential amp.       -0.0444 Ry
        Total length         46.3494 bohr
 

     total cpu time spent up to now is      567.5 secs

     total energy              =   -2919.13268911 Ry
     estimated scf accuracy    <       0.00022963 Ry

     iteration # 49     ecut=    29.40 Ry     beta= 0.05
     Davidson diagonalization with overlap
     ethr =  3.11E-08,  avg # of iterations =  5.0

     negative rho (up, down):  1.788E-02 0.000E+00
 
     Adding external electric field

     Computed dipole along edir(3) : 
        Dipole                0.2553 Ry au,          0.6488 Debye
        Dipole field          0.0005 Ry au, 
 
        Potential amp.       -0.0447 Ry
        Total length         46.3494 bohr
 

     total cpu time spent up to now is      575.9 secs

     total energy              =   -2919.13269850 Ry
     estimated scf accuracy    <       0.00010025 Ry

     iteration # 50     ecut=    29.40 Ry     beta= 0.05
     Davidson diagonalization with overlap
     ethr =  2.57E-08,  avg # of iterations =  5.0

     negative rho (up, down):  1.788E-02 0.000E+00
 
     Adding external electric field

     Computed dipole along edir(3) : 
        Dipole                0.2549 Ry au,          0.6480 Debye
        Dipole field          0.0005 Ry au, 
 
        Potential amp.       -0.0446 Ry
        Total length         46.3494 bohr
 

     total cpu time spent up to now is      587.2 secs

     total energy              =   -2919.13272153 Ry
     estimated scf accuracy    <       0.00004739 Ry

     iteration # 51     ecut=    29.40 Ry     beta= 0.05
     Davidson diagonalization with overlap
     ethr =  1.22E-08,  avg # of iterations =  1.6

     negative rho (up, down):  1.785E-02 0.000E+00
 
     Adding external electric field

     Computed dipole along edir(3) : 
        Dipole                0.2545 Ry au,          0.6468 Debye
        Dipole field          0.0005 Ry au, 
 
        Potential amp.       -0.0445 Ry
        Total length         46.3494 bohr
 

     total cpu time spent up to now is      594.5 secs

     total energy              =   -2919.13272564 Ry
     estimated scf accuracy    <       0.00003635 Ry

     iteration # 52     ecut=    29.40 Ry     beta= 0.05
     Davidson diagonalization with overlap
     ethr =  9.32E-09,  avg # of iterations =  6.0

     negative rho (up, down):  1.780E-02 0.000E+00
 
     Adding external electric field

     Computed dipole along edir(3) : 
        Dipole                0.2516 Ry au,          0.6396 Debye
        Dipole field          0.0005 Ry au, 
 
        Potential amp.       -0.0440 Ry
        Total length         46.3494 bohr
 

     total cpu time spent up to now is      604.3 secs

     total energy              =   -2919.13273728 Ry
     estimated scf accuracy    <       0.00002638 Ry

     iteration # 53     ecut=    29.40 Ry     beta= 0.05
     Davidson diagonalization with overlap
     ethr =  6.76E-09,  avg # of iterations =  5.4

     negative rho (up, down):  1.778E-02 0.000E+00
 
     Adding external electric field

     Computed dipole along edir(3) : 
        Dipole                0.2517 Ry au,          0.6398 Debye
        Dipole field          0.0005 Ry au, 
 
        Potential amp.       -0.0440 Ry
        Total length         46.3494 bohr
 

     total cpu time spent up to now is      613.7 secs

     total energy              =   -2919.13274723 Ry
     estimated scf accuracy    <       0.00001174 Ry

     iteration # 54     ecut=    29.40 Ry     beta= 0.05
     Davidson diagonalization with overlap
     ethr =  3.01E-09,  avg # of iterations =  4.1

     negative rho (up, down):  1.775E-02 0.000E+00
 
     Adding external electric field

     Computed dipole along edir(3) : 
        Dipole                0.2520 Ry au,          0.6405 Debye
        Dipole field          0.0005 Ry au, 
 
        Potential amp.       -0.0441 Ry
        Total length         46.3494 bohr
 

     total cpu time spent up to now is      622.3 secs

     total energy              =   -2919.13275487 Ry
     estimated scf accuracy    <       0.00000326 Ry

     iteration # 55     ecut=    29.40 Ry     beta= 0.05
     Davidson diagonalization with overlap
     ethr =  8.35E-10,  avg # of iterations =  8.2

     negative rho (up, down):  1.777E-02 0.000E+00
 
     Adding external electric field

     Computed dipole along edir(3) : 
        Dipole                0.2521 Ry au,          0.6407 Debye
        Dipole field          0.0005 Ry au, 
 
        Potential amp.       -0.0441 Ry
        Total length         46.3494 bohr
 

     total cpu time spent up to now is      636.4 secs

     total energy              =   -2919.13276198 Ry
     estimated scf accuracy    <       0.00000899 Ry

     iteration # 56     ecut=    29.40 Ry     beta= 0.05
     Davidson diagonalization with overlap
     ethr =  8.35E-10,  avg # of iterations =  5.2

     negative rho (up, down):  1.777E-02 0.000E+00
 
     Adding external electric field

     Computed dipole along edir(3) : 
        Dipole                0.2521 Ry au,          0.6407 Debye
        Dipole field          0.0005 Ry au, 
 
        Potential amp.       -0.0441 Ry
        Total length         46.3494 bohr
 

     total cpu time spent up to now is      649.9 secs

     total energy              =   -2919.13276848 Ry
     estimated scf accuracy    <       0.00000214 Ry

     iteration # 57     ecut=    29.40 Ry     beta= 0.05
     Davidson diagonalization with overlap
     ethr =  5.50E-10,  avg # of iterations =  2.6

     negative rho (up, down):  1.776E-02 0.000E+00
 
     Adding external electric field

     Computed dipole along edir(3) : 
        Dipole                0.2517 Ry au,          0.6396 Debye
        Dipole field          0.0005 Ry au, 
 
        Potential amp.       -0.0440 Ry
        Total length         46.3494 bohr
 

     total cpu time spent up to now is      658.2 secs

     total energy              =   -2919.13277376 Ry
     estimated scf accuracy    <       0.00000177 Ry

     iteration # 58     ecut=    29.40 Ry     beta= 0.05
     Davidson diagonalization with overlap
     ethr =  4.54E-10,  avg # of iterations =  5.2

     negative rho (up, down):  1.774E-02 0.000E+00
 
     Adding external electric field

     Computed dipole along edir(3) : 
        Dipole                0.2516 Ry au,          0.6394 Debye
        Dipole field          0.0005 Ry au, 
 
        Potential amp.       -0.0440 Ry
        Total length         46.3494 bohr
 

     total cpu time spent up to now is      668.2 secs

     total energy              =   -2919.13277888 Ry
     estimated scf accuracy    <       0.00000173 Ry

     iteration # 59     ecut=    29.40 Ry     beta= 0.05
     Davidson diagonalization with overlap
     ethr =  4.43E-10,  avg # of iterations =  2.4

     negative rho (up, down):  1.773E-02 0.000E+00
 
     Adding external electric field

     Computed dipole along edir(3) : 
        Dipole                0.2516 Ry au,          0.6396 Debye
        Dipole field          0.0005 Ry au, 
 
        Potential amp.       -0.0440 Ry
        Total length         46.3494 bohr
 

     total cpu time spent up to now is      675.9 secs

     total energy              =   -2919.13278331 Ry
     estimated scf accuracy    <       0.00000095 Ry

     iteration # 60     ecut=    29.40 Ry     beta= 0.05
     Davidson diagonalization with overlap
     ethr =  2.45E-10,  avg # of iterations =  6.0

     negative rho (up, down):  1.772E-02 0.000E+00
 
     Adding external electric field

     Computed dipole along edir(3) : 
        Dipole                0.2514 Ry au,          0.6391 Debye
        Dipole field          0.0005 Ry au, 
 
        Potential amp.       -0.0440 Ry
        Total length         46.3494 bohr
 

     total cpu time spent up to now is      686.4 secs

     total energy              =   -2919.13278739 Ry
     estimated scf accuracy    <       0.00000060 Ry

     iteration # 61     ecut=    29.40 Ry     beta= 0.05
     Davidson diagonalization with overlap
     ethr =  1.55E-10,  avg # of iterations =  5.5

     negative rho (up, down):  1.772E-02 0.000E+00
 
     Adding external electric field

     Computed dipole along edir(3) : 
        Dipole                0.2514 Ry au,          0.6391 Debye
        Dipole field          0.0005 Ry au, 
 
        Potential amp.       -0.0440 Ry
        Total length         46.3494 bohr
 

     total cpu time spent up to now is      695.4 secs

     total energy              =   -2919.13279104 Ry
     estimated scf accuracy    <       0.00000036 Ry

     iteration # 62     ecut=    29.40 Ry     beta= 0.05
     Davidson diagonalization with overlap
     ethr =  9.27E-11,  avg # of iterations =  3.2

     negative rho (up, down):  1.770E-02 0.000E+00
 
     Adding external electric field

     Computed dipole along edir(3) : 
        Dipole                0.2514 Ry au,          0.6390 Debye
        Dipole field          0.0005 Ry au, 
 
        Potential amp.       -0.0440 Ry
        Total length         46.3494 bohr
 

     total cpu time spent up to now is      703.3 secs

     total energy              =   -2919.13279435 Ry
     estimated scf accuracy    <       0.00000033 Ry

     iteration # 63     ecut=    29.40 Ry     beta= 0.05
     Davidson diagonalization with overlap
     ethr =  8.38E-11,  avg # of iterations =  5.0

     negative rho (up, down):  1.770E-02 0.000E+00
 
     Adding external electric field

     Computed dipole along edir(3) : 
        Dipole                0.2513 Ry au,          0.6389 Debye
        Dipole field          0.0005 Ry au, 
 
        Potential amp.       -0.0440 Ry
        Total length         46.3494 bohr
 

     total cpu time spent up to now is      713.9 secs

     total energy              =   -2919.13279730 Ry
     estimated scf accuracy    <       0.00000022 Ry

     iteration # 64     ecut=    29.40 Ry     beta= 0.05
     Davidson diagonalization with overlap
     ethr =  5.69E-11,  avg # of iterations =  3.4

     negative rho (up, down):  1.770E-02 0.000E+00
 
     Adding external electric field

     Computed dipole along edir(3) : 
        Dipole                0.2513 Ry au,          0.6388 Debye
        Dipole field          0.0005 Ry au, 
 
        Potential amp.       -0.0440 Ry
        Total length         46.3494 bohr
 

     total cpu time spent up to now is      722.2 secs

     total energy              =   -2919.13279995 Ry
     estimated scf accuracy    <       0.00000010 Ry

     iteration # 65     ecut=    29.40 Ry     beta= 0.05
     Davidson diagonalization with overlap
     ethr =  2.69E-11,  avg # of iterations =  5.0

     negative rho (up, down):  1.770E-02 0.000E+00
 
     Adding external electric field

     Computed dipole along edir(3) : 
        Dipole                0.2514 Ry au,          0.6391 Debye
        Dipole field          0.0005 Ry au, 
 
        Potential amp.       -0.0440 Ry
        Total length         46.3494 bohr
 

     total cpu time spent up to now is      731.0 secs

     total energy              =   -2919.13280236 Ry
     estimated scf accuracy    <       0.00000008 Ry

     iteration # 66     ecut=    29.40 Ry     beta= 0.05
     Davidson diagonalization with overlap
     ethr =  1.95E-11,  avg # of iterations =  5.4

     negative rho (up, down):  1.770E-02 0.000E+00
 
     Adding external electric field

     Computed dipole along edir(3) : 
        Dipole                0.2514 Ry au,          0.6390 Debye
        Dipole field          0.0005 Ry au, 
 
        Potential amp.       -0.0440 Ry
        Total length         46.3494 bohr
 

     total cpu time spent up to now is      741.4 secs

     total energy              =   -2919.13280452 Ry
     estimated scf accuracy    <       0.00000019 Ry

     iteration # 67     ecut=    29.40 Ry     beta= 0.05
     Davidson diagonalization with overlap
     ethr =  1.95E-11,  avg # of iterations =  4.1

     negative rho (up, down):  1.769E-02 0.000E+00
 
     Adding external electric field

     Computed dipole along edir(3) : 
        Dipole                0.2513 Ry au,          0.6387 Debye
        Dipole field          0.0005 Ry au, 
 
        Potential amp.       -0.0440 Ry
        Total length         46.3494 bohr
 

     total cpu time spent up to now is      749.8 secs

     total energy              =   -2919.13280645 Ry
     estimated scf accuracy    <       0.00000010 Ry

     iteration # 68     ecut=    29.40 Ry     beta= 0.05
     Davidson diagonalization with overlap
     ethr =  1.95E-11,  avg # of iterations =  5.9

     negative rho (up, down):  1.769E-02 0.000E+00
 
     Adding external electric field

     Computed dipole along edir(3) : 
        Dipole                0.2513 Ry au,          0.6386 Debye
        Dipole field          0.0005 Ry au, 
 
        Potential amp.       -0.0440 Ry
        Total length         46.3494 bohr
 

     total cpu time spent up to now is      762.6 secs

     total energy              =   -2919.13280823 Ry
     estimated scf accuracy    <       0.00000009 Ry

     iteration # 69     ecut=    29.40 Ry     beta= 0.05
     Davidson diagonalization with overlap
     ethr =  1.95E-11,  avg # of iterations =  4.6

     negative rho (up, down):  1.772E-02 0.000E+00
 
     Adding external electric field

     Computed dipole along edir(3) : 
        Dipole                0.2508 Ry au,          0.6375 Debye
        Dipole field          0.0005 Ry au, 
 
        Potential amp.       -0.0439 Ry
        Total length         46.3494 bohr
 

     total cpu time spent up to now is      771.4 secs

     End of self-consistent calculation

          k = 0.0000 0.0000 0.0000 ( 18029 PWs)   bands (ev):

   -56.8983 -56.8647 -56.0117 -56.0024 -55.9766 -55.9700 -55.8626 -55.8268
   -55.6453 -55.6101 -55.5604 -55.5399 -55.5264 -55.4409 -54.9896 -54.9543
   -33.3260 -33.1727 -33.1446 -33.0748 -32.9838 -32.9520 -32.4853 -32.4759
   -32.4055 -32.2977 -32.2522 -32.2253 -32.2103 -32.1862 -32.1534 -32.1503
   -32.1434 -32.1407 -32.1165 -32.1096 -32.1021 -32.0710 -32.0449 -32.0298
   -32.0161 -31.9989 -31.9905 -31.9670 -31.9525 -31.8990 -31.8770 -31.8749
   -31.7843 -31.7834 -31.7713 -31.7155 -31.7116 -31.6878 -31.6690 -31.6471
   -31.6234 -31.5769 -31.5199 -31.2288 -31.2098 -31.2077 -31.1790 -31.0493
   -17.0605 -16.6213 -16.3906 -16.2596 -16.1885 -16.1377 -16.0902 -15.9644
   -15.8926 -15.8889 -15.8516 -15.8132 -15.7449 -15.6051 -15.5077 -15.4487
   -15.4056 -15.2859 -15.2281 -15.1921 -15.1845 -15.1545 -15.1337 -14.9356
   -14.9127 -14.8169 -14.8005 -14.6760 -14.4500 -14.0590 -13.9489 -13.0894
    -7.8057  -4.6267  -4.1175  -3.8750  -3.7923  -3.6821  -3.6742  -3.5934
    -3.4779  -3.4273  -3.3816  -3.2659  -3.2622  -3.1163  -3.0989  -3.0731
    -3.0670  -3.0279  -2.9987  -2.9516  -2.8991  -2.8939  -2.8887  -2.7384
    -2.6380  -2.5688  -2.5456  -2.5288  -2.5006  -2.4084  -2.4037  -2.3884
    -2.3848  -2.2905  -2.1396  -2.1311  -2.0967  -2.0594  -2.0565  -2.0123
    -2.0031  -1.8463  -1.8023  -1.6843  -1.6738  -1.6390  -1.5724  -1.5686
    -1.4484  -1.3977  -1.3557  -1.3062  -1.1990  -1.1545  -1.1260  -1.0376
    -0.9766  -0.9394  -0.9208  -0.9015  -0.7941  -0.7859  -0.7707  -0.6795
    -0.6737  -0.6229  -0.5336  -0.5109  -0.5084  -0.4180  -0.4102  -0.3124
    -0.2771  -0.2250  -0.1946  -0.1149  -0.0843   0.0203   0.0587   0.0742
     0.2046   0.2188   0.2772   0.3439   0.4011   0.4443   0.4612   0.4950
     0.5044   0.5964   0.7054   0.7074   0.8188   0.8556   1.0140   1.0529
     1.3501   1.3612   2.0247   2.3768   2.5375   2.8357   3.0300   3.1427
     3.3534   3.3672   3.3730   3.5526   3.6008

          k = 0.0000 0.0419 0.0000 ( 17933 PWs)   bands (ev):

   -56.8934 -56.8696 -56.0066 -55.9976 -55.9816 -55.9746 -55.8575 -55.8318
   -55.6402 -55.6150 -55.5553 -55.5383 -55.5313 -55.4423 -54.9844 -54.9594
   -33.2726 -33.1685 -33.1484 -33.0615 -33.0079 -32.9970 -32.4324 -32.4231
   -32.3500 -32.2833 -32.2463 -32.2138 -32.2131 -32.2070 -32.1713 -32.1578
   -32.1527 -32.1509 -32.1459 -32.1310 -32.0674 -32.0662 -32.0585 -32.0478
   -32.0312 -31.9834 -31.9698 -31.9656 -31.8999 -31.8953 -31.8782 -31.8635
   -31.7977 -31.7790 -31.7703 -31.7591 -31.7131 -31.7000 -31.6827 -31.6702
   -31.6475 -31.6337 -31.4705 -31.2468 -31.2058 -31.2015 -31.1840 -31.0893
   -16.9392 -16.4994 -16.3126 -16.2872 -16.1999 -16.1127 -16.0737 -15.9113
   -15.9066 -15.8569 -15.8325 -15.7464 -15.7231 -15.6362 -15.5499 -15.5381
   -15.4498 -15.2880 -15.2828 -15.2574 -15.2230 -15.1305 -15.0738 -14.9852
   -14.9084 -14.8570 -14.8218 -14.6980 -14.5200 -14.0661 -13.9900 -13.0984
    -7.8013  -4.4449  -3.9397  -3.7127  -3.6410  -3.6015  -3.5337  -3.4706
    -3.4193  -3.4087  -3.3961  -3.2317  -3.1720  -3.0826  -3.0715  -3.0694
    -3.0590  -3.0325  -2.9963  -2.9694  -2.9060  -2.8855  -2.8487  -2.7995
    -2.7699  -2.7400  -2.7019  -2.6379  -2.6067  -2.5454  -2.5211  -2.4532
    -2.3241  -2.3202  -2.3055  -2.1296  -2.0997  -2.0894  -2.0351  -1.9739
    -1.8925  -1.7432  -1.6958  -1.6867  -1.6470  -1.6447  -1.4733  -1.4553
    -1.4211  -1.3495  -1.3243  -1.3132  -1.2372  -1.1746  -1.1622  -1.1197
    -1.0093  -0.9338  -0.8701  -0.8083  -0.7298  -0.7203  -0.6756  -0.6598
    -0.5990  -0.5874  -0.5458  -0.5327  -0.5163  -0.4416  -0.4072  -0.3578
    -0.3321  -0.3082  -0.1835  -0.1652  -0.0646  -0.0446  -0.0319   0.0181
     0.0807   0.1011   0.1165   0.1280   0.1398   0.3137   0.3535   0.4306
     0.5206   0.6492   0.6937   0.7620   0.7834   0.8005   0.9596   0.9664
     1.2299   1.3186   1.8995   2.6442   2.6492   2.8444   3.1871   3.2169
     3.2450   3.3263   3.3499   3.5000   3.5440

          k = 0.0000-0.0839 0.0000 ( 17884 PWs)   bands (ev):

   -56.8816 -56.8813 -55.9962 -55.9922 -55.9860 -55.9859 -55.8477 -55.8416
   -55.6303 -55.6249 -55.5433 -55.5432 -55.5367 -55.4439 -54.9727 -54.9709
   -33.1585 -33.1582 -33.1417 -33.1415 -33.0294 -33.0291 -32.3051 -32.3022
   -32.2950 -32.2905 -32.2475 -32.2470 -32.2421 -32.2407 -32.1977 -32.1935
   -32.1847 -32.1802 -32.1468 -32.1455 -32.0994 -32.0942 -32.0487 -32.0450
   -31.9818 -31.9738 -31.9114 -31.9054 -31.8866 -31.8865 -31.8749 -31.8313
   -31.8298 -31.7928 -31.7689 -31.7688 -31.7583 -31.7297 -31.7297 -31.7104
   -31.6799 -31.6491 -31.3815 -31.3109 -31.1984 -31.1917 -31.1732 -31.1461
   -16.6381 -16.6375 -16.2238 -16.2200 -16.0678 -16.0661 -16.0557 -16.0556
   -15.9296 -15.9209 -15.7372 -15.7324 -15.6226 -15.6143 -15.5084 -15.5062
   -15.4967 -15.4936 -15.4220 -15.4096 -15.1087 -15.1043 -15.0011 -14.9864
   -14.9438 -14.9383 -14.7797 -14.7707 -14.6087 -14.0528 -14.0527 -13.1073
    -7.7969  -3.9907  -3.9906  -3.5238  -3.5161  -3.5006  -3.5002  -3.3987
    -3.3973  -3.3468  -3.3382  -3.1745  -3.1506  -3.0992  -3.0617  -3.0522
    -3.0292  -3.0252  -3.0210  -3.0019  -2.9961  -2.9533  -2.9274  -2.8162
    -2.8132  -2.7503  -2.7089  -2.5999  -2.5223  -2.5106  -2.4547  -2.4166
    -2.4080  -2.2279  -2.2041  -2.1960  -2.1828  -2.1111  -2.1006  -2.0956
    -2.0022  -1.9774  -1.8596  -1.8490  -1.5896  -1.5806  -1.3980  -1.3862
    -1.3712  -1.3365  -1.3018  -1.2587  -1.1858  -1.1592  -1.0351  -1.0331
    -1.0260  -0.9838  -0.8832  -0.8465  -0.7918  -0.7883  -0.7038  -0.6964
    -0.6743  -0.6539  -0.5864  -0.4660  -0.4503  -0.4343  -0.3880  -0.3702
    -0.2603  -0.2318  -0.2207  -0.1785  -0.1517  -0.1261  -0.1095  -0.0567
     0.0204   0.0301   0.0405   0.0963   0.1006   0.1104   0.2041   0.3192
     0.4028   0.6933   0.7180   0.8260   0.8266   0.8582   0.9310   0.9394
     0.9680   1.2859   1.7700   2.8870   2.8874   3.0225   3.0227   3.0830
     3.0832   3.4527   3.4709   3.5808   3.5953

          k = 0.0380 0.0000 0.0000 ( 17913 PWs)   bands (ev):

   -56.8982 -56.8646 -56.0110 -56.0030 -55.9765 -55.9699 -55.8625 -55.8267
   -55.6452 -55.6100 -55.5603 -55.5398 -55.5263 -55.4408 -54.9895 -54.9542
   -33.3266 -33.1725 -33.1445 -33.0728 -32.9835 -32.9517 -32.4893 -32.4763
   -32.4055 -32.2782 -32.2517 -32.2254 -32.2102 -32.1792 -32.1734 -32.1514
   -32.1432 -32.1406 -32.1140 -32.1104 -32.1037 -32.0640 -32.0600 -32.0422
   -31.9987 -31.9904 -31.9872 -31.9669 -31.9522 -31.9015 -31.8743 -31.8731
   -31.7900 -31.7842 -31.7711 -31.7153 -31.7113 -31.6877 -31.6693 -31.6469
   -31.6232 -31.5767 -31.5193 -31.2285 -31.2114 -31.2084 -31.1776 -31.0491
   -16.9566 -16.5442 -16.4172 -16.3583 -16.2376 -16.0867 -15.9940 -15.9756
   -15.8942 -15.8764 -15.8220 -15.8058 -15.7672 -15.7458 -15.4490 -15.4429
   -15.4049 -15.3333 -15.3280 -15.3042 -15.2251 -15.0281 -15.0232 -15.0154
   -14.9168 -14.8494 -14.7848 -14.6754 -14.4483 -14.0562 -13.9486 -13.0877
    -7.8042  -4.3430  -3.9535  -3.8233  -3.7957  -3.7009  -3.6276  -3.4567
    -3.4475  -3.4135  -3.3856  -3.2306  -3.2173  -3.1913  -3.1099  -3.0947
    -3.0685  -3.0344  -3.0158  -2.9377  -2.9050  -2.8223  -2.7774  -2.7024
    -2.6073  -2.5520  -2.5295  -2.5196  -2.5131  -2.4101  -2.3725  -2.3188
    -2.1974  -2.1763  -2.1539  -2.0920  -2.0606  -2.0510  -2.0432  -1.9743
    -1.9520  -1.9418  -1.7983  -1.7538  -1.7110  -1.6450  -1.5798  -1.5394
    -1.4545  -1.3997  -1.3592  -1.3358  -1.2889  -1.2396  -1.2186  -1.1816
    -1.1222  -1.0372  -0.9463  -0.8776  -0.8720  -0.8361  -0.7727  -0.7138
    -0.6785  -0.6737  -0.6385  -0.5711  -0.4240  -0.3686  -0.3412  -0.3201
    -0.2901  -0.2385  -0.1431  -0.1154  -0.0893  -0.0855  -0.0627   0.0259
     0.0943   0.1457   0.1892   0.2772   0.3128   0.3685   0.4724   0.4772
     0.4973   0.5774   0.6225   0.6545   0.6751   0.7340   0.9104   0.9639
     1.2216   1.3668   1.8843   2.5211   2.5537   2.8349   2.9964   3.1089
     3.3620   3.3819   3.4480   3.4527   3.6023

          k = 0.0380 0.0419 0.0000 ( 17878 PWs)   bands (ev):

   -56.8933 -56.8696 -56.0060 -55.9981 -55.9815 -55.9747 -55.8574 -55.8318
   -55.6401 -55.6150 -55.5552 -55.5382 -55.5313 -55.4423 -54.9843 -54.9593
   -33.2732 -33.1682 -33.1484 -33.0598 -33.0080 -32.9968 -32.4365 -32.4238
   -32.3501 -32.2662 -32.2457 -32.2138 -32.2132 -32.1950 -32.1804 -32.1644
   -32.1533 -32.1523 -32.1519 -32.1308 -32.0672 -32.0643 -32.0555 -32.0490
   -32.0434 -31.9834 -31.9657 -31.9554 -31.8996 -31.8972 -31.8772 -31.8612
   -31.7975 -31.7844 -31.7704 -31.7589 -31.7130 -31.7000 -31.6827 -31.6711
   -31.6475 -31.6335 -31.4701 -31.2466 -31.2073 -31.2019 -31.1832 -31.0892
   -16.8415 -16.4269 -16.3995 -16.2798 -16.1694 -16.1631 -16.0113 -15.9826
   -15.9066 -15.7967 -15.7678 -15.7471 -15.7266 -15.7219 -15.6045 -15.4480
   -15.4010 -15.3761 -15.3627 -15.2958 -15.1647 -15.1411 -15.1041 -15.0597
   -14.8984 -14.8816 -14.7974 -14.6984 -14.5189 -14.0642 -13.9902 -13.0973
    -7.8004  -4.1653  -3.7813  -3.6788  -3.6285  -3.5507  -3.5264  -3.3284
    -3.3159  -3.2846  -3.2498  -3.2187  -3.1983  -3.1268  -3.0860  -3.0775
    -3.0353  -2.9781  -2.9613  -2.9506  -2.8958  -2.8647  -2.8438  -2.7893
    -2.7689  -2.7127  -2.6280  -2.5949  -2.5504  -2.4666  -2.4402  -2.4053
    -2.3608  -2.2793  -2.2699  -2.1745  -2.1252  -2.0960  -1.9543  -1.9219
    -1.8419  -1.7961  -1.7776  -1.7366  -1.6927  -1.6028  -1.5658  -1.5082
    -1.4787  -1.4077  -1.3693  -1.3402  -1.3343  -1.1985  -1.1793  -1.0980
    -1.0659  -1.0489  -0.9726  -0.9386  -0.8500  -0.8096  -0.7923  -0.7645
    -0.7337  -0.6903  -0.6480  -0.6301  -0.5791  -0.4994  -0.4377  -0.4012
    -0.3735  -0.2987  -0.2347  -0.2045  -0.1486  -0.1113  -0.0411  -0.0343
     0.0199   0.0788   0.0981   0.1244   0.1789   0.2936   0.3812   0.4407
     0.5778   0.6163   0.6594   0.7091   0.7433   0.8297   0.8838   0.9426
     1.1532   1.3398   1.8702   2.6369   2.7954   2.8868   3.0441   3.2304
     3.3131   3.3660   3.4548   3.5092   3.6317

          k = 0.0380-0.0839 0.0000 ( 17916 PWs)   bands (ev):

   -56.8816 -56.8813 -55.9959 -55.9918 -55.9864 -55.9863 -55.8477 -55.8416
   -55.6303 -55.6249 -55.5434 -55.5433 -55.5367 -55.4439 -54.9727 -54.9710
   -33.1585 -33.1582 -33.1423 -33.1421 -33.0287 -33.0284 -32.3108 -32.3082
   -32.2978 -32.2926 -32.2422 -32.2408 -32.2277 -32.2274 -32.1978 -32.1936
   -32.1848 -32.1804 -32.1586 -32.1573 -32.0995 -32.0943 -32.0480 -32.0451
   -31.9820 -31.9740 -31.9121 -31.9061 -31.8873 -31.8872 -31.8713 -31.8302
   -31.8288 -31.7933 -31.7689 -31.7688 -31.7595 -31.7297 -31.7297 -31.7104
   -31.6829 -31.6491 -31.3815 -31.3108 -31.1991 -31.1924 -31.1732 -31.1460
   -16.5687 -16.5678 -16.2144 -16.2114 -16.1458 -16.1438 -16.0363 -16.0351
   -15.9025 -15.8943 -15.7180 -15.7123 -15.6087 -15.6032 -15.5041 -15.4924
   -15.4731 -15.4598 -15.4432 -15.4351 -15.1868 -15.1826 -15.0945 -15.0785
   -14.9140 -14.9071 -14.7733 -14.7615 -14.6064 -14.0526 -14.0525 -13.1066
    -7.7966  -3.7795  -3.7782  -3.4238  -3.4219  -3.4091  -3.4085  -3.3611
    -3.3564  -3.2719  -3.2629  -3.0790  -3.0713  -3.0684  -3.0098  -3.0031
    -2.9982  -2.9650  -2.9520  -2.9438  -2.9325  -2.8796  -2.8338  -2.7816
    -2.7215  -2.6813  -2.6735  -2.5634  -2.4706  -2.4676  -2.4290  -2.4113
    -2.3738  -2.3366  -2.3274  -2.2230  -2.2160  -2.1530  -2.1232  -2.0818
    -1.9574  -1.9426  -1.8643  -1.8534  -1.6681  -1.6586  -1.6025  -1.5918
    -1.4563  -1.4309  -1.3961  -1.3699  -1.2840  -1.2701  -1.1736  -1.1651
    -1.0851  -1.0688  -0.9685  -0.9549  -0.9062  -0.8983  -0.8725  -0.8159
    -0.7527  -0.6862  -0.6147  -0.5489  -0.5018  -0.4843  -0.4399  -0.4261
    -0.3968  -0.3838  -0.3222  -0.2930  -0.2486  -0.2291  -0.1733  -0.1215
    -0.0507  -0.0480   0.0988   0.1851   0.1994   0.2270   0.3757   0.4617
     0.5142   0.6966   0.7200   0.8352   0.8360   0.8746   0.8924   0.9338
     0.9443   1.3119   1.8412   2.8908   2.8923   3.0532   3.0551   3.2517
     3.2523   3.4238   3.4398   3.5789   3.5922

          k = 0.0380-0.0419 0.0000 ( 17876 PWs)   bands (ev):

   -56.8933 -56.8696 -56.0060 -55.9981 -55.9815 -55.9747 -55.8574 -55.8318
   -55.6401 -55.6150 -55.5552 -55.5382 -55.5313 -55.4423 -54.9843 -54.9593
   -33.2732 -33.1682 -33.1484 -33.0598 -33.0080 -32.9967 -32.4365 -32.4238
   -32.3501 -32.2662 -32.2457 -32.2139 -32.2132 -32.1950 -32.1803 -32.1643
   -32.1534 -32.1528 -32.1515 -32.1308 -32.0672 -32.0642 -32.0554 -32.0490
   -32.0434 -31.9834 -31.9657 -31.9554 -31.8996 -31.8972 -31.8772 -31.8612
   -31.7975 -31.7844 -31.7704 -31.7589 -31.7130 -31.7000 -31.6829 -31.6709
   -31.6475 -31.6335 -31.4701 -31.2466 -31.2074 -31.2017 -31.1833 -31.0893
   -16.8413 -16.4269 -16.4003 -16.2798 -16.1689 -16.1632 -16.0109 -15.9828
   -15.9067 -15.7967 -15.7677 -15.7469 -15.7271 -15.7221 -15.6039 -15.4480
   -15.4006 -15.3765 -15.3615 -15.2962 -15.1640 -15.1447 -15.1034 -15.0580
   -14.8986 -14.8818 -14.7975 -14.6984 -14.5188 -14.0642 -13.9903 -13.0973
    -7.8004  -4.1647  -3.7800  -3.6805  -3.6295  -3.5493  -3.5264  -3.3280
    -3.3163  -3.2861  -3.2481  -3.2184  -3.1973  -3.1267  -3.1011  -3.0767
    -3.0272  -2.9759  -2.9647  -2.9510  -2.8979  -2.8616  -2.8430  -2.7841
    -2.7655  -2.7169  -2.6281  -2.5929  -2.5477  -2.4681  -2.4402  -2.4128
    -2.3565  -2.2814  -2.2712  -2.1706  -2.1221  -2.0919  -1.9604  -1.9245
    -1.8431  -1.8037  -1.7827  -1.7358  -1.6955  -1.5968  -1.5674  -1.5060
    -1.4726  -1.4082  -1.3670  -1.3408  -1.3341  -1.1965  -1.1822  -1.1027
    -1.0588  -1.0407  -0.9788  -0.9397  -0.8636  -0.8161  -0.7834  -0.7522
    -0.7176  -0.6869  -0.6426  -0.6273  -0.5826  -0.4986  -0.4366  -0.4142
    -0.3751  -0.3217  -0.2176  -0.1896  -0.1553  -0.1125  -0.0599  -0.0361
     0.0264   0.0763   0.0972   0.1337   0.1658   0.2885   0.3839   0.4450
     0.5870   0.6083   0.6601   0.7087   0.7451   0.8304   0.8835   0.9432
     1.1525   1.3398   1.8700   2.6375   2.7956   2.8868   3.0430   3.2301
     3.3140   3.3655   3.4495   3.5086   3.6301

          k =-0.0760-0.0000 0.0000 ( 17886 PWs)   bands (ev):

   -56.8982 -56.8646 -56.0102 -56.0037 -55.9765 -55.9699 -55.8625 -55.8267
   -55.6451 -55.6100 -55.5602 -55.5398 -55.5263 -55.4408 -54.9895 -54.9542
   -33.3273 -33.1724 -33.1443 -33.0708 -32.9837 -32.9517 -32.4933 -32.4767
   -32.4056 -32.2517 -32.2426 -32.2257 -32.2101 -32.2094 -32.1714 -32.1542
   -32.1432 -32.1405 -32.1113 -32.1101 -32.1075 -32.0739 -32.0560 -32.0426
   -31.9986 -31.9904 -31.9729 -31.9668 -31.9519 -31.9038 -31.8720 -31.8716
   -31.7971 -31.7847 -31.7710 -31.7151 -31.7113 -31.6876 -31.6701 -31.6467
   -31.6232 -31.5768 -31.5189 -31.2283 -31.2140 -31.2083 -31.1766 -31.0491
   -16.7941 -16.5013 -16.5002 -16.3357 -16.3104 -16.0830 -16.0444 -15.8968
   -15.8960 -15.8399 -15.8294 -15.7826 -15.7584 -15.7467 -15.5196 -15.4565
   -15.4470 -15.3855 -15.3610 -15.3367 -15.2438 -15.1124 -14.9702 -14.9401
   -14.9263 -14.8607 -14.7783 -14.6752 -14.4469 -14.0536 -13.9483 -13.0862
    -7.8028  -3.9551  -3.9517  -3.9143  -3.8073  -3.5521  -3.5384  -3.4996
    -3.3843  -3.3575  -3.2349  -3.1899  -3.1571  -3.1027  -3.0990  -3.0833
    -3.0069  -2.9933  -2.9783  -2.8551  -2.7935  -2.7471  -2.6973  -2.6687
    -2.6195  -2.6058  -2.5733  -2.5269  -2.4611  -2.4361  -2.3273  -2.3226
    -2.2828  -2.2011  -2.1847  -2.1610  -2.0536  -2.0013  -1.9975  -1.9468
    -1.9105  -1.8719  -1.8309  -1.7588  -1.7247  -1.6982  -1.6543  -1.5796
    -1.5478  -1.5098  -1.4924  -1.3951  -1.2834  -1.2644  -1.1725  -1.1281
    -1.1028  -1.0836  -1.0533  -0.9748  -0.9715  -0.9446  -0.8146  -0.8049
    -0.7578  -0.7202  -0.6362  -0.5988  -0.5753  -0.5236  -0.3954  -0.3092
    -0.2892  -0.2115  -0.2061  -0.1321  -0.0918  -0.0878  -0.0309   0.0608
     0.1089   0.1550   0.2134   0.2409   0.2521   0.3356   0.3495   0.4146
     0.4902   0.5584   0.5828   0.6293   0.6760   0.7749   0.7792   0.8985
     1.0095   1.3667   1.7641   2.5115   2.6478   2.7400   2.8340   3.1959
     3.2207   3.3936   3.5114   3.5436   3.6575

          k =-0.0760 0.0419 0.0000 ( 17914 PWs)   bands (ev):

   -56.8933 -56.8696 -56.0053 -55.9988 -55.9813 -55.9749 -55.8574 -55.8318
   -55.6402 -55.6150 -55.5553 -55.5382 -55.5313 -55.4423 -54.9843 -54.9594
   -33.2740 -33.1683 -33.1485 -33.0584 -33.0082 -32.9967 -32.4408 -32.4246
   -32.3503 -32.2463 -32.2312 -32.2153 -32.2134 -32.2132 -32.1751 -32.1671
   -32.1612 -32.1568 -32.1528 -32.1308 -32.0675 -32.0632 -32.0555 -32.0506
   -32.0482 -31.9835 -31.9657 -31.9444 -31.8995 -31.8993 -31.8766 -31.8592
   -31.7976 -31.7903 -31.7707 -31.7590 -31.7130 -31.7001 -31.6834 -31.6718
   -31.6475 -31.6336 -31.4699 -31.2466 -31.2094 -31.2021 -31.1827 -31.0893
   -16.6806 -16.4554 -16.4183 -16.2605 -16.2480 -16.1588 -15.9971 -15.9595
   -15.9050 -15.7921 -15.7491 -15.7457 -15.7248 -15.6593 -15.6147 -15.5066
   -15.4201 -15.4011 -15.3352 -15.3231 -15.2759 -15.1601 -15.1164 -15.0835
   -14.8972 -14.8715 -14.7878 -14.6990 -14.5181 -14.0624 -13.9905 -13.0962
    -7.7996  -3.7504  -3.7453  -3.6717  -3.6484  -3.4278  -3.4175  -3.3209
    -3.2984  -3.2428  -3.2222  -3.1165  -3.0797  -3.0732  -3.0442  -2.9729
    -2.9557  -2.9351  -2.9178  -2.9151  -2.8486  -2.8420  -2.8182  -2.7738
    -2.7352  -2.6563  -2.5455  -2.5328  -2.4812  -2.4634  -2.4163  -2.3732
    -2.3140  -2.2805  -2.2580  -2.1975  -2.0895  -2.0356  -2.0218  -1.9211
    -1.8885  -1.8833  -1.8601  -1.7731  -1.6981  -1.6573  -1.6129  -1.5760
    -1.5330  -1.4883  -1.4696  -1.4151  -1.3694  -1.3064  -1.2487  -1.2155
    -1.1726  -1.1148  -1.0708  -1.0412  -0.9739  -0.9349  -0.8603  -0.8390
    -0.7881  -0.7507  -0.7295  -0.7170  -0.6757  -0.6040  -0.5713  -0.4733
    -0.4706  -0.4396  -0.3434  -0.2768  -0.2199  -0.1012  -0.0920   0.0076
     0.0254   0.0706   0.0972   0.2354   0.2904   0.3882   0.4258   0.5199
     0.5567   0.5868   0.6493   0.7532   0.7546   0.8166   0.8194   0.9295
     1.0311   1.3586   1.8528   2.6493   2.8224   2.8357   2.9342   3.3371
     3.3877   3.3911   3.4360   3.5526   3.6533

          k =-0.0760-0.0839 0.0000 ( 17948 PWs)   bands (ev):

   -56.8817 -56.8813 -55.9956 -55.9911 -55.9870 -55.9867 -55.8477 -55.8416
   -55.6303 -55.6249 -55.5434 -55.5433 -55.5367 -55.4439 -54.9728 -54.9710
   -33.1586 -33.1583 -33.1429 -33.1427 -33.0279 -33.0276 -32.3150 -32.3125
   -32.2999 -32.2945 -32.2423 -32.2408 -32.1980 -32.1979 -32.1970 -32.1936
   -32.1854 -32.1829 -32.1818 -32.1799 -32.0996 -32.0944 -32.0483 -32.0444
   -31.9821 -31.9742 -31.9128 -31.9068 -31.8879 -31.8878 -31.8676 -31.8291
   -31.8277 -31.7937 -31.7689 -31.7688 -31.7607 -31.7298 -31.7297 -31.7104
   -31.6859 -31.6491 -31.3815 -31.3108 -31.1997 -31.1931 -31.1733 -31.1460
   -16.4085 -16.4065 -16.3748 -16.3745 -16.1036 -16.1000 -16.0512 -16.0491
   -15.8775 -15.8696 -15.6648 -15.6556 -15.6495 -15.6457 -15.5181 -15.5109
   -15.4479 -15.4346 -15.3500 -15.3366 -15.2787 -15.2723 -15.2373 -15.2134
   -14.8985 -14.8906 -14.7694 -14.7552 -14.6045 -14.0525 -14.0524 -13.1060
    -7.7964  -3.5076  -3.5068  -3.4406  -3.4397  -3.3153  -3.3085  -3.2391
    -3.2384  -3.1327  -3.1289  -3.0712  -3.0033  -2.9913  -2.9880  -2.9770
    -2.9682  -2.8360  -2.8333  -2.8203  -2.8054  -2.7536  -2.7511  -2.7362
    -2.6571  -2.6415  -2.6101  -2.5660  -2.4660  -2.4494  -2.4335  -2.4065
    -2.3483  -2.3365  -2.3226  -2.2771  -2.2574  -2.1550  -2.1080  -2.0628
    -1.9437  -1.9410  -1.9317  -1.9147  -1.7668  -1.7288  -1.6987  -1.6914
    -1.6833  -1.6340  -1.5414  -1.5333  -1.3990  -1.3943  -1.3226  -1.2399
    -1.2206  -1.1919  -1.0598  -1.0123  -0.9803  -0.9732  -0.9541  -0.9248
    -0.8969  -0.8694  -0.7246  -0.7047  -0.6819  -0.6441  -0.6313  -0.5775
    -0.5276  -0.4477  -0.3679  -0.3669  -0.2847  -0.2436  -0.1790  -0.0964
    -0.0844  -0.0784   0.2018   0.2802   0.3721   0.4563   0.5197   0.5821
     0.6066   0.6723   0.7040   0.8420   0.8453   0.8619   0.8621   0.9288
     0.9333   1.3322   1.9187   2.9506   2.9509   3.0183   3.0187   3.3423
     3.3478   3.4573   3.4667   3.5818   3.5844

     the Fermi energy is     2.2118 ev

!    total energy              =   -2919.13282453 Ry
     estimated scf accuracy    <       0.00000002 Ry
     smearing contrib. (-TS)   =      -0.00466201 Ry
     internal energy E=F+TS    =   -2919.12816253 Ry

     The total energy is F=E-TS. E is the sum of the following terms:
     one-electron contribution =  -24579.09336696 Ry
     hartree contribution      =   12373.73012344 Ry
     xc contribution           =    -479.89948476 Ry
     ewald contribution        =    9766.13444705 Ry
     electric field correction =       0.00011871 Ry

     convergence has been achieved in  69 iterations

     Forces acting on atoms (cartesian axes, Ry/au):

     atom    1 type  1   force =    -0.00003437   -0.00045283    0.12459816
     atom    2 type  1   force =    -0.00012380   -0.00052379   -0.16053117
     atom    3 type  2   force =     0.00016002   -0.00014037   -0.06863404
     atom    4 type  2   force =    -0.00004121   -0.00017537    0.02746979
     atom    5 type  2   force =    -0.01662625    0.00229298   -0.00876426
     atom    6 type  2   force =     0.01808443    0.00295748   -0.00971571
     atom    7 type  1   force =     0.00058070   -0.00360838    0.02214902
     atom    8 type  1   force =    -0.00014728   -0.00293267    0.11210144
     atom    9 type  2   force =     0.00048156   -0.00001538   -0.00025243
     atom   10 type  2   force =    -0.00265602    0.00368218   -0.07360665
     atom   11 type  2   force =     0.00129449   -0.00056230   -0.00040759
     atom   12 type  2   force =    -0.00057899   -0.00100857   -0.00076532
     atom   13 type  1   force =     0.00028038   -0.00067342    0.00047640
     atom   14 type  1   force =    -0.00081596   -0.00057157    0.00001014
     atom   15 type  2   force =    -0.00028374   -0.00138881   -0.00032121
     atom   16 type  2   force =     0.00028588    0.00008170   -0.00051383
     atom   17 type  2   force =    -0.00043589   -0.00032071   -0.00044039
     atom   18 type  2   force =     0.00021135   -0.00050959   -0.00075629
     atom   19 type  1   force =     0.00061203   -0.00123262   -0.00017633
     atom   20 type  1   force =    -0.00022297   -0.00039157   -0.00093984
     atom   21 type  2   force =     0.00006120   -0.00006244    0.09972748
     atom   22 type  2   force =     0.00007693   -0.00253899    0.00052448
     atom   23 type  2   force =    -0.07924381   -0.00009218   -0.03247250
     atom   24 type  2   force =     0.07911856    0.00035668   -0.03249234
     atom   25 type  1   force =     0.00002089   -0.00047529    0.12407790
     atom   26 type  1   force =    -0.00015028   -0.00045638   -0.16061557
     atom   27 type  2   force =     0.00029271   -0.00031919   -0.06764681
     atom   28 type  2   force =    -0.00002432   -0.00001429    0.02723419
     atom   29 type  2   force =    -0.01708953    0.00187167   -0.00887309
     atom   30 type  2   force =     0.01842768    0.00225445   -0.00976956
     atom   31 type  1   force =     0.00059996   -0.00091855    0.02169693
     atom   32 type  1   force =    -0.00010160    0.00054122    0.11254541
     atom   33 type  2   force =     0.00026444   -0.00064740   -0.00043897
     atom   34 type  2   force =    -0.00273250    0.00316200   -0.07272443
     atom   35 type  2   force =    -0.00109722    0.00020388    0.00016898
     atom   36 type  2   force =     0.00083125    0.00003758    0.00029251
     atom   37 type  1   force =    -0.00006860   -0.00007284   -0.00010109
     atom   38 type  1   force =     0.00088725   -0.00027747   -0.00018892
     atom   39 type  2   force =    -0.00009221   -0.00005487    0.00039184
     atom   40 type  2   force =     0.00007882   -0.00008228   -0.00008464
     atom   41 type  2   force =     0.00088571   -0.00060445    0.00014617
     atom   42 type  2   force =    -0.00066381   -0.00029694   -0.00034460
     atom   43 type  1   force =     0.00014828    0.00147489    0.00060253
     atom   44 type  1   force =    -0.00046647   -0.00109631    0.00128408
     atom   45 type  2   force =     0.00004491   -0.00006632    0.09974997
     atom   46 type  2   force =    -0.07924957   -0.00004874   -0.03246202
     atom   47 type  2   force =     0.07912651    0.00039494   -0.03247977
     atom   48 type  3   force =     0.00063515    0.00516896    0.00014910
     atom   49 type  4   force =    -0.00015019   -0.00143237    0.00037434
     atom   50 type  5   force =     0.00000422    0.00010721   -0.00080419
     atom   51 type  5   force =     0.00035453   -0.00029042    0.00120917
     atom   52 type  5   force =    -0.00075323   -0.00023218    0.00034350

     Total force =     0.425555     Total SCF correction =     0.000481
  @ DRIVER MODE: Message from server: STATUS
  @ DRIVER MODE: Message from server: GETFORCE
  @ DRIVER MODE: Returning v,forces,stress,ensemble 

     Writing output data file ./calc.save/
  @ DRIVER MODE: Message from server: EXIT
  @ DRIVE MODE: Exiting  
 
     init_run     :      7.34s CPU      7.48s WALL (       1 calls)
     electrons    :    748.85s CPU    763.65s WALL (       1 calls)
     forces       :      6.28s CPU      6.33s WALL (       1 calls)

     Called by init_run:
     wfcinit      :      3.36s CPU      3.41s WALL (       1 calls)
     potinit      :      3.51s CPU      3.55s WALL (       1 calls)
     hinit0       :      0.21s CPU      0.22s WALL (       1 calls)

     Called by electrons:
     c_bands      :    608.95s CPU    613.21s WALL (      69 calls)
     sum_band     :     98.38s CPU    104.63s WALL (      69 calls)
     v_of_rho     :     27.69s CPU     28.29s WALL (      70 calls)
     newd         :     10.52s CPU     12.90s WALL (      70 calls)
     mix_rho      :      5.85s CPU      7.12s WALL (      69 calls)
     vdW_kernel   :      3.04s CPU      3.04s WALL (       1 calls)

     Called by c_bands:
     init_us_2    :      4.16s CPU      4.18s WALL (    1400 calls)
     cegterg      :    596.24s CPU    600.18s WALL (     695 calls)

     Called by *egterg:
     cdiaghg      :    117.08s CPU    117.63s WALL (    5622 calls)
     h_psi        :    305.50s CPU    307.98s WALL (    5632 calls)
     s_psi        :     38.97s CPU     39.11s WALL (    5632 calls)
     g_psi        :      0.89s CPU      0.90s WALL (    4927 calls)

     Called by h_psi:
     h_psi:calbec :     40.29s CPU     40.51s WALL (    5632 calls)
     vloc_psi     :    223.92s CPU    226.04s WALL (    5632 calls)
     add_vuspsi   :     39.65s CPU     39.78s WALL (    5632 calls)

     General routines
     calbec       :     60.16s CPU     60.57s WALL (    6362 calls)
     fft          :     15.64s CPU     15.75s WALL (    4410 calls)
     ffts         :      0.15s CPU      0.16s WALL (     139 calls)
     fftw         :    277.99s CPU    284.58s WALL (  843292 calls)
     interpolate  :      0.33s CPU      0.35s WALL (      70 calls)
     davcio       :      0.00s CPU      0.11s WALL (      10 calls)
 
     Parallel routines
 
     PWSCF        :  12m43.41s CPU  12m58.61s WALL

 
   This run was terminated on:  12:53:20   2Aug2021            

=------------------------------------------------------------------------------=
   JOB DONE.
=------------------------------------------------------------------------------=
