
     Program PWSCF v.6.7GPU starts on  8Sep2021 at 23:10:36 

     This program is part of the open-source Quantum ESPRESSO suite
     for quantum simulation of materials; please cite
         "P. Giannozzi et al., J. Phys.:Condens. Matter 21 395502 (2009);
         "P. Giannozzi et al., J. Phys.:Condens. Matter 29 465901 (2017);
         "P. Giannozzi et al., J. Chem. Phys. 152 154105 (2020);
          URL http://www.quantum-espresso.org", 
     in publications or presentations arising from this work. More details at
     http://www.quantum-espresso.org/quote

     Parallel version (MPI), running on    10 processors

     MPI processes distributed on     1 nodes
     R & G space division:  proc/nbgrp/npool/nimage =      10
     Reading input from /storage/home/hcoda1/3/ntian30/research/carbon/CxH_vib/CH3_calc/ads_slab/CH3N2_c/out_0004/pw.inp
Warning: card &CELL ignored
Warning: card   CELL_DYNAMICS='IPI', ignored
Warning: card / ignored

     Current dimensions of program PWSCF are:
     Max number of different atomic species (ntypx) = 10
     Max number of k-points (npk) =  40000
     Max angular momentum in pseudopotentials (lmaxx) =  3
     Presently no symmetry can be used with electric field

     Message from routine cell_base_init:
     DEPRECATED: use true lattice parameter, not A to a.u. conversion factor

     **************************************************************************
     Initializing libbeef V0.1.2 with the BEEF-vdW functional.
     Citation: Wellendorff et al., PRB 85, 235149 (2012).
     **************************************************************************


     IMPORTANT: XC functional enforced from input :
     Exchange-correlation= BEEF-VDW
                           (   1   4  43  14   2   0   0)
     Any further DFT definition will be discarded
     Please, verify this is what you really want


     Subspace diagonalization in iterative solution of the eigenvalue problem:
     one sub-group per band group will be used
     scalapack distributed-memory algorithm (size of sub-group:  3*  3 procs)

  @ DRIVER MODE: Connecting to 
 qe_1139763_2767397.sched-torque.pace.gatech.edu68kequv4_scratch
  using UNIX socket
  @ DRIVER MODE: Message from server: STATUS
  @ DRIVER MODE: Message from server: INIT
  @ DRIVER MODE: Receiving replica           0          -1
  @ DRIVER MODE: Receiving encoded integer          25
  @ DRIVER MODE:  SCF:  T  FORCE:  T  STRESS:  F  VC:  F  ENSEMBLE:  F
  @ DRIVER MODE:  SCF:  T  FORCE:  T  STRESS:  F  VC:  F  ENSEMBLE:  F
 
     Parallelization info
     --------------------
     sticks:   dense  smooth     PW     G-vecs:    dense   smooth      PW
     Min         327     131     37                56683    14340    2191
     Max         328     133     38                56694    14346    2206
     Sum        3275    1317    379               566857   143421   21985
 
     Using Slab Decomposition
 


     bravais-lattice index     =            0
     lattice parameter (alat)  =       1.8897  a.u.
     unit-cell volume          =    6658.9804 (a.u.)^3
     number of atoms/cell      =           53
     number of atomic types    =            5
     number of electrons       =       395.00
     number of Kohn-Sham states=          207
     kinetic-energy cutoff     =      29.3995  Ry
     charge density cutoff     =     293.9946  Ry
     scf convergence threshold =      7.3E-08
     mixing beta               =       0.0500
     number of iterations used =            8  plain     mixing
     Exchange-correlation= BEEF-VDW
                           (   1   4  43  14   2   0   0)

     celldm(1)=   1.889726  celldm(2)=   0.000000  celldm(3)=   0.000000
     celldm(4)=   0.000000  celldm(5)=   0.000000  celldm(6)=   0.000000

     crystal axes: (cart. coord. in units of alat)
               a(1) = (   6.579727   0.000000   0.000000 )  
               a(2) = (  -0.000775   5.961596   0.000000 )  
               a(3) = (   0.000000   0.000000  25.155947 )  

     reciprocal axes: (cart. coord. in units 2 pi/alat)
               b(1) = (  0.151982  0.000020  0.000000 )  
               b(2) = (  0.000000  0.167740  0.000000 )  
               b(3) = (  0.000000  0.000000  0.039752 )  


     PseudoPot. # 1 for Ti read from file:
     /storage/coda1/p-amedford6/0/shared/rich_project_chbe-medford/medford-share/data/pseudos_module/espresso/nninc/pbe/van/Ti.UPF
     MD5 check sum: 8e4df49b7f0d34bbd5052bf3f5ea0213
     Pseudo is Ultrasoft, Zval = 12.0
     Generated by new atomic code, or converted to UPF format
     Using radial grid of  851 points,  6 beta functions with: 
                l(1) =   0
                l(2) =   0
                l(3) =   1
                l(4) =   1
                l(5) =   2
                l(6) =   2
     Q(r) pseudized with  8 coefficients,  rinner =    1.000   1.000   1.000
                                                       1.000   1.000

     PseudoPot. # 2 for O  read from file:
     /storage/coda1/p-amedford6/0/shared/rich_project_chbe-medford/medford-share/data/pseudos_module/espresso/nninc/pbe/van/O.UPF
     MD5 check sum: 78c19812648e8988a0fe644b0f25305e
     Pseudo is Ultrasoft, Zval =  6.0
     Generated by new atomic code, or converted to UPF format
     Using radial grid of  737 points,  4 beta functions with: 
                l(1) =   0
                l(2) =   0
                l(3) =   1
                l(4) =   1
     Q(r) pseudized with  8 coefficients,  rinner =    0.800   0.800   0.800


     PseudoPot. # 3 for N  read from file:
     /storage/coda1/p-amedford6/0/shared/rich_project_chbe-medford/medford-share/data/pseudos_module/espresso/nninc/pbe/van/N.UPF
     MD5 check sum: 90d10febe142ad51ac9d5be1deb811c4
     Pseudo is Ultrasoft, Zval =  5.0
     Generated by new atomic code, or converted to UPF format
     Using radial grid of  729 points,  4 beta functions with: 
                l(1) =   0
                l(2) =   0
                l(3) =   1
                l(4) =   1
     Q(r) pseudized with  8 coefficients,  rinner =    0.800   0.800   0.800


     PseudoPot. # 4 for C  read from file:
     /storage/coda1/p-amedford6/0/shared/rich_project_chbe-medford/medford-share/data/pseudos_module/espresso/nninc/pbe/van/C.UPF
     MD5 check sum: 1a69bf6b8db32088f5b2163dbdb77a27
     Pseudo is Ultrasoft, Zval =  4.0
     Generated by new atomic code, or converted to UPF format
     Using radial grid of  721 points,  4 beta functions with: 
                l(1) =   0
                l(2) =   0
                l(3) =   1
                l(4) =   1
     Q(r) pseudized with  8 coefficients,  rinner =    0.800   0.800   0.800


     PseudoPot. # 5 for H  read from file:
     /storage/coda1/p-amedford6/0/shared/rich_project_chbe-medford/medford-share/data/pseudos_module/espresso/nninc/pbe/van/H.UPF
     MD5 check sum: b5ee9d7bfd3a09ee7748110bda690ff7
     Pseudo is Ultrasoft, Zval =  1.0
     Generated by new atomic code, or converted to UPF format
     Using radial grid of  615 points,  1 beta functions with: 
                l(1) =   0
     Q(r) pseudized with  8 coefficients,  rinner =    0.800

     atomic species   valence    mass     pseudopotential
        Ti1           12.00    47.86700     Ti( 1.00)
        O1             6.00    15.99900     O ( 1.00)
        N1             5.00    14.00700     N ( 1.00)
        C1             4.00    12.01100     C ( 1.00)
        H1             1.00     1.00800     H ( 1.00)

     No symmetry found



   Cartesian axes

     site n.     atom                  positions (alat units)
         1           Ti1 tau(   1) = (   0.0004258   2.9801865   6.0000000  )
         2           Ti1 tau(   2) = (   3.2906075   1.4906267   6.0002472  )
         3           O1  tau(   3) = (   0.0006271   0.0005054   7.9858123  )
         4           O1  tau(   4) = (   3.2906025   0.0005020   7.3038282  )
         5           O1  tau(   5) = (   4.5942328   1.4918067   9.2879030  )
         6           O1  tau(   6) = (   1.9868534   1.4903216   9.2879459  )
         7           Ti1 tau(   7) = (   3.2907910   2.8959150   9.1758416  )
         8           Ti1 tau(   8) = (   0.0015273   1.4827037   9.2680791  )
         9           O1  tau(   9) = (   3.2868105   5.9447858  11.3346005  )
        10           O1  tau(  10) = (   0.0116148   5.9584955  10.6183126  )
        11           O1  tau(  11) = (   1.2897616   1.4699164  12.6258314  )
        12           O1  tau(  12) = (   5.2713851   1.4716199  12.6109895  )
        13           Ti1 tau(  13) = (   0.0629619   2.9460495  12.6207869  )
        14           Ti1 tau(  14) = (   3.3778125   1.4702366  12.4807322  )
        15           O1  tau(  15) = (   6.5741670   5.9392046  14.6271830  )
        16           O1  tau(  16) = (   3.2925211   5.9405975  13.9303826  )
        17           O1  tau(  17) = (   4.5331425   1.4971777  16.0590535  )
        18           O1  tau(  18) = (   2.0416154   1.4974824  16.0477615  )
        19           Ti1 tau(  19) = (   3.2901388   2.9722967  15.7036181  )
        20           Ti1 tau(  20) = (   6.5714728   1.5019933  15.8140906  )
        21           O1  tau(  21) = (   3.2904802   0.0005063   4.7018136  )
        22           O1  tau(  22) = (   6.5775371   0.0159386  17.1814867  )
        23           O1  tau(  23) = (   1.3043587   1.4918075   6.0039043  )
        24           O1  tau(  24) = (   5.2767064   1.4903225   6.0039473  )
        25           Ti1 tau(  25) = (   0.0000382   5.9609847   6.0000000  )
        26           Ti1 tau(  26) = (   3.2902200   4.4714249   6.0002472  )
        27           O1  tau(  27) = (   0.0002396   2.9813036   7.9858123  )
        28           O1  tau(  28) = (   3.2902150   2.9813002   7.3038282  )
        29           O1  tau(  29) = (   4.5938453   4.4726049   9.2879030  )
        30           O1  tau(  30) = (   1.9864658   4.4711199   9.2879459  )
        31           Ti1 tau(  31) = (   3.2891106   5.8743827   9.1763621  )
        32           Ti1 tau(  32) = (   0.0006254   4.4649316   9.2693709  )
        33           O1  tau(  33) = (   3.2909631   2.9655588  11.3316111  )
        34           O1  tau(  34) = (   0.0092240   2.9805883  10.6323155  )
        35           O1  tau(  35) = (   1.2884032   4.4536117  12.6269208  )
        36           O1  tau(  36) = (   5.2752684   4.4605011  12.6109535  )
        37           Ti1 tau(  37) = (   0.0626277   5.9200555  12.5524633  )
        38           Ti1 tau(  38) = (   3.3797810   4.4486816  12.4846537  )
        39           O1  tau(  39) = (   6.5720240   2.9440667  14.6479771  )
        40           O1  tau(  40) = (   3.2941106   2.9728877  13.9057494  )
        41           O1  tau(  41) = (   4.5311790   4.4530262  16.1020043  )
        42           O1  tau(  42) = (   2.0427069   4.4534008  16.0946336  )
        43           Ti1 tau(  43) = (   3.2818950   5.9508925  15.7274921  )
        44           Ti1 tau(  44) = (   6.5750914   4.6476268  16.0792144  )
        45           O1  tau(  45) = (   3.2900926   2.9813045   4.7018136  )
        46           O1  tau(  46) = (   1.3039711   4.4726057   6.0039043  )
        47           O1  tau(  47) = (   5.2763189   4.4711207   6.0039473  )
        48           N1  tau(  48) = (   0.0795740   2.6714725  18.6386781  )
        49           N1  tau(  49) = (   0.0132033   2.8794178  17.4383708  )
        50           C1  tau(  50) = (   0.1510961   3.8031638  19.5808395  )
        51           H1  tau(  51) = (   6.4701351   4.7592986  19.1328852  )
        52           H1  tau(  52) = (   6.0910372   3.5604803  20.4266230  )
        53           H1  tau(  53) = (   1.1812797   3.8285794  19.9476819  )

     number of k points=    10  Fermi-Dirac smearing, width (Ry)=  0.0073
                       cart. coord. in units 2pi/alat
        k(    1) = (   0.0000000   0.0000000   0.0000000), wk =   0.1250000
        k(    2) = (   0.0000000   0.0419351   0.0000000), wk =   0.2500000
        k(    3) = (   0.0000000  -0.0838702   0.0000000), wk =   0.1250000
        k(    4) = (   0.0379955   0.0000049   0.0000000), wk =   0.2500000
        k(    5) = (   0.0379955   0.0419400   0.0000000), wk =   0.2500000
        k(    6) = (   0.0379955  -0.0838652   0.0000000), wk =   0.2500000
        k(    7) = (   0.0379955  -0.0419301   0.0000000), wk =   0.2500000
        k(    8) = (  -0.0759910  -0.0000099   0.0000000), wk =   0.1250000
        k(    9) = (  -0.0759910   0.0419252   0.0000000), wk =   0.2500000
        k(   10) = (  -0.0759910  -0.0838800   0.0000000), wk =   0.1250000

     Dense  grid:   566857 G-vectors     FFT dimensions: (  72,  64, 270)

     Smooth grid:   143421 G-vectors     FFT dimensions: (  45,  40, 180)

     Estimated max dynamical RAM per process >     363.40 MB

     Estimated total dynamical RAM >       3.55 GB
     Cannot read rho : file not found

     Initial potential from superposition of free atoms

     starting charge  378.99916, renormalised to  395.00000

     negative rho (up, down):  1.507E-02 0.000E+00


     %%%%%%%%%%%%%%%%%%%%%%%%%%%%%%%%%%%%%%%%%%%%%%%%%%%%%%%%%%%%%%%%%%%%%%%%
     %                                                                      %
     % You are using vdW-DF, which was implemented by the Thonhauser group. %
     % Please cite the following two papers that made this development      %
     % possible and the two reviews that describe the various versions:     %
     %                                                                      %
     %   T. Thonhauser et al., PRL 115, 136402 (2015).                      %
     %   T. Thonhauser et al., PRB 76, 125112 (2007).                       %
     %   K. Berland et al., Rep. Prog. Phys. 78, 066501 (2015).             %
     %   D.C. Langreth et al., J. Phys.: Condens. Matter 21, 084203 (2009). %
     %                                                                      %
     %                                                                      %
     % If you are calculating the stress with vdW-DF, please also cite:     %
     %                                                                      %
     %   R. Sabatini et al., J. Phys.: Condens. Matter 24, 424209 (2012).   %
     %                                                                      %
     %%%%%%%%%%%%%%%%%%%%%%%%%%%%%%%%%%%%%%%%%%%%%%%%%%%%%%%%%%%%%%%%%%%%%%%%


 
     Adding external electric field

     Computed dipole along edir(3) : 
        Dipole               -8.8495 Ry au,        -22.4931 Debye
        Dipole field         -0.0167 Ry au, 
 
        Potential amp.        1.5481 Ry
        Total length         46.3494 bohr
 
     Starting wfcs are  299 atomic wfcs
  @ DRIVER MODE: Message from server: STATUS
  @ DRIVER MODE: Message from server: POSDATA
  @ DRIVER MODE: Reading and sharing cell 
  @ DRIVER MODE: Reading and sharing positions 
  @ DRIVER MODE: Received positions 

     total cpu time spent up to now is       11.3 secs

     Self-consistent Calculation

     iteration #  1     ecut=    29.40 Ry     beta= 0.05
     Davidson diagonalization with overlap
     c_bands:  1 eigenvalues not converged
     c_bands:  2 eigenvalues not converged
     c_bands:  1 eigenvalues not converged
     c_bands:  2 eigenvalues not converged
     c_bands:  3 eigenvalues not converged
     c_bands:  1 eigenvalues not converged
     ethr =  1.00E-05,  avg # of iterations = 19.0

     negative rho (up, down):  1.343E-02 0.000E+00
 
     Adding external electric field

     Computed dipole along edir(3) : 
        Dipole               38.9367 Ry au,         98.9671 Debye
        Dipole field          0.0735 Ry au, 
 
        Potential amp.       -6.8114 Ry
        Total length         46.3494 bohr
 

     total cpu time spent up to now is       50.3 secs

     total energy              =   -2606.05031156 Ry
     estimated scf accuracy    <    3695.05224821 Ry

     iteration #  2     ecut=    29.40 Ry     beta= 0.05
     Davidson diagonalization with overlap
     ethr =  1.00E-02,  avg # of iterations = 22.3

     negative rho (up, down):  4.212E-03 0.000E+00
 
     Adding external electric field

     Computed dipole along edir(3) : 
        Dipole               -3.2077 Ry au,         -8.1531 Debye
        Dipole field         -0.0061 Ry au, 
 
        Potential amp.        0.5611 Ry
        Total length         46.3494 bohr
 

     total cpu time spent up to now is      120.6 secs

     total energy              =   -2444.80842342 Ry
     estimated scf accuracy    <   66577.56751911 Ry

     iteration #  3     ecut=    29.40 Ry     beta= 0.05
     Davidson diagonalization with overlap
     ethr =  1.00E-02,  avg # of iterations = 15.0

     negative rho (up, down):  4.271E-03 0.000E+00
 
     Adding external electric field

     Computed dipole along edir(3) : 
        Dipole               -4.9733 Ry au,        -12.6409 Debye
        Dipole field         -0.0094 Ry au, 
 
        Potential amp.        0.8700 Ry
        Total length         46.3494 bohr
 

     total cpu time spent up to now is      165.2 secs

     total energy              =   -2917.18274137 Ry
     estimated scf accuracy    <    3936.24091198 Ry

     iteration #  4     ecut=    29.40 Ry     beta= 0.05
     Davidson diagonalization with overlap
     c_bands:  4 eigenvalues not converged
     c_bands:  2 eigenvalues not converged
     c_bands:  4 eigenvalues not converged
     c_bands:  2 eigenvalues not converged
     ethr =  1.00E-02,  avg # of iterations = 16.3

     negative rho (up, down):  4.307E-03 0.000E+00
 
     Adding external electric field

     Computed dipole along edir(3) : 
        Dipole               -5.9942 Ry au,        -15.2357 Debye
        Dipole field         -0.0113 Ry au, 
 
        Potential amp.        1.0486 Ry
        Total length         46.3494 bohr
 

     total cpu time spent up to now is      185.4 secs

     total energy              =   -2932.66345539 Ry
     estimated scf accuracy    <     549.48615820 Ry

     iteration #  5     ecut=    29.40 Ry     beta= 0.05
     Davidson diagonalization with overlap
     ethr =  1.00E-02,  avg # of iterations =  6.0

     negative rho (up, down):  4.315E-03 0.000E+00
 
     Adding external electric field

     Computed dipole along edir(3) : 
        Dipole               -6.6148 Ry au,        -16.8132 Debye
        Dipole field         -0.0125 Ry au, 
 
        Potential amp.        1.1572 Ry
        Total length         46.3494 bohr
 

     total cpu time spent up to now is      197.2 secs

     total energy              =   -2932.87089129 Ry
     estimated scf accuracy    <     265.00359839 Ry

     iteration #  6     ecut=    29.40 Ry     beta= 0.05
     Davidson diagonalization with overlap
     ethr =  1.00E-02,  avg # of iterations =  7.6

     negative rho (up, down):  4.312E-03 0.000E+00
 
     Adding external electric field

     Computed dipole along edir(3) : 
        Dipole               -6.1790 Ry au,        -15.7055 Debye
        Dipole field         -0.0117 Ry au, 
 
        Potential amp.        1.0809 Ry
        Total length         46.3494 bohr
 

     total cpu time spent up to now is      210.6 secs

     total energy              =   -2939.32480458 Ry
     estimated scf accuracy    <      45.04585837 Ry

     iteration #  7     ecut=    29.40 Ry     beta= 0.05
     Davidson diagonalization with overlap
     ethr =  1.00E-02,  avg # of iterations =  2.4

     negative rho (up, down):  4.303E-03 0.000E+00
 
     Adding external electric field

     Computed dipole along edir(3) : 
        Dipole               -5.3789 Ry au,        -13.6719 Debye
        Dipole field         -0.0102 Ry au, 
 
        Potential amp.        0.9410 Ry
        Total length         46.3494 bohr
 

     total cpu time spent up to now is      220.8 secs

     total energy              =   -2940.05259738 Ry
     estimated scf accuracy    <      24.22990985 Ry

     iteration #  8     ecut=    29.40 Ry     beta= 0.05
     Davidson diagonalization with overlap
     ethr =  6.13E-03,  avg # of iterations =  2.9

     negative rho (up, down):  4.288E-03 0.000E+00
 
     Adding external electric field

     Computed dipole along edir(3) : 
        Dipole               -4.6418 Ry au,        -11.7983 Debye
        Dipole field         -0.0088 Ry au, 
 
        Potential amp.        0.8120 Ry
        Total length         46.3494 bohr
 

     total cpu time spent up to now is      231.2 secs

     total energy              =   -2940.58982278 Ry
     estimated scf accuracy    <      15.21695650 Ry

     iteration #  9     ecut=    29.40 Ry     beta= 0.05
     Davidson diagonalization with overlap
     ethr =  3.85E-03,  avg # of iterations =  1.9

     negative rho (up, down):  4.563E-03 0.000E+00
 
     Adding external electric field

     Computed dipole along edir(3) : 
        Dipole                3.1383 Ry au,          7.9768 Debye
        Dipole field          0.0059 Ry au, 
 
        Potential amp.       -0.5490 Ry
        Total length         46.3494 bohr
 

     total cpu time spent up to now is      241.3 secs

     total energy              =   -2941.27938552 Ry
     estimated scf accuracy    <      14.04746074 Ry

     iteration # 10     ecut=    29.40 Ry     beta= 0.05
     Davidson diagonalization with overlap
     ethr =  3.56E-03,  avg # of iterations = 17.0

     negative rho (up, down):  4.794E-03 0.000E+00
 
     Adding external electric field

     Computed dipole along edir(3) : 
        Dipole                4.3757 Ry au,         11.1219 Debye
        Dipole field          0.0083 Ry au, 
 
        Potential amp.       -0.7655 Ry
        Total length         46.3494 bohr
 

     total cpu time spent up to now is      264.0 secs

     total energy              =   -2988.13850920 Ry
     estimated scf accuracy    <    2838.10614860 Ry

     iteration # 11     ecut=    29.40 Ry     beta= 0.05
     Davidson diagonalization with overlap
     ethr =  3.56E-03,  avg # of iterations =  1.3

     negative rho (up, down):  4.782E-03 0.000E+00
 
     Adding external electric field

     Computed dipole along edir(3) : 
        Dipole                2.3404 Ry au,          5.9486 Debye
        Dipole field          0.0044 Ry au, 
 
        Potential amp.       -0.4094 Ry
        Total length         46.3494 bohr
 

     total cpu time spent up to now is      273.9 secs

     total energy              =   -2964.59985046 Ry
     estimated scf accuracy    <    3002.17225574 Ry

     iteration # 12     ecut=    29.40 Ry     beta= 0.05
     Davidson diagonalization with overlap
     ethr =  3.56E-03,  avg # of iterations =  2.0

     negative rho (up, down):  4.861E-03 0.000E+00
 
     Adding external electric field

     Computed dipole along edir(3) : 
        Dipole                2.7343 Ry au,          6.9498 Debye
        Dipole field          0.0052 Ry au, 
 
        Potential amp.       -0.4783 Ry
        Total length         46.3494 bohr
 

     total cpu time spent up to now is      284.4 secs

     total energy              =   -2969.17527115 Ry
     estimated scf accuracy    <    2370.86407344 Ry

     iteration # 13     ecut=    29.40 Ry     beta= 0.05
     Davidson diagonalization with overlap
     ethr =  3.56E-03,  avg # of iterations =  1.0

     negative rho (up, down):  4.965E-03 0.000E+00
 
     Adding external electric field

     Computed dipole along edir(3) : 
        Dipole                2.5117 Ry au,          6.3841 Debye
        Dipole field          0.0047 Ry au, 
 
        Potential amp.       -0.4394 Ry
        Total length         46.3494 bohr
 

     total cpu time spent up to now is      294.3 secs

     total energy              =   -2964.27705390 Ry
     estimated scf accuracy    <    2426.52613685 Ry

     iteration # 14     ecut=    29.40 Ry     beta= 0.05
     Davidson diagonalization with overlap
     ethr =  3.56E-03,  avg # of iterations =  1.0

     negative rho (up, down):  5.066E-03 0.000E+00
 
     Adding external electric field

     Computed dipole along edir(3) : 
        Dipole                2.2511 Ry au,          5.7218 Debye
        Dipole field          0.0042 Ry au, 
 
        Potential amp.       -0.3938 Ry
        Total length         46.3494 bohr
 

     total cpu time spent up to now is      303.9 secs

     total energy              =   -2959.56828822 Ry
     estimated scf accuracy    <    2306.74353210 Ry

     iteration # 15     ecut=    29.40 Ry     beta= 0.05
     Davidson diagonalization with overlap
     ethr =  3.56E-03,  avg # of iterations =  1.1

     negative rho (up, down):  5.178E-03 0.000E+00
 
     Adding external electric field

     Computed dipole along edir(3) : 
        Dipole                2.0011 Ry au,          5.0863 Debye
        Dipole field          0.0038 Ry au, 
 
        Potential amp.       -0.3501 Ry
        Total length         46.3494 bohr
 

     total cpu time spent up to now is      313.7 secs

     total energy              =   -2953.41415323 Ry
     estimated scf accuracy    <    2228.97775180 Ry

     iteration # 16     ecut=    29.40 Ry     beta= 0.05
     Davidson diagonalization with overlap
     ethr =  3.56E-03,  avg # of iterations =  9.8

     negative rho (up, down):  5.171E-03 0.000E+00
 
     Adding external electric field

     Computed dipole along edir(3) : 
        Dipole                0.0643 Ry au,          0.1634 Debye
        Dipole field          0.0001 Ry au, 
 
        Potential amp.       -0.0112 Ry
        Total length         46.3494 bohr
 

     total cpu time spent up to now is      327.3 secs

     total energy              =   -2940.80591732 Ry
     estimated scf accuracy    <    1722.71536308 Ry

     iteration # 17     ecut=    29.40 Ry     beta= 0.05
     Davidson diagonalization with overlap
     c_bands:  3 eigenvalues not converged
     ethr =  3.56E-03,  avg # of iterations = 10.5

     negative rho (up, down):  5.208E-03 0.000E+00
 
     Adding external electric field

     Computed dipole along edir(3) : 
        Dipole               -0.1961 Ry au,         -0.4985 Debye
        Dipole field         -0.0004 Ry au, 
 
        Potential amp.        0.0343 Ry
        Total length         46.3494 bohr
 

     total cpu time spent up to now is      340.7 secs

     total energy              =   -2940.14041152 Ry
     estimated scf accuracy    <    1268.78527578 Ry

     iteration # 18     ecut=    29.40 Ry     beta= 0.05
     Davidson diagonalization with overlap
     ethr =  3.56E-03,  avg # of iterations =  2.8

     negative rho (up, down):  5.063E-03 0.000E+00
 
     Adding external electric field

     Computed dipole along edir(3) : 
        Dipole               -4.1698 Ry au,        -10.5985 Debye
        Dipole field         -0.0079 Ry au, 
 
        Potential amp.        0.7294 Ry
        Total length         46.3494 bohr
 

     total cpu time spent up to now is      351.4 secs

     total energy              =   -2937.45082379 Ry
     estimated scf accuracy    <    1173.71179517 Ry

     iteration # 19     ecut=    29.40 Ry     beta= 0.05
     Davidson diagonalization with overlap
     c_bands:  1 eigenvalues not converged
     ethr =  3.56E-03,  avg # of iterations = 17.3

     negative rho (up, down):  5.240E-03 0.000E+00
 
     Adding external electric field

     Computed dipole along edir(3) : 
        Dipole               -2.5241 Ry au,         -6.4157 Debye
        Dipole field         -0.0048 Ry au, 
 
        Potential amp.        0.4416 Ry
        Total length         46.3494 bohr
 

     total cpu time spent up to now is      372.2 secs

     total energy              =   -2941.42326859 Ry
     estimated scf accuracy    <     332.80907456 Ry

     iteration # 20     ecut=    29.40 Ry     beta= 0.05
     Davidson diagonalization with overlap
     ethr =  3.56E-03,  avg # of iterations =  7.0

     negative rho (up, down):  5.310E-03 0.000E+00
 
     Adding external electric field

     Computed dipole along edir(3) : 
        Dipole               -1.8731 Ry au,         -4.7610 Debye
        Dipole field         -0.0035 Ry au, 
 
        Potential amp.        0.3277 Ry
        Total length         46.3494 bohr
 

     total cpu time spent up to now is      384.2 secs

     total energy              =   -2942.64486358 Ry
     estimated scf accuracy    <     300.92080524 Ry

     iteration # 21     ecut=    29.40 Ry     beta= 0.05
     Davidson diagonalization with overlap
     ethr =  3.56E-03,  avg # of iterations =  2.0

     negative rho (up, down):  5.417E-03 0.000E+00
 
     Adding external electric field

     Computed dipole along edir(3) : 
        Dipole               -5.3477 Ry au,        -13.5924 Debye
        Dipole field         -0.0101 Ry au, 
 
        Potential amp.        0.9355 Ry
        Total length         46.3494 bohr
 

     total cpu time spent up to now is      394.6 secs

     total energy              =   -2928.16265724 Ry
     estimated scf accuracy    <     424.84044217 Ry

     iteration # 22     ecut=    29.40 Ry     beta= 0.05
     Davidson diagonalization with overlap
     c_bands:  4 eigenvalues not converged
     ethr =  3.56E-03,  avg # of iterations = 11.8

     negative rho (up, down):  4.454E-03 0.000E+00
 
     Adding external electric field

     Computed dipole along edir(3) : 
        Dipole               -5.3269 Ry au,        -13.5396 Debye
        Dipole field         -0.0101 Ry au, 
 
        Potential amp.        0.9319 Ry
        Total length         46.3494 bohr
 

     total cpu time spent up to now is      416.3 secs

     total energy              =   -2940.88882585 Ry
     estimated scf accuracy    <      17.57389233 Ry

     iteration # 23     ecut=    29.40 Ry     beta= 0.05
     Davidson diagonalization with overlap
     c_bands:  2 eigenvalues not converged
     c_bands:  2 eigenvalues not converged
     c_bands:  3 eigenvalues not converged
     ethr =  3.56E-03,  avg # of iterations = 15.4

     negative rho (up, down):  3.987E-03 0.000E+00
 
     Adding external electric field

     Computed dipole along edir(3) : 
        Dipole               -5.0374 Ry au,        -12.8038 Debye
        Dipole field         -0.0095 Ry au, 
 
        Potential amp.        0.8812 Ry
        Total length         46.3494 bohr
 

     total cpu time spent up to now is      430.3 secs

     total energy              =   -2940.98848439 Ry
     estimated scf accuracy    <      48.94132763 Ry

     iteration # 24     ecut=    29.40 Ry     beta= 0.05
     Davidson diagonalization with overlap
     ethr =  3.56E-03,  avg # of iterations =  2.4

     negative rho (up, down):  3.829E-03 0.000E+00
 
     Adding external electric field

     Computed dipole along edir(3) : 
        Dipole               -4.1545 Ry au,        -10.5596 Debye
        Dipole field         -0.0078 Ry au, 
 
        Potential amp.        0.7268 Ry
        Total length         46.3494 bohr
 

     total cpu time spent up to now is      440.7 secs

     total energy              =   -2940.11250031 Ry
     estimated scf accuracy    <      46.35379380 Ry

     iteration # 25     ecut=    29.40 Ry     beta= 0.05
     Davidson diagonalization with overlap
     ethr =  3.56E-03,  avg # of iterations =  4.2

     negative rho (up, down):  4.273E-03 0.000E+00
 
     Adding external electric field

     Computed dipole along edir(3) : 
        Dipole               -3.2958 Ry au,         -8.3772 Debye
        Dipole field         -0.0062 Ry au, 
 
        Potential amp.        0.5766 Ry
        Total length         46.3494 bohr
 

     total cpu time spent up to now is      451.7 secs

     total energy              =   -2939.67467397 Ry
     estimated scf accuracy    <      26.71410175 Ry

     iteration # 26     ecut=    29.40 Ry     beta= 0.05
     Davidson diagonalization with overlap
     ethr =  3.56E-03,  avg # of iterations =  1.4

     negative rho (up, down):  5.235E-03 0.000E+00
 
     Adding external electric field

     Computed dipole along edir(3) : 
        Dipole               -1.9915 Ry au,         -5.0619 Debye
        Dipole field         -0.0038 Ry au, 
 
        Potential amp.        0.3484 Ry
        Total length         46.3494 bohr
 

     total cpu time spent up to now is      461.7 secs

     total energy              =   -2939.05339446 Ry
     estimated scf accuracy    <      19.01139993 Ry

     iteration # 27     ecut=    29.40 Ry     beta= 0.05
     Davidson diagonalization with overlap
     ethr =  3.56E-03,  avg # of iterations =  3.5

     negative rho (up, down):  6.774E-03 0.000E+00
 
     Adding external electric field

     Computed dipole along edir(3) : 
        Dipole               -1.0208 Ry au,         -2.5946 Debye
        Dipole field         -0.0019 Ry au, 
 
        Potential amp.        0.1786 Ry
        Total length         46.3494 bohr
 

     total cpu time spent up to now is      472.6 secs

     total energy              =   -2939.07270653 Ry
     estimated scf accuracy    <       3.26676019 Ry

     iteration # 28     ecut=    29.40 Ry     beta= 0.05
     Davidson diagonalization with overlap
     ethr =  8.27E-04,  avg # of iterations = 12.8

     negative rho (up, down):  6.769E-03 0.000E+00
 
     Adding external electric field

     Computed dipole along edir(3) : 
        Dipole               -1.3625 Ry au,         -3.4630 Debye
        Dipole field         -0.0026 Ry au, 
 
        Potential amp.        0.2383 Ry
        Total length         46.3494 bohr
 

     total cpu time spent up to now is      488.6 secs

     total energy              =   -2939.27627563 Ry
     estimated scf accuracy    <       2.15195126 Ry

     iteration # 29     ecut=    29.40 Ry     beta= 0.05
     Davidson diagonalization with overlap
     ethr =  5.45E-04,  avg # of iterations =  4.0

     negative rho (up, down):  6.679E-03 0.000E+00
 
     Adding external electric field

     Computed dipole along edir(3) : 
        Dipole               -1.8285 Ry au,         -4.6475 Debye
        Dipole field         -0.0035 Ry au, 
 
        Potential amp.        0.3199 Ry
        Total length         46.3494 bohr
 

     total cpu time spent up to now is      499.7 secs

     total energy              =   -2939.07620100 Ry
     estimated scf accuracy    <       1.45223419 Ry

     iteration # 30     ecut=    29.40 Ry     beta= 0.05
     Davidson diagonalization with overlap
     c_bands:  2 eigenvalues not converged
     c_bands:  3 eigenvalues not converged
     c_bands:  3 eigenvalues not converged
     c_bands:  1 eigenvalues not converged
     c_bands:  2 eigenvalues not converged
     ethr =  3.68E-04,  avg # of iterations = 18.7

     negative rho (up, down):  7.129E-03 0.000E+00
 
     Adding external electric field

     Computed dipole along edir(3) : 
        Dipole               -0.5172 Ry au,         -1.3146 Debye
        Dipole field         -0.0010 Ry au, 
 
        Potential amp.        0.0905 Ry
        Total length         46.3494 bohr
 

     total cpu time spent up to now is      521.0 secs

     total energy              =   -2938.97015060 Ry
     estimated scf accuracy    <       2.38438520 Ry

     iteration # 31     ecut=    29.40 Ry     beta= 0.05
     Davidson diagonalization with overlap
     c_bands:  2 eigenvalues not converged
     ethr =  3.68E-04,  avg # of iterations = 12.0

     negative rho (up, down):  6.200E-03 0.000E+00
 
     Adding external electric field

     Computed dipole along edir(3) : 
        Dipole               -0.2028 Ry au,         -0.5154 Debye
        Dipole field         -0.0004 Ry au, 
 
        Potential amp.        0.0355 Ry
        Total length         46.3494 bohr
 

     total cpu time spent up to now is      536.7 secs

     total energy              =   -2939.27460482 Ry
     estimated scf accuracy    <       0.74101648 Ry

     iteration # 32     ecut=    29.40 Ry     beta= 0.05
     Davidson diagonalization with overlap
     c_bands:  2 eigenvalues not converged
     ethr =  1.88E-04,  avg # of iterations = 10.9

     negative rho (up, down):  4.955E-03 0.000E+00
 
     Adding external electric field

     Computed dipole along edir(3) : 
        Dipole               -0.2181 Ry au,         -0.5543 Debye
        Dipole field         -0.0004 Ry au, 
 
        Potential amp.        0.0382 Ry
        Total length         46.3494 bohr
 

     total cpu time spent up to now is      551.5 secs

     total energy              =   -2939.17972061 Ry
     estimated scf accuracy    <       1.24389412 Ry

     iteration # 33     ecut=    29.40 Ry     beta= 0.05
     Davidson diagonalization with overlap
     c_bands:  1 eigenvalues not converged
     c_bands:  1 eigenvalues not converged
     ethr =  1.88E-04,  avg # of iterations = 11.6

     negative rho (up, down):  4.762E-03 0.000E+00
 
     Adding external electric field

     Computed dipole along edir(3) : 
        Dipole               -0.6300 Ry au,         -1.6013 Debye
        Dipole field         -0.0012 Ry au, 
 
        Potential amp.        0.1102 Ry
        Total length         46.3494 bohr
 

     total cpu time spent up to now is      564.9 secs

     total energy              =   -2939.13005444 Ry
     estimated scf accuracy    <       0.55262258 Ry

     iteration # 34     ecut=    29.40 Ry     beta= 0.05
     Davidson diagonalization with overlap
     c_bands:  1 eigenvalues not converged
     c_bands:  3 eigenvalues not converged
     c_bands:  1 eigenvalues not converged
     c_bands:  1 eigenvalues not converged
     ethr =  1.40E-04,  avg # of iterations = 17.0

     negative rho (up, down):  4.891E-03 0.000E+00
 
     Adding external electric field

     Computed dipole along edir(3) : 
        Dipole               -0.6418 Ry au,         -1.6313 Debye
        Dipole field         -0.0012 Ry au, 
 
        Potential amp.        0.1123 Ry
        Total length         46.3494 bohr
 

     total cpu time spent up to now is      583.4 secs

     total energy              =   -2939.20343904 Ry
     estimated scf accuracy    <       0.49523272 Ry

     iteration # 35     ecut=    29.40 Ry     beta= 0.05
     Davidson diagonalization with overlap
     ethr =  1.25E-04,  avg # of iterations =  1.7

     negative rho (up, down):  5.662E-03 0.000E+00
 
     Adding external electric field

     Computed dipole along edir(3) : 
        Dipole               -0.6354 Ry au,         -1.6149 Debye
        Dipole field         -0.0012 Ry au, 
 
        Potential amp.        0.1111 Ry
        Total length         46.3494 bohr
 

     total cpu time spent up to now is      593.7 secs

     total energy              =   -2939.14353618 Ry
     estimated scf accuracy    <       0.43244187 Ry

     iteration # 36     ecut=    29.40 Ry     beta= 0.05
     Davidson diagonalization with overlap
     ethr =  1.09E-04,  avg # of iterations = 13.1

     negative rho (up, down):  5.196E-03 0.000E+00
 
     Adding external electric field

     Computed dipole along edir(3) : 
        Dipole                0.0457 Ry au,          0.1162 Debye
        Dipole field          0.0001 Ry au, 
 
        Potential amp.       -0.0080 Ry
        Total length         46.3494 bohr
 

     total cpu time spent up to now is      608.5 secs

     total energy              =   -2939.12483056 Ry
     estimated scf accuracy    <       0.36126879 Ry

     iteration # 37     ecut=    29.40 Ry     beta= 0.05
     Davidson diagonalization with overlap
     ethr =  9.15E-05,  avg # of iterations =  7.5

     negative rho (up, down):  5.189E-03 0.000E+00
 
     Adding external electric field

     Computed dipole along edir(3) : 
        Dipole               -0.0768 Ry au,         -0.1953 Debye
        Dipole field         -0.0001 Ry au, 
 
        Potential amp.        0.0134 Ry
        Total length         46.3494 bohr
 

     total cpu time spent up to now is      620.9 secs

     total energy              =   -2939.14873011 Ry
     estimated scf accuracy    <       0.18357384 Ry

     iteration # 38     ecut=    29.40 Ry     beta= 0.05
     Davidson diagonalization with overlap
     c_bands:  1 eigenvalues not converged
     c_bands:  2 eigenvalues not converged
     c_bands:  3 eigenvalues not converged
     ethr =  4.65E-05,  avg # of iterations = 12.3

     negative rho (up, down):  5.066E-03 0.000E+00
 
     Adding external electric field

     Computed dipole along edir(3) : 
        Dipole               -0.0232 Ry au,         -0.0589 Debye
        Dipole field         -0.0000 Ry au, 
 
        Potential amp.        0.0041 Ry
        Total length         46.3494 bohr
 

     total cpu time spent up to now is      634.6 secs

     total energy              =   -2939.15304602 Ry
     estimated scf accuracy    <       0.10391386 Ry

     iteration # 39     ecut=    29.40 Ry     beta= 0.05
     Davidson diagonalization with overlap
     c_bands:  3 eigenvalues not converged
     ethr =  2.63E-05,  avg # of iterations = 12.1

     negative rho (up, down):  5.494E-03 0.000E+00
 
     Adding external electric field

     Computed dipole along edir(3) : 
        Dipole                0.5686 Ry au,          1.4453 Debye
        Dipole field          0.0011 Ry au, 
 
        Potential amp.       -0.0995 Ry
        Total length         46.3494 bohr
 

     total cpu time spent up to now is      648.4 secs

     total energy              =   -2939.14056921 Ry
     estimated scf accuracy    <       0.10902973 Ry

     iteration # 40     ecut=    29.40 Ry     beta= 0.05
     Davidson diagonalization with overlap
     c_bands:  1 eigenvalues not converged
     ethr =  2.63E-05,  avg # of iterations = 14.1

     negative rho (up, down):  5.813E-03 0.000E+00
 
     Adding external electric field

     Computed dipole along edir(3) : 
        Dipole                0.4573 Ry au,          1.1623 Debye
        Dipole field          0.0009 Ry au, 
 
        Potential amp.       -0.0800 Ry
        Total length         46.3494 bohr
 

     total cpu time spent up to now is      664.8 secs

     total energy              =   -2939.14661570 Ry
     estimated scf accuracy    <       0.05755895 Ry

     iteration # 41     ecut=    29.40 Ry     beta= 0.05
     Davidson diagonalization with overlap
     c_bands:  1 eigenvalues not converged
     c_bands:  1 eigenvalues not converged
     c_bands:  1 eigenvalues not converged
     ethr =  1.46E-05,  avg # of iterations = 14.5

     negative rho (up, down):  6.026E-03 0.000E+00
 
     Adding external electric field

     Computed dipole along edir(3) : 
        Dipole                0.5159 Ry au,          1.3113 Debye
        Dipole field          0.0010 Ry au, 
 
        Potential amp.       -0.0902 Ry
        Total length         46.3494 bohr
 

     total cpu time spent up to now is      680.1 secs

     total energy              =   -2939.15101332 Ry
     estimated scf accuracy    <       0.03955504 Ry

     iteration # 42     ecut=    29.40 Ry     beta= 0.05
     Davidson diagonalization with overlap
     ethr =  1.00E-05,  avg # of iterations =  4.8

     negative rho (up, down):  8.289E-03 0.000E+00
 
     Adding external electric field

     Computed dipole along edir(3) : 
        Dipole                0.6341 Ry au,          1.6118 Debye
        Dipole field          0.0012 Ry au, 
 
        Potential amp.       -0.1109 Ry
        Total length         46.3494 bohr
 

     total cpu time spent up to now is      691.2 secs

     total energy              =   -2939.14984912 Ry
     estimated scf accuracy    <       0.02108679 Ry

     iteration # 43     ecut=    29.40 Ry     beta= 0.05
     Davidson diagonalization with overlap
     c_bands:  1 eigenvalues not converged
     c_bands:  1 eigenvalues not converged
     ethr =  5.34E-06,  avg # of iterations = 15.7

     negative rho (up, down):  9.017E-03 0.000E+00
 
     Adding external electric field

     Computed dipole along edir(3) : 
        Dipole                0.7335 Ry au,          1.8643 Debye
        Dipole field          0.0014 Ry au, 
 
        Potential amp.       -0.1283 Ry
        Total length         46.3494 bohr
 

     total cpu time spent up to now is      710.2 secs

     total energy              =   -2939.15266296 Ry
     estimated scf accuracy    <       0.01076819 Ry

     iteration # 44     ecut=    29.40 Ry     beta= 0.05
     Davidson diagonalization with overlap
     ethr =  2.73E-06,  avg # of iterations = 12.1

     negative rho (up, down):  9.537E-03 0.000E+00
 
     Adding external electric field

     Computed dipole along edir(3) : 
        Dipole                0.7498 Ry au,          1.9059 Debye
        Dipole field          0.0014 Ry au, 
 
        Potential amp.       -0.1312 Ry
        Total length         46.3494 bohr
 

     total cpu time spent up to now is      724.5 secs

     total energy              =   -2939.15371102 Ry
     estimated scf accuracy    <       0.00429371 Ry

     iteration # 45     ecut=    29.40 Ry     beta= 0.05
     Davidson diagonalization with overlap
     c_bands:  2 eigenvalues not converged
     c_bands:  1 eigenvalues not converged
     c_bands:  4 eigenvalues not converged
     c_bands:  2 eigenvalues not converged
     c_bands:  1 eigenvalues not converged
     c_bands:  1 eigenvalues not converged
     ethr =  1.09E-06,  avg # of iterations = 17.0

     negative rho (up, down):  1.191E-02 0.000E+00
 
     Adding external electric field

     Computed dipole along edir(3) : 
        Dipole                0.7363 Ry au,          1.8715 Debye
        Dipole field          0.0014 Ry au, 
 
        Potential amp.       -0.1288 Ry
        Total length         46.3494 bohr
 

     total cpu time spent up to now is      742.1 secs

     total energy              =   -2939.15376190 Ry
     estimated scf accuracy    <       0.00582275 Ry

     iteration # 46     ecut=    29.40 Ry     beta= 0.05
     Davidson diagonalization with overlap
     c_bands:  1 eigenvalues not converged
     c_bands:  1 eigenvalues not converged
     ethr =  1.09E-06,  avg # of iterations = 14.2

     negative rho (up, down):  1.323E-02 0.000E+00
 
     Adding external electric field

     Computed dipole along edir(3) : 
        Dipole                0.7405 Ry au,          1.8822 Debye
        Dipole field          0.0014 Ry au, 
 
        Potential amp.       -0.1295 Ry
        Total length         46.3494 bohr
 

     total cpu time spent up to now is      758.6 secs

     total energy              =   -2939.15413493 Ry
     estimated scf accuracy    <       0.00302722 Ry

     iteration # 47     ecut=    29.40 Ry     beta= 0.05
     Davidson diagonalization with overlap
     ethr =  7.66E-07,  avg # of iterations =  9.8

     negative rho (up, down):  1.325E-02 0.000E+00
 
     Adding external electric field

     Computed dipole along edir(3) : 
        Dipole                0.7375 Ry au,          1.8747 Debye
        Dipole field          0.0014 Ry au, 
 
        Potential amp.       -0.1290 Ry
        Total length         46.3494 bohr
 

     total cpu time spent up to now is      771.2 secs

     total energy              =   -2939.15422441 Ry
     estimated scf accuracy    <       0.00146462 Ry

     iteration # 48     ecut=    29.40 Ry     beta= 0.05
     Davidson diagonalization with overlap
     ethr =  3.71E-07,  avg # of iterations =  7.6

     negative rho (up, down):  1.361E-02 0.000E+00
 
     Adding external electric field

     Computed dipole along edir(3) : 
        Dipole                0.7495 Ry au,          1.9050 Debye
        Dipole field          0.0014 Ry au, 
 
        Potential amp.       -0.1311 Ry
        Total length         46.3494 bohr
 

     total cpu time spent up to now is      783.6 secs

     total energy              =   -2939.15429587 Ry
     estimated scf accuracy    <       0.00097910 Ry

     iteration # 49     ecut=    29.40 Ry     beta= 0.05
     Davidson diagonalization with overlap
     ethr =  2.48E-07,  avg # of iterations =  8.2

     negative rho (up, down):  1.457E-02 0.000E+00
 
     Adding external electric field

     Computed dipole along edir(3) : 
        Dipole                0.7306 Ry au,          1.8570 Debye
        Dipole field          0.0014 Ry au, 
 
        Potential amp.       -0.1278 Ry
        Total length         46.3494 bohr
 

     total cpu time spent up to now is      796.4 secs

     total energy              =   -2939.15429439 Ry
     estimated scf accuracy    <       0.00099949 Ry

     iteration # 50     ecut=    29.40 Ry     beta= 0.05
     Davidson diagonalization with overlap
     ethr =  2.48E-07,  avg # of iterations = 10.7

     negative rho (up, down):  1.489E-02 0.000E+00
 
     Adding external electric field

     Computed dipole along edir(3) : 
        Dipole                0.7076 Ry au,          1.7985 Debye
        Dipole field          0.0013 Ry au, 
 
        Potential amp.       -0.1238 Ry
        Total length         46.3494 bohr
 

     total cpu time spent up to now is      810.4 secs

     total energy              =   -2939.15429375 Ry
     estimated scf accuracy    <       0.00047603 Ry

     iteration # 51     ecut=    29.40 Ry     beta= 0.05
     Davidson diagonalization with overlap
     ethr =  1.21E-07,  avg # of iterations = 13.2

     negative rho (up, down):  1.484E-02 0.000E+00
 
     Adding external electric field

     Computed dipole along edir(3) : 
        Dipole                0.7082 Ry au,          1.8000 Debye
        Dipole field          0.0013 Ry au, 
 
        Potential amp.       -0.1239 Ry
        Total length         46.3494 bohr
 

     total cpu time spent up to now is      827.7 secs

     total energy              =   -2939.15439030 Ry
     estimated scf accuracy    <       0.00017919 Ry

     iteration # 52     ecut=    29.40 Ry     beta= 0.05
     Davidson diagonalization with overlap
     ethr =  4.54E-08,  avg # of iterations = 11.8

     negative rho (up, down):  1.467E-02 0.000E+00
 
     Adding external electric field

     Computed dipole along edir(3) : 
        Dipole                0.7046 Ry au,          1.7910 Debye
        Dipole field          0.0013 Ry au, 
 
        Potential amp.       -0.1233 Ry
        Total length         46.3494 bohr
 

     total cpu time spent up to now is      843.4 secs

     total energy              =   -2939.15441501 Ry
     estimated scf accuracy    <       0.00011980 Ry

     iteration # 53     ecut=    29.40 Ry     beta= 0.05
     Davidson diagonalization with overlap
     ethr =  3.03E-08,  avg # of iterations =  7.8

     negative rho (up, down):  1.497E-02 0.000E+00
 
     Adding external electric field

     Computed dipole along edir(3) : 
        Dipole                0.7094 Ry au,          1.8030 Debye
        Dipole field          0.0013 Ry au, 
 
        Potential amp.       -0.1241 Ry
        Total length         46.3494 bohr
 

     total cpu time spent up to now is      856.1 secs

     total energy              =   -2939.15445401 Ry
     estimated scf accuracy    <       0.00005430 Ry

     iteration # 54     ecut=    29.40 Ry     beta= 0.05
     Davidson diagonalization with overlap
     ethr =  1.37E-08,  avg # of iterations = 15.1

     negative rho (up, down):  1.508E-02 0.000E+00
 
     Adding external electric field

     Computed dipole along edir(3) : 
        Dipole                0.7109 Ry au,          1.8069 Debye
        Dipole field          0.0013 Ry au, 
 
        Potential amp.       -0.1244 Ry
        Total length         46.3494 bohr
 

     total cpu time spent up to now is      877.4 secs

     total energy              =   -2939.15446925 Ry
     estimated scf accuracy    <       0.00014112 Ry

     iteration # 55     ecut=    29.40 Ry     beta= 0.05
     Davidson diagonalization with overlap
     ethr =  1.37E-08,  avg # of iterations = 11.0

     negative rho (up, down):  1.541E-02 0.000E+00
 
     Adding external electric field

     Computed dipole along edir(3) : 
        Dipole                0.7169 Ry au,          1.8221 Debye
        Dipole field          0.0014 Ry au, 
 
        Potential amp.       -0.1254 Ry
        Total length         46.3494 bohr
 

     total cpu time spent up to now is      894.9 secs

     total energy              =   -2939.15450866 Ry
     estimated scf accuracy    <       0.00002602 Ry

     iteration # 56     ecut=    29.40 Ry     beta= 0.05
     Davidson diagonalization with overlap
     ethr =  6.59E-09,  avg # of iterations =  5.1

     negative rho (up, down):  1.567E-02 0.000E+00
 
     Adding external electric field

     Computed dipole along edir(3) : 
        Dipole                0.7230 Ry au,          1.8377 Debye
        Dipole field          0.0014 Ry au, 
 
        Potential amp.       -0.1265 Ry
        Total length         46.3494 bohr
 

     total cpu time spent up to now is      906.5 secs

     total energy              =   -2939.15453019 Ry
     estimated scf accuracy    <       0.00001137 Ry

     iteration # 57     ecut=    29.40 Ry     beta= 0.05
     Davidson diagonalization with overlap
     ethr =  2.88E-09,  avg # of iterations = 11.4

     negative rho (up, down):  1.558E-02 0.000E+00
 
     Adding external electric field

     Computed dipole along edir(3) : 
        Dipole                0.7190 Ry au,          1.8275 Debye
        Dipole field          0.0014 Ry au, 
 
        Potential amp.       -0.1258 Ry
        Total length         46.3494 bohr
 

     total cpu time spent up to now is      924.9 secs

     total energy              =   -2939.15454654 Ry
     estimated scf accuracy    <       0.00001358 Ry

     iteration # 58     ecut=    29.40 Ry     beta= 0.05
     Davidson diagonalization with overlap
     ethr =  2.88E-09,  avg # of iterations =  8.0

     negative rho (up, down):  1.565E-02 0.000E+00
 
     Adding external electric field

     Computed dipole along edir(3) : 
        Dipole                0.7191 Ry au,          1.8277 Debye
        Dipole field          0.0014 Ry au, 
 
        Potential amp.       -0.1258 Ry
        Total length         46.3494 bohr
 

     total cpu time spent up to now is      937.9 secs

     total energy              =   -2939.15456214 Ry
     estimated scf accuracy    <       0.00000449 Ry

     iteration # 59     ecut=    29.40 Ry     beta= 0.05
     Davidson diagonalization with overlap
     ethr =  1.14E-09,  avg # of iterations = 11.5

     negative rho (up, down):  1.565E-02 0.000E+00
 
     Adding external electric field

     Computed dipole along edir(3) : 
        Dipole                0.7188 Ry au,          1.8269 Debye
        Dipole field          0.0014 Ry au, 
 
        Potential amp.       -0.1257 Ry
        Total length         46.3494 bohr
 

     total cpu time spent up to now is      952.3 secs

     total energy              =   -2939.15457542 Ry
     estimated scf accuracy    <       0.00000262 Ry

     iteration # 60     ecut=    29.40 Ry     beta= 0.05
     Davidson diagonalization with overlap
     ethr =  6.63E-10,  avg # of iterations = 12.3

     negative rho (up, down):  1.569E-02 0.000E+00
 
     Adding external electric field

     Computed dipole along edir(3) : 
        Dipole                0.7201 Ry au,          1.8302 Debye
        Dipole field          0.0014 Ry au, 
 
        Potential amp.       -0.1260 Ry
        Total length         46.3494 bohr
 

     total cpu time spent up to now is      970.2 secs

     total energy              =   -2939.15458716 Ry
     estimated scf accuracy    <       0.00000266 Ry

     iteration # 61     ecut=    29.40 Ry     beta= 0.05
     Davidson diagonalization with overlap
     ethr =  6.63E-10,  avg # of iterations = 10.7

     negative rho (up, down):  1.565E-02 0.000E+00
 
     Adding external electric field

     Computed dipole along edir(3) : 
        Dipole                0.7197 Ry au,          1.8292 Debye
        Dipole field          0.0014 Ry au, 
 
        Potential amp.       -0.1259 Ry
        Total length         46.3494 bohr
 

     total cpu time spent up to now is      985.2 secs

     total energy              =   -2939.15459801 Ry
     estimated scf accuracy    <       0.00000091 Ry

     iteration # 62     ecut=    29.40 Ry     beta= 0.05
     Davidson diagonalization with overlap
     ethr =  2.30E-10,  avg # of iterations =  5.0

     negative rho (up, down):  1.566E-02 0.000E+00
 
     Adding external electric field

     Computed dipole along edir(3) : 
        Dipole                0.7201 Ry au,          1.8304 Debye
        Dipole field          0.0014 Ry au, 
 
        Potential amp.       -0.1260 Ry
        Total length         46.3494 bohr
 

     total cpu time spent up to now is      996.7 secs

     total energy              =   -2939.15460759 Ry
     estimated scf accuracy    <       0.00000057 Ry

     iteration # 63     ecut=    29.40 Ry     beta= 0.05
     Davidson diagonalization with overlap
     ethr =  1.43E-10,  avg # of iterations = 12.3

     negative rho (up, down):  1.566E-02 0.000E+00
 
     Adding external electric field

     Computed dipole along edir(3) : 
        Dipole                0.7199 Ry au,          1.8298 Debye
        Dipole field          0.0014 Ry au, 
 
        Potential amp.       -0.1259 Ry
        Total length         46.3494 bohr
 

     total cpu time spent up to now is     1013.4 secs

     total energy              =   -2939.15461626 Ry
     estimated scf accuracy    <       0.00000033 Ry

     iteration # 64     ecut=    29.40 Ry     beta= 0.05
     Davidson diagonalization with overlap
     ethr =  8.47E-11,  avg # of iterations =  2.4

     negative rho (up, down):  1.566E-02 0.000E+00
 
     Adding external electric field

     Computed dipole along edir(3) : 
        Dipole                0.7190 Ry au,          1.8276 Debye
        Dipole field          0.0014 Ry au, 
 
        Potential amp.       -0.1258 Ry
        Total length         46.3494 bohr
 

     total cpu time spent up to now is     1024.0 secs

     total energy              =   -2939.15462407 Ry
     estimated scf accuracy    <       0.00000025 Ry

     iteration # 65     ecut=    29.40 Ry     beta= 0.05
     Davidson diagonalization with overlap
     ethr =  6.26E-11,  avg # of iterations = 11.6

     negative rho (up, down):  1.565E-02 0.000E+00
 
     Adding external electric field

     Computed dipole along edir(3) : 
        Dipole                0.7193 Ry au,          1.8283 Debye
        Dipole field          0.0014 Ry au, 
 
        Potential amp.       -0.1258 Ry
        Total length         46.3494 bohr
 

     total cpu time spent up to now is     1042.0 secs

     total energy              =   -2939.15463109 Ry
     estimated scf accuracy    <       0.00000025 Ry

     iteration # 66     ecut=    29.40 Ry     beta= 0.05
     Davidson diagonalization with overlap
     ethr =  6.26E-11,  avg # of iterations =  8.6

     negative rho (up, down):  1.564E-02 0.000E+00
 
     Adding external electric field

     Computed dipole along edir(3) : 
        Dipole                0.7188 Ry au,          1.8271 Debye
        Dipole field          0.0014 Ry au, 
 
        Potential amp.       -0.1257 Ry
        Total length         46.3494 bohr
 

     total cpu time spent up to now is     1055.2 secs

     total energy              =   -2939.15463748 Ry
     estimated scf accuracy    <       0.00000008 Ry

     iteration # 67     ecut=    29.40 Ry     beta= 0.05
     Davidson diagonalization with overlap
     ethr =  1.99E-11,  avg # of iterations = 11.7

     negative rho (up, down):  1.565E-02 0.000E+00
 
     Adding external electric field

     Computed dipole along edir(3) : 
        Dipole                0.7181 Ry au,          1.8252 Debye
        Dipole field          0.0014 Ry au, 
 
        Potential amp.       -0.1256 Ry
        Total length         46.3494 bohr
 

     total cpu time spent up to now is     1071.6 secs

     End of self-consistent calculation

          k = 0.0000 0.0000 0.0000 ( 18029 PWs)   bands (ev):

   -55.8880 -55.8732 -55.8539 -55.8372 -55.7890 -55.7228 -55.6974 -55.6963
   -55.6861 -55.6623 -55.6614 -55.6278 -55.2792 -55.0857 -54.8652 -54.8312
   -32.4273 -32.3702 -32.2228 -32.2210 -32.1951 -32.1922 -32.1810 -32.1520
   -32.1304 -32.1175 -32.0953 -32.0599 -32.0538 -32.0403 -32.0264 -32.0129
   -32.0110 -31.9921 -31.9777 -31.9452 -31.9368 -31.9324 -31.8916 -31.8870
   -31.8842 -31.8805 -31.8724 -31.8676 -31.8636 -31.8366 -31.8361 -31.8272
   -31.8265 -31.8143 -31.8028 -31.7736 -31.7700 -31.5597 -31.4520 -31.3488
   -31.3463 -31.3018 -31.2724 -31.1840 -31.1616 -31.0891 -31.0026 -30.8915
   -18.4905 -16.6257 -16.3608 -16.1331 -16.0384 -16.0060 -15.8881 -15.7255
   -15.6079 -15.5533 -15.4558 -15.4362 -15.4231 -15.3913 -15.3744 -15.3679
   -15.3346 -15.3295 -15.3112 -15.2961 -15.2476 -15.2237 -15.2021 -15.1027
   -15.0567 -15.0228 -15.0085 -14.9443 -14.9392 -14.4358 -13.3678 -13.2514
   -11.4323  -6.9334  -4.3762  -3.9957  -3.9321  -3.8966  -3.8402  -3.7932
    -3.7367  -3.6206  -3.4921  -3.4299  -3.1191  -3.0711  -3.0551  -3.0379
    -3.0002  -2.7927  -2.7422  -2.7012  -2.6772  -2.6696  -2.6585  -2.6514
    -2.6392  -2.6005  -2.4994  -2.4295  -2.4252  -2.3385  -2.2872  -2.2627
    -2.1998  -2.1802  -2.1588  -2.1354  -2.1236  -2.1039  -2.0826  -2.0718
    -1.9682  -1.8757  -1.7474  -1.6876  -1.6707  -1.6572  -1.6441  -1.4954
    -1.3631  -1.3307  -1.3225  -1.3130  -1.2793  -1.2682  -1.1846  -1.0578
    -1.0449  -1.0060  -0.9536  -0.8950  -0.8699  -0.7680  -0.7313  -0.6542
    -0.6489  -0.6323  -0.5809  -0.5311  -0.3693  -0.3281  -0.3019  -0.2792
    -0.2555  -0.1840  -0.1622  -0.0469  -0.0290  -0.0110   0.0492   0.0723
     0.0852   0.0952   0.1127   0.1312   0.1483   0.3155   0.3882   0.4389
     0.4639   0.5211   0.6469   0.7150   0.7709   0.8707   1.0825   1.1567
     1.2494   1.3488   1.7280   1.7737   2.6643   3.2515   3.3321   3.3813
     3.3958   3.4931   3.5257   3.7030   3.7038   3.7327   3.8026

          k = 0.0000 0.0419 0.0000 ( 17933 PWs)   bands (ev):

   -55.8830 -55.8678 -55.8589 -55.8424 -55.7873 -55.7181 -55.6990 -55.6916
   -55.6904 -55.6672 -55.6565 -55.6327 -55.2784 -55.0863 -54.8602 -54.8361
   -32.3700 -32.3162 -32.1811 -32.1763 -32.1691 -32.1678 -32.1669 -32.1236
   -32.1091 -32.0999 -32.0886 -32.0832 -32.0594 -32.0487 -32.0438 -32.0354
   -32.0264 -32.0015 -31.9643 -31.9592 -31.9287 -31.9257 -31.8983 -31.8967
   -31.8940 -31.8877 -31.8871 -31.8824 -31.8765 -31.8695 -31.8670 -31.8539
   -31.8325 -31.8323 -31.8287 -31.8167 -31.7346 -31.5592 -31.4495 -31.3766
   -31.3464 -31.3161 -31.2182 -31.1805 -31.1646 -31.0765 -31.0151 -30.9487
   -18.4885 -16.4901 -16.2408 -16.0250 -15.9296 -15.9056 -15.8535 -15.7487
   -15.6641 -15.6428 -15.4811 -15.4504 -15.4218 -15.4062 -15.3802 -15.3641
   -15.3491 -15.3443 -15.3215 -15.3132 -15.2729 -15.2316 -15.1731 -15.1121
   -15.1066 -15.0804 -15.0618 -14.9994 -14.9557 -14.5142 -13.3719 -13.2909
   -11.4314  -6.9400  -4.3336  -3.9331  -3.8845  -3.8050  -3.6748  -3.6170
    -3.5802  -3.4688  -3.3362  -3.1997  -3.1093  -3.0555  -2.9627  -2.9398
    -2.9244  -2.8652  -2.8404  -2.8307  -2.7729  -2.7484  -2.7275  -2.6640
    -2.6370  -2.6222  -2.5815  -2.5615  -2.5538  -2.5466  -2.3938  -2.3900
    -2.3727  -2.3490  -2.3063  -2.2176  -2.1424  -2.1276  -2.0330  -1.9677
    -1.8652  -1.7933  -1.6620  -1.6570  -1.6005  -1.5552  -1.5038  -1.4388
    -1.4135  -1.2816  -1.2375  -1.1743  -1.1449  -1.0926  -1.0849  -0.9535
    -0.8984  -0.8814  -0.8390  -0.8007  -0.7912  -0.7794  -0.7640  -0.7091
    -0.6945  -0.6391  -0.5609  -0.5111  -0.4502  -0.4204  -0.3931  -0.3693
    -0.3299  -0.3231  -0.1745  -0.1584  -0.1145  -0.0861  -0.0541  -0.0475
    -0.0275  -0.0025   0.1088   0.1418   0.1667   0.2351   0.3253   0.3727
     0.3870   0.4470   0.4592   0.5082   0.6441   0.7755   0.7984   1.1226
     1.3459   1.4296   1.6820   1.6856   2.6655   3.4399   3.4839   3.5015
     3.5599   3.6019   3.6482   3.6717   3.7361   3.7726   3.8129

          k = 0.0000-0.0839 0.0000 ( 17884 PWs)   bands (ev):

   -55.8714 -55.8704 -55.8553 -55.8548 -55.7855 -55.7107 -55.7006 -55.6981
   -55.6804 -55.6780 -55.6452 -55.6438 -55.2777 -55.0869 -54.8482 -54.8480
   -32.2314 -32.2295 -32.1842 -32.1836 -32.1668 -32.1658 -32.1626 -32.1269
   -32.0801 -32.0714 -32.0616 -32.0572 -32.0407 -32.0349 -32.0268 -31.9972
   -31.9933 -31.9923 -31.9908 -31.9899 -31.9884 -31.9665 -31.9635 -31.9318
   -31.9316 -31.9131 -31.9085 -31.9036 -31.8998 -31.8923 -31.8771 -31.8760
   -31.8497 -31.8471 -31.8242 -31.8239 -31.6875 -31.5586 -31.4600 -31.4061
   -31.3464 -31.3274 -31.1724 -31.1723 -31.0853 -31.0851 -31.0458 -31.0458
   -18.4865 -16.1487 -16.1416 -15.9565 -15.9561 -15.7969 -15.7861 -15.6874
   -15.6729 -15.6643 -15.6388 -15.6032 -15.6006 -15.4484 -15.4438 -15.3136
   -15.2699 -15.2662 -15.2554 -15.2391 -15.2226 -15.2220 -15.2029 -15.1981
   -15.1749 -15.1424 -15.1302 -15.0969 -14.9364 -14.6202 -13.3537 -13.3535
   -11.4305  -6.9464  -4.2928  -3.9354  -3.8799  -3.3562  -3.3345  -3.2830
    -3.2726  -3.2585  -3.2522  -3.1785  -3.1781  -3.1072  -3.0582  -3.0247
    -2.9954  -2.9897  -2.9624  -2.9356  -2.8809  -2.8388  -2.8316  -2.7485
    -2.6974  -2.6746  -2.6332  -2.6082  -2.5825  -2.5581  -2.4904  -2.4747
    -2.4462  -2.3303  -2.2619  -2.2539  -2.2306  -1.9680  -1.8880  -1.7906
    -1.7589  -1.7048  -1.6418  -1.5850  -1.5362  -1.4879  -1.4229  -1.3634
    -1.3483  -1.3105  -1.3059  -1.2725  -1.2571  -1.2074  -1.1056  -1.0737
    -1.0397  -1.0039  -0.9170  -0.8147  -0.7574  -0.6096  -0.6065  -0.5289
    -0.5235  -0.5043  -0.4950  -0.4585  -0.4300  -0.4105  -0.3634  -0.3336
    -0.3121  -0.2933  -0.2745  -0.2211  -0.2064  -0.1707  -0.1569  -0.1353
    -0.0973  -0.0756  -0.0606  -0.0221   0.0026   0.0242   0.1187   0.2613
     0.3532   0.3567   0.3672   0.3936   0.7101   0.7384   0.8092   0.8538
     1.4890   1.4894   1.6189   1.6198   2.6903   3.5582   3.5814   3.5934
     3.6124   3.6280   3.6910   3.7001   3.7995   3.8227   3.8425

          k = 0.0380 0.0000 0.0000 ( 17913 PWs)   bands (ev):

   -55.8879 -55.8730 -55.8538 -55.8371 -55.7889 -55.7227 -55.6973 -55.6961
   -55.6860 -55.6622 -55.6615 -55.6277 -55.2791 -55.0856 -54.8651 -54.8311
   -32.4274 -32.3710 -32.2289 -32.2223 -32.1952 -32.1920 -32.1808 -32.1566
   -32.1304 -32.1171 -32.0797 -32.0596 -32.0537 -32.0374 -32.0191 -32.0125
   -32.0076 -31.9918 -31.9573 -31.9490 -31.9451 -31.9359 -31.8913 -31.8876
   -31.8800 -31.8772 -31.8721 -31.8673 -31.8634 -31.8571 -31.8364 -31.8271
   -31.8262 -31.8145 -31.8018 -31.7739 -31.7687 -31.5614 -31.4519 -31.3487
   -31.3465 -31.3016 -31.2719 -31.1873 -31.1596 -31.0889 -31.0025 -30.8913
   -18.4902 -16.5533 -16.2765 -16.0539 -16.0227 -15.9356 -15.8875 -15.7695
   -15.6058 -15.5830 -15.5791 -15.5500 -15.5059 -15.4951 -15.4493 -15.4370
   -15.4093 -15.2494 -15.2338 -15.2069 -15.1456 -15.1381 -15.1325 -15.1060
   -15.0781 -15.0662 -15.0519 -15.0314 -14.9235 -14.4333 -13.3646 -13.2511
   -11.4318  -6.9291  -4.3482  -3.9609  -3.9170  -3.8950  -3.6172  -3.5763
    -3.5149  -3.4265  -3.4174  -3.4115  -3.3460  -3.1288  -3.1182  -2.9964
    -2.9685  -2.9544  -2.8931  -2.7517  -2.6888  -2.6523  -2.6054  -2.5967
    -2.5617  -2.4917  -2.4606  -2.4331  -2.3472  -2.3414  -2.2803  -2.2277
    -2.2199  -2.1599  -2.1034  -2.0746  -2.0664  -1.9289  -1.8987  -1.8739
    -1.8574  -1.8201  -1.7828  -1.7424  -1.6940  -1.6129  -1.5741  -1.4940
    -1.4801  -1.4307  -1.3799  -1.3215  -1.3127  -1.2741  -1.1725  -1.1659
    -1.1557  -1.1186  -1.0149  -0.9774  -0.8840  -0.7577  -0.7249  -0.7014
    -0.6850  -0.6478  -0.5904  -0.5625  -0.4386  -0.3845  -0.3233  -0.3048
    -0.2282  -0.2243  -0.1743  -0.1420  -0.0893  -0.0779  -0.0677  -0.0379
    -0.0150  -0.0008   0.0175   0.0739   0.1902   0.2508   0.2979   0.3130
     0.4196   0.5067   0.5373   0.5612   0.7480   0.8038   1.0856   1.1142
     1.1686   1.3183   1.6165   1.6908   2.6748   3.2880   3.3046   3.5852
     3.6019   3.6329   3.6433   3.6762   3.7023   3.7292   3.7668

          k = 0.0380 0.0419 0.0000 ( 17878 PWs)   bands (ev):

   -55.8829 -55.8677 -55.8588 -55.8424 -55.7872 -55.7180 -55.6989 -55.6915
   -55.6903 -55.6671 -55.6565 -55.6327 -55.2784 -55.0862 -54.8601 -54.8361
   -32.3702 -32.3170 -32.1810 -32.1762 -32.1758 -32.1686 -32.1684 -32.1235
   -32.1094 -32.1045 -32.0883 -32.0716 -32.0593 -32.0488 -32.0436 -32.0249
   -32.0239 -31.9988 -31.9588 -31.9471 -31.9422 -31.9257 -31.8962 -31.8929
   -31.8897 -31.8870 -31.8869 -31.8826 -31.8764 -31.8695 -31.8671 -31.8564
   -31.8521 -31.8314 -31.8250 -31.8215 -31.7339 -31.5607 -31.4495 -31.3764
   -31.3469 -31.3160 -31.2179 -31.1832 -31.1636 -31.0763 -31.0152 -30.9485
   -18.4883 -16.4241 -16.1632 -15.9538 -15.9164 -15.8521 -15.8314 -15.7501
   -15.7007 -15.6444 -15.5433 -15.5012 -15.4881 -15.4755 -15.4711 -15.3865
   -15.3728 -15.2991 -15.2824 -15.2720 -15.2135 -15.1992 -15.1746 -15.1410
   -15.1347 -15.1215 -15.0883 -15.0561 -14.9412 -14.5120 -13.3696 -13.2912
   -11.4310  -6.9375  -4.3184  -3.9475  -3.8820  -3.7404  -3.4498  -3.4108
    -3.3417  -3.2730  -3.2566  -3.1985  -3.1800  -3.0366  -2.9851  -2.9157
    -2.8807  -2.8693  -2.7951  -2.7777  -2.7545  -2.7158  -2.6864  -2.6692
    -2.6202  -2.5966  -2.5882  -2.5373  -2.5186  -2.4942  -2.4391  -2.3742
    -2.3490  -2.3048  -2.2231  -2.1696  -2.0915  -2.0342  -1.9689  -1.8845
    -1.8615  -1.8296  -1.7334  -1.6342  -1.6148  -1.4930  -1.4780  -1.4427
    -1.3888  -1.3384  -1.2993  -1.2767  -1.2062  -1.1520  -1.1352  -1.1028
    -1.0246  -0.9919  -0.9563  -0.9034  -0.8743  -0.8166  -0.7913  -0.7424
    -0.6990  -0.6807  -0.6209  -0.5970  -0.5362  -0.5244  -0.5061  -0.4695
    -0.4223  -0.3586  -0.3313  -0.2976  -0.2279  -0.1986  -0.1825  -0.1261
    -0.0923   0.0170   0.0640   0.1119   0.1953   0.2597   0.3162   0.3756
     0.4387   0.4599   0.5089   0.5491   0.5635   0.7042   0.7690   1.0588
     1.3567   1.4340   1.6045   1.6664   2.6800   3.4290   3.4954   3.5353
     3.6250   3.6430   3.6912   3.7260   3.7823   3.8154   3.8337

          k = 0.0380-0.0839 0.0000 ( 17916 PWs)   bands (ev):

   -55.8714 -55.8704 -55.8553 -55.8548 -55.7856 -55.7107 -55.7006 -55.6981
   -55.6804 -55.6779 -55.6453 -55.6439 -55.2777 -55.0869 -54.8482 -54.8480
   -32.2316 -32.2298 -32.1850 -32.1843 -32.1668 -32.1659 -32.1627 -32.1270
   -32.0804 -32.0733 -32.0714 -32.0665 -32.0353 -32.0208 -32.0116 -31.9978
   -31.9922 -31.9916 -31.9911 -31.9906 -31.9871 -31.9770 -31.9743 -31.9207
   -31.9096 -31.9086 -31.9073 -31.9068 -31.9031 -31.8923 -31.8771 -31.8759
   -31.8498 -31.8471 -31.8360 -31.8358 -31.6874 -31.5601 -31.4598 -31.4060
   -31.3473 -31.3274 -31.1734 -31.1733 -31.0852 -31.0850 -31.0459 -31.0458
   -18.4865 -16.1075 -16.0966 -15.9059 -15.9049 -15.7677 -15.7581 -15.6929
   -15.6411 -15.6247 -15.6087 -15.5862 -15.5747 -15.4619 -15.4565 -15.3550
   -15.3249 -15.3066 -15.3005 -15.2856 -15.2635 -15.2545 -15.2424 -15.2268
   -15.1934 -15.1847 -15.1672 -15.0710 -14.9296 -14.6161 -13.3535 -13.3533
   -11.4303  -6.9457  -4.2908  -3.9385  -3.8757  -3.3504  -3.3219  -3.1354
    -3.1119  -3.0726  -3.0601  -3.0284  -2.9908  -2.9694  -2.9543  -2.9058
    -2.8865  -2.8771  -2.8575  -2.8366  -2.8223  -2.7324  -2.7296  -2.7202
    -2.6950  -2.6650  -2.6067  -2.5923  -2.5670  -2.5328  -2.5156  -2.4708
    -2.4288  -2.4024  -2.3500  -2.0275  -2.0047  -1.9734  -1.8579  -1.7904
    -1.7751  -1.7355  -1.7121  -1.6684  -1.6554  -1.6145  -1.5956  -1.5618
    -1.5263  -1.5129  -1.4821  -1.4020  -1.3539  -1.3165  -1.1447  -1.1073
    -1.0028  -0.9849  -0.9329  -0.9178  -0.8423  -0.7692  -0.7129  -0.6865
    -0.6753  -0.6483  -0.6364  -0.6036  -0.5764  -0.5438  -0.4991  -0.4732
    -0.4604  -0.4380  -0.4295  -0.4261  -0.2997  -0.2797  -0.2425  -0.1185
    -0.0632  -0.0142   0.0296   0.1400   0.1969   0.2170   0.2405   0.2703
     0.3043   0.3766   0.4624   0.4907   0.6550   0.6735   0.7879   0.8531
     1.5022   1.5027   1.6080   1.6090   2.7074   3.5074   3.5368   3.6122
     3.6363   3.6527   3.6775   3.7256   3.8493   3.8714   3.8778

          k = 0.0380-0.0419 0.0000 ( 17876 PWs)   bands (ev):

   -55.8829 -55.8677 -55.8588 -55.8424 -55.7872 -55.7180 -55.6989 -55.6915
   -55.6903 -55.6671 -55.6565 -55.6327 -55.2784 -55.0862 -54.8601 -54.8361
   -32.3701 -32.3170 -32.1810 -32.1762 -32.1758 -32.1685 -32.1684 -32.1235
   -32.1094 -32.1044 -32.0883 -32.0715 -32.0594 -32.0488 -32.0436 -32.0248
   -32.0240 -31.9988 -31.9588 -31.9470 -31.9423 -31.9257 -31.8961 -31.8930
   -31.8896 -31.8870 -31.8869 -31.8827 -31.8764 -31.8696 -31.8670 -31.8564
   -31.8524 -31.8314 -31.8247 -31.8215 -31.7339 -31.5607 -31.4495 -31.3764
   -31.3469 -31.3160 -31.2179 -31.1832 -31.1636 -31.0763 -31.0152 -30.9485
   -18.4883 -16.4243 -16.1631 -15.9537 -15.9165 -15.8520 -15.8314 -15.7494
   -15.7006 -15.6446 -15.5438 -15.5015 -15.4880 -15.4760 -15.4715 -15.3859
   -15.3712 -15.3017 -15.2819 -15.2714 -15.2130 -15.1988 -15.1746 -15.1418
   -15.1344 -15.1216 -15.0888 -15.0556 -14.9411 -14.5121 -13.3696 -13.2912
   -11.4310  -6.9375  -4.3186  -3.9504  -3.8790  -3.7400  -3.4516  -3.4120
    -3.3411  -3.2726  -3.2563  -3.2038  -3.1741  -3.0360  -2.9819  -2.9146
    -2.8792  -2.8673  -2.7935  -2.7796  -2.7568  -2.7178  -2.6909  -2.6671
    -2.6218  -2.6005  -2.5838  -2.5375  -2.5198  -2.4945  -2.4396  -2.3741
    -2.3485  -2.3089  -2.2275  -2.1714  -2.0929  -2.0304  -1.9719  -1.8810
    -1.8595  -1.8363  -1.7290  -1.6296  -1.6112  -1.5081  -1.4734  -1.4331
    -1.3789  -1.3379  -1.3013  -1.2764  -1.2075  -1.1548  -1.1329  -1.1081
    -1.0234  -0.9882  -0.9538  -0.9038  -0.8584  -0.8194  -0.7881  -0.7483
    -0.6966  -0.6719  -0.6129  -0.5861  -0.5545  -0.5265  -0.5076  -0.4617
    -0.4288  -0.3632  -0.3396  -0.3036  -0.2312  -0.1908  -0.1738  -0.1352
    -0.0887   0.0117   0.0567   0.1118   0.1891   0.2566   0.3207   0.3662
     0.4380   0.4664   0.5095   0.5530   0.5587   0.7043   0.7691   1.0588
     1.3568   1.4341   1.6043   1.6670   2.6798   3.4285   3.4968   3.5335
     3.6106   3.6696   3.6967   3.7229   3.7859   3.8224   3.8327

          k =-0.0760-0.0000 0.0000 ( 17886 PWs)   bands (ev):

   -55.8879 -55.8729 -55.8539 -55.8371 -55.7888 -55.7227 -55.6973 -55.6958
   -55.6860 -55.6622 -55.6616 -55.6277 -55.2790 -55.0855 -54.8651 -54.8311
   -32.4276 -32.3719 -32.2348 -32.2235 -32.1954 -32.1918 -32.1807 -32.1611
   -32.1305 -32.1170 -32.0619 -32.0560 -32.0535 -32.0345 -32.0129 -32.0123
   -32.0043 -31.9917 -31.9708 -31.9454 -31.9358 -31.9112 -31.9045 -31.8904
   -31.8885 -31.8799 -31.8720 -31.8710 -31.8670 -31.8632 -31.8365 -31.8269
   -31.8262 -31.8154 -31.8010 -31.7746 -31.7677 -31.5634 -31.4518 -31.3487
   -31.3470 -31.3016 -31.2715 -31.1906 -31.1583 -31.0888 -31.0024 -30.8914
   -18.4899 -16.4582 -16.1932 -15.9921 -15.9773 -15.8876 -15.8543 -15.7442
   -15.6639 -15.6621 -15.6023 -15.5884 -15.5670 -15.5548 -15.5465 -15.5037
   -15.4281 -15.2563 -15.2516 -15.2193 -15.1696 -15.1493 -15.1350 -15.0894
   -15.0593 -15.0521 -15.0430 -14.9778 -14.9197 -14.4313 -13.3615 -13.2508
   -11.4313  -6.9250  -4.3247  -3.9834  -3.8965  -3.8940  -3.5520  -3.4743
    -3.3985  -3.2888  -3.2604  -3.1642  -3.1485  -3.1351  -3.1229  -3.1092
    -3.0942  -2.9086  -2.7449  -2.6872  -2.6819  -2.6498  -2.6072  -2.5179
    -2.4584  -2.4351  -2.3877  -2.3777  -2.2973  -2.2904  -2.2189  -2.1801
    -2.1625  -2.1236  -2.1173  -2.1072  -2.0941  -2.0724  -2.0005  -1.9718
    -1.8989  -1.7265  -1.7010  -1.6713  -1.5333  -1.5274  -1.5087  -1.5071
    -1.4813  -1.4758  -1.4677  -1.4477  -1.3517  -1.3463  -1.2445  -1.1828
    -1.1605  -1.1375  -1.0880  -1.0525  -1.0398  -1.0351  -0.9010  -0.7252
    -0.6665  -0.6587  -0.5989  -0.5583  -0.5333  -0.4933  -0.4105  -0.3780
    -0.3537  -0.3144  -0.2906  -0.2221  -0.1700  -0.1461  -0.0815  -0.0716
    -0.0305  -0.0053   0.0130   0.1139   0.1591   0.1897   0.2398   0.3540
     0.3764   0.4800   0.5918   0.5974   0.7214   0.8048   0.8453   1.0971
     1.1897   1.2938   1.4871   1.6351   2.6823   3.2850   3.2938   3.4271
     3.5304   3.5856   3.6161   3.7018   3.7037   3.7748   3.7859

          k =-0.0760 0.0419 0.0000 ( 17914 PWs)   bands (ev):

   -55.8829 -55.8677 -55.8589 -55.8424 -55.7872 -55.7181 -55.6989 -55.6914
   -55.6903 -55.6671 -55.6567 -55.6327 -55.2784 -55.0862 -54.8601 -54.8361
   -32.3705 -32.3180 -32.1830 -32.1811 -32.1761 -32.1698 -32.1686 -32.1235
   -32.1096 -32.1094 -32.0883 -32.0598 -32.0559 -32.0491 -32.0437 -32.0218
   -32.0151 -31.9964 -31.9594 -31.9587 -31.9257 -31.9129 -31.8959 -31.8947
   -31.8929 -31.8906 -31.8863 -31.8831 -31.8760 -31.8745 -31.8682 -31.8669
   -31.8522 -31.8311 -31.8284 -31.8251 -31.7332 -31.5625 -31.4496 -31.3765
   -31.3477 -31.3160 -31.2176 -31.1860 -31.1629 -31.0763 -31.0152 -30.9486
   -18.4881 -16.3392 -16.0802 -15.9059 -15.8724 -15.8484 -15.7595 -15.7508
   -15.6469 -15.6391 -15.6237 -15.5404 -15.5370 -15.5273 -15.5146 -15.4514
   -15.4364 -15.3240 -15.2733 -15.2709 -15.2562 -15.2206 -15.1727 -15.1544
   -15.1499 -15.1247 -15.0689 -15.0447 -14.9367 -14.5103 -13.3675 -13.2915
   -11.4306  -6.9352  -4.3066  -3.9606  -3.8780  -3.7257  -3.3916  -3.2165
    -3.1865  -3.0809  -3.0069  -2.9991  -2.9886  -2.9651  -2.9341  -2.9047
    -2.8970  -2.8358  -2.8336  -2.7694  -2.7524  -2.7380  -2.6689  -2.6231
    -2.5967  -2.5770  -2.5623  -2.4806  -2.4637  -2.3896  -2.3714  -2.3648
    -2.3224  -2.2493  -2.1504  -2.1383  -2.0109  -2.0022  -1.9628  -1.8900
    -1.8765  -1.8230  -1.6750  -1.6542  -1.5576  -1.5323  -1.4815  -1.4595
    -1.4452  -1.4214  -1.3577  -1.3144  -1.2894  -1.2290  -1.1901  -1.1688
    -1.1417  -1.1106  -1.0964  -1.0765  -1.0483  -0.9598  -0.9378  -0.8953
    -0.8734  -0.8483  -0.7836  -0.6961  -0.6358  -0.6242  -0.5999  -0.5429
    -0.5188  -0.4861  -0.4748  -0.4173  -0.2805  -0.2302  -0.1981  -0.1846
    -0.0568   0.0160   0.1110   0.1325   0.2583   0.3223   0.3984   0.4175
     0.4719   0.5093   0.5648   0.5689   0.6312   0.6840   0.7096   0.9008
     1.3716   1.4373   1.5279   1.6557   2.6938   3.4157   3.4847   3.4935
     3.5624   3.5946   3.6110   3.6860   3.7485   3.8270   3.8721

          k =-0.0760-0.0839 0.0000 ( 17948 PWs)   bands (ev):

   -55.8714 -55.8704 -55.8553 -55.8548 -55.7856 -55.7107 -55.7006 -55.6982
   -55.6803 -55.6778 -55.6454 -55.6440 -55.2777 -55.0870 -54.8482 -54.8481
   -32.2319 -32.2301 -32.1858 -32.1851 -32.1668 -32.1659 -32.1628 -32.1271
   -32.0815 -32.0785 -32.0728 -32.0718 -32.0355 -32.0056 -31.9978 -31.9972
   -31.9910 -31.9908 -31.9906 -31.9900 -31.9865 -31.9841 -31.9816 -31.9304
   -31.9166 -31.9052 -31.9035 -31.8922 -31.8793 -31.8788 -31.8764 -31.8754
   -31.8598 -31.8590 -31.8498 -31.8471 -31.6872 -31.5615 -31.4598 -31.4061
   -31.3481 -31.3274 -31.1744 -31.1742 -31.0852 -31.0850 -31.0459 -31.0458
   -18.4864 -16.0616 -16.0356 -15.8353 -15.8022 -15.7984 -15.7840 -15.6752
   -15.5901 -15.5832 -15.5803 -15.5152 -15.4851 -15.4687 -15.4275 -15.4148
   -15.4077 -15.3958 -15.3866 -15.3483 -15.3410 -15.3237 -15.3162 -15.2324
   -15.2043 -15.2002 -15.1747 -15.0564 -14.9251 -14.6125 -13.3533 -13.3531
   -11.4301  -6.9450  -4.2895  -3.9412  -3.8720  -3.3510  -3.3222  -3.0817
    -3.0430  -3.0293  -2.9759  -2.8145  -2.7841  -2.7585  -2.7468  -2.7152
    -2.7099  -2.6979  -2.6927  -2.6727  -2.6322  -2.6129  -2.5940  -2.5750
    -2.5551  -2.5412  -2.5265  -2.5091  -2.4994  -2.4601  -2.4365  -2.4253
    -2.4066  -2.3948  -2.2392  -2.1151  -2.0804  -2.0259  -2.0156  -1.9946
    -1.9548  -1.9507  -1.9388  -1.8743  -1.8065  -1.6476  -1.6135  -1.5871
    -1.5712  -1.5543  -1.4934  -1.4538  -1.3666  -1.2922  -1.2680  -1.2638
    -1.1957  -1.1077  -1.1013  -1.0543  -1.0122  -1.0014  -0.9464  -0.8815
    -0.8502  -0.8460  -0.7961  -0.7266  -0.7070  -0.6561  -0.6494  -0.6049
    -0.5507  -0.5451  -0.5215  -0.4797  -0.3979  -0.3742  -0.2359  -0.1562
    -0.0353   0.0808   0.1748   0.1894   0.2687   0.3213   0.4042   0.4228
     0.4334   0.4419   0.4855   0.5674   0.6445   0.6592   0.7050   0.8260
     1.5204   1.5212   1.5933   1.5936   2.7246   3.4977   3.5426   3.5851
     3.6174   3.7236   3.7563   3.7799   3.7811   3.8086   3.9211

     the Fermi energy is     3.2466 ev

!    total energy              =   -2939.15469584 Ry
     estimated scf accuracy    <       0.00000003 Ry
     smearing contrib. (-TS)   =      -0.02250503 Ry
     internal energy E=F+TS    =   -2939.13219080 Ry

     The total energy is F=E-TS. E is the sum of the following terms:
     one-electron contribution =  -24176.49749200 Ry
     hartree contribution      =   12175.55465942 Ry
     xc contribution           =    -485.19288967 Ry
     ewald contribution        =    9547.00255840 Ry
     electric field correction =       0.00097305 Ry

     convergence has been achieved in  67 iterations

     Forces acting on atoms (cartesian axes, Ry/au):

     atom    1 type  1   force =     0.00011708   -0.00024873    0.09667464
     atom    2 type  1   force =    -0.00012889   -0.00051175   -0.17523920
     atom    3 type  2   force =    -0.00000175   -0.00010241   -0.02499099
     atom    4 type  2   force =     0.00005110   -0.00150130    0.05299195
     atom    5 type  2   force =    -0.01214760   -0.00108520    0.00360619
     atom    6 type  2   force =     0.01369884   -0.00027726    0.00228296
     atom    7 type  1   force =    -0.00116938    0.00036900   -0.01149935
     atom    8 type  1   force =     0.00056156    0.00940752    0.02853542
     atom    9 type  2   force =     0.00020400    0.00052687   -0.00014049
     atom   10 type  2   force =    -0.00114682    0.00028760   -0.01827309
     atom   11 type  2   force =    -0.00010760    0.00000051   -0.00013597
     atom   12 type  2   force =     0.00011420    0.00021504    0.00018530
     atom   13 type  1   force =     0.00010994   -0.00029683    0.00020497
     atom   14 type  1   force =     0.00021475    0.00018609    0.00017814
     atom   15 type  2   force =     0.00021747    0.00019398   -0.00018027
     atom   16 type  2   force =    -0.00032788    0.00033720    0.00043199
     atom   17 type  2   force =    -0.00009874    0.00044956   -0.00004734
     atom   18 type  2   force =     0.00006638    0.00019599    0.00033546
     atom   19 type  1   force =    -0.00008408    0.00018927   -0.00009370
     atom   20 type  1   force =    -0.00059196   -0.00029341    0.00030242
     atom   21 type  2   force =     0.00008440    0.00000963    0.10325116
     atom   22 type  2   force =    -0.00018386    0.00020914    0.00119817
     atom   23 type  2   force =    -0.07146840   -0.00007287   -0.02771994
     atom   24 type  2   force =     0.07143390    0.00034724   -0.02772870
     atom   25 type  1   force =     0.00006762   -0.00021320    0.09639984
     atom   26 type  1   force =    -0.00022471   -0.00025481   -0.17563120
     atom   27 type  2   force =     0.00007204   -0.00025233   -0.02399510
     atom   28 type  2   force =     0.00009409   -0.00126093    0.05285907
     atom   29 type  2   force =    -0.01238979    0.00004063    0.00351865
     atom   30 type  2   force =     0.01385746    0.00033265    0.00216451
     atom   31 type  1   force =    -0.00113754    0.00333141   -0.01191131
     atom   32 type  1   force =     0.00065684   -0.01116244    0.02912830
     atom   33 type  2   force =     0.00011402   -0.00020079   -0.00039210
     atom   34 type  2   force =    -0.00089650   -0.00093642   -0.02487490
     atom   35 type  2   force =    -0.00038293    0.00027535    0.00003079
     atom   36 type  2   force =     0.00071506    0.00029571    0.00035170
     atom   37 type  1   force =    -0.00000336   -0.00023517    0.00004278
     atom   38 type  1   force =    -0.00003240    0.00011180   -0.00004743
     atom   39 type  2   force =     0.00032940    0.00041868   -0.00060119
     atom   40 type  2   force =    -0.00030314    0.00010099    0.00021522
     atom   41 type  2   force =    -0.00046205    0.00051303    0.00021933
     atom   42 type  2   force =     0.00004204    0.00043614    0.00052666
     atom   43 type  1   force =    -0.00002500    0.00034626    0.00027952
     atom   44 type  1   force =    -0.00041765    0.00030094    0.00034044
     atom   45 type  2   force =     0.00008191   -0.00003018    0.10325010
     atom   46 type  2   force =    -0.07149712   -0.00003143   -0.02773073
     atom   47 type  2   force =     0.07145908    0.00039080   -0.02775896
     atom   48 type  3   force =     0.00043819   -0.01079979    0.00155826
     atom   49 type  3   force =     0.00040865    0.00341778   -0.00350973
     atom   50 type  4   force =     0.00163299    0.00575732   -0.00006015
     atom   51 type  5   force =     0.00030014    0.00183570    0.00042212
     atom   52 type  5   force =    -0.00118043   -0.00103560    0.00092616
     atom   53 type  5   force =    -0.00073359   -0.00002697    0.00014963

     Total force =     0.368592     Total SCF correction =     0.000369
  @ DRIVER MODE: Message from server: STATUS
  @ DRIVER MODE: Message from server: GETFORCE
  @ DRIVER MODE: Returning v,forces,stress,ensemble 

     Writing output data file ./calc.save/
  @ DRIVER MODE: Message from server: EXIT
  @ DRIVE MODE: Exiting  
 
     init_run     :     10.68s CPU     10.90s WALL (       1 calls)
     electrons    :   1045.28s CPU   1060.32s WALL (       1 calls)
     forces       :      2.35s CPU      2.43s WALL (       1 calls)

     Called by init_run:
     wfcinit      :      4.72s CPU      4.78s WALL (       1 calls)
     potinit      :      5.32s CPU      5.38s WALL (       1 calls)
     hinit0       :      0.30s CPU      0.31s WALL (       1 calls)

     Called by electrons:
     c_bands      :    888.74s CPU    894.93s WALL (      67 calls)
     sum_band     :    106.03s CPU    109.54s WALL (      67 calls)
     v_of_rho     :     38.13s CPU     40.05s WALL (      68 calls)
     newd         :     15.53s CPU     18.94s WALL (      68 calls)
     mix_rho      :      1.39s CPU      1.43s WALL (      67 calls)
     vdW_kernel   :      4.54s CPU      4.56s WALL (       1 calls)

     Called by c_bands:
     init_us_2    :      6.15s CPU      6.19s WALL (    1360 calls)
     cegterg      :    870.68s CPU    876.58s WALL (     681 calls)

     Called by *egterg:
     cdiaghg      :    148.33s CPU    148.98s WALL (    7049 calls)
     h_psi        :    462.29s CPU    466.39s WALL (    7059 calls)
     s_psi        :     61.75s CPU     61.95s WALL (    7059 calls)
     g_psi        :      1.67s CPU      1.68s WALL (    6368 calls)

     Called by h_psi:
     h_psi:calbec :     58.27s CPU     58.55s WALL (    7059 calls)
     vloc_psi     :    339.10s CPU    342.32s WALL (    7059 calls)
     add_vuspsi   :     61.89s CPU     62.30s WALL (    7059 calls)

     General routines
     calbec       :     77.02s CPU     77.37s WALL (    7769 calls)
     fft          :     19.62s CPU     19.80s WALL (    4284 calls)
     ffts         :      0.14s CPU      0.14s WALL (     135 calls)
     fftw         :    380.19s CPU    383.79s WALL (  906190 calls)
     interpolate  :      0.42s CPU      0.42s WALL (      68 calls)
     davcio       :      0.00s CPU      0.10s WALL (      10 calls)
 
     Parallel routines
 
     PWSCF        :  17m38.63s CPU  17m54.26s WALL

 
   This run was terminated on:  23:28:30   8Sep2021            

=------------------------------------------------------------------------------=
   JOB DONE.
=------------------------------------------------------------------------------=
