
     Program PWSCF v.6.7GPU starts on 18Oct2021 at 22: 5:29 

     This program is part of the open-source Quantum ESPRESSO suite
     for quantum simulation of materials; please cite
         "P. Giannozzi et al., J. Phys.:Condens. Matter 21 395502 (2009);
         "P. Giannozzi et al., J. Phys.:Condens. Matter 29 465901 (2017);
         "P. Giannozzi et al., J. Chem. Phys. 152 154105 (2020);
          URL http://www.quantum-espresso.org", 
     in publications or presentations arising from this work. More details at
     http://www.quantum-espresso.org/quote

     Parallel version (MPI), running on     8 processors

     MPI processes distributed on     1 nodes
     R & G space division:  proc/nbgrp/npool/nimage =       8
     Reading input from /storage/home/hcoda1/3/ntian30/research/carbon/CxH_vib/Thiel_calc/ads_slab/N2HH_perslab/out_0021/pw.inp
Warning: card &CELL ignored
Warning: card   CELL_DYNAMICS='IPI', ignored
Warning: card / ignored

     Current dimensions of program PWSCF are:
     Max number of different atomic species (ntypx) = 10
     Max number of k-points (npk) =  40000
     Max angular momentum in pseudopotentials (lmaxx) =  3
     Presently no symmetry can be used with electric field

     Message from routine cell_base_init:
     DEPRECATED: use true lattice parameter, not A to a.u. conversion factor

     **************************************************************************
     Initializing libbeef V0.1.2 with the BEEF-vdW functional.
     Citation: Wellendorff et al., PRB 85, 235149 (2012).
     **************************************************************************


     IMPORTANT: XC functional enforced from input :
     Exchange-correlation= BEEF-VDW
                           (   1   4  43  14   2   0   0)
     Any further DFT definition will be discarded
     Please, verify this is what you really want


     Subspace diagonalization in iterative solution of the eigenvalue problem:
     one sub-group per band group will be used
     scalapack distributed-memory algorithm (size of sub-group:  2*  2 procs)

  @ DRIVER MODE: Connecting to 
 qe_1139763_3255130.sched-torque.pace.gatech.educv2ayqqe_scratch
  using UNIX socket
  @ DRIVER MODE: Message from server: STATUS
  @ DRIVER MODE: Message from server: INIT
  @ DRIVER MODE: Receiving replica           0          -1
  @ DRIVER MODE: Receiving encoded integer          25
  @ DRIVER MODE:  SCF:  T  FORCE:  T  STRESS:  F  VC:  F  ENSEMBLE:  F
  @ DRIVER MODE:  SCF:  T  FORCE:  T  STRESS:  F  VC:  F  ENSEMBLE:  F
 
     Parallelization info
     --------------------
     sticks:   dense  smooth     PW     G-vecs:    dense   smooth      PW
     Min         614     246     69               106272    26887    3981
     Max         615     248     70               106275    26893    3990
     Sum        4915    1977    553               850181   215109   31863
 
     Using Slab Decomposition
 


     bravais-lattice index     =            0
     lattice parameter (alat)  =       1.8897  a.u.
     unit-cell volume          =    9988.4706 (a.u.)^3
     number of atoms/cell      =           57
     number of atomic types    =            4
     number of electrons       =       438.00
     number of Kohn-Sham states=          229
     kinetic-energy cutoff     =      29.3995  Ry
     charge density cutoff     =     293.9946  Ry
     scf convergence threshold =      7.3E-08
     mixing beta               =       0.0500
     number of iterations used =            8  plain     mixing
     Exchange-correlation= BEEF-VDW
                           (   1   4  43  14   2   0   0)

     celldm(1)=   1.889726  celldm(2)=   0.000000  celldm(3)=   0.000000
     celldm(4)=   0.000000  celldm(5)=   0.000000  celldm(6)=   0.000000

     crystal axes: (cart. coord. in units of alat)
               a(1) = (   6.579727   0.000000   0.000000 )  
               a(2) = (  -0.001163   8.942395   0.000000 )  
               a(3) = (   0.000000   0.000000  25.155947 )  

     reciprocal axes: (cart. coord. in units 2 pi/alat)
               b(1) = (  0.151982  0.000020  0.000000 )  
               b(2) = (  0.000000  0.111827  0.000000 )  
               b(3) = (  0.000000  0.000000  0.039752 )  


     PseudoPot. # 1 for O  read from file:
     /storage/coda1/p-amedford6/0/shared/rich_project_chbe-medford/medford-share/data/pseudos_module/espresso/nninc/pbe/van/O.UPF
     MD5 check sum: 78c19812648e8988a0fe644b0f25305e
     Pseudo is Ultrasoft, Zval =  6.0
     Generated by new atomic code, or converted to UPF format
     Using radial grid of  737 points,  4 beta functions with: 
                l(1) =   0
                l(2) =   0
                l(3) =   1
                l(4) =   1
     Q(r) pseudized with  8 coefficients,  rinner =    0.800   0.800   0.800


     PseudoPot. # 2 for Ti read from file:
     /storage/coda1/p-amedford6/0/shared/rich_project_chbe-medford/medford-share/data/pseudos_module/espresso/nninc/pbe/van/Ti.UPF
     MD5 check sum: 8e4df49b7f0d34bbd5052bf3f5ea0213
     Pseudo is Ultrasoft, Zval = 12.0
     Generated by new atomic code, or converted to UPF format
     Using radial grid of  851 points,  6 beta functions with: 
                l(1) =   0
                l(2) =   0
                l(3) =   1
                l(4) =   1
                l(5) =   2
                l(6) =   2
     Q(r) pseudized with  8 coefficients,  rinner =    1.000   1.000   1.000
                                                       1.000   1.000

     PseudoPot. # 3 for H  read from file:
     /storage/coda1/p-amedford6/0/shared/rich_project_chbe-medford/medford-share/data/pseudos_module/espresso/nninc/pbe/van/H.UPF
     MD5 check sum: b5ee9d7bfd3a09ee7748110bda690ff7
     Pseudo is Ultrasoft, Zval =  1.0
     Generated by new atomic code, or converted to UPF format
     Using radial grid of  615 points,  1 beta functions with: 
                l(1) =   0
     Q(r) pseudized with  8 coefficients,  rinner =    0.800

     PseudoPot. # 4 for N  read from file:
     /storage/coda1/p-amedford6/0/shared/rich_project_chbe-medford/medford-share/data/pseudos_module/espresso/nninc/pbe/van/N.UPF
     MD5 check sum: 90d10febe142ad51ac9d5be1deb811c4
     Pseudo is Ultrasoft, Zval =  5.0
     Generated by new atomic code, or converted to UPF format
     Using radial grid of  729 points,  4 beta functions with: 
                l(1) =   0
                l(2) =   0
                l(3) =   1
                l(4) =   1
     Q(r) pseudized with  8 coefficients,  rinner =    0.800   0.800   0.800


     atomic species   valence    mass     pseudopotential
        O1             6.00    15.99900     O ( 1.00)
        Ti1           12.00    47.86700     Ti( 1.00)
        H1             1.00     1.00800     H ( 1.00)
        N1             5.00    14.00700     N ( 1.00)

     No symmetry found



   Cartesian axes

     site n.     atom                  positions (alat units)
         1           O1  tau(   1) = (   0.0007354   0.0005023  10.5931620  )
         2           O1  tau(   2) = (   3.3150156   8.9360210  13.9574341  )
         3           O1  tau(   3) = (   6.5771809   0.1322222  17.3752006  )
         4           O1  tau(   4) = (   0.0006271   0.0005054   7.9858123  )
         5           O1  tau(   5) = (   3.2854428   8.9395983  11.2048121  )
         6           O1  tau(   6) = (   6.5534721   0.0059909  14.6304568  )
         7           O1  tau(   7) = (   1.9868534   1.4903216   9.2879459  )
         8           O1  tau(   8) = (   5.2434221   1.6171961  12.5999149  )
         9           O1  tau(   9) = (   1.9662201   1.5518754  16.1237639  )
        10           Ti1 tau(  10) = (   0.0007404   1.4906270   9.2895810  )
        11           Ti1 tau(  11) = (   3.2893977   1.3594553  12.5356033  )
        12           Ti1 tau(  12) = (   0.0178951   1.3769434  15.7441411  )
        13           O1  tau(  13) = (   4.5942328   1.4918067   9.2879030  )
        14           O1  tau(  14) = (   1.3385959   1.6247007  12.6234478  )
        15           O1  tau(  15) = (   4.5909775   1.5586907  16.1788856  )
        16           Ti1 tau(  16) = (   3.2902859   2.9801868   9.2893338  )
        17           Ti1 tau(  17) = (   6.5767353   2.8476438  12.4354253  )
        18           Ti1 tau(  18) = (   3.2855622   3.0003959  15.7804328  )
        19           O1  tau(  19) = (   0.0003479   2.9813005  10.5931620  )
        20           O1  tau(  20) = (   3.3036998   2.9877085  13.9702655  )
        21           O1  tau(  21) = (   0.0002396   2.9813036   7.9858123  )
        22           O1  tau(  22) = (   3.2849372   2.9737507  11.2063419  )
        23           O1  tau(  23) = (   6.5394694   3.0167582  14.8135819  )
        24           O1  tau(  24) = (   1.9864658   4.4711199   9.2879459  )
        25           O1  tau(  25) = (   5.2427600   4.5794291  12.6037842  )
        26           O1  tau(  26) = (   1.9458942   4.4597853  16.1214517  )
        27           Ti1 tau(  27) = (   0.0003529   4.4714252   9.2895810  )
        28           Ti1 tau(  28) = (   3.2810590   4.3307370  12.5385870  )
        29           Ti1 tau(  29) = (   6.5544800   4.6619433  15.7291082  )
        30           O1  tau(  30) = (   4.5938453   4.4726049   9.2879030  )
        31           O1  tau(  31) = (   1.3254974   4.5864429  12.6215760  )
        32           O1  tau(  32) = (   4.5799584   4.4820416  16.1880388  )
        33           Ti1 tau(  33) = (   3.2898983   5.9609850   9.2893338  )
        34           Ti1 tau(  34) = (   6.5675573   5.8255355  12.4420054  )
        35           Ti1 tau(  35) = (   3.2444431   5.9917870  15.7690220  )
        36           O1  tau(  36) = (  -0.0000397   5.9620987  10.5931620  )
        37           O1  tau(  37) = (   3.2928066   5.9693490  13.9649938  )
        38           O1  tau(  38) = (   6.5603845   5.9023223  17.3786232  )
        39           O1  tau(  39) = (  -0.0001480   5.9621018   7.9858123  )
        40           O1  tau(  40) = (   3.2839194   5.9454927  11.2056182  )
        41           O1  tau(  41) = (   6.5420590   6.0665053  14.6296390  )
        42           O1  tau(  42) = (   1.9860782   7.4519181   9.2879459  )
        43           O1  tau(  43) = (   5.2396418   7.5574700  12.5673505  )
        44           O1  tau(  44) = (   1.9576089   7.5211923  16.0792554  )
        45           Ti1 tau(  45) = (  -0.0000347   7.4522234   9.2895810  )
        46           Ti1 tau(  46) = (   3.2826699   7.3152331  12.5262848  )
        47           Ti1 tau(  47) = (   0.0069763   7.4761561  16.0760502  )
        48           O1  tau(  48) = (   4.5934577   7.4534031   9.2879030  )
        49           O1  tau(  49) = (   1.3370172   7.5712087  12.5877691  )
        50           O1  tau(  50) = (   4.5576284   7.4668559  16.1934357  )
        51           Ti1 tau(  51) = (   3.2895107   8.9417832   9.2893338  )
        52           Ti1 tau(  52) = (   6.5702701   8.7900240  12.4479541  )
        53           Ti1 tau(  53) = (   3.3076380   0.0053799  15.7629688  )
        54           H1  tau(  54) = (   5.7681615   5.8474147  17.9327380  )
        55           H1  tau(  55) = (   5.8019348   0.2260023  17.9463436  )
        56           N1  tau(  56) = (   6.2964029   3.7918275  19.8857669  )
        57           N1  tau(  57) = (   6.3580303   2.9548886  19.1553858  )

     number of k points=    10  Fermi-Dirac smearing, width (Ry)=  0.0073
                       cart. coord. in units 2pi/alat
        k(    1) = (   0.0000000   0.0000000   0.0000000), wk =   0.1250000
        k(    2) = (   0.0000000   0.0279567   0.0000000), wk =   0.2500000
        k(    3) = (   0.0000000  -0.0559134   0.0000000), wk =   0.1250000
        k(    4) = (   0.0379955   0.0000049   0.0000000), wk =   0.2500000
        k(    5) = (   0.0379955   0.0279617   0.0000000), wk =   0.2500000
        k(    6) = (   0.0379955  -0.0559085   0.0000000), wk =   0.2500000
        k(    7) = (   0.0379955  -0.0279518   0.0000000), wk =   0.2500000
        k(    8) = (  -0.0759910  -0.0000099   0.0000000), wk =   0.1250000
        k(    9) = (  -0.0759910   0.0279468   0.0000000), wk =   0.2500000
        k(   10) = (  -0.0759910  -0.0559233   0.0000000), wk =   0.1250000

     Dense  grid:   850181 G-vectors     FFT dimensions: (  72,  96, 270)

     Smooth grid:   215109 G-vectors     FFT dimensions: (  45,  60, 180)

     Estimated max dynamical RAM per process >     705.64 MB

     Estimated total dynamical RAM >       5.51 GB
     Cannot read rho : file not found

     Initial potential from superposition of free atoms

     starting charge  419.99912, renormalised to  438.00000

     negative rho (up, down):  3.690E-02 0.000E+00


     %%%%%%%%%%%%%%%%%%%%%%%%%%%%%%%%%%%%%%%%%%%%%%%%%%%%%%%%%%%%%%%%%%%%%%%%
     %                                                                      %
     % You are using vdW-DF, which was implemented by the Thonhauser group. %
     % Please cite the following two papers that made this development      %
     % possible and the two reviews that describe the various versions:     %
     %                                                                      %
     %   T. Thonhauser et al., PRL 115, 136402 (2015).                      %
     %   T. Thonhauser et al., PRB 76, 125112 (2007).                       %
     %   K. Berland et al., Rep. Prog. Phys. 78, 066501 (2015).             %
     %   D.C. Langreth et al., J. Phys.: Condens. Matter 21, 084203 (2009). %
     %                                                                      %
     %                                                                      %
     % If you are calculating the stress with vdW-DF, please also cite:     %
     %                                                                      %
     %   R. Sabatini et al., J. Phys.: Condens. Matter 24, 424209 (2012).   %
     %                                                                      %
     %%%%%%%%%%%%%%%%%%%%%%%%%%%%%%%%%%%%%%%%%%%%%%%%%%%%%%%%%%%%%%%%%%%%%%%%


 
     Adding external electric field

     Computed dipole along edir(3) : 
        Dipole               -6.4270 Ry au,        -16.3359 Debye
        Dipole field         -0.0081 Ry au, 
 
        Potential amp.        0.7495 Ry
        Total length         46.3494 bohr
 
     Starting wfcs are  330 atomic wfcs
  @ DRIVER MODE: Message from server: STATUS
  @ DRIVER MODE: Message from server: POSDATA
  @ DRIVER MODE: Reading and sharing cell 
  @ DRIVER MODE: Reading and sharing positions 
  @ DRIVER MODE: Received positions 

     total cpu time spent up to now is       18.7 secs

     Self-consistent Calculation

     iteration #  1     ecut=    29.40 Ry     beta= 0.05
     Davidson diagonalization with overlap
     c_bands:  2 eigenvalues not converged
     c_bands:  2 eigenvalues not converged
     c_bands:  5 eigenvalues not converged
     c_bands:  2 eigenvalues not converged
     c_bands:  4 eigenvalues not converged
     c_bands:  5 eigenvalues not converged
     c_bands:  4 eigenvalues not converged
     c_bands:  3 eigenvalues not converged
     c_bands:  4 eigenvalues not converged
     c_bands:  4 eigenvalues not converged
     ethr =  1.00E-05,  avg # of iterations = 20.0

     negative rho (up, down):  3.639E-02 0.000E+00
 
     Adding external electric field

     Computed dipole along edir(3) : 
        Dipole                8.4580 Ry au,         21.4980 Debye
        Dipole field          0.0106 Ry au, 
 
        Potential amp.       -0.9864 Ry
        Total length         46.3494 bohr
 

     total cpu time spent up to now is       99.4 secs

     total energy              =   -3267.07025003 Ry
     estimated scf accuracy    <     308.54111941 Ry

     iteration #  2     ecut=    29.40 Ry     beta= 0.05
     Davidson diagonalization with overlap
     c_bands:  1 eigenvalues not converged
     c_bands:  3 eigenvalues not converged
     c_bands:  2 eigenvalues not converged
     c_bands:  4 eigenvalues not converged
     c_bands:  3 eigenvalues not converged
     ethr =  1.00E-02,  avg # of iterations = 18.4

     negative rho (up, down):  3.083E-02 0.000E+00
 
     Adding external electric field

     Computed dipole along edir(3) : 
        Dipole               -1.6487 Ry au,         -4.1905 Debye
        Dipole field         -0.0021 Ry au, 
 
        Potential amp.        0.1923 Ry
        Total length         46.3494 bohr
 

     total cpu time spent up to now is      150.7 secs

     total energy              =   -3254.38492267 Ry
     estimated scf accuracy    <    2187.45683297 Ry

     iteration #  3     ecut=    29.40 Ry     beta= 0.05
     Davidson diagonalization with overlap
     ethr =  1.00E-02,  avg # of iterations = 13.7

     negative rho (up, down):  3.033E-02 0.000E+00
 
     Adding external electric field

     Computed dipole along edir(3) : 
        Dipole               -1.5289 Ry au,         -3.8861 Debye
        Dipole field         -0.0019 Ry au, 
 
        Potential amp.        0.1783 Ry
        Total length         46.3494 bohr
 

     total cpu time spent up to now is      187.8 secs

     total energy              =   -3291.95855686 Ry
     estimated scf accuracy    <      11.92095851 Ry

     iteration #  4     ecut=    29.40 Ry     beta= 0.05
     Davidson diagonalization with overlap
     ethr =  2.72E-03,  avg # of iterations =  4.8

     negative rho (up, down):  2.963E-02 0.000E+00
 
     Adding external electric field

     Computed dipole along edir(3) : 
        Dipole               -0.8901 Ry au,         -2.2625 Debye
        Dipole field         -0.0011 Ry au, 
 
        Potential amp.        0.1038 Ry
        Total length         46.3494 bohr
 

     total cpu time spent up to now is      211.8 secs

     total energy              =   -3290.86113321 Ry
     estimated scf accuracy    <      10.87252214 Ry

     iteration #  5     ecut=    29.40 Ry     beta= 0.05
     Davidson diagonalization with overlap
     ethr =  2.48E-03,  avg # of iterations =  1.9

     negative rho (up, down):  2.959E-02 0.000E+00
 
     Adding external electric field

     Computed dipole along edir(3) : 
        Dipole               -0.3179 Ry au,         -0.8080 Debye
        Dipole field         -0.0004 Ry au, 
 
        Potential amp.        0.0371 Ry
        Total length         46.3494 bohr
 

     total cpu time spent up to now is      233.7 secs

     total energy              =   -3290.11514419 Ry
     estimated scf accuracy    <       4.62494628 Ry

     iteration #  6     ecut=    29.40 Ry     beta= 0.05
     Davidson diagonalization with overlap
     c_bands:  2 eigenvalues not converged
     c_bands:  2 eigenvalues not converged
     c_bands:  1 eigenvalues not converged
     ethr =  1.06E-03,  avg # of iterations = 18.4

     negative rho (up, down):  2.904E-02 0.000E+00
 
     Adding external electric field

     Computed dipole along edir(3) : 
        Dipole               -0.1887 Ry au,         -0.4795 Debye
        Dipole field         -0.0002 Ry au, 
 
        Potential amp.        0.0220 Ry
        Total length         46.3494 bohr
 

     total cpu time spent up to now is      274.2 secs

     total energy              =   -3290.80523695 Ry
     estimated scf accuracy    <       8.63082367 Ry

     iteration #  7     ecut=    29.40 Ry     beta= 0.05
     Davidson diagonalization with overlap
     ethr =  1.06E-03,  avg # of iterations =  1.2

     negative rho (up, down):  2.852E-02 0.000E+00
 
     Adding external electric field

     Computed dipole along edir(3) : 
        Dipole                0.6166 Ry au,          1.5672 Debye
        Dipole field          0.0008 Ry au, 
 
        Potential amp.       -0.0719 Ry
        Total length         46.3494 bohr
 

     total cpu time spent up to now is      295.0 secs

     total energy              =   -3290.43207983 Ry
     estimated scf accuracy    <       4.87635087 Ry

     iteration #  8     ecut=    29.40 Ry     beta= 0.05
     Davidson diagonalization with overlap
     c_bands:  3 eigenvalues not converged
     c_bands:  1 eigenvalues not converged
     c_bands:  2 eigenvalues not converged
     ethr =  1.06E-03,  avg # of iterations = 16.7

     negative rho (up, down):  2.847E-02 0.000E+00
 
     Adding external electric field

     Computed dipole along edir(3) : 
        Dipole                1.0436 Ry au,          2.6525 Debye
        Dipole field          0.0013 Ry au, 
 
        Potential amp.       -0.1217 Ry
        Total length         46.3494 bohr
 

     total cpu time spent up to now is      328.1 secs

     total energy              =   -3290.57127320 Ry
     estimated scf accuracy    <       4.06302937 Ry

     iteration #  9     ecut=    29.40 Ry     beta= 0.05
     Davidson diagonalization with overlap
     ethr =  9.28E-04,  avg # of iterations =  4.1

     negative rho (up, down):  2.837E-02 0.000E+00
 
     Adding external electric field

     Computed dipole along edir(3) : 
        Dipole                1.0920 Ry au,          2.7755 Debye
        Dipole field          0.0014 Ry au, 
 
        Potential amp.       -0.1274 Ry
        Total length         46.3494 bohr
 

     total cpu time spent up to now is      351.0 secs

     total energy              =   -3290.76296246 Ry
     estimated scf accuracy    <       1.93279706 Ry

     iteration # 10     ecut=    29.40 Ry     beta= 0.05
     Davidson diagonalization with overlap
     c_bands:  1 eigenvalues not converged
     ethr =  4.41E-04,  avg # of iterations =  9.1

     negative rho (up, down):  2.846E-02 0.000E+00
 
     Adding external electric field

     Computed dipole along edir(3) : 
        Dipole                1.0105 Ry au,          2.5685 Debye
        Dipole field          0.0013 Ry au, 
 
        Potential amp.       -0.1179 Ry
        Total length         46.3494 bohr
 

     total cpu time spent up to now is      377.0 secs

     total energy              =   -3290.77641753 Ry
     estimated scf accuracy    <       1.83239654 Ry

     iteration # 11     ecut=    29.40 Ry     beta= 0.05
     Davidson diagonalization with overlap
     ethr =  4.18E-04,  avg # of iterations =  3.0

     negative rho (up, down):  2.975E-02 0.000E+00
 
     Adding external electric field

     Computed dipole along edir(3) : 
        Dipole                0.4220 Ry au,          1.0726 Debye
        Dipole field          0.0005 Ry au, 
 
        Potential amp.       -0.0492 Ry
        Total length         46.3494 bohr
 

     total cpu time spent up to now is      398.6 secs

     total energy              =   -3290.62105762 Ry
     estimated scf accuracy    <       1.50769354 Ry

     iteration # 12     ecut=    29.40 Ry     beta= 0.05
     Davidson diagonalization with overlap
     c_bands:  1 eigenvalues not converged
     c_bands:  3 eigenvalues not converged
     c_bands:  1 eigenvalues not converged
     c_bands:  4 eigenvalues not converged
     ethr =  3.44E-04,  avg # of iterations = 18.1

     negative rho (up, down):  2.993E-02 0.000E+00
 
     Adding external electric field

     Computed dipole along edir(3) : 
        Dipole                0.6906 Ry au,          1.7552 Debye
        Dipole field          0.0009 Ry au, 
 
        Potential amp.       -0.0805 Ry
        Total length         46.3494 bohr
 

     total cpu time spent up to now is      437.4 secs

     total energy              =   -3290.94605260 Ry
     estimated scf accuracy    <       7.54264714 Ry

     iteration # 13     ecut=    29.40 Ry     beta= 0.05
     Davidson diagonalization with overlap
     ethr =  3.44E-04,  avg # of iterations =  1.3

     negative rho (up, down):  3.001E-02 0.000E+00
 
     Adding external electric field

     Computed dipole along edir(3) : 
        Dipole                1.4906 Ry au,          3.7886 Debye
        Dipole field          0.0019 Ry au, 
 
        Potential amp.       -0.1738 Ry
        Total length         46.3494 bohr
 

     total cpu time spent up to now is      458.4 secs

     total energy              =   -3290.39153921 Ry
     estimated scf accuracy    <       6.69149733 Ry

     iteration # 14     ecut=    29.40 Ry     beta= 0.05
     Davidson diagonalization with overlap
     c_bands:  1 eigenvalues not converged
     c_bands:  4 eigenvalues not converged
     c_bands:  3 eigenvalues not converged
     c_bands:  3 eigenvalues not converged
     c_bands:  5 eigenvalues not converged
     c_bands:  5 eigenvalues not converged
     ethr =  3.44E-04,  avg # of iterations = 22.6

     negative rho (up, down):  2.999E-02 0.000E+00
 
     Adding external electric field

     Computed dipole along edir(3) : 
        Dipole                1.7999 Ry au,          4.5748 Debye
        Dipole field          0.0023 Ry au, 
 
        Potential amp.       -0.2099 Ry
        Total length         46.3494 bohr
 

     total cpu time spent up to now is      501.0 secs

     total energy              =   -3290.90687097 Ry
     estimated scf accuracy    <       1.25383928 Ry

     iteration # 15     ecut=    29.40 Ry     beta= 0.05
     Davidson diagonalization with overlap
     ethr =  2.86E-04,  avg # of iterations =  4.7

     negative rho (up, down):  3.180E-02 0.000E+00
 
     Adding external electric field

     Computed dipole along edir(3) : 
        Dipole                2.1385 Ry au,          5.4355 Debye
        Dipole field          0.0027 Ry au, 
 
        Potential amp.       -0.2494 Ry
        Total length         46.3494 bohr
 

     total cpu time spent up to now is      524.3 secs

     total energy              =   -3290.97746580 Ry
     estimated scf accuracy    <       1.37994991 Ry

     iteration # 16     ecut=    29.40 Ry     beta= 0.05
     Davidson diagonalization with overlap
     ethr =  2.86E-04,  avg # of iterations =  6.8

     negative rho (up, down):  3.391E-02 0.000E+00
 
     Adding external electric field

     Computed dipole along edir(3) : 
        Dipole                2.0760 Ry au,          5.2767 Debye
        Dipole field          0.0026 Ry au, 
 
        Potential amp.       -0.2421 Ry
        Total length         46.3494 bohr
 

     total cpu time spent up to now is      549.1 secs

     total energy              =   -3290.90741529 Ry
     estimated scf accuracy    <       1.38209712 Ry

     iteration # 17     ecut=    29.40 Ry     beta= 0.05
     Davidson diagonalization with overlap
     ethr =  2.86E-04,  avg # of iterations =  2.0

     negative rho (up, down):  3.412E-02 0.000E+00
 
     Adding external electric field

     Computed dipole along edir(3) : 
        Dipole                1.9911 Ry au,          5.0608 Debye
        Dipole field          0.0025 Ry au, 
 
        Potential amp.       -0.2322 Ry
        Total length         46.3494 bohr
 

     total cpu time spent up to now is      570.3 secs

     total energy              =   -3290.87353902 Ry
     estimated scf accuracy    <       1.26164289 Ry

     iteration # 18     ecut=    29.40 Ry     beta= 0.05
     Davidson diagonalization with overlap
     ethr =  2.86E-04,  avg # of iterations =  1.1

     negative rho (up, down):  3.382E-02 0.000E+00
 
     Adding external electric field

     Computed dipole along edir(3) : 
        Dipole                1.9363 Ry au,          4.9215 Debye
        Dipole field          0.0024 Ry au, 
 
        Potential amp.       -0.2258 Ry
        Total length         46.3494 bohr
 

     total cpu time spent up to now is      590.9 secs

     total energy              =   -3290.85889487 Ry
     estimated scf accuracy    <       0.87994054 Ry

     iteration # 19     ecut=    29.40 Ry     beta= 0.05
     Davidson diagonalization with overlap
     ethr =  2.01E-04,  avg # of iterations =  1.3

     negative rho (up, down):  3.372E-02 0.000E+00
 
     Adding external electric field

     Computed dipole along edir(3) : 
        Dipole                1.9378 Ry au,          4.9255 Debye
        Dipole field          0.0024 Ry au, 
 
        Potential amp.       -0.2260 Ry
        Total length         46.3494 bohr
 

     total cpu time spent up to now is      611.8 secs

     total energy              =   -3290.86732107 Ry
     estimated scf accuracy    <       0.78777218 Ry

     iteration # 20     ecut=    29.40 Ry     beta= 0.05
     Davidson diagonalization with overlap
     ethr =  1.80E-04,  avg # of iterations =  1.0

     negative rho (up, down):  3.348E-02 0.000E+00
 
     Adding external electric field

     Computed dipole along edir(3) : 
        Dipole                1.7835 Ry au,          4.5333 Debye
        Dipole field          0.0022 Ry au, 
 
        Potential amp.       -0.2080 Ry
        Total length         46.3494 bohr
 

     total cpu time spent up to now is      632.3 secs

     total energy              =   -3290.82937124 Ry
     estimated scf accuracy    <       0.76949484 Ry

     iteration # 21     ecut=    29.40 Ry     beta= 0.05
     Davidson diagonalization with overlap
     ethr =  1.76E-04,  avg # of iterations =  4.5

     negative rho (up, down):  3.345E-02 0.000E+00
 
     Adding external electric field

     Computed dipole along edir(3) : 
        Dipole                1.7658 Ry au,          4.4883 Debye
        Dipole field          0.0022 Ry au, 
 
        Potential amp.       -0.2059 Ry
        Total length         46.3494 bohr
 

     total cpu time spent up to now is      655.0 secs

     total energy              =   -3290.83128341 Ry
     estimated scf accuracy    <       0.57111830 Ry

     iteration # 22     ecut=    29.40 Ry     beta= 0.05
     Davidson diagonalization with overlap
     ethr =  1.30E-04,  avg # of iterations =  2.3

     negative rho (up, down):  3.528E-02 0.000E+00
 
     Adding external electric field

     Computed dipole along edir(3) : 
        Dipole                1.0772 Ry au,          2.7381 Debye
        Dipole field          0.0014 Ry au, 
 
        Potential amp.       -0.1256 Ry
        Total length         46.3494 bohr
 

     total cpu time spent up to now is      676.6 secs

     total energy              =   -3290.74502621 Ry
     estimated scf accuracy    <       0.59146417 Ry

     iteration # 23     ecut=    29.40 Ry     beta= 0.05
     Davidson diagonalization with overlap
     c_bands:  2 eigenvalues not converged
     c_bands:  2 eigenvalues not converged
     c_bands:  3 eigenvalues not converged
     c_bands:  2 eigenvalues not converged
     ethr =  1.30E-04,  avg # of iterations = 20.6

     negative rho (up, down):  3.399E-02 0.000E+00
 
     Adding external electric field

     Computed dipole along edir(3) : 
        Dipole                1.5087 Ry au,          3.8348 Debye
        Dipole field          0.0019 Ry au, 
 
        Potential amp.       -0.1760 Ry
        Total length         46.3494 bohr
 

     total cpu time spent up to now is      717.5 secs

     total energy              =   -3290.67904506 Ry
     estimated scf accuracy    <       6.19494569 Ry

     iteration # 24     ecut=    29.40 Ry     beta= 0.05
     Davidson diagonalization with overlap
     c_bands:  1 eigenvalues not converged
     c_bands:  2 eigenvalues not converged
     c_bands:  4 eigenvalues not converged
     c_bands:  1 eigenvalues not converged
     c_bands:  1 eigenvalues not converged
     ethr =  1.30E-04,  avg # of iterations = 16.4

     negative rho (up, down):  3.343E-02 0.000E+00
 
     Adding external electric field

     Computed dipole along edir(3) : 
        Dipole                1.6061 Ry au,          4.0822 Debye
        Dipole field          0.0020 Ry au, 
 
        Potential amp.       -0.1873 Ry
        Total length         46.3494 bohr
 

     total cpu time spent up to now is      748.8 secs

     total energy              =   -3290.81447589 Ry
     estimated scf accuracy    <       0.03463198 Ry

     iteration # 25     ecut=    29.40 Ry     beta= 0.05
     Davidson diagonalization with overlap
     c_bands:  5 eigenvalues not converged
     c_bands:  2 eigenvalues not converged
     c_bands:  1 eigenvalues not converged
     c_bands:  5 eigenvalues not converged
     c_bands:  5 eigenvalues not converged
     c_bands:  1 eigenvalues not converged
     c_bands:  5 eigenvalues not converged
     c_bands:  2 eigenvalues not converged
     c_bands:  2 eigenvalues not converged
     c_bands:  2 eigenvalues not converged
     ethr =  7.91E-06,  avg # of iterations = 30.0

     negative rho (up, down):  3.372E-02 0.000E+00
 
     Adding external electric field

     Computed dipole along edir(3) : 
        Dipole                1.5915 Ry au,          4.0451 Debye
        Dipole field          0.0020 Ry au, 
 
        Potential amp.       -0.1856 Ry
        Total length         46.3494 bohr
 

     total cpu time spent up to now is      806.1 secs

     total energy              =   -3290.82441693 Ry
     estimated scf accuracy    <       0.19452543 Ry

     iteration # 26     ecut=    29.40 Ry     beta= 0.05
     Davidson diagonalization with overlap
     c_bands:  5 eigenvalues not converged
     c_bands:  2 eigenvalues not converged
     ethr =  7.91E-06,  avg # of iterations = 11.6

     negative rho (up, down):  3.515E-02 0.000E+00
 
     Adding external electric field

     Computed dipole along edir(3) : 
        Dipole                1.3925 Ry au,          3.5395 Debye
        Dipole field          0.0018 Ry au, 
 
        Potential amp.       -0.1624 Ry
        Total length         46.3494 bohr
 

     total cpu time spent up to now is      833.6 secs

     total energy              =   -3290.81252349 Ry
     estimated scf accuracy    <       0.15917437 Ry

     iteration # 27     ecut=    29.40 Ry     beta= 0.05
     Davidson diagonalization with overlap
     c_bands:  2 eigenvalues not converged
     c_bands:  3 eigenvalues not converged
     c_bands:  2 eigenvalues not converged
     c_bands:  3 eigenvalues not converged
     c_bands:  2 eigenvalues not converged
     c_bands:  3 eigenvalues not converged
     c_bands:  1 eigenvalues not converged
     ethr =  7.91E-06,  avg # of iterations = 19.8

     negative rho (up, down):  3.485E-02 0.000E+00
 
     Adding external electric field

     Computed dipole along edir(3) : 
        Dipole                1.3704 Ry au,          3.4832 Debye
        Dipole field          0.0017 Ry au, 
 
        Potential amp.       -0.1598 Ry
        Total length         46.3494 bohr
 

     total cpu time spent up to now is      876.6 secs

     total energy              =   -3290.82239362 Ry
     estimated scf accuracy    <       0.09481552 Ry

     iteration # 28     ecut=    29.40 Ry     beta= 0.05
     Davidson diagonalization with overlap
     c_bands:  1 eigenvalues not converged
     c_bands:  2 eigenvalues not converged
     c_bands:  3 eigenvalues not converged
     c_bands:  1 eigenvalues not converged
     c_bands:  2 eigenvalues not converged
     ethr =  7.91E-06,  avg # of iterations = 14.0

     negative rho (up, down):  3.521E-02 0.000E+00
 
     Adding external electric field

     Computed dipole along edir(3) : 
        Dipole                1.3979 Ry au,          3.5532 Debye
        Dipole field          0.0018 Ry au, 
 
        Potential amp.       -0.1630 Ry
        Total length         46.3494 bohr
 

     total cpu time spent up to now is      905.7 secs

     total energy              =   -3290.82467769 Ry
     estimated scf accuracy    <       0.07664056 Ry

     iteration # 29     ecut=    29.40 Ry     beta= 0.05
     Davidson diagonalization with overlap
     c_bands:  1 eigenvalues not converged
     c_bands:  1 eigenvalues not converged
     c_bands:  2 eigenvalues not converged
     ethr =  7.91E-06,  avg # of iterations = 15.2

     negative rho (up, down):  3.527E-02 0.000E+00
 
     Adding external electric field

     Computed dipole along edir(3) : 
        Dipole                1.4330 Ry au,          3.6423 Debye
        Dipole field          0.0018 Ry au, 
 
        Potential amp.       -0.1671 Ry
        Total length         46.3494 bohr
 

     total cpu time spent up to now is      934.7 secs

     total energy              =   -3290.82168019 Ry
     estimated scf accuracy    <       0.07569293 Ry

     iteration # 30     ecut=    29.40 Ry     beta= 0.05
     Davidson diagonalization with overlap
     c_bands:  1 eigenvalues not converged
     ethr =  7.91E-06,  avg # of iterations =  5.5

     negative rho (up, down):  3.510E-02 0.000E+00
 
     Adding external electric field

     Computed dipole along edir(3) : 
        Dipole                1.4478 Ry au,          3.6798 Debye
        Dipole field          0.0018 Ry au, 
 
        Potential amp.       -0.1688 Ry
        Total length         46.3494 bohr
 

     total cpu time spent up to now is      958.4 secs

     total energy              =   -3290.82094442 Ry
     estimated scf accuracy    <       0.02810040 Ry

     iteration # 31     ecut=    29.40 Ry     beta= 0.05
     Davidson diagonalization with overlap
     c_bands:  1 eigenvalues not converged
     c_bands:  1 eigenvalues not converged
     ethr =  6.42E-06,  avg # of iterations = 13.0

     negative rho (up, down):  3.494E-02 0.000E+00
 
     Adding external electric field

     Computed dipole along edir(3) : 
        Dipole                1.4576 Ry au,          3.7050 Debye
        Dipole field          0.0018 Ry au, 
 
        Potential amp.       -0.1700 Ry
        Total length         46.3494 bohr
 

     total cpu time spent up to now is      986.9 secs

     total energy              =   -3290.82146590 Ry
     estimated scf accuracy    <       0.01200891 Ry

     iteration # 32     ecut=    29.40 Ry     beta= 0.05
     Davidson diagonalization with overlap
     c_bands:  1 eigenvalues not converged
     c_bands:  1 eigenvalues not converged
     c_bands:  1 eigenvalues not converged
     ethr =  2.74E-06,  avg # of iterations = 13.1

     negative rho (up, down):  3.497E-02 0.000E+00
 
     Adding external electric field

     Computed dipole along edir(3) : 
        Dipole                1.4488 Ry au,          3.6825 Debye
        Dipole field          0.0018 Ry au, 
 
        Potential amp.       -0.1690 Ry
        Total length         46.3494 bohr
 

     total cpu time spent up to now is     1015.5 secs

     total energy              =   -3290.82256606 Ry
     estimated scf accuracy    <       0.00684653 Ry

     iteration # 33     ecut=    29.40 Ry     beta= 0.05
     Davidson diagonalization with overlap
     c_bands:  3 eigenvalues not converged
     c_bands:  1 eigenvalues not converged
     ethr =  1.56E-06,  avg # of iterations = 12.1

     negative rho (up, down):  3.488E-02 0.000E+00
 
     Adding external electric field

     Computed dipole along edir(3) : 
        Dipole                1.4787 Ry au,          3.7585 Debye
        Dipole field          0.0019 Ry au, 
 
        Potential amp.       -0.1725 Ry
        Total length         46.3494 bohr
 

     total cpu time spent up to now is     1042.3 secs

     total energy              =   -3290.82176228 Ry
     estimated scf accuracy    <       0.01165985 Ry

     iteration # 34     ecut=    29.40 Ry     beta= 0.05
     Davidson diagonalization with overlap
     c_bands:  1 eigenvalues not converged
     c_bands:  1 eigenvalues not converged
     c_bands:  1 eigenvalues not converged
     c_bands:  1 eigenvalues not converged
     ethr =  1.56E-06,  avg # of iterations = 16.0

     negative rho (up, down):  3.507E-02 0.000E+00
 
     Adding external electric field

     Computed dipole along edir(3) : 
        Dipole                1.4975 Ry au,          3.8064 Debye
        Dipole field          0.0019 Ry au, 
 
        Potential amp.       -0.1746 Ry
        Total length         46.3494 bohr
 

     total cpu time spent up to now is     1073.8 secs

     total energy              =   -3290.82230505 Ry
     estimated scf accuracy    <       0.00314875 Ry

     iteration # 35     ecut=    29.40 Ry     beta= 0.05
     Davidson diagonalization with overlap
     c_bands:  2 eigenvalues not converged
     c_bands:  2 eigenvalues not converged
     ethr =  7.19E-07,  avg # of iterations = 11.7

     negative rho (up, down):  3.514E-02 0.000E+00
 
     Adding external electric field

     Computed dipole along edir(3) : 
        Dipole                1.5050 Ry au,          3.8254 Debye
        Dipole field          0.0019 Ry au, 
 
        Potential amp.       -0.1755 Ry
        Total length         46.3494 bohr
 

     total cpu time spent up to now is     1103.0 secs

     total energy              =   -3290.82261716 Ry
     estimated scf accuracy    <       0.00251050 Ry

     iteration # 36     ecut=    29.40 Ry     beta= 0.05
     Davidson diagonalization with overlap
     c_bands:  1 eigenvalues not converged
     c_bands:  1 eigenvalues not converged
     c_bands:  1 eigenvalues not converged
     c_bands:  1 eigenvalues not converged
     c_bands:  1 eigenvalues not converged
     ethr =  5.73E-07,  avg # of iterations = 18.9

     negative rho (up, down):  3.513E-02 0.000E+00
 
     Adding external electric field

     Computed dipole along edir(3) : 
        Dipole                1.5025 Ry au,          3.8190 Debye
        Dipole field          0.0019 Ry au, 
 
        Potential amp.       -0.1752 Ry
        Total length         46.3494 bohr
 

     total cpu time spent up to now is     1144.0 secs

     total energy              =   -3290.82271361 Ry
     estimated scf accuracy    <       0.00306003 Ry

     iteration # 37     ecut=    29.40 Ry     beta= 0.05
     Davidson diagonalization with overlap
     c_bands:  1 eigenvalues not converged
     c_bands:  1 eigenvalues not converged
     ethr =  5.73E-07,  avg # of iterations = 11.5

     negative rho (up, down):  3.510E-02 0.000E+00
 
     Adding external electric field

     Computed dipole along edir(3) : 
        Dipole                1.4916 Ry au,          3.7912 Debye
        Dipole field          0.0019 Ry au, 
 
        Potential amp.       -0.1740 Ry
        Total length         46.3494 bohr
 

     total cpu time spent up to now is     1170.5 secs

     total energy              =   -3290.82258192 Ry
     estimated scf accuracy    <       0.00119384 Ry

     iteration # 38     ecut=    29.40 Ry     beta= 0.05
     Davidson diagonalization with overlap
     c_bands:  1 eigenvalues not converged
     ethr =  2.73E-07,  avg # of iterations = 16.6

     negative rho (up, down):  3.513E-02 0.000E+00
 
     Adding external electric field

     Computed dipole along edir(3) : 
        Dipole                1.4969 Ry au,          3.8047 Debye
        Dipole field          0.0019 Ry au, 
 
        Potential amp.       -0.1746 Ry
        Total length         46.3494 bohr
 

     total cpu time spent up to now is     1211.9 secs

     total energy              =   -3290.82286744 Ry
     estimated scf accuracy    <       0.00091857 Ry

     iteration # 39     ecut=    29.40 Ry     beta= 0.05
     Davidson diagonalization with overlap
     ethr =  2.10E-07,  avg # of iterations =  5.3

     negative rho (up, down):  3.514E-02 0.000E+00
 
     Adding external electric field

     Computed dipole along edir(3) : 
        Dipole                1.5025 Ry au,          3.8189 Debye
        Dipole field          0.0019 Ry au, 
 
        Potential amp.       -0.1752 Ry
        Total length         46.3494 bohr
 

     total cpu time spent up to now is     1236.0 secs

     total energy              =   -3290.82289401 Ry
     estimated scf accuracy    <       0.00040931 Ry

     iteration # 40     ecut=    29.40 Ry     beta= 0.05
     Davidson diagonalization with overlap
     c_bands:  2 eigenvalues not converged
     ethr =  9.35E-08,  avg # of iterations = 15.6

     negative rho (up, down):  3.509E-02 0.000E+00
 
     Adding external electric field

     Computed dipole along edir(3) : 
        Dipole                1.4986 Ry au,          3.8092 Debye
        Dipole field          0.0019 Ry au, 
 
        Potential amp.       -0.1748 Ry
        Total length         46.3494 bohr
 

     total cpu time spent up to now is     1273.1 secs

     total energy              =   -3290.82296523 Ry
     estimated scf accuracy    <       0.00027166 Ry

     iteration # 41     ecut=    29.40 Ry     beta= 0.05
     Davidson diagonalization with overlap
     c_bands:  1 eigenvalues not converged
     c_bands:  2 eigenvalues not converged
     ethr =  6.20E-08,  avg # of iterations = 16.4

     negative rho (up, down):  3.508E-02 0.000E+00
 
     Adding external electric field

     Computed dipole along edir(3) : 
        Dipole                1.4966 Ry au,          3.8039 Debye
        Dipole field          0.0019 Ry au, 
 
        Potential amp.       -0.1745 Ry
        Total length         46.3494 bohr
 

     total cpu time spent up to now is     1305.4 secs

     total energy              =   -3290.82300618 Ry
     estimated scf accuracy    <       0.00014025 Ry

     iteration # 42     ecut=    29.40 Ry     beta= 0.05
     Davidson diagonalization with overlap
     c_bands:  1 eigenvalues not converged
     ethr =  3.20E-08,  avg # of iterations = 10.9

     negative rho (up, down):  3.505E-02 0.000E+00
 
     Adding external electric field

     Computed dipole along edir(3) : 
        Dipole                1.4921 Ry au,          3.7925 Debye
        Dipole field          0.0019 Ry au, 
 
        Potential amp.       -0.1740 Ry
        Total length         46.3494 bohr
 

     total cpu time spent up to now is     1332.3 secs

     total energy              =   -3290.82302909 Ry
     estimated scf accuracy    <       0.00006849 Ry

     iteration # 43     ecut=    29.40 Ry     beta= 0.05
     Davidson diagonalization with overlap
     c_bands:  2 eigenvalues not converged
     ethr =  1.56E-08,  avg # of iterations = 15.3

     negative rho (up, down):  3.502E-02 0.000E+00
 
     Adding external electric field

     Computed dipole along edir(3) : 
        Dipole                1.4930 Ry au,          3.7948 Debye
        Dipole field          0.0019 Ry au, 
 
        Potential amp.       -0.1741 Ry
        Total length         46.3494 bohr
 

     total cpu time spent up to now is     1372.0 secs

     total energy              =   -3290.82305328 Ry
     estimated scf accuracy    <       0.00005938 Ry

     iteration # 44     ecut=    29.40 Ry     beta= 0.05
     Davidson diagonalization with overlap
     c_bands:  2 eigenvalues not converged
     ethr =  1.36E-08,  avg # of iterations = 15.1

     negative rho (up, down):  3.499E-02 0.000E+00
 
     Adding external electric field

     Computed dipole along edir(3) : 
        Dipole                1.4933 Ry au,          3.7957 Debye
        Dipole field          0.0019 Ry au, 
 
        Potential amp.       -0.1742 Ry
        Total length         46.3494 bohr
 

     total cpu time spent up to now is     1402.4 secs

     total energy              =   -3290.82307046 Ry
     estimated scf accuracy    <       0.00004699 Ry

     iteration # 45     ecut=    29.40 Ry     beta= 0.05
     Davidson diagonalization with overlap
     c_bands:  2 eigenvalues not converged
     ethr =  1.07E-08,  avg # of iterations = 12.8

     negative rho (up, down):  3.496E-02 0.000E+00
 
     Adding external electric field

     Computed dipole along edir(3) : 
        Dipole                1.4902 Ry au,          3.7876 Debye
        Dipole field          0.0019 Ry au, 
 
        Potential amp.       -0.1738 Ry
        Total length         46.3494 bohr
 

     total cpu time spent up to now is     1432.3 secs

     total energy              =   -3290.82308562 Ry
     estimated scf accuracy    <       0.00003717 Ry

     iteration # 46     ecut=    29.40 Ry     beta= 0.05
     Davidson diagonalization with overlap
     c_bands:  1 eigenvalues not converged
     ethr =  8.49E-09,  avg # of iterations = 11.8

     negative rho (up, down):  3.495E-02 0.000E+00
 
     Adding external electric field

     Computed dipole along edir(3) : 
        Dipole                1.4876 Ry au,          3.7812 Debye
        Dipole field          0.0019 Ry au, 
 
        Potential amp.       -0.1735 Ry
        Total length         46.3494 bohr
 

     total cpu time spent up to now is     1460.7 secs

     total energy              =   -3290.82310078 Ry
     estimated scf accuracy    <       0.00001424 Ry

     iteration # 47     ecut=    29.40 Ry     beta= 0.05
     Davidson diagonalization with overlap
     c_bands:  2 eigenvalues not converged
     ethr =  3.25E-09,  avg # of iterations = 13.8

     negative rho (up, down):  3.494E-02 0.000E+00
 
     Adding external electric field

     Computed dipole along edir(3) : 
        Dipole                1.4886 Ry au,          3.7836 Debye
        Dipole field          0.0019 Ry au, 
 
        Potential amp.       -0.1736 Ry
        Total length         46.3494 bohr
 

     total cpu time spent up to now is     1495.5 secs

     total energy              =   -3290.82311508 Ry
     estimated scf accuracy    <       0.00002410 Ry

     iteration # 48     ecut=    29.40 Ry     beta= 0.05
     Davidson diagonalization with overlap
     c_bands:  1 eigenvalues not converged
     ethr =  3.25E-09,  avg # of iterations =  6.5

     negative rho (up, down):  3.493E-02 0.000E+00
 
     Adding external electric field

     Computed dipole along edir(3) : 
        Dipole                1.4897 Ry au,          3.7864 Debye
        Dipole field          0.0019 Ry au, 
 
        Potential amp.       -0.1737 Ry
        Total length         46.3494 bohr
 

     total cpu time spent up to now is     1520.6 secs

     total energy              =   -3290.82312571 Ry
     estimated scf accuracy    <       0.00001164 Ry

     iteration # 49     ecut=    29.40 Ry     beta= 0.05
     Davidson diagonalization with overlap
     c_bands:  2 eigenvalues not converged
     c_bands:  1 eigenvalues not converged
     ethr =  2.66E-09,  avg # of iterations = 14.9

     negative rho (up, down):  3.492E-02 0.000E+00
 
     Adding external electric field

     Computed dipole along edir(3) : 
        Dipole                1.4889 Ry au,          3.7844 Debye
        Dipole field          0.0019 Ry au, 
 
        Potential amp.       -0.1736 Ry
        Total length         46.3494 bohr
 

     total cpu time spent up to now is     1554.7 secs

     total energy              =   -3290.82313833 Ry
     estimated scf accuracy    <       0.00000675 Ry

     iteration # 50     ecut=    29.40 Ry     beta= 0.05
     Davidson diagonalization with overlap
     c_bands:  2 eigenvalues not converged
     ethr =  1.54E-09,  avg # of iterations = 15.1

     negative rho (up, down):  3.491E-02 0.000E+00
 
     Adding external electric field

     Computed dipole along edir(3) : 
        Dipole                1.4885 Ry au,          3.7833 Debye
        Dipole field          0.0019 Ry au, 
 
        Potential amp.       -0.1736 Ry
        Total length         46.3494 bohr
 

     total cpu time spent up to now is     1589.3 secs

     total energy              =   -3290.82314820 Ry
     estimated scf accuracy    <       0.00000977 Ry

     iteration # 51     ecut=    29.40 Ry     beta= 0.05
     Davidson diagonalization with overlap
     c_bands:  2 eigenvalues not converged
     ethr =  1.54E-09,  avg # of iterations = 10.2

     negative rho (up, down):  3.490E-02 0.000E+00
 
     Adding external electric field

     Computed dipole along edir(3) : 
        Dipole                1.4879 Ry au,          3.7820 Debye
        Dipole field          0.0019 Ry au, 
 
        Potential amp.       -0.1735 Ry
        Total length         46.3494 bohr
 

     total cpu time spent up to now is     1615.6 secs

     total energy              =   -3290.82315680 Ry
     estimated scf accuracy    <       0.00000515 Ry

     iteration # 52     ecut=    29.40 Ry     beta= 0.05
     Davidson diagonalization with overlap
     c_bands:  2 eigenvalues not converged
     c_bands:  2 eigenvalues not converged
     ethr =  1.17E-09,  avg # of iterations = 16.1

     negative rho (up, down):  3.490E-02 0.000E+00
 
     Adding external electric field

     Computed dipole along edir(3) : 
        Dipole                1.4882 Ry au,          3.7827 Debye
        Dipole field          0.0019 Ry au, 
 
        Potential amp.       -0.1736 Ry
        Total length         46.3494 bohr
 

     total cpu time spent up to now is     1653.5 secs

     total energy              =   -3290.82316543 Ry
     estimated scf accuracy    <       0.00000337 Ry

     iteration # 53     ecut=    29.40 Ry     beta= 0.05
     Davidson diagonalization with overlap
     c_bands:  2 eigenvalues not converged
     ethr =  7.69E-10,  avg # of iterations =  5.7

     negative rho (up, down):  3.490E-02 0.000E+00
 
     Adding external electric field

     Computed dipole along edir(3) : 
        Dipole                1.4888 Ry au,          3.7843 Debye
        Dipole field          0.0019 Ry au, 
 
        Potential amp.       -0.1736 Ry
        Total length         46.3494 bohr
 

     total cpu time spent up to now is     1677.5 secs

     total energy              =   -3290.82317247 Ry
     estimated scf accuracy    <       0.00000198 Ry

     iteration # 54     ecut=    29.40 Ry     beta= 0.05
     Davidson diagonalization with overlap
     c_bands:  1 eigenvalues not converged
     c_bands:  2 eigenvalues not converged
     c_bands:  1 eigenvalues not converged
     c_bands:  2 eigenvalues not converged
     c_bands:  2 eigenvalues not converged
     c_bands:  3 eigenvalues not converged
     c_bands:  1 eigenvalues not converged
     ethr =  4.51E-10,  avg # of iterations = 18.5

     negative rho (up, down):  3.489E-02 0.000E+00
 
     Adding external electric field

     Computed dipole along edir(3) : 
        Dipole                1.4883 Ry au,          3.7829 Debye
        Dipole field          0.0019 Ry au, 
 
        Potential amp.       -0.1736 Ry
        Total length         46.3494 bohr
 

     total cpu time spent up to now is     1719.7 secs

     total energy              =   -3290.82317933 Ry
     estimated scf accuracy    <       0.00000294 Ry

     iteration # 55     ecut=    29.40 Ry     beta= 0.05
     Davidson diagonalization with overlap
     c_bands:  2 eigenvalues not converged
     ethr =  4.51E-10,  avg # of iterations = 13.5

     negative rho (up, down):  3.490E-02 0.000E+00
 
     Adding external electric field

     Computed dipole along edir(3) : 
        Dipole                1.4881 Ry au,          3.7823 Debye
        Dipole field          0.0019 Ry au, 
 
        Potential amp.       -0.1735 Ry
        Total length         46.3494 bohr
 

     total cpu time spent up to now is     1749.7 secs

     total energy              =   -3290.82318528 Ry
     estimated scf accuracy    <       0.00000055 Ry

     iteration # 56     ecut=    29.40 Ry     beta= 0.05
     Davidson diagonalization with overlap
     c_bands:  2 eigenvalues not converged
     c_bands:  2 eigenvalues not converged
     ethr =  1.25E-10,  avg # of iterations = 15.8

     negative rho (up, down):  3.490E-02 0.000E+00
 
     Adding external electric field

     Computed dipole along edir(3) : 
        Dipole                1.4881 Ry au,          3.7823 Debye
        Dipole field          0.0019 Ry au, 
 
        Potential amp.       -0.1735 Ry
        Total length         46.3494 bohr
 

     total cpu time spent up to now is     1792.6 secs

     total energy              =   -3290.82319333 Ry
     estimated scf accuracy    <       0.00000041 Ry

     iteration # 57     ecut=    29.40 Ry     beta= 0.05
     Davidson diagonalization with overlap
     c_bands:  2 eigenvalues not converged
     ethr =  9.29E-11,  avg # of iterations =  4.8

     negative rho (up, down):  3.490E-02 0.000E+00
 
     Adding external electric field

     Computed dipole along edir(3) : 
        Dipole                1.4881 Ry au,          3.7824 Debye
        Dipole field          0.0019 Ry au, 
 
        Potential amp.       -0.1735 Ry
        Total length         46.3494 bohr
 

     total cpu time spent up to now is     1822.9 secs

     total energy              =   -3290.82319831 Ry
     estimated scf accuracy    <       0.00000033 Ry

     iteration # 58     ecut=    29.40 Ry     beta= 0.05
     Davidson diagonalization with overlap
     c_bands:  1 eigenvalues not converged
     c_bands:  2 eigenvalues not converged
     ethr =  7.47E-11,  avg # of iterations = 11.5

     negative rho (up, down):  3.491E-02 0.000E+00
 
     Adding external electric field

     Computed dipole along edir(3) : 
        Dipole                1.4882 Ry au,          3.7825 Debye
        Dipole field          0.0019 Ry au, 
 
        Potential amp.       -0.1736 Ry
        Total length         46.3494 bohr
 

     total cpu time spent up to now is     1850.5 secs

     total energy              =   -3290.82320265 Ry
     estimated scf accuracy    <       0.00000014 Ry

     iteration # 59     ecut=    29.40 Ry     beta= 0.05
     Davidson diagonalization with overlap
     c_bands:  1 eigenvalues not converged
     c_bands:  2 eigenvalues not converged
     c_bands:  1 eigenvalues not converged
     ethr =  3.22E-11,  avg # of iterations = 17.4

     negative rho (up, down):  3.491E-02 0.000E+00
 
     Adding external electric field

     Computed dipole along edir(3) : 
        Dipole                1.4881 Ry au,          3.7823 Debye
        Dipole field          0.0019 Ry au, 
 
        Potential amp.       -0.1735 Ry
        Total length         46.3494 bohr
 

     total cpu time spent up to now is     1892.6 secs

     total energy              =   -3290.82320660 Ry
     estimated scf accuracy    <       0.00000012 Ry

     iteration # 60     ecut=    29.40 Ry     beta= 0.05
     Davidson diagonalization with overlap
     c_bands:  1 eigenvalues not converged
     c_bands:  2 eigenvalues not converged
     c_bands:  1 eigenvalues not converged
     ethr =  2.75E-11,  avg # of iterations = 16.8

     negative rho (up, down):  3.507E-02 0.000E+00
 
     Adding external electric field

     Computed dipole along edir(3) : 
        Dipole                1.4867 Ry au,          3.7788 Debye
        Dipole field          0.0019 Ry au, 
 
        Potential amp.       -0.1734 Ry
        Total length         46.3494 bohr
 

     total cpu time spent up to now is     1925.6 secs

     End of self-consistent calculation

          k = 0.0000 0.0000 0.0000 ( 26871 PWs)   bands (ev):

   -57.5985 -57.5735 -57.5719 -57.5086 -57.4864 -57.4686 -57.4434 -57.4413
   -57.4221 -57.4169 -57.3995 -57.3892 -57.3815 -57.3586 -57.3547 -56.7250
   -56.7012 -56.6951 -33.9905 -33.9886 -33.9722 -33.9670 -33.9479 -33.9340
   -33.9174 -33.9052 -33.9016 -33.8946 -33.8921 -33.8796 -33.8471 -33.8399
   -33.8221 -33.7966 -33.7679 -33.7441 -33.7393 -33.7373 -33.7239 -33.7200
   -33.7174 -33.7108 -33.7005 -33.6998 -33.6963 -33.6954 -33.6759 -33.6694
   -33.6428 -33.6395 -33.6350 -33.6312 -33.6249 -33.6178 -33.6030 -33.6005
   -33.5859 -33.5637 -33.5372 -33.5347 -33.5295 -33.4977 -33.4850 -33.0454
   -33.0372 -33.0311 -33.0158 -33.0107 -32.9552 -32.8938 -32.8870 -32.7543
   -23.5851 -19.5295 -19.3983 -18.4839 -18.1121 -17.9412 -17.9291 -17.9067
   -17.8726 -17.7285 -17.7027 -17.6586 -17.6292 -17.6126 -17.4636 -17.4438
   -17.4268 -17.4235 -17.3776 -17.3728 -17.3667 -17.3374 -17.3305 -17.3188
   -17.2955 -17.2668 -17.1676 -17.1486 -17.1433 -17.1100 -17.0720 -17.0702
   -16.7658 -15.1893 -15.1294 -15.1247  -8.9890  -7.2032  -7.0731  -6.7800
    -6.7745  -5.8052  -5.6651  -5.6068  -5.5623  -5.4303  -5.1327  -5.0947
    -5.0607  -5.0403  -5.0237  -4.9709  -4.9196  -4.9107  -4.8928  -4.8627
    -4.8564  -4.7923  -4.7752  -4.7604  -4.6700  -4.6347  -4.6275  -4.5922
    -4.5702  -4.5062  -4.4945  -4.4743  -4.4369  -4.4285  -4.4020  -4.3848
    -4.2695  -4.1595  -4.1398  -4.0952  -4.0767  -3.9679  -3.9526  -3.9166
    -3.8959  -3.8358  -3.7984  -3.7780  -3.7613  -3.6926  -3.6381  -3.6153
    -3.5775  -3.5235  -3.4731  -3.4504  -3.4290  -3.4126  -3.3530  -3.2962
    -3.2599  -3.1937  -3.1443  -3.0558  -3.0508  -2.9643  -2.9139  -2.7827
    -2.7461  -2.6857  -2.6676  -2.6202  -2.5975  -2.4519  -2.4400  -2.4243
    -2.4212  -2.3872  -2.3328  -2.3122  -2.3097  -2.2878  -2.2591  -2.2107
    -2.1933  -2.1265  -2.0846  -2.0614  -2.0468  -2.0129  -1.9501  -1.9234
    -1.8439  -1.7822  -1.7610  -1.6668  -1.5516  -1.5350  -1.5346  -1.4221
    -1.3983  -1.0247  -0.7981  -0.5006  -0.4353  -0.4332  -0.1484  -0.1432
    -0.0048   1.3392   1.4125   1.5823   1.6066   1.6733   1.8128   1.8362
     1.9161   1.9552   1.9732   1.9858   1.9935

          k = 0.0000 0.0280 0.0000 ( 26907 PWs)   bands (ev):

   -57.5962 -57.5813 -57.5666 -57.5071 -57.4893 -57.4673 -57.4420 -57.4403
   -57.4248 -57.4187 -57.3984 -57.3885 -57.3794 -57.3649 -57.3506 -56.7228
   -56.7070 -56.6915 -34.0571 -34.0084 -33.9715 -33.9561 -33.9501 -33.9160
   -33.9111 -33.9086 -33.8975 -33.8898 -33.8873 -33.8837 -33.8426 -33.8034
   -33.7951 -33.7903 -33.7615 -33.7471 -33.7447 -33.7378 -33.7263 -33.7200
   -33.7152 -33.7079 -33.6993 -33.6942 -33.6783 -33.6773 -33.6713 -33.6604
   -33.6427 -33.6408 -33.6387 -33.6363 -33.6271 -33.6251 -33.6041 -33.6016
   -33.5899 -33.5784 -33.5560 -33.5497 -33.5191 -33.5085 -33.4975 -33.1094
   -33.0297 -33.0189 -33.0090 -32.9507 -32.9464 -32.9120 -32.8745 -32.7802
   -23.5851 -19.5229 -19.4031 -18.4338 -18.1070 -18.0566 -17.9023 -17.8943
   -17.8078 -17.7937 -17.7424 -17.6531 -17.6290 -17.5542 -17.5074 -17.4589
   -17.4422 -17.4236 -17.4051 -17.3799 -17.3653 -17.3317 -17.3190 -17.2814
   -17.2561 -17.2475 -17.2086 -17.1597 -17.1455 -17.1211 -17.0891 -16.9693
   -16.7930 -15.1906 -15.1670 -15.0847  -8.9891  -7.2240  -7.0499  -6.7794
    -6.7751  -5.7324  -5.6473  -5.5693  -5.4820  -5.3643  -5.2753  -5.1815
    -5.0985  -5.0856  -5.0415  -5.0013  -4.9879  -4.9614  -4.9410  -4.8914
    -4.8487  -4.8414  -4.7860  -4.7457  -4.6707  -4.6427  -4.6193  -4.5810
    -4.5645  -4.5063  -4.4909  -4.4823  -4.4448  -4.3878  -4.3135  -4.2974
    -4.2823  -4.2455  -4.2170  -4.1877  -4.0637  -4.0284  -4.0125  -3.9728
    -3.9296  -3.8597  -3.7950  -3.7568  -3.6753  -3.6261  -3.5967  -3.5630
    -3.5363  -3.5103  -3.4872  -3.4298  -3.3878  -3.2921  -3.2650  -3.2005
    -3.1343  -3.0930  -3.0720  -2.9828  -2.9511  -2.8991  -2.8624  -2.8413
    -2.8242  -2.7190  -2.6901  -2.6778  -2.6142  -2.5576  -2.5145  -2.4686
    -2.4112  -2.3726  -2.3508  -2.3198  -2.2892  -2.2803  -2.2334  -2.1988
    -2.1791  -2.1323  -2.1044  -2.0717  -2.0284  -1.9808  -1.9481  -1.9300
    -1.9023  -1.8869  -1.8225  -1.6731  -1.6200  -1.5378  -1.5345  -1.3358
    -1.3058  -1.0876  -0.9291  -0.5807  -0.4771  -0.3520  -0.1811  -0.0847
    -0.0514   1.4033   1.4738   1.5388   1.6625   1.7167   1.7219   1.7538
     1.8969   1.9567   2.0019   2.0126   2.0329

          k = 0.0000-0.0559 0.0000 ( 26942 PWs)   bands (ev):

   -57.5907 -57.5891 -57.5643 -57.5053 -57.4923 -57.4661 -57.4401 -57.4391
   -57.4278 -57.4205 -57.3973 -57.3878 -57.3752 -57.3713 -57.3485 -56.7192
   -56.7128 -56.6894 -34.0817 -34.0294 -33.9788 -33.9710 -33.9530 -33.9210
   -33.9130 -33.9099 -33.9073 -33.8886 -33.8664 -33.8394 -33.8114 -33.7979
   -33.7955 -33.7770 -33.7683 -33.7448 -33.7445 -33.7436 -33.7236 -33.7118
   -33.7060 -33.7023 -33.6905 -33.6823 -33.6775 -33.6718 -33.6612 -33.6596
   -33.6485 -33.6406 -33.6393 -33.6386 -33.6269 -33.6209 -33.6051 -33.6026
   -33.5825 -33.5793 -33.5759 -33.5645 -33.5623 -33.5144 -33.4973 -33.1338
   -33.0278 -33.0222 -33.0079 -32.9375 -32.9302 -32.8693 -32.8549 -32.8477
   -23.5852 -19.5157 -19.4086 -18.3104 -18.2754 -18.0000 -17.9107 -17.8473
   -17.8103 -17.7952 -17.7757 -17.7479 -17.5966 -17.5722 -17.4690 -17.4635
   -17.4515 -17.4366 -17.4231 -17.3869 -17.3507 -17.3156 -17.3054 -17.2672
   -17.2372 -17.2235 -17.2134 -17.1983 -17.1728 -17.1353 -17.0522 -16.8685
   -16.8666 -15.1901 -15.1846 -15.0664  -8.9892  -7.2404  -7.0313  -6.7786
    -6.7761  -5.6403  -5.5521  -5.5159  -5.4925  -5.2791  -5.2623  -5.2580
    -5.2243  -5.1876  -5.1627  -5.1069  -5.0289  -4.9703  -4.9357  -4.8864
    -4.8790  -4.8141  -4.7206  -4.6789  -4.6743  -4.6508  -4.6437  -4.6135
    -4.5749  -4.5525  -4.5299  -4.4983  -4.4680  -4.4218  -4.4133  -4.3687
    -4.2512  -4.2382  -4.1452  -4.1269  -4.0784  -4.0004  -3.9703  -3.9642
    -3.9343  -3.8084  -3.7937  -3.7173  -3.7153  -3.6774  -3.6589  -3.5732
    -3.5571  -3.5419  -3.4842  -3.3687  -3.2516  -3.2089  -3.0989  -3.0913
    -3.0510  -3.0249  -3.0119  -2.9404  -2.8648  -2.8368  -2.8023  -2.7964
    -2.7447  -2.7053  -2.6721  -2.6604  -2.6383  -2.6076  -2.5500  -2.5134
    -2.5097  -2.5032  -2.3692  -2.3456  -2.3131  -2.3007  -2.2721  -2.2497
    -2.1582  -2.1414  -2.1355  -2.1217  -2.1047  -2.0536  -1.9901  -1.9562
    -1.9479  -1.7711  -1.7260  -1.7221  -1.6741  -1.5730  -1.2699  -1.2623
    -1.2584  -1.2420  -1.1674  -0.6707  -0.3959  -0.3751  -0.1400  -0.1365
    -0.0603   1.4393   1.5277   1.5830   1.6010   1.6939   1.7784   1.7911
     1.8899   1.9253   1.9811   1.9846   1.9879

          k = 0.0380 0.0000 0.0000 ( 26897 PWs)   bands (ev):

   -57.5984 -57.5735 -57.5720 -57.5084 -57.4864 -57.4687 -57.4434 -57.4412
   -57.4221 -57.4169 -57.3996 -57.3891 -57.3816 -57.3587 -57.3548 -56.7249
   -56.7012 -56.6952 -33.9918 -33.9899 -33.9728 -33.9673 -33.9480 -33.9344
   -33.9173 -33.9077 -33.9047 -33.8948 -33.8924 -33.8853 -33.8623 -33.8282
   -33.8168 -33.7758 -33.7644 -33.7477 -33.7429 -33.7373 -33.7202 -33.7052
   -33.7018 -33.7002 -33.7000 -33.6983 -33.6957 -33.6946 -33.6744 -33.6644
   -33.6586 -33.6447 -33.6397 -33.6372 -33.6354 -33.6155 -33.6134 -33.6082
   -33.5857 -33.5628 -33.5378 -33.5348 -33.5296 -33.4977 -33.4849 -33.0454
   -33.0373 -33.0347 -33.0156 -33.0104 -32.9550 -32.8940 -32.8871 -32.7540
   -23.5851 -19.5260 -19.3976 -18.4032 -18.0301 -17.9795 -17.8897 -17.8548
   -17.8417 -17.7339 -17.6901 -17.6623 -17.6493 -17.6370 -17.4914 -17.4794
   -17.4459 -17.4340 -17.4259 -17.4185 -17.3579 -17.3422 -17.3311 -17.2838
   -17.2646 -17.2568 -17.2076 -17.2033 -17.1753 -17.1712 -17.0173 -17.0158
   -16.8573 -15.1857 -15.1299 -15.1251  -8.9888  -7.2111  -7.0723  -6.7811
    -6.7744  -5.6616  -5.6391  -5.4148  -5.3628  -5.2909  -5.1538  -5.1302
    -5.1008  -5.0099  -4.9883  -4.9414  -4.9121  -4.8405  -4.8176  -4.8101
    -4.7982  -4.7609  -4.7375  -4.7344  -4.6681  -4.6570  -4.5741  -4.5460
    -4.5273  -4.5149  -4.4873  -4.4527  -4.4281  -4.3962  -4.3043  -4.2678
    -4.2597  -4.1774  -4.1396  -4.1150  -4.0865  -4.0377  -3.9683  -3.9511
    -3.9129  -3.8527  -3.8385  -3.8125  -3.7848  -3.7340  -3.7055  -3.6512
    -3.5763  -3.5107  -3.4748  -3.4660  -3.4248  -3.3895  -3.3277  -3.2786
    -3.2556  -3.1746  -3.1386  -3.0565  -3.0040  -2.9574  -2.9138  -2.8785
    -2.7757  -2.7419  -2.7014  -2.6674  -2.6535  -2.6135  -2.5692  -2.5561
    -2.5148  -2.4823  -2.4628  -2.3521  -2.3298  -2.2950  -2.2679  -2.2380
    -2.2195  -2.1767  -2.1543  -2.1319  -2.0911  -2.0280  -1.8925  -1.8807
    -1.8440  -1.8089  -1.7626  -1.7300  -1.6694  -1.6091  -1.5941  -1.3423
    -1.3307  -1.1770  -0.7905  -0.5316  -0.4228  -0.4208  -0.1962  -0.1915
    -0.0975   1.3366   1.5092   1.5678   1.6863   1.6972   1.7448   1.7896
     1.8215   1.8496   1.8578   1.8795   1.9413

          k = 0.0380 0.0280 0.0000 ( 26880 PWs)   bands (ev):

   -57.5962 -57.5813 -57.5665 -57.5070 -57.4892 -57.4672 -57.4419 -57.4403
   -57.4248 -57.4186 -57.3984 -57.3883 -57.3795 -57.3650 -57.3505 -56.7228
   -56.7070 -56.6914 -34.0581 -34.0087 -33.9723 -33.9602 -33.9503 -33.9164
   -33.9115 -33.9098 -33.9016 -33.8898 -33.8884 -33.8843 -33.8317 -33.8109
   -33.7964 -33.7706 -33.7584 -33.7485 -33.7384 -33.7266 -33.7265 -33.7184
   -33.7137 -33.6961 -33.6933 -33.6867 -33.6782 -33.6752 -33.6675 -33.6646
   -33.6629 -33.6447 -33.6397 -33.6364 -33.6333 -33.6315 -33.6153 -33.6073
   -33.5887 -33.5782 -33.5563 -33.5497 -33.5190 -33.5086 -33.4975 -33.1088
   -33.0331 -33.0201 -33.0076 -32.9507 -32.9463 -32.9120 -32.8744 -32.7803
   -23.5851 -19.5200 -19.4021 -18.3563 -18.0505 -17.9826 -17.9491 -17.8106
   -17.8042 -17.7740 -17.7381 -17.6455 -17.6315 -17.6126 -17.5177 -17.5034
   -17.4837 -17.4551 -17.4193 -17.3906 -17.3539 -17.3313 -17.3220 -17.3046
   -17.2484 -17.2322 -17.2226 -17.2035 -17.1895 -17.1781 -17.0291 -16.9280
   -16.8825 -15.1876 -15.1667 -15.0847  -8.9889  -7.2289  -7.0536  -6.7805
    -6.7754  -5.6382  -5.5943  -5.3567  -5.3066  -5.2352  -5.2109  -5.1998
    -5.1441  -5.1076  -5.0392  -5.0211  -4.9134  -4.8822  -4.8519  -4.8205
    -4.8028  -4.7904  -4.7504  -4.6923  -4.6752  -4.6535  -4.6314  -4.5441
    -4.5255  -4.4940  -4.4770  -4.4681  -4.4280  -4.3702  -4.3106  -4.2942
    -4.2760  -4.2274  -4.1833  -4.1216  -4.0630  -4.0202  -4.0032  -3.9246
    -3.9038  -3.8577  -3.8128  -3.7494  -3.6975  -3.6761  -3.6508  -3.6014
    -3.5191  -3.4911  -3.4542  -3.3883  -3.3699  -3.3483  -3.3034  -3.2525
    -3.2343  -3.1325  -3.1008  -3.0706  -3.0128  -2.9513  -2.9240  -2.8518
    -2.7911  -2.7648  -2.7338  -2.6922  -2.6484  -2.6004  -2.5766  -2.5323
    -2.5120  -2.4684  -2.4290  -2.3982  -2.3490  -2.3148  -2.2687  -2.2339
    -2.2081  -2.1926  -2.1803  -2.1313  -2.0809  -2.0567  -2.0046  -1.9779
    -1.9275  -1.8218  -1.7735  -1.7242  -1.6681  -1.6392  -1.5371  -1.3331
    -1.2107  -1.1993  -0.9423  -0.5700  -0.4792  -0.3381  -0.1854  -0.1809
    -0.1039   1.4118   1.5019   1.5674   1.6377   1.6960   1.7330   1.7602
     1.8322   1.8645   1.8939   1.9248   1.9611

          k = 0.0380-0.0559 0.0000 ( 26850 PWs)   bands (ev):

   -57.5907 -57.5890 -57.5642 -57.5052 -57.4922 -57.4660 -57.4400 -57.4391
   -57.4278 -57.4204 -57.3972 -57.3876 -57.3752 -57.3714 -57.3484 -56.7192
   -56.7127 -56.6893 -34.0827 -34.0296 -33.9829 -33.9721 -33.9530 -33.9256
   -33.9134 -33.9099 -33.9074 -33.8887 -33.8653 -33.8304 -33.8124 -33.7983
   -33.7959 -33.7624 -33.7566 -33.7433 -33.7419 -33.7409 -33.7205 -33.7082
   -33.7056 -33.6958 -33.6827 -33.6795 -33.6754 -33.6717 -33.6621 -33.6598
   -33.6532 -33.6503 -33.6498 -33.6392 -33.6352 -33.6263 -33.6139 -33.6044
   -33.5822 -33.5786 -33.5755 -33.5643 -33.5622 -33.5143 -33.4973 -33.1333
   -33.0301 -33.0245 -33.0059 -32.9374 -32.9301 -32.8691 -32.8548 -32.8476
   -23.5851 -19.5135 -19.4071 -18.2428 -18.2068 -17.9304 -17.8886 -17.8470
   -17.8318 -17.7975 -17.7103 -17.6723 -17.6091 -17.5871 -17.5662 -17.5470
   -17.4845 -17.4661 -17.4221 -17.3867 -17.3370 -17.3292 -17.2957 -17.2735
   -17.2661 -17.2559 -17.2281 -17.2106 -17.1867 -17.1836 -16.9527 -16.9477
   -16.8876 -15.1884 -15.1829 -15.0661  -8.9890  -7.2427  -7.0389  -6.7793
    -6.7772  -5.6376  -5.4276  -5.4041  -5.2892  -5.2724  -5.2403  -5.1929
    -5.1495  -5.0658  -5.0565  -5.0124  -4.9949  -4.9895  -4.9390  -4.9194
    -4.7972  -4.7742  -4.7477  -4.6974  -4.6488  -4.6416  -4.6320  -4.5960
    -4.5732  -4.5183  -4.4882  -4.4675  -4.4321  -4.3879  -4.3606  -4.3231
    -4.2381  -4.2045  -4.1756  -4.0905  -4.0721  -4.0464  -3.9559  -3.9452
    -3.9011  -3.7870  -3.7311  -3.7124  -3.7079  -3.6856  -3.5892  -3.5540
    -3.4729  -3.4427  -3.3884  -3.3549  -3.3201  -3.3038  -3.2499  -3.2070
    -3.1340  -3.1133  -3.0872  -3.0795  -3.0029  -2.9886  -2.9120  -2.8999
    -2.7865  -2.7478  -2.7050  -2.6803  -2.6441  -2.6081  -2.5667  -2.5315
    -2.5238  -2.5039  -2.4506  -2.3784  -2.3366  -2.3340  -2.3051  -2.2953
    -2.2757  -2.2453  -2.2123  -2.1508  -2.1216  -2.0910  -2.0492  -1.9844
    -1.9467  -1.7971  -1.7928  -1.7591  -1.7186  -1.6330  -1.3224  -1.3191
    -1.2264  -1.2196  -1.1009  -0.6584  -0.3858  -0.3655  -0.1772  -0.1427
    -0.1398   1.4609   1.5461   1.5732   1.5902   1.6925   1.7075   1.7785
     1.8034   1.8284   1.8844   1.9283   2.0258

          k = 0.0380-0.0280 0.0000 ( 26873 PWs)   bands (ev):

   -57.5962 -57.5813 -57.5665 -57.5070 -57.4892 -57.4672 -57.4419 -57.4403
   -57.4248 -57.4186 -57.3983 -57.3883 -57.3795 -57.3650 -57.3505 -56.7228
   -56.7070 -56.6914 -34.0580 -34.0087 -33.9723 -33.9602 -33.9503 -33.9164
   -33.9115 -33.9097 -33.9015 -33.8898 -33.8881 -33.8843 -33.8330 -33.8106
   -33.7964 -33.7707 -33.7584 -33.7464 -33.7382 -33.7276 -33.7265 -33.7184
   -33.7137 -33.6979 -33.6940 -33.6863 -33.6781 -33.6741 -33.6666 -33.6647
   -33.6617 -33.6448 -33.6398 -33.6368 -33.6340 -33.6325 -33.6158 -33.6061
   -33.5885 -33.5782 -33.5563 -33.5497 -33.5190 -33.5086 -33.4975 -33.1088
   -33.0331 -33.0201 -33.0076 -32.9506 -32.9463 -32.9120 -32.8744 -32.7803
   -23.5851 -19.5200 -19.4021 -18.3560 -18.0508 -17.9866 -17.9466 -17.8089
   -17.8050 -17.7718 -17.7378 -17.6483 -17.6316 -17.6079 -17.5220 -17.5027
   -17.4837 -17.4564 -17.4215 -17.3909 -17.3536 -17.3316 -17.3219 -17.3012
   -17.2486 -17.2297 -17.2228 -17.2047 -17.1900 -17.1789 -17.0281 -16.9283
   -16.8828 -15.1876 -15.1667 -15.0847  -8.9889  -7.2280  -7.0545  -6.7804
    -6.7757  -5.6384  -5.5933  -5.3558  -5.3051  -5.2352  -5.2115  -5.2103
    -5.1463  -5.1045  -5.0348  -5.0128  -4.9210  -4.8841  -4.8491  -4.8144
    -4.8096  -4.7912  -4.7500  -4.6938  -4.6779  -4.6481  -4.6217  -4.5676
    -4.5200  -4.4949  -4.4813  -4.4605  -4.4239  -4.3706  -4.3094  -4.2944
    -4.2687  -4.2306  -4.1655  -4.1182  -4.0691  -4.0273  -4.0060  -3.9353
    -3.8968  -3.8719  -3.8031  -3.7620  -3.7039  -3.6640  -3.6220  -3.5912
    -3.5293  -3.5226  -3.4614  -3.3846  -3.3538  -3.3435  -3.3206  -3.2662
    -3.1967  -3.1570  -3.0875  -3.0474  -2.9957  -2.9668  -2.9252  -2.8568
    -2.8036  -2.7791  -2.7454  -2.6816  -2.6471  -2.6094  -2.5691  -2.5255
    -2.5076  -2.4799  -2.4418  -2.4035  -2.3429  -2.3088  -2.2642  -2.2372
    -2.2073  -2.2006  -2.1665  -2.1317  -2.0826  -2.0405  -2.0214  -1.9828
    -1.9166  -1.8152  -1.7774  -1.7221  -1.6732  -1.6358  -1.5359  -1.3354
    -1.2114  -1.1970  -0.9429  -0.5700  -0.4792  -0.3381  -0.1856  -0.1813
    -0.1032   1.4086   1.5072   1.5656   1.6363   1.6990   1.7214   1.7576
     1.8292   1.8777   1.8979   1.9262   1.9626

          k =-0.0760-0.0000 0.0000 ( 26902 PWs)   bands (ev):

   -57.5984 -57.5736 -57.5720 -57.5083 -57.4864 -57.4687 -57.4435 -57.4411
   -57.4221 -57.4169 -57.3996 -57.3890 -57.3817 -57.3588 -57.3548 -56.7248
   -56.7013 -56.6952 -33.9929 -33.9910 -33.9733 -33.9675 -33.9481 -33.9347
   -33.9173 -33.9120 -33.9054 -33.8949 -33.8926 -33.8903 -33.8694 -33.8321
   -33.8015 -33.7615 -33.7498 -33.7454 -33.7380 -33.7336 -33.7208 -33.7078
   -33.7002 -33.7001 -33.6952 -33.6943 -33.6869 -33.6748 -33.6723 -33.6723
   -33.6689 -33.6563 -33.6462 -33.6407 -33.6351 -33.6281 -33.6216 -33.6145
   -33.5858 -33.5621 -33.5386 -33.5348 -33.5296 -33.4977 -33.4850 -33.0452
   -33.0384 -33.0370 -33.0154 -33.0102 -32.9550 -32.8940 -32.8871 -32.7541
   -23.5851 -19.5227 -19.3970 -18.2781 -18.0786 -17.8844 -17.8629 -17.8286
   -17.7606 -17.7510 -17.6839 -17.6670 -17.6586 -17.6499 -17.5469 -17.5240
   -17.4445 -17.4434 -17.4377 -17.4087 -17.4004 -17.3900 -17.3622 -17.2693
   -17.2671 -17.2616 -17.2543 -17.2152 -17.2000 -17.1753 -16.9826 -16.9814
   -16.9537 -15.1824 -15.1303 -15.1255  -8.9887  -7.2183  -7.0712  -6.7824
    -6.7743  -5.6363  -5.5717  -5.2683  -5.1136  -5.0882  -5.0511  -5.0469
    -5.0334  -4.9790  -4.9346  -4.9261  -4.9174  -4.8839  -4.8075  -4.7873
    -4.7713  -4.7302  -4.6760  -4.6553  -4.6208  -4.6173  -4.5948  -4.5833
    -4.5706  -4.4647  -4.4368  -4.4302  -4.4209  -4.3405  -4.3340  -4.2899
    -4.2608  -4.1868  -4.1516  -4.0538  -4.0280  -4.0124  -3.9384  -3.9283
    -3.9121  -3.8741  -3.8327  -3.8213  -3.7406  -3.7186  -3.6364  -3.6351
    -3.5872  -3.5275  -3.5184  -3.4935  -3.4674  -3.4452  -3.3368  -3.3210
    -3.2706  -3.2471  -3.1572  -3.1363  -3.0782  -3.0409  -3.0159  -3.0130
    -2.9584  -2.8325  -2.7684  -2.7408  -2.7232  -2.7019  -2.6858  -2.6030
    -2.4985  -2.4498  -2.4311  -2.4062  -2.3854  -2.3813  -2.3680  -2.3385
    -2.2138  -2.2083  -2.1620  -2.1442  -2.0579  -1.9877  -1.9702  -1.9397
    -1.8610  -1.8551  -1.8449  -1.8225  -1.6079  -1.5866  -1.4407  -1.3984
    -1.2961  -1.2921  -0.7855  -0.5552  -0.4048  -0.4031  -0.2413  -0.2375
    -0.1621   1.3308   1.5371   1.5677   1.5979   1.7149   1.7199   1.7492
     1.7674   1.7790   1.7988   1.9150   1.9311

          k =-0.0760 0.0279 0.0000 ( 26908 PWs)   bands (ev):

   -57.5961 -57.5813 -57.5665 -57.5069 -57.4892 -57.4672 -57.4420 -57.4403
   -57.4248 -57.4186 -57.3984 -57.3882 -57.3796 -57.3651 -57.3505 -56.7228
   -56.7071 -56.6914 -34.0592 -34.0090 -33.9732 -33.9645 -33.9504 -33.9173
   -33.9119 -33.9115 -33.9042 -33.8900 -33.8886 -33.8849 -33.8233 -33.8160
   -33.7978 -33.7558 -33.7475 -33.7388 -33.7300 -33.7266 -33.7173 -33.7158
   -33.7075 -33.6989 -33.6952 -33.6826 -33.6784 -33.6771 -33.6711 -33.6665
   -33.6554 -33.6480 -33.6473 -33.6450 -33.6396 -33.6345 -33.6338 -33.6104
   -33.5878 -33.5779 -33.5569 -33.5498 -33.5191 -33.5086 -33.4975 -33.1086
   -33.0365 -33.0212 -33.0065 -32.9506 -32.9463 -32.9121 -32.8745 -32.7803
   -23.5852 -19.5172 -19.4011 -18.2355 -18.0458 -17.9696 -17.8521 -17.8258
   -17.8025 -17.7223 -17.6773 -17.6630 -17.6519 -17.6382 -17.5492 -17.5002
   -17.4899 -17.4624 -17.4213 -17.4109 -17.4063 -17.3954 -17.3693 -17.3351
   -17.2756 -17.2627 -17.2232 -17.1944 -17.1462 -17.1389 -17.1301 -16.9784
   -16.8487 -15.1848 -15.1664 -15.0848  -8.9888  -7.2326  -7.0577  -6.7818
    -6.7760  -5.6361  -5.5055  -5.3085  -5.2190  -5.1861  -5.1391  -5.0488
    -5.0424  -4.9836  -4.9507  -4.8792  -4.8594  -4.8500  -4.8371  -4.8008
    -4.7653  -4.7573  -4.7456  -4.6678  -4.6632  -4.6126  -4.5671  -4.5166
    -4.4963  -4.4804  -4.4344  -4.4005  -4.3861  -4.3117  -4.2954  -4.2618
    -4.2194  -4.1865  -4.1674  -4.1160  -4.0873  -4.0607  -3.9943  -3.9473
    -3.9205  -3.8838  -3.8059  -3.7541  -3.7242  -3.6813  -3.6392  -3.6206
    -3.5843  -3.5167  -3.4528  -3.4184  -3.3787  -3.3689  -3.3191  -3.2904
    -3.2395  -3.1873  -3.1192  -3.0593  -3.0456  -3.0416  -3.0254  -2.9699
    -2.9378  -2.8721  -2.7677  -2.7505  -2.7296  -2.7039  -2.6974  -2.6642
    -2.5993  -2.5484  -2.4928  -2.4584  -2.4065  -2.3953  -2.3389  -2.3177
    -2.2126  -2.2070  -2.1937  -2.1817  -2.1427  -2.0612  -2.0332  -1.9362
    -1.9286  -1.8916  -1.7909  -1.7479  -1.5983  -1.4684  -1.4202  -1.4134
    -1.3922  -1.1253  -0.9625  -0.5539  -0.4805  -0.3224  -0.2889  -0.1838
    -0.1393   1.4045   1.5012   1.5774   1.6110   1.6177   1.6915   1.7496
     1.7544   1.7907   1.8686   1.8915   1.9214

          k =-0.0760-0.0559 0.0000 ( 26868 PWs)   bands (ev):

   -57.5907 -57.5890 -57.5642 -57.5051 -57.4922 -57.4660 -57.4399 -57.4392
   -57.4279 -57.4203 -57.3973 -57.3875 -57.3753 -57.3715 -57.3484 -56.7192
   -56.7127 -56.6893 -34.0837 -34.0300 -33.9869 -33.9734 -33.9531 -33.9299
   -33.9138 -33.9099 -33.9073 -33.8885 -33.8646 -33.8212 -33.8135 -33.7987
   -33.7964 -33.7510 -33.7414 -33.7396 -33.7388 -33.7268 -33.7212 -33.7083
   -33.7073 -33.6867 -33.6782 -33.6753 -33.6722 -33.6719 -33.6684 -33.6653
   -33.6631 -33.6597 -33.6552 -33.6447 -33.6389 -33.6327 -33.6246 -33.6044
   -33.5824 -33.5783 -33.5753 -33.5643 -33.5621 -33.5142 -33.4973 -33.1329
   -33.0327 -33.0270 -33.0046 -32.9374 -32.9301 -32.8690 -32.8548 -32.8476
   -23.5851 -19.5114 -19.4057 -18.1355 -18.1022 -17.9822 -17.9199 -17.8001
   -17.7825 -17.7025 -17.6891 -17.6809 -17.6453 -17.6072 -17.5678 -17.5521
   -17.4749 -17.4453 -17.4193 -17.4078 -17.3982 -17.3914 -17.3837 -17.3700
   -17.2639 -17.2621 -17.2574 -17.2265 -17.1585 -17.1059 -17.0534 -17.0378
   -16.7981 -15.1867 -15.1813 -15.0658  -8.9888  -7.2448  -7.0463  -6.7806
    -6.7781  -5.6362  -5.4041  -5.3425  -5.3209  -5.2733  -5.1726  -5.1043
    -5.0614  -5.0042  -4.9446  -4.8930  -4.8600  -4.7965  -4.7829  -4.7704
    -4.7594  -4.7094  -4.6697  -4.6529  -4.6385  -4.6228  -4.6063  -4.5782
    -4.5677  -4.5359  -4.4678  -4.4283  -4.3409  -4.3326  -4.3027  -4.2658
    -4.2410  -4.2202  -4.1616  -4.1467  -4.1159  -4.0927  -3.9731  -3.8573
    -3.8431  -3.8081  -3.8020  -3.7710  -3.7327  -3.7260  -3.6232  -3.5487
    -3.4133  -3.3868  -3.3834  -3.3707  -3.3497  -3.2822  -3.2728  -3.2372
    -3.2049  -3.1903  -3.1689  -3.1147  -3.0856  -3.0082  -2.9763  -2.9180
    -2.8650  -2.8323  -2.7742  -2.7635  -2.7407  -2.7296  -2.7247  -2.7132
    -2.6935  -2.6463  -2.6371  -2.4882  -2.4539  -2.4475  -2.4348  -2.3247
    -2.3068  -2.2083  -2.1986  -2.1651  -2.1540  -2.0653  -2.0461  -1.9405
    -1.9200  -1.8615  -1.8148  -1.7652  -1.4534  -1.4420  -1.4134  -1.3805
    -1.2948  -1.2882  -1.0379  -0.6361  -0.3771  -0.3576  -0.3120  -0.1402
    -0.1383   1.4653   1.5319   1.5565   1.5742   1.6723   1.6849   1.7098
     1.7257   1.7627   1.7751   1.8808   1.9452

     the Fermi energy is     1.4839 ev

!    total energy              =   -3290.82324231 Ry
     estimated scf accuracy    <       0.00000007 Ry
     smearing contrib. (-TS)   =      -0.05466831 Ry
     internal energy E=F+TS    =   -3290.76857400 Ry

     The total energy is F=E-TS. E is the sum of the following terms:
     one-electron contribution =  -33575.31132008 Ry
     hartree contribution      =   16851.31231245 Ry
     xc contribution           =    -540.37615210 Ry
     ewald contribution        =   13973.60380509 Ry
     electric field correction =       0.00278063 Ry

     convergence has been achieved in  60 iterations

     Forces acting on atoms (cartesian axes, Ry/au):

     atom    1 type  1   force =     0.00049464    0.00768398    0.05387815
     atom    2 type  1   force =     0.00023140    0.00347167    0.00200185
     atom    3 type  1   force =    -0.00217131   -0.00167365   -0.00195654
     atom    4 type  1   force =     0.00004213    0.00063625    0.10813260
     atom    5 type  1   force =     0.00011941   -0.00051086    0.01009079
     atom    6 type  1   force =    -0.00049449   -0.00866200   -0.00251102
     atom    7 type  1   force =     0.06412898    0.00022855   -0.02869037
     atom    8 type  1   force =     0.00332623   -0.02901128    0.00414942
     atom    9 type  1   force =     0.01267405   -0.00962634   -0.00142069
     atom   10 type  2   force =     0.00006559   -0.00637824   -0.19200012
     atom   11 type  2   force =    -0.00025236    0.01996496   -0.01152982
     atom   12 type  2   force =    -0.00129298    0.01555014    0.01045964
     atom   13 type  1   force =    -0.06426106   -0.00020529   -0.02811101
     atom   14 type  1   force =    -0.00398613   -0.02855270    0.00378048
     atom   15 type  1   force =    -0.01073771   -0.01191689    0.00077334
     atom   16 type  2   force =    -0.00027449   -0.00086063    0.07229765
     atom   17 type  2   force =     0.00033819    0.03631192    0.00479229
     atom   18 type  2   force =    -0.00022542    0.00088866   -0.00723062
     atom   19 type  1   force =     0.00076921    0.00326365    0.05940064
     atom   20 type  1   force =    -0.00031358    0.00183127   -0.00319987
     atom   21 type  1   force =     0.00006466    0.00072977    0.10926113
     atom   22 type  1   force =     0.00005636   -0.00032259    0.01011724
     atom   23 type  1   force =    -0.00004360    0.00081857    0.00147369
     atom   24 type  1   force =     0.06378003   -0.00060734   -0.02865783
     atom   25 type  1   force =     0.00305455   -0.02880990    0.00380221
     atom   26 type  1   force =     0.01008746    0.01238387    0.00061806
     atom   27 type  2   force =     0.00003337    0.00223812   -0.19416962
     atom   28 type  2   force =     0.00013799    0.01852457   -0.01068692
     atom   29 type  2   force =     0.00010067   -0.01696094    0.00919473
     atom   30 type  1   force =    -0.06394137   -0.00103633   -0.02803242
     atom   31 type  1   force =    -0.00267901   -0.02913111    0.00377843
     atom   32 type  1   force =    -0.01247265    0.00752037   -0.00172207
     atom   33 type  2   force =    -0.00026474   -0.00104291    0.07250738
     atom   34 type  2   force =    -0.00010584    0.03450222    0.00420754
     atom   35 type  2   force =     0.00288338   -0.01387237   -0.00290145
     atom   36 type  1   force =     0.00026527    0.00299947    0.05373976
     atom   37 type  1   force =    -0.00022701    0.00130395    0.00202985
     atom   38 type  1   force =    -0.00059105    0.00101974   -0.00095941
     atom   39 type  1   force =     0.00007588   -0.00111223    0.10850066
     atom   40 type  1   force =     0.00000226   -0.00027950    0.00996542
     atom   41 type  1   force =     0.00094493    0.00813385   -0.00135225
     atom   42 type  1   force =     0.06452767   -0.00056412   -0.02831929
     atom   43 type  1   force =     0.00210462   -0.02819109    0.00291621
     atom   44 type  1   force =     0.01358839   -0.00750534    0.00860658
     atom   45 type  2   force =     0.00016029    0.00155886   -0.18905258
     atom   46 type  2   force =    -0.00006977    0.01914331   -0.01211126
     atom   47 type  2   force =     0.00036058    0.00384663   -0.00940627
     atom   48 type  1   force =    -0.06469440   -0.00105441   -0.02776065
     atom   49 type  1   force =    -0.00262555   -0.02846965    0.00285553
     atom   50 type  1   force =    -0.01372051    0.00200348    0.00417510
     atom   51 type  2   force =    -0.00025523   -0.00039905    0.07289815
     atom   52 type  2   force =     0.00058507    0.03495414    0.00446440
     atom   53 type  2   force =    -0.00219203    0.01512521   -0.00245805
     atom   54 type  3   force =     0.00183274    0.00019850   -0.00109884
     atom   55 type  3   force =     0.00095859   -0.00008215   -0.00035549
     atom   56 type  4   force =     0.00249840   -0.03408175   -0.02790585
     atom   57 type  4   force =    -0.00240072    0.03408498    0.02873136

     Total force =     0.467077     Total SCF correction =     0.000684
  @ DRIVER MODE: Message from server: STATUS
  @ DRIVER MODE: Message from server: GETFORCE
  @ DRIVER MODE: Returning v,forces,stress,ensemble 

     Writing output data file ./calc.save/
  @ DRIVER MODE: Message from server: EXIT
  @ DRIVE MODE: Exiting  
 
     init_run     :     18.00s CPU     18.42s WALL (       1 calls)
     electrons    :   1869.36s CPU   1906.88s WALL (       1 calls)
     forces       :      4.43s CPU      4.58s WALL (       1 calls)

     Called by init_run:
     wfcinit      :      9.63s CPU      9.76s WALL (       1 calls)
     potinit      :      7.35s CPU      7.45s WALL (       1 calls)
     hinit0       :      0.42s CPU      0.44s WALL (       1 calls)

     Called by electrons:
     c_bands      :   1577.58s CPU   1598.09s WALL (      60 calls)
     sum_band     :    201.20s CPU    209.16s WALL (      60 calls)
     v_of_rho     :     68.99s CPU     71.44s WALL (      61 calls)
     newd         :     24.93s CPU     31.45s WALL (      61 calls)
     mix_rho      :      2.69s CPU      2.80s WALL (      60 calls)
     vdW_kernel   :      5.84s CPU      5.86s WALL (       1 calls)

     Called by c_bands:
     init_us_2    :     11.66s CPU     11.74s WALL (    1220 calls)
     cegterg      :   1544.21s CPU   1564.09s WALL (     610 calls)

     Called by *egterg:
     cdiaghg      :    240.50s CPU    241.61s WALL (    7678 calls)
     h_psi        :    834.36s CPU    846.38s WALL (    7688 calls)
     s_psi        :    122.33s CPU    122.68s WALL (    7688 calls)
     g_psi        :      2.76s CPU      2.78s WALL (    7068 calls)

     Called by h_psi:
     h_psi:calbec :    110.83s CPU    112.17s WALL (    7688 calls)
     vloc_psi     :    596.33s CPU    602.26s WALL (    7688 calls)
     add_vuspsi   :    122.91s CPU    124.64s WALL (    7688 calls)

     General routines
     calbec       :    146.71s CPU    148.16s WALL (    8328 calls)
     fft          :     39.41s CPU     39.59s WALL (    3843 calls)
     ffts         :      0.22s CPU      0.22s WALL (     121 calls)
     fftw         :    668.55s CPU    674.92s WALL (  836006 calls)
     interpolate  :      0.75s CPU      0.76s WALL (      61 calls)
     davcio       :      0.01s CPU      0.46s WALL (      10 calls)
 
     Parallel routines
 
     PWSCF        :  31m32.08s CPU  32m11.01s WALL

 
   This run was terminated on:  22:37:40  18Oct2021            

=------------------------------------------------------------------------------=
   JOB DONE.
=------------------------------------------------------------------------------=
