
     Program PWSCF v.6.7GPU starts on 22Sep2021 at 22:18:10 

     This program is part of the open-source Quantum ESPRESSO suite
     for quantum simulation of materials; please cite
         "P. Giannozzi et al., J. Phys.:Condens. Matter 21 395502 (2009);
         "P. Giannozzi et al., J. Phys.:Condens. Matter 29 465901 (2017);
         "P. Giannozzi et al., J. Chem. Phys. 152 154105 (2020);
          URL http://www.quantum-espresso.org", 
     in publications or presentations arising from this work. More details at
     http://www.quantum-espresso.org/quote

     Parallel version (MPI), running on    10 processors

     MPI processes distributed on     1 nodes
     R & G space division:  proc/nbgrp/npool/nimage =      10
     Reading input from /storage/home/hcoda1/3/ntian30/research/carbon/CxH_vib/H2O_calc/ads_slab/CH3NNH3HO_a/out_0017/pw.inp
Warning: card &CELL ignored
Warning: card   CELL_DYNAMICS='IPI', ignored
Warning: card / ignored

     Current dimensions of program PWSCF are:
     Max number of different atomic species (ntypx) = 10
     Max number of k-points (npk) =  40000
     Max angular momentum in pseudopotentials (lmaxx) =  3
     Presently no symmetry can be used with electric field

     Message from routine cell_base_init:
     DEPRECATED: use true lattice parameter, not A to a.u. conversion factor

     **************************************************************************
     Initializing libbeef V0.1.2 with the BEEF-vdW functional.
     Citation: Wellendorff et al., PRB 85, 235149 (2012).
     **************************************************************************


     IMPORTANT: XC functional enforced from input :
     Exchange-correlation= BEEF-VDW
                           (   1   4  43  14   2   0   0)
     Any further DFT definition will be discarded
     Please, verify this is what you really want


     Subspace diagonalization in iterative solution of the eigenvalue problem:
     one sub-group per band group will be used
     scalapack distributed-memory algorithm (size of sub-group:  3*  3 procs)

  @ DRIVER MODE: Connecting to 
 qe_1139763_2937318.sched-torque.pace.gatech.edu9zv260k8_scratch
  using UNIX socket
  @ DRIVER MODE: Message from server: STATUS
  @ DRIVER MODE: Message from server: INIT
  @ DRIVER MODE: Receiving replica           0          -1
  @ DRIVER MODE: Receiving encoded integer          25
  @ DRIVER MODE:  SCF:  T  FORCE:  T  STRESS:  F  VC:  F  ENSEMBLE:  F
  @ DRIVER MODE:  SCF:  T  FORCE:  T  STRESS:  F  VC:  F  ENSEMBLE:  F
 
     Parallelization info
     --------------------
     sticks:   dense  smooth     PW     G-vecs:    dense   smooth      PW
     Min         327     131     37                56683    14340    2191
     Max         328     133     38                56694    14346    2206
     Sum        3275    1317    379               566857   143421   21985
 
     Using Slab Decomposition
 


     bravais-lattice index     =            0
     lattice parameter (alat)  =       1.8897  a.u.
     unit-cell volume          =    6658.9804 (a.u.)^3
     number of atoms/cell      =           58
     number of atomic types    =            5
     number of electrons       =       405.00
     number of Kohn-Sham states=          212
     kinetic-energy cutoff     =      29.3995  Ry
     charge density cutoff     =     293.9946  Ry
     scf convergence threshold =      7.3E-08
     mixing beta               =       0.0500
     number of iterations used =            8  plain     mixing
     Exchange-correlation= BEEF-VDW
                           (   1   4  43  14   2   0   0)

     celldm(1)=   1.889726  celldm(2)=   0.000000  celldm(3)=   0.000000
     celldm(4)=   0.000000  celldm(5)=   0.000000  celldm(6)=   0.000000

     crystal axes: (cart. coord. in units of alat)
               a(1) = (   6.579727   0.000000   0.000000 )  
               a(2) = (  -0.000775   5.961596   0.000000 )  
               a(3) = (   0.000000   0.000000  25.155947 )  

     reciprocal axes: (cart. coord. in units 2 pi/alat)
               b(1) = (  0.151982  0.000020  0.000000 )  
               b(2) = (  0.000000  0.167740  0.000000 )  
               b(3) = (  0.000000  0.000000  0.039752 )  


     PseudoPot. # 1 for Ti read from file:
     /storage/coda1/p-amedford6/0/shared/rich_project_chbe-medford/medford-share/data/pseudos_module/espresso/nninc/pbe/van/Ti.UPF
     MD5 check sum: 8e4df49b7f0d34bbd5052bf3f5ea0213
     Pseudo is Ultrasoft, Zval = 12.0
     Generated by new atomic code, or converted to UPF format
     Using radial grid of  851 points,  6 beta functions with: 
                l(1) =   0
                l(2) =   0
                l(3) =   1
                l(4) =   1
                l(5) =   2
                l(6) =   2
     Q(r) pseudized with  8 coefficients,  rinner =    1.000   1.000   1.000
                                                       1.000   1.000

     PseudoPot. # 2 for O  read from file:
     /storage/coda1/p-amedford6/0/shared/rich_project_chbe-medford/medford-share/data/pseudos_module/espresso/nninc/pbe/van/O.UPF
     MD5 check sum: 78c19812648e8988a0fe644b0f25305e
     Pseudo is Ultrasoft, Zval =  6.0
     Generated by new atomic code, or converted to UPF format
     Using radial grid of  737 points,  4 beta functions with: 
                l(1) =   0
                l(2) =   0
                l(3) =   1
                l(4) =   1
     Q(r) pseudized with  8 coefficients,  rinner =    0.800   0.800   0.800


     PseudoPot. # 3 for N  read from file:
     /storage/coda1/p-amedford6/0/shared/rich_project_chbe-medford/medford-share/data/pseudos_module/espresso/nninc/pbe/van/N.UPF
     MD5 check sum: 90d10febe142ad51ac9d5be1deb811c4
     Pseudo is Ultrasoft, Zval =  5.0
     Generated by new atomic code, or converted to UPF format
     Using radial grid of  729 points,  4 beta functions with: 
                l(1) =   0
                l(2) =   0
                l(3) =   1
                l(4) =   1
     Q(r) pseudized with  8 coefficients,  rinner =    0.800   0.800   0.800


     PseudoPot. # 4 for C  read from file:
     /storage/coda1/p-amedford6/0/shared/rich_project_chbe-medford/medford-share/data/pseudos_module/espresso/nninc/pbe/van/C.UPF
     MD5 check sum: 1a69bf6b8db32088f5b2163dbdb77a27
     Pseudo is Ultrasoft, Zval =  4.0
     Generated by new atomic code, or converted to UPF format
     Using radial grid of  721 points,  4 beta functions with: 
                l(1) =   0
                l(2) =   0
                l(3) =   1
                l(4) =   1
     Q(r) pseudized with  8 coefficients,  rinner =    0.800   0.800   0.800


     PseudoPot. # 5 for H  read from file:
     /storage/coda1/p-amedford6/0/shared/rich_project_chbe-medford/medford-share/data/pseudos_module/espresso/nninc/pbe/van/H.UPF
     MD5 check sum: b5ee9d7bfd3a09ee7748110bda690ff7
     Pseudo is Ultrasoft, Zval =  1.0
     Generated by new atomic code, or converted to UPF format
     Using radial grid of  615 points,  1 beta functions with: 
                l(1) =   0
     Q(r) pseudized with  8 coefficients,  rinner =    0.800

     atomic species   valence    mass     pseudopotential
        Ti1           12.00    47.86700     Ti( 1.00)
        O1             6.00    15.99900     O ( 1.00)
        N1             5.00    14.00700     N ( 1.00)
        C1             4.00    12.01100     C ( 1.00)
        H1             1.00     1.00800     H ( 1.00)

     No symmetry found



   Cartesian axes

     site n.     atom                  positions (alat units)
         1           Ti1 tau(   1) = (   0.0004258   2.9801865   6.0000000  )
         2           Ti1 tau(   2) = (   3.2906075   1.4906267   6.0002472  )
         3           O1  tau(   3) = (   0.0006271   0.0005054   7.9858123  )
         4           O1  tau(   4) = (   3.2906025   0.0005020   7.3038282  )
         5           O1  tau(   5) = (   4.5942328   1.4918067   9.2879030  )
         6           O1  tau(   6) = (   1.9868534   1.4903216   9.2879459  )
         7           Ti1 tau(   7) = (   3.2907910   2.8959150   9.1758416  )
         8           Ti1 tau(   8) = (   0.0015273   1.4827037   9.2680791  )
         9           O1  tau(   9) = (   3.2949357   5.9297256  11.2770696  )
        10           O1  tau(  10) = (   0.0116148   5.9584955  10.6183126  )
        11           O1  tau(  11) = (   1.2901270   1.4659759  12.6218969  )
        12           O1  tau(  12) = (   5.3029181   1.4690452  12.6271982  )
        13           Ti1 tau(  13) = (   6.5637346   3.0486055  12.7052252  )
        14           Ti1 tau(  14) = (   3.3207578   1.2909511  12.6638180  )
        15           O1  tau(  15) = (   0.0081040   5.9567798  14.6379979  )
        16           O1  tau(  16) = (   3.2944190   0.0149942  13.8863584  )
        17           O1  tau(  17) = (   4.5334936   1.5584448  16.0391558  )
        18           O1  tau(  18) = (   2.0244848   1.5379376  16.0854781  )
        19           Ti1 tau(  19) = (   3.2579824   3.0118882  15.6538344  )
        20           Ti1 tau(  20) = (   6.4918182   1.5199401  15.8876453  )
        21           O1  tau(  21) = (   3.2904802   0.0005063   4.7018136  )
        22           O1  tau(  22) = (   6.5166677   0.0216046  17.1949088  )
        23           O1  tau(  23) = (   1.3043587   1.4918075   6.0039043  )
        24           O1  tau(  24) = (   5.2767064   1.4903225   6.0039473  )
        25           Ti1 tau(  25) = (   0.0000382   5.9609847   6.0000000  )
        26           Ti1 tau(  26) = (   3.2902200   4.4714249   6.0002472  )
        27           O1  tau(  27) = (   0.0002396   2.9813036   7.9858123  )
        28           O1  tau(  28) = (   3.2902150   2.9813002   7.3038282  )
        29           O1  tau(  29) = (   4.5938453   4.4726049   9.2879030  )
        30           O1  tau(  30) = (   1.9864658   4.4711199   9.2879459  )
        31           Ti1 tau(  31) = (   3.2891106   5.8743827   9.1763621  )
        32           Ti1 tau(  32) = (   0.0006254   4.4649316   9.2693709  )
        33           O1  tau(  33) = (   3.2959121   3.0085915  11.2438341  )
        34           O1  tau(  34) = (   0.0092240   2.9805883  10.6323155  )
        35           O1  tau(  35) = (   1.2849535   4.4488585  12.6204231  )
        36           O1  tau(  36) = (   5.2878833   4.4365118  12.6243745  )
        37           Ti1 tau(  37) = (   0.0500071   0.0677371  12.6535751  )
        38           Ti1 tau(  38) = (   3.3027700   4.3871210  12.4110406  )
        39           O1  tau(  39) = (   6.5685058   2.9535060  14.6525041  )
        40           O1  tau(  40) = (   3.2696111   2.9719761  13.8704823  )
        41           O1  tau(  41) = (   4.5209813   4.4409030  16.0696701  )
        42           O1  tau(  42) = (   2.0131998   4.4599944  16.0916020  )
        43           Ti1 tau(  43) = (   3.2138439   0.0230873  16.3295100  )
        44           Ti1 tau(  44) = (   6.5234412   4.6200706  16.0754176  )
        45           O1  tau(  45) = (   3.2900926   2.9813045   4.7018136  )
        46           O1  tau(  46) = (   1.3039711   4.4726057   6.0039043  )
        47           O1  tau(  47) = (   5.2763189   4.4711207   6.0039473  )
        48           N1  tau(  48) = (   0.0251376   2.9556585  17.3246074  )
        49           N1  tau(  49) = (   6.3772498   2.5461882  22.2688425  )
        50           C1  tau(  50) = (   0.2111848   2.8484408  18.7016211  )
        51           H1  tau(  51) = (   0.3920758   3.8074029  19.2116250  )
        52           H1  tau(  52) = (   5.9044209   2.3708277  19.1722604  )
        53           H1  tau(  53) = (   1.0233575   2.1342068  18.9364007  )
        54           H1  tau(  54) = (   6.0930523   3.2289774  22.9628454  )
        55           H1  tau(  55) = (   0.2277240   1.7755739  22.7685771  )
        56           H1  tau(  56) = (   0.5282093   2.9785696  21.7129995  )
        57           O1  tau(  57) = (   3.3838229   0.0530270  18.1522483  )
        58           H1  tau(  58) = (   4.2718821   5.8932998  18.5223319  )

     number of k points=    10  Fermi-Dirac smearing, width (Ry)=  0.0073
                       cart. coord. in units 2pi/alat
        k(    1) = (   0.0000000   0.0000000   0.0000000), wk =   0.1250000
        k(    2) = (   0.0000000   0.0419351   0.0000000), wk =   0.2500000
        k(    3) = (   0.0000000  -0.0838702   0.0000000), wk =   0.1250000
        k(    4) = (   0.0379955   0.0000049   0.0000000), wk =   0.2500000
        k(    5) = (   0.0379955   0.0419400   0.0000000), wk =   0.2500000
        k(    6) = (   0.0379955  -0.0838652   0.0000000), wk =   0.2500000
        k(    7) = (   0.0379955  -0.0419301   0.0000000), wk =   0.2500000
        k(    8) = (  -0.0759910  -0.0000099   0.0000000), wk =   0.1250000
        k(    9) = (  -0.0759910   0.0419252   0.0000000), wk =   0.2500000
        k(   10) = (  -0.0759910  -0.0838800   0.0000000), wk =   0.1250000

     Dense  grid:   566857 G-vectors     FFT dimensions: (  72,  64, 270)

     Smooth grid:   143421 G-vectors     FFT dimensions: (  45,  40, 180)

     Estimated max dynamical RAM per process >     367.84 MB

     Estimated total dynamical RAM >       3.59 GB
     Cannot read rho : file not found

     Initial potential from superposition of free atoms

     starting charge  388.99913, renormalised to  405.00000

     negative rho (up, down):  7.828E-03 0.000E+00


     %%%%%%%%%%%%%%%%%%%%%%%%%%%%%%%%%%%%%%%%%%%%%%%%%%%%%%%%%%%%%%%%%%%%%%%%
     %                                                                      %
     % You are using vdW-DF, which was implemented by the Thonhauser group. %
     % Please cite the following two papers that made this development      %
     % possible and the two reviews that describe the various versions:     %
     %                                                                      %
     %   T. Thonhauser et al., PRL 115, 136402 (2015).                      %
     %   T. Thonhauser et al., PRB 76, 125112 (2007).                       %
     %   K. Berland et al., Rep. Prog. Phys. 78, 066501 (2015).             %
     %   D.C. Langreth et al., J. Phys.: Condens. Matter 21, 084203 (2009). %
     %                                                                      %
     %                                                                      %
     % If you are calculating the stress with vdW-DF, please also cite:     %
     %                                                                      %
     %   R. Sabatini et al., J. Phys.: Condens. Matter 24, 424209 (2012).   %
     %                                                                      %
     %%%%%%%%%%%%%%%%%%%%%%%%%%%%%%%%%%%%%%%%%%%%%%%%%%%%%%%%%%%%%%%%%%%%%%%%


 
     Adding external electric field

     Computed dipole along edir(3) : 
        Dipole              -15.1902 Ry au,        -38.6097 Debye
        Dipole field         -0.0287 Ry au, 
 
        Potential amp.        2.6573 Ry
        Total length         46.3494 bohr
 
     Starting wfcs are  307 atomic wfcs
  @ DRIVER MODE: Message from server: STATUS
  @ DRIVER MODE: Message from server: POSDATA
  @ DRIVER MODE: Reading and sharing cell 
  @ DRIVER MODE: Reading and sharing positions 
  @ DRIVER MODE: Received positions 

     total cpu time spent up to now is       13.6 secs

     Self-consistent Calculation

     iteration #  1     ecut=    29.40 Ry     beta= 0.05
     Davidson diagonalization with overlap
     c_bands:  5 eigenvalues not converged
     c_bands:  4 eigenvalues not converged
     c_bands:  4 eigenvalues not converged
     c_bands:  1 eigenvalues not converged
     c_bands:  2 eigenvalues not converged
     c_bands:  1 eigenvalues not converged
     c_bands:  2 eigenvalues not converged
     ethr =  1.00E-05,  avg # of iterations = 28.1

     negative rho (up, down):  5.634E-03 0.000E+00
 
     Adding external electric field

     Computed dipole along edir(3) : 
        Dipole               56.9900 Ry au,        144.8541 Debye
        Dipole field          0.1075 Ry au, 
 
        Potential amp.       -9.9695 Ry
        Total length         46.3494 bohr
 

     total cpu time spent up to now is       65.4 secs

     total energy              =   -2295.33074211 Ry
     estimated scf accuracy    <    7740.76704369 Ry

     iteration #  2     ecut=    29.40 Ry     beta= 0.05
     Davidson diagonalization with overlap
     ethr =  1.00E-02,  avg # of iterations = 24.6

     negative rho (up, down):  2.162E-04 0.000E+00
 
     Adding external electric field

     Computed dipole along edir(3) : 
        Dipole               -2.3653 Ry au,         -6.0121 Debye
        Dipole field         -0.0045 Ry au, 
 
        Potential amp.        0.4138 Ry
        Total length         46.3494 bohr
 

     total cpu time spent up to now is      153.6 secs

     total energy              =   -2423.68068462 Ry
     estimated scf accuracy    <   81225.40843240 Ry

     iteration #  3     ecut=    29.40 Ry     beta= 0.05
     Davidson diagonalization with overlap
     c_bands:  2 eigenvalues not converged
     ethr =  1.00E-02,  avg # of iterations = 15.7

     negative rho (up, down):  2.634E-04 0.000E+00
 
     Adding external electric field

     Computed dipole along edir(3) : 
        Dipole               -5.0489 Ry au,        -12.8331 Debye
        Dipole field         -0.0095 Ry au, 
 
        Potential amp.        0.8832 Ry
        Total length         46.3494 bohr
 

     total cpu time spent up to now is      204.0 secs

     total energy              =   -2956.44204877 Ry
     estimated scf accuracy    <    8179.64260573 Ry

     iteration #  4     ecut=    29.40 Ry     beta= 0.05
     Davidson diagonalization with overlap
     ethr =  1.00E-02,  avg # of iterations = 11.2

     negative rho (up, down):  2.733E-04 0.000E+00
 
     Adding external electric field

     Computed dipole along edir(3) : 
        Dipole               -6.0987 Ry au,        -15.5014 Debye
        Dipole field         -0.0115 Ry au, 
 
        Potential amp.        1.0669 Ry
        Total length         46.3494 bohr
 

     total cpu time spent up to now is      227.9 secs

     total energy              =   -2970.84927983 Ry
     estimated scf accuracy    <    2352.27341799 Ry

     iteration #  5     ecut=    29.40 Ry     beta= 0.05
     Davidson diagonalization with overlap
     c_bands:  2 eigenvalues not converged
     ethr =  1.00E-02,  avg # of iterations =  7.5

     negative rho (up, down):  2.957E-04 0.000E+00
 
     Adding external electric field

     Computed dipole along edir(3) : 
        Dipole               -7.0438 Ry au,        -17.9034 Debye
        Dipole field         -0.0133 Ry au, 
 
        Potential amp.        1.2322 Ry
        Total length         46.3494 bohr
 

     total cpu time spent up to now is      241.1 secs

     total energy              =   -2953.66435493 Ry
     estimated scf accuracy    <    1799.93869041 Ry

     iteration #  6     ecut=    29.40 Ry     beta= 0.05
     Davidson diagonalization with overlap
     ethr =  1.00E-02,  avg # of iterations = 13.1

     negative rho (up, down):  2.862E-04 0.000E+00
 
     Adding external electric field

     Computed dipole along edir(3) : 
        Dipole               -5.5296 Ry au,        -14.0548 Debye
        Dipole field         -0.0104 Ry au, 
 
        Potential amp.        0.9673 Ry
        Total length         46.3494 bohr
 

     total cpu time spent up to now is      264.8 secs

     total energy              =   -2981.31469192 Ry
     estimated scf accuracy    <      49.05120632 Ry

     iteration #  7     ecut=    29.40 Ry     beta= 0.05
     Davidson diagonalization with overlap
     ethr =  1.00E-02,  avg # of iterations =  1.1

     negative rho (up, down):  2.784E-04 0.000E+00
 
     Adding external electric field

     Computed dipole along edir(3) : 
        Dipole               -3.7893 Ry au,         -9.6313 Debye
        Dipole field         -0.0072 Ry au, 
 
        Potential amp.        0.6629 Ry
        Total length         46.3494 bohr
 

     total cpu time spent up to now is      275.3 secs

     total energy              =   -2980.78677399 Ry
     estimated scf accuracy    <      43.51262366 Ry

     iteration #  8     ecut=    29.40 Ry     beta= 0.05
     Davidson diagonalization with overlap
     ethr =  1.00E-02,  avg # of iterations =  1.4

     negative rho (up, down):  2.758E-04 0.000E+00
 
     Adding external electric field

     Computed dipole along edir(3) : 
        Dipole               -3.2450 Ry au,         -8.2478 Debye
        Dipole field         -0.0061 Ry au, 
 
        Potential amp.        0.5677 Ry
        Total length         46.3494 bohr
 

     total cpu time spent up to now is      285.7 secs

     total energy              =   -2981.82765416 Ry
     estimated scf accuracy    <     120.96181605 Ry

     iteration #  9     ecut=    29.40 Ry     beta= 0.05
     Davidson diagonalization with overlap
     ethr =  1.00E-02,  avg # of iterations =  1.0

     negative rho (up, down):  2.769E-04 0.000E+00
 
     Adding external electric field

     Computed dipole along edir(3) : 
        Dipole               -3.2578 Ry au,         -8.2806 Debye
        Dipole field         -0.0061 Ry au, 
 
        Potential amp.        0.5699 Ry
        Total length         46.3494 bohr
 

     total cpu time spent up to now is      295.8 secs

     total energy              =   -2982.05165331 Ry
     estimated scf accuracy    <     258.14187222 Ry

     iteration # 10     ecut=    29.40 Ry     beta= 0.05
     Davidson diagonalization with overlap
     ethr =  1.00E-02,  avg # of iterations =  1.0

     negative rho (up, down):  2.931E-04 0.000E+00
 
     Adding external electric field

     Computed dipole along edir(3) : 
        Dipole               -2.4937 Ry au,         -6.3382 Debye
        Dipole field         -0.0047 Ry au, 
 
        Potential amp.        0.4362 Ry
        Total length         46.3494 bohr
 

     total cpu time spent up to now is      306.0 secs

     total energy              =   -2977.08479737 Ry
     estimated scf accuracy    <     256.90598455 Ry

     iteration # 11     ecut=    29.40 Ry     beta= 0.05
     Davidson diagonalization with overlap
     ethr =  1.00E-02,  avg # of iterations =  1.4

     negative rho (up, down):  5.113E-04 0.000E+00
 
     Adding external electric field

     Computed dipole along edir(3) : 
        Dipole                4.2427 Ry au,         10.7840 Debye
        Dipole field          0.0080 Ry au, 
 
        Potential amp.       -0.7422 Ry
        Total length         46.3494 bohr
 

     total cpu time spent up to now is      316.3 secs

     total energy              =   -2971.34604861 Ry
     estimated scf accuracy    <      56.99785141 Ry

     iteration # 12     ecut=    29.40 Ry     beta= 0.05
     Davidson diagonalization with overlap
     ethr =  1.00E-02,  avg # of iterations = 13.9

     negative rho (up, down):  3.872E-04 0.000E+00
 
     Adding external electric field

     Computed dipole along edir(3) : 
        Dipole                0.9770 Ry au,          2.4833 Debye
        Dipole field          0.0018 Ry au, 
 
        Potential amp.       -0.1709 Ry
        Total length         46.3494 bohr
 

     total cpu time spent up to now is      341.7 secs

     total energy              =   -2978.77888251 Ry
     estimated scf accuracy    <    4136.82706931 Ry

     iteration # 13     ecut=    29.40 Ry     beta= 0.05
     Davidson diagonalization with overlap
     ethr =  1.00E-02,  avg # of iterations = 10.1

     negative rho (up, down):  3.965E-04 0.000E+00
 
     Adding external electric field

     Computed dipole along edir(3) : 
        Dipole                1.0410 Ry au,          2.6459 Debye
        Dipole field          0.0020 Ry au, 
 
        Potential amp.       -0.1821 Ry
        Total length         46.3494 bohr
 

     total cpu time spent up to now is      355.6 secs

     total energy              =   -2984.94203629 Ry
     estimated scf accuracy    <    1896.40438093 Ry

     iteration # 14     ecut=    29.40 Ry     beta= 0.05
     Davidson diagonalization with overlap
     ethr =  1.00E-02,  avg # of iterations =  1.0

     negative rho (up, down):  3.386E-04 0.000E+00
 
     Adding external electric field

     Computed dipole along edir(3) : 
        Dipole               -3.6488 Ry au,         -9.2744 Debye
        Dipole field         -0.0069 Ry au, 
 
        Potential amp.        0.6383 Ry
        Total length         46.3494 bohr
 

     total cpu time spent up to now is      365.8 secs

     total energy              =   -2957.20450262 Ry
     estimated scf accuracy    <    1883.10595552 Ry

     iteration # 15     ecut=    29.40 Ry     beta= 0.05
     Davidson diagonalization with overlap
     ethr =  1.00E-02,  avg # of iterations = 12.9

     negative rho (up, down):  3.214E-04 0.000E+00
 
     Adding external electric field

     Computed dipole along edir(3) : 
        Dipole               -2.1067 Ry au,         -5.3548 Debye
        Dipole field         -0.0040 Ry au, 
 
        Potential amp.        0.3685 Ry
        Total length         46.3494 bohr
 

     total cpu time spent up to now is      385.3 secs

     total energy              =   -2977.53293780 Ry
     estimated scf accuracy    <       9.54192032 Ry

     iteration # 16     ecut=    29.40 Ry     beta= 0.05
     Davidson diagonalization with overlap
     ethr =  2.36E-03,  avg # of iterations =  2.4

     negative rho (up, down):  3.821E-04 0.000E+00
 
     Adding external electric field

     Computed dipole along edir(3) : 
        Dipole                1.4420 Ry au,          3.6653 Debye
        Dipole field          0.0027 Ry au, 
 
        Potential amp.       -0.2523 Ry
        Total length         46.3494 bohr
 

     total cpu time spent up to now is      396.7 secs

     total energy              =   -2976.60247245 Ry
     estimated scf accuracy    <       9.32597696 Ry

     iteration # 17     ecut=    29.40 Ry     beta= 0.05
     Davidson diagonalization with overlap
     ethr =  2.30E-03,  avg # of iterations =  8.8

     negative rho (up, down):  3.691E-04 0.000E+00
 
     Adding external electric field

     Computed dipole along edir(3) : 
        Dipole                0.5327 Ry au,          1.3540 Debye
        Dipole field          0.0010 Ry au, 
 
        Potential amp.       -0.0932 Ry
        Total length         46.3494 bohr
 

     total cpu time spent up to now is      416.8 secs

     total energy              =   -2979.61241594 Ry
     estimated scf accuracy    <    1063.35058483 Ry

     iteration # 18     ecut=    29.40 Ry     beta= 0.05
     Davidson diagonalization with overlap
     ethr =  2.30E-03,  avg # of iterations =  1.1

     negative rho (up, down):  3.927E-04 0.000E+00
 
     Adding external electric field

     Computed dipole along edir(3) : 
        Dipole                1.1435 Ry au,          2.9065 Debye
        Dipole field          0.0022 Ry au, 
 
        Potential amp.       -0.2000 Ry
        Total length         46.3494 bohr
 

     total cpu time spent up to now is      427.0 secs

     total energy              =   -2981.61924878 Ry
     estimated scf accuracy    <     582.72966987 Ry

     iteration # 19     ecut=    29.40 Ry     beta= 0.05
     Davidson diagonalization with overlap
     ethr =  2.30E-03,  avg # of iterations =  1.2

     negative rho (up, down):  3.948E-04 0.000E+00
 
     Adding external electric field

     Computed dipole along edir(3) : 
        Dipole                1.0637 Ry au,          2.7036 Debye
        Dipole field          0.0020 Ry au, 
 
        Potential amp.       -0.1861 Ry
        Total length         46.3494 bohr
 

     total cpu time spent up to now is      437.3 secs

     total energy              =   -2982.39444910 Ry
     estimated scf accuracy    <    1015.85839996 Ry

     iteration # 20     ecut=    29.40 Ry     beta= 0.05
     Davidson diagonalization with overlap
     ethr =  2.30E-03,  avg # of iterations =  1.0

     negative rho (up, down):  4.140E-04 0.000E+00
 
     Adding external electric field

     Computed dipole along edir(3) : 
        Dipole                0.5842 Ry au,          1.4849 Debye
        Dipole field          0.0011 Ry au, 
 
        Potential amp.       -0.1022 Ry
        Total length         46.3494 bohr
 

     total cpu time spent up to now is      447.4 secs

     total energy              =   -2978.12752686 Ry
     estimated scf accuracy    <    1050.48533749 Ry

     iteration # 21     ecut=    29.40 Ry     beta= 0.05
     Davidson diagonalization with overlap
     ethr =  2.30E-03,  avg # of iterations =  2.3

     negative rho (up, down):  5.113E-04 0.000E+00
 
     Adding external electric field

     Computed dipole along edir(3) : 
        Dipole                0.8571 Ry au,          2.1785 Debye
        Dipole field          0.0016 Ry au, 
 
        Potential amp.       -0.1499 Ry
        Total length         46.3494 bohr
 

     total cpu time spent up to now is      458.6 secs

     total energy              =   -2976.81256815 Ry
     estimated scf accuracy    <     475.03772446 Ry

     iteration # 22     ecut=    29.40 Ry     beta= 0.05
     Davidson diagonalization with overlap
     ethr =  2.30E-03,  avg # of iterations =  4.5

     negative rho (up, down):  4.731E-04 0.000E+00
 
     Adding external electric field

     Computed dipole along edir(3) : 
        Dipole                0.4282 Ry au,          1.0884 Debye
        Dipole field          0.0008 Ry au, 
 
        Potential amp.       -0.0749 Ry
        Total length         46.3494 bohr
 

     total cpu time spent up to now is      470.5 secs

     total energy              =   -2976.68446494 Ry
     estimated scf accuracy    <     267.30091572 Ry

     iteration # 23     ecut=    29.40 Ry     beta= 0.05
     Davidson diagonalization with overlap
     ethr =  2.30E-03,  avg # of iterations =  1.3

     negative rho (up, down):  4.956E-04 0.000E+00
 
     Adding external electric field

     Computed dipole along edir(3) : 
        Dipole               -0.3718 Ry au,         -0.9449 Debye
        Dipole field         -0.0007 Ry au, 
 
        Potential amp.        0.0650 Ry
        Total length         46.3494 bohr
 

     total cpu time spent up to now is      480.9 secs

     total energy              =   -2974.40756460 Ry
     estimated scf accuracy    <     235.47992116 Ry

     iteration # 24     ecut=    29.40 Ry     beta= 0.05
     Davidson diagonalization with overlap
     ethr =  2.30E-03,  avg # of iterations =  8.6

     negative rho (up, down):  6.102E-04 0.000E+00
 
     Adding external electric field

     Computed dipole along edir(3) : 
        Dipole                0.0247 Ry au,          0.0629 Debye
        Dipole field          0.0000 Ry au, 
 
        Potential amp.       -0.0043 Ry
        Total length         46.3494 bohr
 

     total cpu time spent up to now is      496.2 secs

     total energy              =   -2976.52614334 Ry
     estimated scf accuracy    <       8.66666028 Ry

     iteration # 25     ecut=    29.40 Ry     beta= 0.05
     Davidson diagonalization with overlap
     ethr =  2.14E-03,  avg # of iterations =  3.0

     negative rho (up, down):  8.207E-04 0.000E+00
 
     Adding external electric field

     Computed dipole along edir(3) : 
        Dipole                0.3832 Ry au,          0.9741 Debye
        Dipole field          0.0007 Ry au, 
 
        Potential amp.       -0.0670 Ry
        Total length         46.3494 bohr
 

     total cpu time spent up to now is      507.6 secs

     total energy              =   -2976.60561808 Ry
     estimated scf accuracy    <       4.70530054 Ry

     iteration # 26     ecut=    29.40 Ry     beta= 0.05
     Davidson diagonalization with overlap
     c_bands:  1 eigenvalues not converged
     ethr =  1.16E-03,  avg # of iterations =  4.5

     negative rho (up, down):  9.716E-04 0.000E+00
 
     Adding external electric field

     Computed dipole along edir(3) : 
        Dipole                0.6223 Ry au,          1.5816 Debye
        Dipole field          0.0012 Ry au, 
 
        Potential amp.       -0.1089 Ry
        Total length         46.3494 bohr
 

     total cpu time spent up to now is      519.5 secs

     total energy              =   -2976.67986992 Ry
     estimated scf accuracy    <       1.57304591 Ry

     iteration # 27     ecut=    29.40 Ry     beta= 0.05
     Davidson diagonalization with overlap
     c_bands:  2 eigenvalues not converged
     c_bands:  4 eigenvalues not converged
     c_bands:  4 eigenvalues not converged
     c_bands:  3 eigenvalues not converged
     ethr =  3.88E-04,  avg # of iterations = 11.2

     negative rho (up, down):  9.168E-04 0.000E+00
 
     Adding external electric field

     Computed dipole along edir(3) : 
        Dipole                0.5448 Ry au,          1.3846 Debye
        Dipole field          0.0010 Ry au, 
 
        Potential amp.       -0.0953 Ry
        Total length         46.3494 bohr
 

     total cpu time spent up to now is      535.0 secs

     total energy              =   -2976.74326814 Ry
     estimated scf accuracy    <       3.33075655 Ry

     iteration # 28     ecut=    29.40 Ry     beta= 0.05
     Davidson diagonalization with overlap
     ethr =  3.88E-04,  avg # of iterations =  3.6

     negative rho (up, down):  1.096E-03 0.000E+00
 
     Adding external electric field

     Computed dipole along edir(3) : 
        Dipole                0.7965 Ry au,          2.0246 Debye
        Dipole field          0.0015 Ry au, 
 
        Potential amp.       -0.1393 Ry
        Total length         46.3494 bohr
 

     total cpu time spent up to now is      546.2 secs

     total energy              =   -2976.83937529 Ry
     estimated scf accuracy    <       3.22286073 Ry

     iteration # 29     ecut=    29.40 Ry     beta= 0.05
     Davidson diagonalization with overlap
     c_bands:  3 eigenvalues not converged
     ethr =  3.88E-04,  avg # of iterations =  5.3

     negative rho (up, down):  9.195E-04 0.000E+00
 
     Adding external electric field

     Computed dipole along edir(3) : 
        Dipole                0.7483 Ry au,          1.9019 Debye
        Dipole field          0.0014 Ry au, 
 
        Potential amp.       -0.1309 Ry
        Total length         46.3494 bohr
 

     total cpu time spent up to now is      558.6 secs

     total energy              =   -2976.79114141 Ry
     estimated scf accuracy    <       6.87221776 Ry

     iteration # 30     ecut=    29.40 Ry     beta= 0.05
     Davidson diagonalization with overlap
     c_bands:  5 eigenvalues not converged
     c_bands:  3 eigenvalues not converged
     ethr =  3.88E-04,  avg # of iterations =  5.5

     negative rho (up, down):  6.820E-04 0.000E+00
 
     Adding external electric field

     Computed dipole along edir(3) : 
        Dipole                0.3793 Ry au,          0.9641 Debye
        Dipole field          0.0007 Ry au, 
 
        Potential amp.       -0.0664 Ry
        Total length         46.3494 bohr
 

     total cpu time spent up to now is      571.0 secs

     total energy              =   -2976.66285106 Ry
     estimated scf accuracy    <      11.55260244 Ry

     iteration # 31     ecut=    29.40 Ry     beta= 0.05
     Davidson diagonalization with overlap
     c_bands:  4 eigenvalues not converged
     ethr =  3.88E-04,  avg # of iterations =  5.7

     negative rho (up, down):  9.330E-04 0.000E+00
 
     Adding external electric field

     Computed dipole along edir(3) : 
        Dipole                0.5535 Ry au,          1.4069 Debye
        Dipole field          0.0010 Ry au, 
 
        Potential amp.       -0.0968 Ry
        Total length         46.3494 bohr
 

     total cpu time spent up to now is      583.4 secs

     total energy              =   -2976.62593681 Ry
     estimated scf accuracy    <      10.83558791 Ry

     iteration # 32     ecut=    29.40 Ry     beta= 0.05
     Davidson diagonalization with overlap
     c_bands:  1 eigenvalues not converged
     c_bands:  1 eigenvalues not converged
     ethr =  3.88E-04,  avg # of iterations =  8.2

     negative rho (up, down):  1.153E-03 0.000E+00
 
     Adding external electric field

     Computed dipole along edir(3) : 
        Dipole                0.5481 Ry au,          1.3931 Debye
        Dipole field          0.0010 Ry au, 
 
        Potential amp.       -0.0959 Ry
        Total length         46.3494 bohr
 

     total cpu time spent up to now is      596.8 secs

     total energy              =   -2976.62637643 Ry
     estimated scf accuracy    <      16.18476472 Ry

     iteration # 33     ecut=    29.40 Ry     beta= 0.05
     Davidson diagonalization with overlap
     ethr =  3.88E-04,  avg # of iterations =  7.9

     negative rho (up, down):  9.790E-04 0.000E+00
 
     Adding external electric field

     Computed dipole along edir(3) : 
        Dipole                0.2951 Ry au,          0.7501 Debye
        Dipole field          0.0006 Ry au, 
 
        Potential amp.       -0.0516 Ry
        Total length         46.3494 bohr
 

     total cpu time spent up to now is      609.7 secs

     total energy              =   -2976.52988095 Ry
     estimated scf accuracy    <      20.91159940 Ry

     iteration # 34     ecut=    29.40 Ry     beta= 0.05
     Davidson diagonalization with overlap
     ethr =  3.88E-04,  avg # of iterations =  1.0

     negative rho (up, down):  1.158E-03 0.000E+00
 
     Adding external electric field

     Computed dipole along edir(3) : 
        Dipole                0.1928 Ry au,          0.4900 Debye
        Dipole field          0.0004 Ry au, 
 
        Potential amp.       -0.0337 Ry
        Total length         46.3494 bohr
 

     total cpu time spent up to now is      619.8 secs

     total energy              =   -2976.60128768 Ry
     estimated scf accuracy    <       6.78567055 Ry

     iteration # 35     ecut=    29.40 Ry     beta= 0.05
     Davidson diagonalization with overlap
     c_bands:  2 eigenvalues not converged
     ethr =  3.88E-04,  avg # of iterations =  3.7

     negative rho (up, down):  1.147E-03 0.000E+00
 
     Adding external electric field

     Computed dipole along edir(3) : 
        Dipole                0.1653 Ry au,          0.4203 Debye
        Dipole field          0.0003 Ry au, 
 
        Potential amp.       -0.0289 Ry
        Total length         46.3494 bohr
 

     total cpu time spent up to now is      631.2 secs

     total energy              =   -2976.63604443 Ry
     estimated scf accuracy    <      17.92647230 Ry

     iteration # 36     ecut=    29.40 Ry     beta= 0.05
     Davidson diagonalization with overlap
     ethr =  3.88E-04,  avg # of iterations =  2.3

     negative rho (up, down):  1.048E-03 0.000E+00
 
     Adding external electric field

     Computed dipole along edir(3) : 
        Dipole               -0.0013 Ry au,         -0.0034 Debye
        Dipole field         -0.0000 Ry au, 
 
        Potential amp.        0.0002 Ry
        Total length         46.3494 bohr
 

     total cpu time spent up to now is      641.8 secs

     total energy              =   -2976.57212238 Ry
     estimated scf accuracy    <      15.55190765 Ry

     iteration # 37     ecut=    29.40 Ry     beta= 0.05
     Davidson diagonalization with overlap
     ethr =  3.88E-04,  avg # of iterations =  1.0

     negative rho (up, down):  9.095E-04 0.000E+00
 
     Adding external electric field

     Computed dipole along edir(3) : 
        Dipole               -0.0877 Ry au,         -0.2230 Debye
        Dipole field         -0.0002 Ry au, 
 
        Potential amp.        0.0153 Ry
        Total length         46.3494 bohr
 

     total cpu time spent up to now is      651.9 secs

     total energy              =   -2976.51794344 Ry
     estimated scf accuracy    <       7.74858865 Ry

     iteration # 38     ecut=    29.40 Ry     beta= 0.05
     Davidson diagonalization with overlap
     ethr =  3.88E-04,  avg # of iterations =  1.0

     negative rho (up, down):  6.581E-04 0.000E+00
 
     Adding external electric field

     Computed dipole along edir(3) : 
        Dipole               -0.3676 Ry au,         -0.9344 Debye
        Dipole field         -0.0007 Ry au, 
 
        Potential amp.        0.0643 Ry
        Total length         46.3494 bohr
 

     total cpu time spent up to now is      662.0 secs

     total energy              =   -2976.40577684 Ry
     estimated scf accuracy    <       3.47809378 Ry

     iteration # 39     ecut=    29.40 Ry     beta= 0.05
     Davidson diagonalization with overlap
     ethr =  3.88E-04,  avg # of iterations =  6.3

     negative rho (up, down):  6.668E-04 0.000E+00
 
     Adding external electric field

     Computed dipole along edir(3) : 
        Dipole               -0.3365 Ry au,         -0.8553 Debye
        Dipole field         -0.0006 Ry au, 
 
        Potential amp.        0.0589 Ry
        Total length         46.3494 bohr
 

     total cpu time spent up to now is      674.5 secs

     total energy              =   -2976.50978510 Ry
     estimated scf accuracy    <       0.62632729 Ry

     iteration # 40     ecut=    29.40 Ry     beta= 0.05
     Davidson diagonalization with overlap
     c_bands:  3 eigenvalues not converged
     ethr =  1.55E-04,  avg # of iterations =  5.5

     negative rho (up, down):  6.634E-04 0.000E+00
 
     Adding external electric field

     Computed dipole along edir(3) : 
        Dipole               -0.3663 Ry au,         -0.9311 Debye
        Dipole field         -0.0007 Ry au, 
 
        Potential amp.        0.0641 Ry
        Total length         46.3494 bohr
 

     total cpu time spent up to now is      686.5 secs

     total energy              =   -2976.53462220 Ry
     estimated scf accuracy    <       0.61228364 Ry

     iteration # 41     ecut=    29.40 Ry     beta= 0.05
     Davidson diagonalization with overlap
     ethr =  1.51E-04,  avg # of iterations =  1.1

     negative rho (up, down):  6.238E-04 0.000E+00
 
     Adding external electric field

     Computed dipole along edir(3) : 
        Dipole               -0.2758 Ry au,         -0.7011 Debye
        Dipole field         -0.0005 Ry au, 
 
        Potential amp.        0.0483 Ry
        Total length         46.3494 bohr
 

     total cpu time spent up to now is      696.7 secs

     total energy              =   -2976.54557230 Ry
     estimated scf accuracy    <       0.67630856 Ry

     iteration # 42     ecut=    29.40 Ry     beta= 0.05
     Davidson diagonalization with overlap
     c_bands:  1 eigenvalues not converged
     ethr =  1.51E-04,  avg # of iterations =  3.4

     negative rho (up, down):  6.954E-04 0.000E+00
 
     Adding external electric field

     Computed dipole along edir(3) : 
        Dipole               -0.3459 Ry au,         -0.8793 Debye
        Dipole field         -0.0007 Ry au, 
 
        Potential amp.        0.0605 Ry
        Total length         46.3494 bohr
 

     total cpu time spent up to now is      707.7 secs

     total energy              =   -2976.49652274 Ry
     estimated scf accuracy    <       1.30414789 Ry

     iteration # 43     ecut=    29.40 Ry     beta= 0.05
     Davidson diagonalization with overlap
     ethr =  1.51E-04,  avg # of iterations =  2.2

     negative rho (up, down):  7.358E-04 0.000E+00
 
     Adding external electric field

     Computed dipole along edir(3) : 
        Dipole               -0.1236 Ry au,         -0.3141 Debye
        Dipole field         -0.0002 Ry au, 
 
        Potential amp.        0.0216 Ry
        Total length         46.3494 bohr
 

     total cpu time spent up to now is      718.2 secs

     total energy              =   -2976.45668720 Ry
     estimated scf accuracy    <       0.49991792 Ry

     iteration # 44     ecut=    29.40 Ry     beta= 0.05
     Davidson diagonalization with overlap
     ethr =  1.23E-04,  avg # of iterations =  4.6

     negative rho (up, down):  8.055E-04 0.000E+00
 
     Adding external electric field

     Computed dipole along edir(3) : 
        Dipole               -0.0389 Ry au,         -0.0989 Debye
        Dipole field         -0.0001 Ry au, 
 
        Potential amp.        0.0068 Ry
        Total length         46.3494 bohr
 

     total cpu time spent up to now is      730.3 secs

     total energy              =   -2976.46343552 Ry
     estimated scf accuracy    <       0.39428288 Ry

     iteration # 45     ecut=    29.40 Ry     beta= 0.05
     Davidson diagonalization with overlap
     ethr =  9.74E-05,  avg # of iterations =  1.8

     negative rho (up, down):  1.389E-03 0.000E+00
 
     Adding external electric field

     Computed dipole along edir(3) : 
        Dipole                0.1482 Ry au,          0.3766 Debye
        Dipole field          0.0003 Ry au, 
 
        Potential amp.       -0.0259 Ry
        Total length         46.3494 bohr
 

     total cpu time spent up to now is      741.2 secs

     total energy              =   -2976.38626989 Ry
     estimated scf accuracy    <       0.32503137 Ry

     iteration # 46     ecut=    29.40 Ry     beta= 0.05
     Davidson diagonalization with overlap
     ethr =  8.03E-05,  avg # of iterations =  8.5

     negative rho (up, down):  1.641E-03 0.000E+00
 
     Adding external electric field

     Computed dipole along edir(3) : 
        Dipole                0.3743 Ry au,          0.9514 Debye
        Dipole field          0.0007 Ry au, 
 
        Potential amp.       -0.0655 Ry
        Total length         46.3494 bohr
 

     total cpu time spent up to now is      756.5 secs

     total energy              =   -2976.41740882 Ry
     estimated scf accuracy    <       0.12206653 Ry

     iteration # 47     ecut=    29.40 Ry     beta= 0.05
     Davidson diagonalization with overlap
     c_bands:  2 eigenvalues not converged
     c_bands:  2 eigenvalues not converged
     c_bands:  1 eigenvalues not converged
     c_bands:  1 eigenvalues not converged
     c_bands:  1 eigenvalues not converged
     ethr =  3.01E-05,  avg # of iterations = 17.0

     negative rho (up, down):  1.383E-03 0.000E+00
 
     Adding external electric field

     Computed dipole along edir(3) : 
        Dipole                0.2288 Ry au,          0.5815 Debye
        Dipole field          0.0004 Ry au, 
 
        Potential amp.       -0.0400 Ry
        Total length         46.3494 bohr
 

     total cpu time spent up to now is      778.3 secs

     total energy              =   -2976.41402465 Ry
     estimated scf accuracy    <       0.22403070 Ry

     iteration # 48     ecut=    29.40 Ry     beta= 0.05
     Davidson diagonalization with overlap
     c_bands:  2 eigenvalues not converged
     ethr =  3.01E-05,  avg # of iterations =  9.0

     negative rho (up, down):  1.319E-03 0.000E+00
 
     Adding external electric field

     Computed dipole along edir(3) : 
        Dipole                0.1834 Ry au,          0.4662 Debye
        Dipole field          0.0003 Ry au, 
 
        Potential amp.       -0.0321 Ry
        Total length         46.3494 bohr
 

     total cpu time spent up to now is      792.2 secs

     total energy              =   -2976.41581293 Ry
     estimated scf accuracy    <       0.09937918 Ry

     iteration # 49     ecut=    29.40 Ry     beta= 0.05
     Davidson diagonalization with overlap
     c_bands:  1 eigenvalues not converged
     ethr =  2.45E-05,  avg # of iterations =  6.2

     negative rho (up, down):  1.816E-03 0.000E+00
 
     Adding external electric field

     Computed dipole along edir(3) : 
        Dipole                0.3524 Ry au,          0.8958 Debye
        Dipole field          0.0007 Ry au, 
 
        Potential amp.       -0.0617 Ry
        Total length         46.3494 bohr
 

     total cpu time spent up to now is      805.1 secs

     total energy              =   -2976.41698695 Ry
     estimated scf accuracy    <       0.05938725 Ry

     iteration # 50     ecut=    29.40 Ry     beta= 0.05
     Davidson diagonalization with overlap
     c_bands:  2 eigenvalues not converged
     c_bands:  1 eigenvalues not converged
     ethr =  1.47E-05,  avg # of iterations = 11.6

     negative rho (up, down):  2.334E-03 0.000E+00
 
     Adding external electric field

     Computed dipole along edir(3) : 
        Dipole                0.3892 Ry au,          0.9891 Debye
        Dipole field          0.0007 Ry au, 
 
        Potential amp.       -0.0681 Ry
        Total length         46.3494 bohr
 

     total cpu time spent up to now is      819.5 secs

     total energy              =   -2976.41889074 Ry
     estimated scf accuracy    <       0.03393004 Ry

     iteration # 51     ecut=    29.40 Ry     beta= 0.05
     Davidson diagonalization with overlap
     c_bands:  1 eigenvalues not converged
     ethr =  8.38E-06,  avg # of iterations =  8.7

     negative rho (up, down):  2.388E-03 0.000E+00
 
     Adding external electric field

     Computed dipole along edir(3) : 
        Dipole                0.3931 Ry au,          0.9993 Debye
        Dipole field          0.0007 Ry au, 
 
        Potential amp.       -0.0688 Ry
        Total length         46.3494 bohr
 

     total cpu time spent up to now is      833.8 secs

     total energy              =   -2976.42056845 Ry
     estimated scf accuracy    <       0.06035395 Ry

     iteration # 52     ecut=    29.40 Ry     beta= 0.05
     Davidson diagonalization with overlap
     ethr =  8.38E-06,  avg # of iterations =  3.5

     negative rho (up, down):  2.774E-03 0.000E+00
 
     Adding external electric field

     Computed dipole along edir(3) : 
        Dipole                0.4174 Ry au,          1.0609 Debye
        Dipole field          0.0008 Ry au, 
 
        Potential amp.       -0.0730 Ry
        Total length         46.3494 bohr
 

     total cpu time spent up to now is      845.1 secs

     total energy              =   -2976.41948472 Ry
     estimated scf accuracy    <       0.02490961 Ry

     iteration # 53     ecut=    29.40 Ry     beta= 0.05
     Davidson diagonalization with overlap
     ethr =  6.15E-06,  avg # of iterations =  7.4

     negative rho (up, down):  3.307E-03 0.000E+00
 
     Adding external electric field

     Computed dipole along edir(3) : 
        Dipole                0.4904 Ry au,          1.2465 Debye
        Dipole field          0.0009 Ry au, 
 
        Potential amp.       -0.0858 Ry
        Total length         46.3494 bohr
 

     total cpu time spent up to now is      860.8 secs

     total energy              =   -2976.42058479 Ry
     estimated scf accuracy    <       0.01807052 Ry

     iteration # 54     ecut=    29.40 Ry     beta= 0.05
     Davidson diagonalization with overlap
     c_bands:  1 eigenvalues not converged
     ethr =  4.46E-06,  avg # of iterations =  6.9

     negative rho (up, down):  3.860E-03 0.000E+00
 
     Adding external electric field

     Computed dipole along edir(3) : 
        Dipole                0.5284 Ry au,          1.3431 Debye
        Dipole field          0.0010 Ry au, 
 
        Potential amp.       -0.0924 Ry
        Total length         46.3494 bohr
 

     total cpu time spent up to now is      874.0 secs

     total energy              =   -2976.42162782 Ry
     estimated scf accuracy    <       0.00557345 Ry

     iteration # 55     ecut=    29.40 Ry     beta= 0.05
     Davidson diagonalization with overlap
     c_bands:  1 eigenvalues not converged
     c_bands:  1 eigenvalues not converged
     c_bands:  1 eigenvalues not converged
     ethr =  1.38E-06,  avg # of iterations = 13.1

     negative rho (up, down):  4.995E-03 0.000E+00
 
     Adding external electric field

     Computed dipole along edir(3) : 
        Dipole                0.5874 Ry au,          1.4931 Debye
        Dipole field          0.0011 Ry au, 
 
        Potential amp.       -0.1028 Ry
        Total length         46.3494 bohr
 

     total cpu time spent up to now is      893.3 secs

     total energy              =   -2976.42242118 Ry
     estimated scf accuracy    <       0.00531696 Ry

     iteration # 56     ecut=    29.40 Ry     beta= 0.05
     Davidson diagonalization with overlap
     c_bands:  1 eigenvalues not converged
     ethr =  1.31E-06,  avg # of iterations =  7.4

     negative rho (up, down):  5.576E-03 0.000E+00
 
     Adding external electric field

     Computed dipole along edir(3) : 
        Dipole                0.5890 Ry au,          1.4972 Debye
        Dipole field          0.0011 Ry au, 
 
        Potential amp.       -0.1030 Ry
        Total length         46.3494 bohr
 

     total cpu time spent up to now is      907.3 secs

     total energy              =   -2976.42284269 Ry
     estimated scf accuracy    <       0.00305045 Ry

     iteration # 57     ecut=    29.40 Ry     beta= 0.05
     Davidson diagonalization with overlap
     c_bands:  1 eigenvalues not converged
     ethr =  7.53E-07,  avg # of iterations =  4.4

     negative rho (up, down):  6.445E-03 0.000E+00
 
     Adding external electric field

     Computed dipole along edir(3) : 
        Dipole                0.5809 Ry au,          1.4766 Debye
        Dipole field          0.0011 Ry au, 
 
        Potential amp.       -0.1016 Ry
        Total length         46.3494 bohr
 

     total cpu time spent up to now is      919.0 secs

     total energy              =   -2976.42277330 Ry
     estimated scf accuracy    <       0.00157472 Ry

     iteration # 58     ecut=    29.40 Ry     beta= 0.05
     Davidson diagonalization with overlap
     ethr =  3.89E-07,  avg # of iterations =  6.6

     negative rho (up, down):  7.489E-03 0.000E+00
 
     Adding external electric field

     Computed dipole along edir(3) : 
        Dipole                0.6087 Ry au,          1.5470 Debye
        Dipole field          0.0011 Ry au, 
 
        Potential amp.       -0.1065 Ry
        Total length         46.3494 bohr
 

     total cpu time spent up to now is      936.6 secs

     total energy              =   -2976.42305539 Ry
     estimated scf accuracy    <       0.00228813 Ry

     iteration # 59     ecut=    29.40 Ry     beta= 0.05
     Davidson diagonalization with overlap
     ethr =  3.89E-07,  avg # of iterations =  4.8

     negative rho (up, down):  8.110E-03 0.000E+00
 
     Adding external electric field

     Computed dipole along edir(3) : 
        Dipole                0.6264 Ry au,          1.5921 Debye
        Dipole field          0.0012 Ry au, 
 
        Potential amp.       -0.1096 Ry
        Total length         46.3494 bohr
 

     total cpu time spent up to now is      949.2 secs

     total energy              =   -2976.42310799 Ry
     estimated scf accuracy    <       0.00068257 Ry

     iteration # 60     ecut=    29.40 Ry     beta= 0.05
     Davidson diagonalization with overlap
     ethr =  1.69E-07,  avg # of iterations =  4.8

     negative rho (up, down):  7.682E-03 0.000E+00
 
     Adding external electric field

     Computed dipole along edir(3) : 
        Dipole                0.6169 Ry au,          1.5679 Debye
        Dipole field          0.0012 Ry au, 
 
        Potential amp.       -0.1079 Ry
        Total length         46.3494 bohr
 

     total cpu time spent up to now is      965.7 secs

     total energy              =   -2976.42325818 Ry
     estimated scf accuracy    <       0.00048235 Ry

     iteration # 61     ecut=    29.40 Ry     beta= 0.05
     Davidson diagonalization with overlap
     ethr =  1.19E-07,  avg # of iterations =  1.0

     negative rho (up, down):  7.350E-03 0.000E+00
 
     Adding external electric field

     Computed dipole along edir(3) : 
        Dipole                0.6040 Ry au,          1.5352 Debye
        Dipole field          0.0011 Ry au, 
 
        Potential amp.       -0.1057 Ry
        Total length         46.3494 bohr
 

     total cpu time spent up to now is      975.8 secs

     total energy              =   -2976.42318774 Ry
     estimated scf accuracy    <       0.00039223 Ry

     iteration # 62     ecut=    29.40 Ry     beta= 0.05
     Davidson diagonalization with overlap
     ethr =  9.68E-08,  avg # of iterations =  5.6

     negative rho (up, down):  8.004E-03 0.000E+00
 
     Adding external electric field

     Computed dipole along edir(3) : 
        Dipole                0.6189 Ry au,          1.5731 Debye
        Dipole field          0.0012 Ry au, 
 
        Potential amp.       -0.1083 Ry
        Total length         46.3494 bohr
 

     total cpu time spent up to now is      992.0 secs

     total energy              =   -2976.42324491 Ry
     estimated scf accuracy    <       0.00052267 Ry

     iteration # 63     ecut=    29.40 Ry     beta= 0.05
     Davidson diagonalization with overlap
     ethr =  9.68E-08,  avg # of iterations =  3.4

     negative rho (up, down):  8.537E-03 0.000E+00
 
     Adding external electric field

     Computed dipole along edir(3) : 
        Dipole                0.6311 Ry au,          1.6041 Debye
        Dipole field          0.0012 Ry au, 
 
        Potential amp.       -0.1104 Ry
        Total length         46.3494 bohr
 

     total cpu time spent up to now is     1003.6 secs

     total energy              =   -2976.42319684 Ry
     estimated scf accuracy    <       0.00023839 Ry

     iteration # 64     ecut=    29.40 Ry     beta= 0.05
     Davidson diagonalization with overlap
     ethr =  5.89E-08,  avg # of iterations =  6.1

     negative rho (up, down):  8.585E-03 0.000E+00
 
     Adding external electric field

     Computed dipole along edir(3) : 
        Dipole                0.6260 Ry au,          1.5911 Debye
        Dipole field          0.0012 Ry au, 
 
        Potential amp.       -0.1095 Ry
        Total length         46.3494 bohr
 

     total cpu time spent up to now is     1021.6 secs

     total energy              =   -2976.42329083 Ry
     estimated scf accuracy    <       0.00034936 Ry

     iteration # 65     ecut=    29.40 Ry     beta= 0.05
     Davidson diagonalization with overlap
     ethr =  5.89E-08,  avg # of iterations =  3.8

     negative rho (up, down):  8.870E-03 0.000E+00
 
     Adding external electric field

     Computed dipole along edir(3) : 
        Dipole                0.6262 Ry au,          1.5917 Debye
        Dipole field          0.0012 Ry au, 
 
        Potential amp.       -0.1095 Ry
        Total length         46.3494 bohr
 

     total cpu time spent up to now is     1033.4 secs

     total energy              =   -2976.42328357 Ry
     estimated scf accuracy    <       0.00013910 Ry

     iteration # 66     ecut=    29.40 Ry     beta= 0.05
     Davidson diagonalization with overlap
     ethr =  3.43E-08,  avg # of iterations =  5.0

     negative rho (up, down):  9.213E-03 0.000E+00
 
     Adding external electric field

     Computed dipole along edir(3) : 
        Dipole                0.6316 Ry au,          1.6053 Debye
        Dipole field          0.0012 Ry au, 
 
        Potential amp.       -0.1105 Ry
        Total length         46.3494 bohr
 

     total cpu time spent up to now is     1049.8 secs

     total energy              =   -2976.42333297 Ry
     estimated scf accuracy    <       0.00006237 Ry

     iteration # 67     ecut=    29.40 Ry     beta= 0.05
     Davidson diagonalization with overlap
     ethr =  1.54E-08,  avg # of iterations =  2.7

     negative rho (up, down):  9.549E-03 0.000E+00
 
     Adding external electric field

     Computed dipole along edir(3) : 
        Dipole                0.6360 Ry au,          1.6164 Debye
        Dipole field          0.0012 Ry au, 
 
        Potential amp.       -0.1113 Ry
        Total length         46.3494 bohr
 

     total cpu time spent up to now is     1061.1 secs

     total energy              =   -2976.42333860 Ry
     estimated scf accuracy    <       0.00003180 Ry

     iteration # 68     ecut=    29.40 Ry     beta= 0.05
     Davidson diagonalization with overlap
     ethr =  7.85E-09,  avg # of iterations =  5.1

     negative rho (up, down):  9.538E-03 0.000E+00
 
     Adding external electric field

     Computed dipole along edir(3) : 
        Dipole                0.6357 Ry au,          1.6159 Debye
        Dipole field          0.0012 Ry au, 
 
        Potential amp.       -0.1112 Ry
        Total length         46.3494 bohr
 

     total cpu time spent up to now is     1075.0 secs

     total energy              =   -2976.42334890 Ry
     estimated scf accuracy    <       0.00000950 Ry

     iteration # 69     ecut=    29.40 Ry     beta= 0.05
     Davidson diagonalization with overlap
     ethr =  2.35E-09,  avg # of iterations =  2.7

     negative rho (up, down):  9.618E-03 0.000E+00
 
     Adding external electric field

     Computed dipole along edir(3) : 
        Dipole                0.6368 Ry au,          1.6187 Debye
        Dipole field          0.0012 Ry au, 
 
        Potential amp.       -0.1114 Ry
        Total length         46.3494 bohr
 

     total cpu time spent up to now is     1086.1 secs

     total energy              =   -2976.42335392 Ry
     estimated scf accuracy    <       0.00001065 Ry

     iteration # 70     ecut=    29.40 Ry     beta= 0.05
     Davidson diagonalization with overlap
     ethr =  2.35E-09,  avg # of iterations =  2.0

     negative rho (up, down):  9.593E-03 0.000E+00
 
     Adding external electric field

     Computed dipole along edir(3) : 
        Dipole                0.6360 Ry au,          1.6165 Debye
        Dipole field          0.0012 Ry au, 
 
        Potential amp.       -0.1113 Ry
        Total length         46.3494 bohr
 

     total cpu time spent up to now is     1097.3 secs

     total energy              =   -2976.42335835 Ry
     estimated scf accuracy    <       0.00001088 Ry

     iteration # 71     ecut=    29.40 Ry     beta= 0.05
     Davidson diagonalization with overlap
     ethr =  2.35E-09,  avg # of iterations =  1.2

     negative rho (up, down):  9.499E-03 0.000E+00
 
     Adding external electric field

     Computed dipole along edir(3) : 
        Dipole                0.6358 Ry au,          1.6159 Debye
        Dipole field          0.0012 Ry au, 
 
        Potential amp.       -0.1112 Ry
        Total length         46.3494 bohr
 

     total cpu time spent up to now is     1107.7 secs

     total energy              =   -2976.42336122 Ry
     estimated scf accuracy    <       0.00001224 Ry

     iteration # 72     ecut=    29.40 Ry     beta= 0.05
     Davidson diagonalization with overlap
     ethr =  2.35E-09,  avg # of iterations =  1.0

     negative rho (up, down):  9.654E-03 0.000E+00
 
     Adding external electric field

     Computed dipole along edir(3) : 
        Dipole                0.6369 Ry au,          1.6189 Debye
        Dipole field          0.0012 Ry au, 
 
        Potential amp.       -0.1114 Ry
        Total length         46.3494 bohr
 

     total cpu time spent up to now is     1117.7 secs

     total energy              =   -2976.42336512 Ry
     estimated scf accuracy    <       0.00001314 Ry

     iteration # 73     ecut=    29.40 Ry     beta= 0.05
     Davidson diagonalization with overlap
     ethr =  2.35E-09,  avg # of iterations =  1.9

     negative rho (up, down):  9.601E-03 0.000E+00
 
     Adding external electric field

     Computed dipole along edir(3) : 
        Dipole                0.6368 Ry au,          1.6187 Debye
        Dipole field          0.0012 Ry au, 
 
        Potential amp.       -0.1114 Ry
        Total length         46.3494 bohr
 

     total cpu time spent up to now is     1128.7 secs

     total energy              =   -2976.42336695 Ry
     estimated scf accuracy    <       0.00001174 Ry

     iteration # 74     ecut=    29.40 Ry     beta= 0.05
     Davidson diagonalization with overlap
     ethr =  2.35E-09,  avg # of iterations =  2.0

     negative rho (up, down):  9.619E-03 0.000E+00
 
     Adding external electric field

     Computed dipole along edir(3) : 
        Dipole                0.6379 Ry au,          1.6214 Debye
        Dipole field          0.0012 Ry au, 
 
        Potential amp.       -0.1116 Ry
        Total length         46.3494 bohr
 

     total cpu time spent up to now is     1139.8 secs

     total energy              =   -2976.42337024 Ry
     estimated scf accuracy    <       0.00000977 Ry

     iteration # 75     ecut=    29.40 Ry     beta= 0.05
     Davidson diagonalization with overlap
     ethr =  2.35E-09,  avg # of iterations =  5.7

     negative rho (up, down):  9.649E-03 0.000E+00
 
     Adding external electric field

     Computed dipole along edir(3) : 
        Dipole                0.6376 Ry au,          1.6207 Debye
        Dipole field          0.0012 Ry au, 
 
        Potential amp.       -0.1115 Ry
        Total length         46.3494 bohr
 

     total cpu time spent up to now is     1153.9 secs

     total energy              =   -2976.42337253 Ry
     estimated scf accuracy    <       0.00001760 Ry

     iteration # 76     ecut=    29.40 Ry     beta= 0.05
     Davidson diagonalization with overlap
     ethr =  2.35E-09,  avg # of iterations =  5.0

     negative rho (up, down):  9.625E-03 0.000E+00
 
     Adding external electric field

     Computed dipole along edir(3) : 
        Dipole                0.6381 Ry au,          1.6220 Debye
        Dipole field          0.0012 Ry au, 
 
        Potential amp.       -0.1116 Ry
        Total length         46.3494 bohr
 

     total cpu time spent up to now is     1166.1 secs

     total energy              =   -2976.42337620 Ry
     estimated scf accuracy    <       0.00001399 Ry

     iteration # 77     ecut=    29.40 Ry     beta= 0.05
     Davidson diagonalization with overlap
     ethr =  2.35E-09,  avg # of iterations =  5.0

     negative rho (up, down):  9.603E-03 0.000E+00
 
     Adding external electric field

     Computed dipole along edir(3) : 
        Dipole                0.6371 Ry au,          1.6194 Debye
        Dipole field          0.0012 Ry au, 
 
        Potential amp.       -0.1115 Ry
        Total length         46.3494 bohr
 

     total cpu time spent up to now is     1182.8 secs

     total energy              =   -2976.42337755 Ry
     estimated scf accuracy    <       0.00003656 Ry

     iteration # 78     ecut=    29.40 Ry     beta= 0.05
     Davidson diagonalization with overlap
     ethr =  2.35E-09,  avg # of iterations =  2.4

     negative rho (up, down):  9.664E-03 0.000E+00
 
     Adding external electric field

     Computed dipole along edir(3) : 
        Dipole                0.6385 Ry au,          1.6229 Debye
        Dipole field          0.0012 Ry au, 
 
        Potential amp.       -0.1117 Ry
        Total length         46.3494 bohr
 

     total cpu time spent up to now is     1194.0 secs

     total energy              =   -2976.42338330 Ry
     estimated scf accuracy    <       0.00002583 Ry

     iteration # 79     ecut=    29.40 Ry     beta= 0.05
     Davidson diagonalization with overlap
     ethr =  2.35E-09,  avg # of iterations =  1.7

     negative rho (up, down):  9.490E-03 0.000E+00
 
     Adding external electric field

     Computed dipole along edir(3) : 
        Dipole                0.6352 Ry au,          1.6145 Debye
        Dipole field          0.0012 Ry au, 
 
        Potential amp.       -0.1111 Ry
        Total length         46.3494 bohr
 

     total cpu time spent up to now is     1204.4 secs

     total energy              =   -2976.42337533 Ry
     estimated scf accuracy    <       0.00003423 Ry

     iteration # 80     ecut=    29.40 Ry     beta= 0.05
     Davidson diagonalization with overlap
     ethr =  2.35E-09,  avg # of iterations =  5.0

     negative rho (up, down):  9.462E-03 0.000E+00
 
     Adding external electric field

     Computed dipole along edir(3) : 
        Dipole                0.6351 Ry au,          1.6142 Debye
        Dipole field          0.0012 Ry au, 
 
        Potential amp.       -0.1111 Ry
        Total length         46.3494 bohr
 

     total cpu time spent up to now is     1220.9 secs

     total energy              =   -2976.42337922 Ry
     estimated scf accuracy    <       0.00000451 Ry

     iteration # 81     ecut=    29.40 Ry     beta= 0.05
     Davidson diagonalization with overlap
     ethr =  1.11E-09,  avg # of iterations =  4.5

     negative rho (up, down):  9.453E-03 0.000E+00
 
     Adding external electric field

     Computed dipole along edir(3) : 
        Dipole                0.6356 Ry au,          1.6154 Debye
        Dipole field          0.0012 Ry au, 
 
        Potential amp.       -0.1112 Ry
        Total length         46.3494 bohr
 

     total cpu time spent up to now is     1233.2 secs

     total energy              =   -2976.42338074 Ry
     estimated scf accuracy    <       0.00000309 Ry

     iteration # 82     ecut=    29.40 Ry     beta= 0.05
     Davidson diagonalization with overlap
     ethr =  7.63E-10,  avg # of iterations =  2.6

     negative rho (up, down):  9.484E-03 0.000E+00
 
     Adding external electric field

     Computed dipole along edir(3) : 
        Dipole                0.6360 Ry au,          1.6167 Debye
        Dipole field          0.0012 Ry au, 
 
        Potential amp.       -0.1113 Ry
        Total length         46.3494 bohr
 

     total cpu time spent up to now is     1244.7 secs

     total energy              =   -2976.42338256 Ry
     estimated scf accuracy    <       0.00000121 Ry

     iteration # 83     ecut=    29.40 Ry     beta= 0.05
     Davidson diagonalization with overlap
     ethr =  2.98E-10,  avg # of iterations =  5.5

     negative rho (up, down):  9.489E-03 0.000E+00
 
     Adding external electric field

     Computed dipole along edir(3) : 
        Dipole                0.6360 Ry au,          1.6165 Debye
        Dipole field          0.0012 Ry au, 
 
        Potential amp.       -0.1113 Ry
        Total length         46.3494 bohr
 

     total cpu time spent up to now is     1261.2 secs

     total energy              =   -2976.42338386 Ry
     estimated scf accuracy    <       0.00000112 Ry

     iteration # 84     ecut=    29.40 Ry     beta= 0.05
     Davidson diagonalization with overlap
     ethr =  2.77E-10,  avg # of iterations =  3.2

     negative rho (up, down):  9.496E-03 0.000E+00
 
     Adding external electric field

     Computed dipole along edir(3) : 
        Dipole                0.6361 Ry au,          1.6169 Debye
        Dipole field          0.0012 Ry au, 
 
        Potential amp.       -0.1113 Ry
        Total length         46.3494 bohr
 

     total cpu time spent up to now is     1272.8 secs

     total energy              =   -2976.42338464 Ry
     estimated scf accuracy    <       0.00000110 Ry

     iteration # 85     ecut=    29.40 Ry     beta= 0.05
     Davidson diagonalization with overlap
     ethr =  2.71E-10,  avg # of iterations =  4.8

     negative rho (up, down):  9.513E-03 0.000E+00
 
     Adding external electric field

     Computed dipole along edir(3) : 
        Dipole                0.6363 Ry au,          1.6174 Debye
        Dipole field          0.0012 Ry au, 
 
        Potential amp.       -0.1113 Ry
        Total length         46.3494 bohr
 

     total cpu time spent up to now is     1285.4 secs

     total energy              =   -2976.42338576 Ry
     estimated scf accuracy    <       0.00000057 Ry

     iteration # 86     ecut=    29.40 Ry     beta= 0.05
     Davidson diagonalization with overlap
     ethr =  1.42E-10,  avg # of iterations =  5.8

     negative rho (up, down):  9.517E-03 0.000E+00
 
     Adding external electric field

     Computed dipole along edir(3) : 
        Dipole                0.6360 Ry au,          1.6166 Debye
        Dipole field          0.0012 Ry au, 
 
        Potential amp.       -0.1113 Ry
        Total length         46.3494 bohr
 

     total cpu time spent up to now is     1304.9 secs

     total energy              =   -2976.42338640 Ry
     estimated scf accuracy    <       0.00000382 Ry

     iteration # 87     ecut=    29.40 Ry     beta= 0.05
     Davidson diagonalization with overlap
     ethr =  1.42E-10,  avg # of iterations =  5.0

     negative rho (up, down):  9.554E-03 0.000E+00
 
     Adding external electric field

     Computed dipole along edir(3) : 
        Dipole                0.6363 Ry au,          1.6173 Debye
        Dipole field          0.0012 Ry au, 
 
        Potential amp.       -0.1113 Ry
        Total length         46.3494 bohr
 

     total cpu time spent up to now is     1322.5 secs

     total energy              =   -2976.42338744 Ry
     estimated scf accuracy    <       0.00000079 Ry

     iteration # 88     ecut=    29.40 Ry     beta= 0.05
     Davidson diagonalization with overlap
     ethr =  1.42E-10,  avg # of iterations =  5.0

     negative rho (up, down):  9.572E-03 0.000E+00
 
     Adding external electric field

     Computed dipole along edir(3) : 
        Dipole                0.6366 Ry au,          1.6180 Debye
        Dipole field          0.0012 Ry au, 
 
        Potential amp.       -0.1114 Ry
        Total length         46.3494 bohr
 

     total cpu time spent up to now is     1336.9 secs

     total energy              =   -2976.42338822 Ry
     estimated scf accuracy    <       0.00000020 Ry

     iteration # 89     ecut=    29.40 Ry     beta= 0.05
     Davidson diagonalization with overlap
     ethr =  4.91E-11,  avg # of iterations =  5.0

     negative rho (up, down):  9.589E-03 0.000E+00
 
     Adding external electric field

     Computed dipole along edir(3) : 
        Dipole                0.6366 Ry au,          1.6180 Debye
        Dipole field          0.0012 Ry au, 
 
        Potential amp.       -0.1114 Ry
        Total length         46.3494 bohr
 

     total cpu time spent up to now is     1350.8 secs

     total energy              =   -2976.42338885 Ry
     estimated scf accuracy    <       0.00000021 Ry

     iteration # 90     ecut=    29.40 Ry     beta= 0.05
     Davidson diagonalization with overlap
     ethr =  4.91E-11,  avg # of iterations =  3.2

     negative rho (up, down):  9.579E-03 0.000E+00
 
     Adding external electric field

     Computed dipole along edir(3) : 
        Dipole                0.6362 Ry au,          1.6171 Debye
        Dipole field          0.0012 Ry au, 
 
        Potential amp.       -0.1113 Ry
        Total length         46.3494 bohr
 

     total cpu time spent up to now is     1362.9 secs

     total energy              =   -2976.42338940 Ry
     estimated scf accuracy    <       0.00000009 Ry

     iteration # 91     ecut=    29.40 Ry     beta= 0.05
     Davidson diagonalization with overlap
     ethr =  2.20E-11,  avg # of iterations =  5.0

     negative rho (up, down):  9.576E-03 0.000E+00
 
     Adding external electric field

     Computed dipole along edir(3) : 
        Dipole                0.6361 Ry au,          1.6169 Debye
        Dipole field          0.0012 Ry au, 
 
        Potential amp.       -0.1113 Ry
        Total length         46.3494 bohr
 

     total cpu time spent up to now is     1380.6 secs

     total energy              =   -2976.42338989 Ry
     estimated scf accuracy    <       0.00000019 Ry

     iteration # 92     ecut=    29.40 Ry     beta= 0.05
     Davidson diagonalization with overlap
     ethr =  2.20E-11,  avg # of iterations =  5.0

     negative rho (up, down):  9.586E-03 0.000E+00
 
     Adding external electric field

     Computed dipole along edir(3) : 
        Dipole                0.6357 Ry au,          1.6159 Debye
        Dipole field          0.0012 Ry au, 
 
        Potential amp.       -0.1112 Ry
        Total length         46.3494 bohr
 

     total cpu time spent up to now is     1395.0 secs

     End of self-consistent calculation

          k = 0.0000 0.0000 0.0000 ( 18029 PWs)   bands (ev):

   -56.5639 -56.5303 -55.6402 -55.6051 -55.4243 -55.3577 -55.2306 -55.1152
   -55.0813 -55.0350 -55.0034 -54.9685 -54.9101 -54.8188 -54.7450 -54.6161
   -32.9826 -32.8344 -32.8063 -32.7432 -32.6530 -32.6097 -32.1219 -31.8991
   -31.8604 -31.8389 -31.7844 -31.7765 -31.7513 -31.6576 -31.6373 -31.5926
   -31.5609 -31.5462 -31.5211 -31.5098 -31.5046 -31.4929 -31.4626 -31.4622
   -31.4377 -31.4202 -31.3550 -31.3192 -31.2983 -31.2944 -31.2389 -31.2328
   -31.2161 -31.1942 -31.1813 -31.1658 -31.1590 -31.1274 -31.1232 -31.0911
   -31.0489 -31.0044 -31.0020 -30.9801 -30.9472 -30.8900 -30.8533 -30.8034
   -16.6673 -16.1096 -16.0873 -15.8805 -15.7579 -15.7532 -15.7097 -15.6421
   -15.4715 -15.4043 -15.3751 -15.3135 -15.1704 -15.0537 -14.9565 -14.7792
   -14.7041 -14.6989 -14.6789 -14.6726 -14.6553 -14.6345 -14.5761 -14.5166
   -14.4746 -14.4095 -14.3665 -14.2202 -14.0222 -13.9945 -13.9545 -13.6126
   -13.5784 -13.5056  -7.7211  -4.2427  -4.0342  -4.0151  -3.6981  -3.5766
    -3.4044  -3.2509  -3.1968  -3.1548  -3.0835  -3.0770  -2.9279  -2.9249
    -2.9138  -2.9093  -2.8274  -2.7863  -2.7037  -2.6171  -2.6016  -2.5073
    -2.4607  -2.3011  -2.2756  -2.1746  -2.1027  -2.0971  -2.0303  -2.0084
    -1.9606  -1.9153  -1.9063  -1.8721  -1.8274  -1.7815  -1.7618  -1.6514
    -1.6446  -1.5802  -1.5773  -1.5503  -1.4389  -1.4188  -1.3465  -1.2020
    -1.1804  -1.1771  -1.1288  -1.1126  -1.0299  -0.9360  -0.8664  -0.8404
    -0.7835  -0.6959  -0.6491  -0.6271  -0.5549  -0.5359  -0.4618  -0.4176
    -0.4039  -0.3842  -0.3419  -0.2275  -0.1405  -0.1082  -0.0540  -0.0285
     0.0042   0.0311   0.0499   0.0984   0.1684   0.2547   0.2751   0.4136
     0.4662   0.5031   0.5784   0.6129   0.6189   0.7084   0.7400   0.7689
     0.8157   0.8905   0.9053   0.9063   0.9648   1.0494   1.1030   1.1536
     1.1678   1.2043   1.2117   1.2623   1.3512   1.3725   1.4423   1.4972
     1.8250   1.8828   2.4879   2.7305   2.9019   3.1787   3.3704   3.6737
     3.7164   3.7342   3.7343   4.0395

          k = 0.0000 0.0419 0.0000 ( 17933 PWs)   bands (ev):

   -56.5589 -56.5351 -55.6355 -55.6096 -55.4220 -55.3599 -55.2301 -55.1102
   -55.0862 -55.0327 -55.0037 -54.9707 -54.9092 -54.8180 -54.7457 -54.6167
   -32.9293 -32.8301 -32.8101 -32.7300 -32.6662 -32.6654 -32.0696 -31.8488
   -31.8464 -31.8305 -31.8102 -31.7915 -31.7840 -31.6545 -31.6312 -31.5883
   -31.5762 -31.5679 -31.5182 -31.5000 -31.4616 -31.4585 -31.4561 -31.4455
   -31.4411 -31.3956 -31.3336 -31.3075 -31.2854 -31.2571 -31.2506 -31.2328
   -31.2280 -31.2165 -31.1979 -31.1840 -31.1781 -31.1624 -31.1588 -31.0896
   -31.0483 -31.0322 -30.9998 -30.9989 -30.9466 -30.9177 -30.8533 -30.8233
   -16.5469 -16.0833 -16.0045 -15.9269 -15.8207 -15.6905 -15.6759 -15.5350
   -15.5315 -15.3487 -15.3331 -15.2809 -15.1139 -15.0672 -14.9988 -14.8337
   -14.7566 -14.7335 -14.7278 -14.6766 -14.6498 -14.5845 -14.5737 -14.5209
   -14.4620 -14.4210 -14.4142 -14.2809 -14.0948 -14.0509 -13.9542 -13.6213
   -13.5943 -13.5475  -7.7212  -4.0607  -4.0391  -4.0151  -3.6934  -3.4013
    -3.2612  -3.2096  -3.1833  -3.0331  -3.0279  -2.9922  -2.9788  -2.9306
    -2.9123  -2.8090  -2.7672  -2.6975  -2.6427  -2.6064  -2.5478  -2.4711
    -2.4588  -2.4230  -2.3025  -2.2256  -2.2202  -2.1824  -2.1158  -2.0750
    -2.0444  -2.0253  -1.9199  -1.9111  -1.8838  -1.7942  -1.7284  -1.7199
    -1.6752  -1.6079  -1.5660  -1.4170  -1.3982  -1.3346  -1.3064  -1.2505
    -1.1852  -1.1323  -1.0958  -1.0472  -0.9416  -0.9115  -0.8901  -0.8074
    -0.7525  -0.7345  -0.6664  -0.6262  -0.5559  -0.4486  -0.4027  -0.3607
    -0.3254  -0.2554  -0.1894  -0.1691  -0.1478  -0.1258  -0.0845  -0.0418
     0.0351   0.0472   0.0705   0.0997   0.1217   0.1615   0.2278   0.3034
     0.3509   0.3869   0.4846   0.5132   0.5520   0.5712   0.5974   0.6324
     0.7260   0.7448   0.7573   0.8323   0.9045   0.9603   1.0105   1.0987
     1.1551   1.1837   1.2118   1.2434   1.2833   1.3131   1.3934   1.4017
[...]
   -56.5588 -56.5351 -55.6354 -55.6096 -55.4220 -55.3599 -55.2301 -55.1101
   -55.0862 -55.0326 -55.0036 -54.9707 -54.9092 -54.8180 -54.7457 -54.6167
   -32.9299 -32.8299 -32.8101 -32.7285 -32.6659 -32.6654 -32.0697 -31.8621
   -31.8486 -31.8210 -31.8100 -31.7841 -31.7732 -31.6544 -31.6413 -31.5882
   -31.5751 -31.5702 -31.5190 -31.4992 -31.4610 -31.4603 -31.4584 -31.4452
   -31.4401 -31.3958 -31.3342 -31.3073 -31.2774 -31.2579 -31.2507 -31.2338
   -31.2283 -31.2111 -31.1954 -31.1839 -31.1767 -31.1618 -31.1592 -31.0954
   -31.0505 -31.0320 -30.9997 -30.9989 -30.9490 -30.9176 -30.8540 -30.8232
   -16.4506 -16.0804 -16.0173 -15.9500 -15.7847 -15.7687 -15.6310 -15.5788
   -15.4602 -15.3463 -15.2884 -15.2040 -15.1863 -15.1331 -14.9000 -14.8556
   -14.8398 -14.7836 -14.7549 -14.7011 -14.6648 -14.6214 -14.5662 -14.4979
   -14.4648 -14.4257 -14.3889 -14.3253 -14.0883 -14.0514 -13.9541 -13.6194
   -13.5919 -13.5477  -7.7201  -4.0392  -4.0151  -3.7806  -3.6898  -3.3275
    -3.2310  -3.1736  -3.1227  -3.0840  -2.9990  -2.9231  -2.8910  -2.8862
    -2.8310  -2.7474  -2.6682  -2.6415  -2.5912  -2.5618  -2.5290  -2.4534
    -2.4089  -2.3576  -2.2929  -2.2318  -2.2061  -2.1475  -2.1114  -2.0754
    -2.0077  -1.9609  -1.9159  -1.8494  -1.8321  -1.7919  -1.7228  -1.6784
    -1.6476  -1.5989  -1.5651  -1.4210  -1.4000  -1.3653  -1.3044  -1.2393
    -1.2150  -1.1923  -1.1526  -1.0502  -1.0173  -1.0047  -0.9501  -0.8688
    -0.7942  -0.6982  -0.6623  -0.6036  -0.5773  -0.5589  -0.4949  -0.4281
    -0.4103  -0.3814  -0.3286  -0.2855  -0.2682  -0.2399  -0.1688  -0.1249
    -0.0892  -0.0126   0.0239   0.0628   0.0788   0.1202   0.2096   0.2797
     0.3022   0.3507   0.4342   0.4903   0.5197   0.5539   0.5824   0.6059
     0.6463   0.7109   0.7355   0.7908   0.9019   0.9542   1.0669   1.1291
     1.1471   1.1575   1.1847   1.2377   1.2625   1.3196   1.3268   1.3758
     1.6896   1.7866   2.3976   2.9934   3.1414   3.2414   3.4245   3.5833
     3.6764   3.7194   3.9552   4.0681

          k = 0.0380-0.0839 0.0000 ( 17916 PWs)   bands (ev):

   -56.5477 -56.5463 -55.6277 -55.6173 -55.4196 -55.3623 -55.2297 -55.0988
   -55.0976 -55.0302 -55.0040 -54.9731 -54.9084 -54.8173 -54.7466 -54.6174
   -32.8208 -32.8193 -32.8000 -32.7986 -32.6980 -32.6969 -31.9462 -31.9370
   -31.8222 -31.8146 -31.8111 -31.8090 -31.7286 -31.6831 -31.6508 -31.6297
   -31.5864 -31.5822 -31.5022 -31.4732 -31.4649 -31.4507 -31.4498 -31.3694
   -31.3479 -31.3189 -31.3174 -31.2999 -31.2914 -31.2825 -31.2790 -31.2785
   -31.2582 -31.2329 -31.2181 -31.2076 -31.1979 -31.1593 -31.1573 -31.0958
   -31.0893 -31.0499 -31.0059 -30.9975 -30.9615 -30.9489 -30.8544 -30.8389
   -16.1796 -16.1778 -16.0769 -15.8257 -15.8224 -15.7205 -15.7159 -15.4850
   -15.4575 -15.2985 -15.2151 -15.1817 -15.0839 -14.9886 -14.9653 -14.9452
   -14.9326 -14.8889 -14.8062 -14.6530 -14.6343 -14.6103 -14.5595 -14.5361
   -14.4748 -14.4515 -14.4197 -14.3678 -14.1876 -14.1326 -13.9539 -13.6103
   -13.6098 -13.6069  -7.7207  -4.0447  -4.0149  -3.6891  -3.3948  -3.3934
    -3.1647  -3.0420  -3.0336  -2.9969  -2.9930  -2.9613  -2.8055  -2.7755
    -2.7342  -2.6722  -2.6608  -2.5637  -2.5190  -2.4960  -2.4385  -2.3730
    -2.3292  -2.3071  -2.2494  -2.2345  -2.1874  -2.1714  -2.0851  -2.0576
    -2.0476  -2.0295  -1.9572  -1.9350  -1.8871  -1.8370  -1.8196  -1.7643
    -1.7272  -1.6573  -1.6161  -1.5075  -1.3984  -1.3652  -1.3272  -1.2569
    -1.1637  -1.0806  -1.0329  -1.0132  -0.9864  -0.9688  -0.9332  -0.9114
    -0.8741  -0.8515  -0.8065  -0.7437  -0.6890  -0.6678  -0.5321  -0.4870
    -0.4349  -0.4114  -0.3789  -0.3586  -0.2919  -0.2051  -0.1771  -0.1228
    -0.0765  -0.0222   0.0220   0.0333   0.0689   0.0866   0.1114   0.1767
     0.2265   0.2514   0.3365   0.3597   0.4179   0.5219   0.5508   0.6087
     0.6457   0.6874   0.7360   0.7568   0.8992   0.9407   1.0530   1.1009
     1.1135   1.1545   1.1692   1.2874   1.2921   1.3242   1.3391   1.4754
     1.5413   1.7413   2.3835   3.2637   3.2659   3.4116   3.4136   3.6056
     3.6067   3.7856   3.7936   4.1283

          k = 0.0380-0.0419 0.0000 ( 17876 PWs)   bands (ev):

   -56.5588 -56.5351 -55.6354 -55.6096 -55.4220 -55.3599 -55.2301 -55.1101
   -55.0862 -55.0326 -55.0036 -54.9707 -54.9092 -54.8180 -54.7457 -54.6167
   -32.9299 -32.8299 -32.8101 -32.7285 -32.6659 -32.6654 -32.0697 -31.8621
   -31.8486 -31.8211 -31.8100 -31.7841 -31.7732 -31.6544 -31.6413 -31.5883
   -31.5752 -31.5701 -31.5193 -31.4989 -31.4611 -31.4603 -31.4585 -31.4452
   -31.4401 -31.3958 -31.3342 -31.3073 -31.2775 -31.2582 -31.2507 -31.2325
   -31.2281 -31.2121 -31.1916 -31.1839 -31.1806 -31.1619 -31.1591 -31.0954
   -31.0506 -31.0320 -30.9998 -30.9988 -30.9489 -30.9176 -30.8539 -30.8232
   -16.4504 -16.0804 -16.0181 -15.9499 -15.7842 -15.7688 -15.6307 -15.5789
   -15.4595 -15.3465 -15.2882 -15.2029 -15.1867 -15.1352 -14.8990 -14.8568
   -14.8379 -14.7948 -14.7442 -14.7052 -14.6668 -14.6192 -14.5621 -14.4969
   -14.4675 -14.4231 -14.3888 -14.3266 -14.0894 -14.0514 -13.9541 -13.6194
   -13.5914 -13.5477  -7.7200  -4.0391  -4.0151  -3.7800  -3.6852  -3.3275
    -3.2320  -3.1762  -3.1227  -3.0834  -3.0020  -2.9230  -2.8914  -2.8876
    -2.8313  -2.7473  -2.6695  -2.6418  -2.5885  -2.5598  -2.5207  -2.4527
    -2.4104  -2.3581  -2.2963  -2.2341  -2.2036  -2.1496  -2.1158  -2.0843
    -2.0143  -1.9602  -1.9355  -1.8602  -1.8340  -1.7793  -1.7250  -1.6847
    -1.6413  -1.5960  -1.5625  -1.4192  -1.4008  -1.3583  -1.3071  -1.2258
    -1.2188  -1.1870  -1.1293  -1.0489  -1.0147  -1.0060  -0.9438  -0.8590
    -0.7953  -0.7038  -0.6628  -0.6051  -0.5949  -0.5546  -0.4925  -0.4290
    -0.3999  -0.3781  -0.3552  -0.2769  -0.2667  -0.1978  -0.1626  -0.1454
    -0.1264  -0.0056   0.0199   0.0718   0.0895   0.1569   0.2270   0.2568
     0.2774   0.3472   0.4379   0.4873   0.5280   0.5457   0.5725   0.6064
     0.6253   0.7076   0.7412   0.7867   0.8992   0.9598   1.0693   1.1307
     1.1375   1.1587   1.1888   1.2318   1.2626   1.3205   1.3246   1.3759
     1.7034   1.7861   2.3964   2.9937   3.1416   3.2414   3.4236   3.5832
     3.6771   3.7189   3.9529   4.1734

          k =-0.0760-0.0000 0.0000 ( 17886 PWs)   bands (ev):

   -56.5637 -56.5302 -55.6400 -55.6049 -55.4242 -55.3576 -55.2305 -55.1150
   -55.0812 -55.0348 -55.0032 -54.9683 -54.9100 -54.8186 -54.7449 -54.6160
   -32.9838 -32.8341 -32.8061 -32.7396 -32.6529 -32.6094 -32.1222 -31.9184
   -31.8601 -31.8125 -31.7764 -31.7627 -31.7509 -31.6633 -31.6573 -31.5923
   -31.5622 -31.5492 -31.5208 -31.5145 -31.5015 -31.4924 -31.4667 -31.4612
   -31.4349 -31.4207 -31.3556 -31.3189 -31.2958 -31.2794 -31.2387 -31.2325
   -31.2077 -31.1938 -31.1734 -31.1651 -31.1592 -31.1273 -31.1268 -31.1027
   -31.0545 -31.0041 -31.0019 -30.9800 -30.9512 -30.8899 -30.8542 -30.8032
   -16.4139 -16.1206 -16.0805 -15.9744 -15.9542 -15.7052 -15.6412 -15.5077
   -15.4332 -15.3179 -15.3006 -15.2863 -15.2758 -15.1660 -14.9596 -14.9017
   -14.8828 -14.8510 -14.6970 -14.6870 -14.6779 -14.6016 -14.5357 -14.5005
   -14.4362 -14.3949 -14.3281 -14.2551 -14.0117 -13.9946 -13.9543 -13.6076
   -13.5725 -13.5050  -7.7177  -4.0346  -4.0146  -3.6737  -3.5661  -3.5618
    -3.4672  -3.1907  -3.1584  -3.0535  -3.0468  -3.0008  -2.9380  -2.9237
    -2.8500  -2.7674  -2.6243  -2.5867  -2.5740  -2.4703  -2.4575  -2.4106
    -2.3452  -2.3120  -2.2550  -2.2407  -2.1826  -2.1684  -2.1601  -2.0378
    -1.8918  -1.8262  -1.8132  -1.8036  -1.6971  -1.6738  -1.6345  -1.6069
    -1.5734  -1.5701  -1.5369  -1.5178  -1.4565  -1.4442  -1.4047  -1.3592
    -1.2064  -1.1395  -1.0892  -1.0733  -1.0225  -0.9530  -0.9076  -0.8603
    -0.8362  -0.7722  -0.7093  -0.6862  -0.6586  -0.6040  -0.5946  -0.5643
    -0.5066  -0.4496  -0.3997  -0.3658  -0.3613  -0.3056  -0.2812  -0.2511
    -0.0878   0.0206   0.0756   0.1160   0.1834   0.2456   0.2791   0.3155
     0.3355   0.4477   0.4880   0.5235   0.5744   0.6333   0.6869   0.7102
     0.7229   0.8099   0.8415   0.8749   0.8784   0.9367   0.9897   1.0151
     1.0961   1.1071   1.1417   1.1578   1.1673   1.2314   1.3238   1.4707
     1.5248   1.8662   2.3509   2.8558   2.9873   3.1251   3.1770   3.5329
     3.7102   3.7427   3.9194   4.0972

          k =-0.0760 0.0419 0.0000 ( 17914 PWs)   bands (ev):

   -56.5588 -56.5351 -55.6354 -55.6096 -55.4220 -55.3599 -55.2301 -55.1101
   -55.0862 -55.0326 -55.0036 -54.9706 -54.9093 -54.8180 -54.7457 -54.6167
   -32.9307 -32.8300 -32.8102 -32.7273 -32.6659 -32.6657 -32.0700 -31.8734
   -31.8486 -31.8105 -31.8103 -31.7842 -31.7596 -31.6544 -31.6528 -31.5883
   -31.5742 -31.5730 -31.5204 -31.4983 -31.4622 -31.4610 -31.4606 -31.4450
   -31.4396 -31.3961 -31.3349 -31.3073 -31.2691 -31.2590 -31.2507 -31.2337
   -31.2284 -31.2072 -31.1904 -31.1839 -31.1788 -31.1611 -31.1598 -31.1021
   -31.0531 -31.0320 -30.9998 -30.9989 -30.9516 -30.9176 -30.8548 -30.8232
   -16.2999 -16.0777 -16.0740 -15.9489 -15.8767 -15.7741 -15.5882 -15.5799
   -15.3667 -15.3377 -15.2522 -15.2219 -15.1933 -15.0761 -14.9821 -14.8719
   -14.8638 -14.8463 -14.7892 -14.7157 -14.6990 -14.6046 -14.5649 -14.5434
   -14.4839 -14.4157 -14.3572 -14.3381 -14.0831 -14.0543 -13.9541 -13.6177
   -13.5894 -13.5480  -7.7189  -4.0394  -4.0152  -3.6812  -3.3587  -3.3243
    -3.2539  -3.1664  -3.0431  -3.0077  -3.0061  -2.9758  -2.8690  -2.7995
    -2.7861  -2.6992  -2.6792  -2.5535  -2.4926  -2.4257  -2.3384  -2.3326
    -2.2794  -2.2754  -2.2280  -2.2102  -2.1842  -2.1199  -2.1025  -2.0858
    -2.0277  -1.9502  -1.8729  -1.8645  -1.7812  -1.7506  -1.7198  -1.6768
    -1.6165  -1.5845  -1.5301  -1.4918  -1.4614  -1.4497  -1.4389  -1.3564
    -1.2340  -1.1934  -1.1253  -1.0238  -1.0172  -0.9836  -0.9310  -0.9011
    -0.8474  -0.8239  -0.7982  -0.7544  -0.6581  -0.6190  -0.6068  -0.5318
    -0.4802  -0.4548  -0.4448  -0.3842  -0.3155  -0.2842  -0.2749  -0.2531
    -0.2096  -0.1790  -0.1220  -0.0903   0.0046   0.1166   0.1699   0.2406
     0.2583   0.3254   0.3485   0.5025   0.5130   0.5434   0.6186   0.6420
     0.6611   0.7266   0.7607   0.8158   0.8592   1.0131   1.0405   1.0846
     1.1434   1.1845   1.1985   1.2545   1.2812   1.3122   1.3381   1.4552
     1.5089   1.8117   2.3412   3.0093   3.1799   3.2133   3.2876   3.6815
     3.7596   3.7869   3.8545   4.1405

          k =-0.0760-0.0839 0.0000 ( 17948 PWs)   bands (ev):

   -56.5477 -56.5463 -55.6277 -55.6173 -55.4197 -55.3623 -55.2297 -55.0988
   -55.0976 -55.0302 -55.0040 -54.9731 -54.9085 -54.8173 -54.7466 -54.6174
   -32.8209 -32.8194 -32.8006 -32.7991 -32.6973 -32.6962 -31.9465 -31.9373
   -31.8222 -31.8170 -31.8111 -31.8094 -31.7191 -31.6762 -31.6509 -31.6378
   -31.5882 -31.5864 -31.5015 -31.4743 -31.4645 -31.4512 -31.4503 -31.3695
   -31.3499 -31.3189 -31.3174 -31.3012 -31.2940 -31.2842 -31.2792 -31.2786
   -31.2517 -31.2330 -31.2151 -31.1998 -31.1971 -31.1585 -31.1576 -31.1015
   -31.0902 -31.0519 -31.0060 -30.9974 -30.9614 -30.9519 -30.8554 -30.8389
   -16.0752 -16.0258 -16.0239 -15.9804 -15.9788 -15.7172 -15.7127 -15.4625
   -15.4332 -15.2548 -15.1501 -15.1260 -15.0826 -15.0408 -14.9712 -14.9170
   -14.8866 -14.8550 -14.8287 -14.7667 -14.7375 -14.6322 -14.5994 -14.5521
   -14.5164 -14.4541 -14.4127 -14.3633 -14.1787 -14.1323 -13.9538 -13.6102
   -13.6096 -13.6049  -7.7201  -4.0449  -4.0152  -3.6889  -3.1518  -3.1017
    -3.0974  -3.0651  -3.0580  -2.9797  -2.8512  -2.8492  -2.7890  -2.6464
    -2.6198  -2.5969  -2.5364  -2.5301  -2.4269  -2.3768  -2.3720  -2.3582
    -2.3219  -2.2920  -2.2857  -2.2259  -2.0888  -2.0727  -2.0227  -1.9685
    -1.8947  -1.8851  -1.8757  -1.8394  -1.7974  -1.7725  -1.7618  -1.7343
    -1.7294  -1.7254  -1.6185  -1.5109  -1.4635  -1.3694  -1.3655  -1.3564
    -1.3186  -1.2911  -1.2581  -1.2510  -1.2230  -1.1420  -1.1160  -1.0466
    -0.9328  -0.9154  -0.8732  -0.8251  -0.7219  -0.7033  -0.6132  -0.5766
    -0.5656  -0.5071  -0.4772  -0.4611  -0.4042  -0.3647  -0.2324  -0.1923
    -0.1806  -0.1637  -0.1412  -0.1054  -0.0428   0.0158   0.0492   0.0519
     0.1561   0.2557   0.3446   0.4128   0.4221   0.4452   0.5322   0.6367
     0.6782   0.7028   0.7510   0.8739   0.9918   1.0222   1.1258   1.1517
     1.1613   1.2641   1.2827   1.2877   1.3075   1.3168   1.3517   1.4174
     1.4784   1.7675   2.3219   3.3229   3.3261   3.3842   3.3899   3.7006
     3.7030   3.8140   3.8191   4.1395

     the Fermi energy is     2.3979 ev

!    total energy              =   -2976.42339425 Ry
     estimated scf accuracy    <       0.00000002 Ry
     smearing contrib. (-TS)   =      -0.01085324 Ry
     internal energy E=F+TS    =   -2976.41254101 Ry

     The total energy is F=E-TS. E is the sum of the following terms:
     one-electron contribution =  -22709.48314216 Ry
     hartree contribution      =   11451.09167166 Ry
     xc contribution           =    -495.34520026 Ry
     ewald contribution        =    8777.32336707 Ry
     electric field correction =       0.00076268 Ry

     convergence has been achieved in  92 iterations

     Forces acting on atoms (cartesian axes, Ry/au):

     atom    1 type  1   force =     0.00002405   -0.00052010    0.12627831
     atom    2 type  1   force =    -0.00009121    0.00041700   -0.15471449
     atom    3 type  2   force =     0.00002755    0.00002670   -0.06826471
     atom    4 type  2   force =     0.00006013   -0.00010970    0.01707387
     atom    5 type  2   force =    -0.00487224   -0.00242672   -0.01323552
     atom    6 type  2   force =     0.00655482   -0.00180505   -0.01375452
     atom    7 type  1   force =    -0.00029378   -0.00661875    0.05917542
     atom    8 type  1   force =     0.00038176    0.00687574    0.10025424
     atom    9 type  2   force =    -0.00002268    0.00066612    0.00132785
     atom   10 type  2   force =    -0.00261327   -0.00001575   -0.06333548
     atom   11 type  2   force =     0.00042484   -0.00069528   -0.00026964
     atom   12 type  2   force =    -0.00083803   -0.00113166   -0.00108360
     atom   13 type  1   force =    -0.00030376    0.00072426   -0.00147173
     atom   14 type  1   force =    -0.00032673   -0.00042172   -0.00024364
     atom   15 type  2   force =    -0.00066861   -0.00040377   -0.00038323
     atom   16 type  2   force =     0.00019671    0.00092733   -0.00030524
     atom   17 type  2   force =     0.00089325    0.00008104   -0.00050856
     atom   18 type  2   force =    -0.00026551   -0.00018802   -0.00002132
     atom   19 type  1   force =    -0.00020364   -0.00014096   -0.00096728
     atom   20 type  1   force =     0.00063189    0.00061264   -0.00113520
     atom   21 type  2   force =     0.00006270    0.00015448    0.09780491
     atom   22 type  2   force =     0.00041369   -0.00031198    0.00141950
     atom   23 type  2   force =    -0.08275336    0.00005277   -0.03311597
     atom   24 type  2   force =     0.08269492    0.00050056   -0.03319214
     atom   25 type  1   force =     0.00006810   -0.00035505    0.12643018
     atom   26 type  1   force =    -0.00010968   -0.00149581   -0.15488838
     atom   27 type  2   force =     0.00011551   -0.00046893   -0.06663694
     atom   28 type  2   force =     0.00004868    0.00167154    0.01201122
     atom   29 type  2   force =    -0.00342474    0.00422155   -0.01620976
     atom   30 type  2   force =     0.00505417    0.00456514   -0.01661217
     atom   31 type  1   force =    -0.00015861    0.00217316    0.04250950
     atom   32 type  1   force =     0.00044249   -0.00894233    0.10082895
     atom   33 type  2   force =    -0.00048466   -0.00012411   -0.00036836
     atom   34 type  2   force =    -0.00212633   -0.00026353   -0.07620551
     atom   35 type  2   force =    -0.00011086    0.00069927    0.00087401
     atom   36 type  2   force =    -0.00048190    0.00051490    0.00040026
     atom   37 type  1   force =     0.00042943    0.00061498   -0.00031876
     atom   38 type  1   force =    -0.00042303   -0.00065651   -0.00070339
     atom   39 type  2   force =     0.00044564   -0.00035391   -0.00029249
     atom   40 type  2   force =     0.00036588   -0.00063005    0.00000657
     atom   41 type  2   force =     0.00033864    0.00050801   -0.00001588
     atom   42 type  2   force =    -0.00029059   -0.00018712    0.00015436
     atom   43 type  1   force =     0.00049874    0.00139106   -0.00099921
     atom   44 type  1   force =    -0.00032419   -0.00081317    0.00035623
     atom   45 type  2   force =     0.00009281   -0.00001347    0.09765390
     atom   46 type  2   force =    -0.08280073    0.00003941   -0.03316847
     atom   47 type  2   force =     0.08270930    0.00045824   -0.03317510
     atom   48 type  3   force =    -0.00104057    0.00079121   -0.00831622
     atom   49 type  3   force =     0.00013390   -0.00004445   -0.00104543
     atom   50 type  4   force =     0.00137944    0.00192314    0.01735959
     atom   51 type  5   force =    -0.00069650   -0.00340754   -0.00359844
     atom   52 type  5   force =     0.00251367    0.00178127   -0.00301124
     atom   53 type  5   force =    -0.00139130    0.00065471   -0.00114126
     atom   54 type  5   force =    -0.00009374   -0.00004659    0.00002917
     atom   55 type  5   force =     0.00033466    0.00014002    0.00011283
     atom   56 type  5   force =     0.00013945   -0.00002356    0.00017864
     atom   57 type  2   force =    -0.00181624   -0.00056711    0.00032836
     atom   58 type  5   force =     0.00154970   -0.00000356    0.00014144

     Total force =     0.421108     Total SCF correction =     0.000402
  @ DRIVER MODE: Message from server: STATUS
  @ DRIVER MODE: Message from server: GETFORCE
  @ DRIVER MODE: Returning v,forces,stress,ensemble 

     Writing output data file ./calc.save/
  @ DRIVER MODE: Message from server: EXIT
  @ DRIVE MODE: Exiting  
 
     init_run     :     10.97s CPU     11.20s WALL (       1 calls)
     electrons    :   1360.22s CPU   1381.40s WALL (       1 calls)
     forces       :      2.54s CPU      2.65s WALL (       1 calls)

     Called by init_run:
     wfcinit      :      4.93s CPU      5.00s WALL (       1 calls)
     potinit      :      5.36s CPU      5.44s WALL (       1 calls)
     hinit0       :      0.29s CPU      0.30s WALL (       1 calls)

     Called by electrons:
     c_bands      :   1134.59s CPU   1142.96s WALL (      92 calls)
     sum_band     :    153.09s CPU    158.31s WALL (      92 calls)
     v_of_rho     :     52.66s CPU     55.31s WALL (      93 calls)
     newd         :     22.33s CPU     27.20s WALL (      93 calls)
     mix_rho      :      2.04s CPU      2.08s WALL (      92 calls)
     vdW_kernel   :      4.54s CPU      4.56s WALL (       1 calls)

     Called by c_bands:
     init_us_2    :     10.42s CPU     10.46s WALL (    1860 calls)
     cegterg      :   1107.88s CPU   1115.90s WALL (     936 calls)

     Called by *egterg:
     cdiaghg      :    135.39s CPU    135.99s WALL (    5999 calls)
     h_psi        :    627.13s CPU    632.97s WALL (    6014 calls)
     s_psi        :     78.96s CPU     79.19s WALL (    6014 calls)
     g_psi        :      2.52s CPU      2.55s WALL (    5068 calls)

     Called by h_psi:
     h_psi:calbec :     77.42s CPU     77.77s WALL (    6014 calls)
     vloc_psi     :    465.14s CPU    469.93s WALL (    6014 calls)
     add_vuspsi   :     79.44s CPU     79.81s WALL (    6014 calls)

     General routines
     calbec       :    104.37s CPU    104.81s WALL (    6974 calls)
     fft          :     27.46s CPU     27.66s WALL (    5859 calls)
     ffts         :      0.17s CPU      0.18s WALL (     185 calls)
     fftw         :    522.28s CPU    527.70s WALL ( 1255316 calls)
     interpolate  :      0.57s CPU      0.58s WALL (      93 calls)
     davcio       :      0.01s CPU      0.56s WALL (      10 calls)
 
     Parallel routines
 
     PWSCF        :  22m54.04s CPU  23m19.23s WALL

 
   This run was terminated on:  22:41:29  22Sep2021            

=------------------------------------------------------------------------------=
   JOB DONE.
=------------------------------------------------------------------------------=
