
     Program PWSCF v.6.7GPU starts on 24Aug2021 at 10:21:47 

     This program is part of the open-source Quantum ESPRESSO suite
     for quantum simulation of materials; please cite
         "P. Giannozzi et al., J. Phys.:Condens. Matter 21 395502 (2009);
         "P. Giannozzi et al., J. Phys.:Condens. Matter 29 465901 (2017);
         "P. Giannozzi et al., J. Chem. Phys. 152 154105 (2020);
          URL http://www.quantum-espresso.org", 
     in publications or presentations arising from this work. More details at
     http://www.quantum-espresso.org/quote

     Parallel version (MPI), running on    72 processors

     MPI processes distributed on     4 nodes
     R & G space division:  proc/nbgrp/npool/nimage =      72
     Reading input from /storage/home/hcoda1/3/ntian30/research/carbon/CH2_vib/ads_slab/CH2_a/out_0002/pw.inp
Warning: card &CELL ignored
Warning: card   CELL_DYNAMICS='IPI', ignored
Warning: card / ignored

     Current dimensions of program PWSCF are:
     Max number of different atomic species (ntypx) = 10
     Max number of k-points (npk) =  40000
     Max angular momentum in pseudopotentials (lmaxx) =  3
     Presently no symmetry can be used with electric field

     Message from routine cell_base_init:
     DEPRECATED: use true lattice parameter, not A to a.u. conversion factor

     **************************************************************************
     Initializing libbeef V0.1.2 with the BEEF-vdW functional.
     Citation: Wellendorff et al., PRB 85, 235149 (2012).
     **************************************************************************


     IMPORTANT: XC functional enforced from input :
     Exchange-correlation= BEEF-VDW
                           (   1   4  43  14   2   0   0)
     Any further DFT definition will be discarded
     Please, verify this is what you really want


     Subspace diagonalization in iterative solution of the eigenvalue problem:
     one sub-group per band group will be used
     scalapack distributed-memory algorithm (size of sub-group:  8*  8 procs)

  @ DRIVER MODE: Connecting to 
 qe_1139763_2641437.sched-torque.pace.gatech.eduvy3tqe06_scratch
  using UNIX socket
  @ DRIVER MODE: Message from server: STATUS
  @ DRIVER MODE: Message from server: INIT
  @ DRIVER MODE: Receiving replica           0          -1
  @ DRIVER MODE: Receiving encoded integer          25
  @ DRIVER MODE:  SCF:  T  FORCE:  T  STRESS:  F  VC:  F  ENSEMBLE:  F
  @ DRIVER MODE:  SCF:  T  FORCE:  T  STRESS:  F  VC:  F  ENSEMBLE:  F
 
     Parallelization info
     --------------------
     sticks:   dense  smooth     PW     G-vecs:    dense   smooth      PW
     Min          45      18      5                 7865     1988     295
     Max          46      19      6                 7884     2001     312
     Sum        3275    1317    379               566857   143421   21985
 
     Using Slab Decomposition
 


     bravais-lattice index     =            0
     lattice parameter (alat)  =       1.8897  a.u.
     unit-cell volume          =    6658.9804 (a.u.)^3
     number of atoms/cell      =           50
     number of atomic types    =            4
     number of electrons       =       384.00
     number of Kohn-Sham states=          202
     kinetic-energy cutoff     =      29.3995  Ry
     charge density cutoff     =     293.9946  Ry
     scf convergence threshold =      7.3E-08
     mixing beta               =       0.0500
     number of iterations used =            8  plain     mixing
     Exchange-correlation= BEEF-VDW
                           (   1   4  43  14   2   0   0)

     celldm(1)=   1.889726  celldm(2)=   0.000000  celldm(3)=   0.000000
     celldm(4)=   0.000000  celldm(5)=   0.000000  celldm(6)=   0.000000

     crystal axes: (cart. coord. in units of alat)
               a(1) = (   6.579727   0.000000   0.000000 )  
               a(2) = (  -0.000775   5.961596   0.000000 )  
               a(3) = (   0.000000   0.000000  25.155947 )  

     reciprocal axes: (cart. coord. in units 2 pi/alat)
               b(1) = (  0.151982  0.000020  0.000000 )  
               b(2) = (  0.000000  0.167740  0.000000 )  
               b(3) = (  0.000000  0.000000  0.039752 )  


     PseudoPot. # 1 for Ti read from file:
     /storage/coda1/p-amedford6/0/shared/rich_project_chbe-medford/medford-share/data/pseudos_module/espresso/nninc/pbe/van/Ti.UPF
     MD5 check sum: 8e4df49b7f0d34bbd5052bf3f5ea0213
     Pseudo is Ultrasoft, Zval = 12.0
     Generated by new atomic code, or converted to UPF format
     Using radial grid of  851 points,  6 beta functions with: 
                l(1) =   0
                l(2) =   0
                l(3) =   1
                l(4) =   1
                l(5) =   2
                l(6) =   2
     Q(r) pseudized with  8 coefficients,  rinner =    1.000   1.000   1.000
                                                       1.000   1.000

     PseudoPot. # 2 for O  read from file:
     /storage/coda1/p-amedford6/0/shared/rich_project_chbe-medford/medford-share/data/pseudos_module/espresso/nninc/pbe/van/O.UPF
     MD5 check sum: 78c19812648e8988a0fe644b0f25305e
     Pseudo is Ultrasoft, Zval =  6.0
     Generated by new atomic code, or converted to UPF format
     Using radial grid of  737 points,  4 beta functions with: 
                l(1) =   0
                l(2) =   0
                l(3) =   1
                l(4) =   1
     Q(r) pseudized with  8 coefficients,  rinner =    0.800   0.800   0.800


     PseudoPot. # 3 for C  read from file:
     /storage/coda1/p-amedford6/0/shared/rich_project_chbe-medford/medford-share/data/pseudos_module/espresso/nninc/pbe/van/C.UPF
     MD5 check sum: 1a69bf6b8db32088f5b2163dbdb77a27
     Pseudo is Ultrasoft, Zval =  4.0
     Generated by new atomic code, or converted to UPF format
     Using radial grid of  721 points,  4 beta functions with: 
                l(1) =   0
                l(2) =   0
                l(3) =   1
                l(4) =   1
     Q(r) pseudized with  8 coefficients,  rinner =    0.800   0.800   0.800


     PseudoPot. # 4 for H  read from file:
     /storage/coda1/p-amedford6/0/shared/rich_project_chbe-medford/medford-share/data/pseudos_module/espresso/nninc/pbe/van/H.UPF
     MD5 check sum: b5ee9d7bfd3a09ee7748110bda690ff7
     Pseudo is Ultrasoft, Zval =  1.0
     Generated by new atomic code, or converted to UPF format
     Using radial grid of  615 points,  1 beta functions with: 
                l(1) =   0
     Q(r) pseudized with  8 coefficients,  rinner =    0.800

     atomic species   valence    mass     pseudopotential
        Ti1           12.00    47.86700     Ti( 1.00)
        O1             6.00    15.99900     O ( 1.00)
        C1             4.00    12.01100     C ( 1.00)
        H1             1.00     1.00800     H ( 1.00)

     No symmetry found



   Cartesian axes

     site n.     atom                  positions (alat units)
         1           Ti1 tau(   1) = (   0.0004258   2.9801865   6.0000000  )
         2           Ti1 tau(   2) = (   3.2906075   1.4906267   6.0002472  )
         3           O1  tau(   3) = (   0.0006271   0.0005054   7.9858123  )
         4           O1  tau(   4) = (   3.2906025   0.0005020   7.3038282  )
         5           O1  tau(   5) = (   4.5942328   1.4918067   9.2879030  )
         6           O1  tau(   6) = (   1.9868534   1.4903216   9.2879459  )
         7           Ti1 tau(   7) = (   3.2756478   2.8760420   9.1630771  )
         8           Ti1 tau(   8) = (   6.5651030   1.4385007   9.3790407  )
         9           O1  tau(   9) = (   3.2651923   0.0045787  11.3553482  )
        10           O1  tau(  10) = (   6.5766178   5.9492394  10.5646413  )
        11           O1  tau(  11) = (   1.2591847   1.4977620  12.6679731  )
        12           O1  tau(  12) = (   5.2482661   1.4982983  12.6347741  )
        13           Ti1 tau(  13) = (   0.0651775   2.9654633  12.8696618  )
        14           Ti1 tau(  14) = (   3.3800656   1.4924449  12.4946823  )
        15           O1  tau(  15) = (   6.5296085   5.9207011  14.6097682  )
        16           O1  tau(  16) = (   3.2682314   0.0147111  13.9481481  )
        17           O1  tau(  17) = (   4.4912147   1.5408453  16.1034427  )
        18           O1  tau(  18) = (   2.0062121   1.5430191  16.1010343  )
        19           Ti1 tau(  19) = (   3.2584153   3.0188911  15.7272741  )
        20           Ti1 tau(  20) = (   6.5595668   1.6180917  16.2090303  )
        21           O1  tau(  21) = (   3.2904802   0.0005063   4.7018136  )
        22           O1  tau(  22) = (   6.5447935   0.0528136  17.2578995  )
        23           O1  tau(  23) = (   1.3043587   1.4918075   6.0039043  )
        24           O1  tau(  24) = (   5.2767064   1.4903225   6.0039473  )
        25           Ti1 tau(  25) = (   0.0000382   5.9609847   6.0000000  )
        26           Ti1 tau(  26) = (   3.2902200   4.4714249   6.0002472  )
        27           O1  tau(  27) = (   0.0002396   2.9813036   7.9858123  )
        28           O1  tau(  28) = (   3.2902150   2.9813002   7.3038282  )
        29           O1  tau(  29) = (   4.5938453   4.4726049   9.2879030  )
        30           O1  tau(  30) = (   1.9864658   4.4711199   9.2879459  )
        31           Ti1 tau(  31) = (   3.2806623   5.8565216   9.1617982  )
        32           Ti1 tau(  32) = (   6.5670484   4.4138833   9.3856844  )
        33           O1  tau(  33) = (   3.2704644   2.9808095  11.3502114  )
        34           O1  tau(  34) = (   6.5770050   2.9672111  10.5601139  )
        35           O1  tau(  35) = (   1.2614422   4.4490125  12.6594447  )
        36           O1  tau(  36) = (   5.2451530   4.4578719  12.6250501  )
        37           Ti1 tau(  37) = (   0.0436288   5.9429386  12.8080954  )
        38           Ti1 tau(  38) = (   3.3780510   4.4695497  12.4860242  )
        39           O1  tau(  39) = (   6.5513063   2.9765972  14.7162787  )
        40           O1  tau(  40) = (   3.2682626   2.9952000  13.9367060  )
        41           O1  tau(  41) = (   4.4851171   4.5114873  16.1027694  )
        42           O1  tau(  42) = (   2.0082088   4.5103763  16.0975713  )
        43           Ti1 tau(  43) = (   3.2690221   0.0357551  15.7449602  )
        44           Ti1 tau(  44) = (   6.5655258   4.6249605  16.1704562  )
        45           O1  tau(  45) = (   3.2900926   2.9813045   4.7018136  )
        46           O1  tau(  46) = (   1.3039711   4.4726057   6.0039043  )
        47           O1  tau(  47) = (   5.2763189   4.4711207   6.0039473  )
        48           C1  tau(  48) = (   6.5359393   3.0234738  17.6125649  )
        49           H1  tau(  49) = (   0.8472112   3.1395175  18.2203151  )
        50           H1  tau(  50) = (   5.6209537   3.1160310  18.2142257  )

     number of k points=    10  Fermi-Dirac smearing, width (Ry)=  0.0073
                       cart. coord. in units 2pi/alat
        k(    1) = (   0.0000000   0.0000000   0.0000000), wk =   0.1250000
        k(    2) = (   0.0000000   0.0419351   0.0000000), wk =   0.2500000
        k(    3) = (   0.0000000  -0.0838702   0.0000000), wk =   0.1250000
        k(    4) = (   0.0379955   0.0000049   0.0000000), wk =   0.2500000
        k(    5) = (   0.0379955   0.0419400   0.0000000), wk =   0.2500000
        k(    6) = (   0.0379955  -0.0838652   0.0000000), wk =   0.2500000
        k(    7) = (   0.0379955  -0.0419301   0.0000000), wk =   0.2500000
        k(    8) = (  -0.0759910  -0.0000099   0.0000000), wk =   0.1250000
        k(    9) = (  -0.0759910   0.0419252   0.0000000), wk =   0.2500000
        k(   10) = (  -0.0759910  -0.0838800   0.0000000), wk =   0.1250000

     Dense  grid:   566857 G-vectors     FFT dimensions: (  72,  64, 270)

     Smooth grid:   143421 G-vectors     FFT dimensions: (  45,  40, 180)

     Estimated max dynamical RAM per process >      54.63 MB

     Estimated total dynamical RAM >       3.84 GB
     Cannot read rho : file not found

     Initial potential from superposition of free atoms

     starting charge  367.99919, renormalised to  384.00000

     negative rho (up, down):  2.116E-02 0.000E+00


     %%%%%%%%%%%%%%%%%%%%%%%%%%%%%%%%%%%%%%%%%%%%%%%%%%%%%%%%%%%%%%%%%%%%%%%%
     %                                                                      %
     % You are using vdW-DF, which was implemented by the Thonhauser group. %
     % Please cite the following two papers that made this development      %
     % possible and the two reviews that describe the various versions:     %
     %                                                                      %
     %   T. Thonhauser et al., PRL 115, 136402 (2015).                      %
     %   T. Thonhauser et al., PRB 76, 125112 (2007).                       %
     %   K. Berland et al., Rep. Prog. Phys. 78, 066501 (2015).             %
     %   D.C. Langreth et al., J. Phys.: Condens. Matter 21, 084203 (2009). %
     %                                                                      %
     %                                                                      %
     % If you are calculating the stress with vdW-DF, please also cite:     %
     %                                                                      %
     %   R. Sabatini et al., J. Phys.: Condens. Matter 24, 424209 (2012).   %
     %                                                                      %
     %%%%%%%%%%%%%%%%%%%%%%%%%%%%%%%%%%%%%%%%%%%%%%%%%%%%%%%%%%%%%%%%%%%%%%%%


 
     Adding external electric field

     Computed dipole along edir(3) : 
        Dipole               -0.5194 Ry au,         -1.3201 Debye
        Dipole field         -0.0010 Ry au, 
 
        Potential amp.        0.0909 Ry
        Total length         46.3494 bohr
 
     Starting wfcs are  290 atomic wfcs
  @ DRIVER MODE: Message from server: STATUS
  @ DRIVER MODE: Message from server: POSDATA
  @ DRIVER MODE: Reading and sharing cell 
  @ DRIVER MODE: Reading and sharing positions 
  @ DRIVER MODE: Received positions 

     total cpu time spent up to now is       26.9 secs

     Self-consistent Calculation

     iteration #  1     ecut=    29.40 Ry     beta= 0.05
     Davidson diagonalization with overlap
     c_bands:  1 eigenvalues not converged
     c_bands:  2 eigenvalues not converged
     c_bands:  4 eigenvalues not converged
     c_bands:  3 eigenvalues not converged
     c_bands:  1 eigenvalues not converged
     c_bands:  2 eigenvalues not converged
     c_bands:  1 eigenvalues not converged
     c_bands:  2 eigenvalues not converged
     c_bands:  1 eigenvalues not converged
     c_bands:  2 eigenvalues not converged
     ethr =  1.00E-05,  avg # of iterations = 22.0

     negative rho (up, down):  2.097E-02 0.000E+00
 
     Adding external electric field

     Computed dipole along edir(3) : 
        Dipole               -0.5178 Ry au,         -1.3160 Debye
        Dipole field         -0.0010 Ry au, 
 
        Potential amp.        0.0906 Ry
        Total length         46.3494 bohr
 

     total cpu time spent up to now is       62.8 secs

     total energy              =   -2899.22809358 Ry
     estimated scf accuracy    <      12.10209524 Ry

     iteration #  2     ecut=    29.40 Ry     beta= 0.05
     Davidson diagonalization with overlap
     ethr =  3.15E-03,  avg # of iterations =  1.0

     negative rho (up, down):  2.263E-02 0.000E+00
 
     Adding external electric field

     Computed dipole along edir(3) : 
        Dipole               -0.4564 Ry au,         -1.1599 Debye
        Dipole field         -0.0009 Ry au, 
 
        Potential amp.        0.0798 Ry
        Total length         46.3494 bohr
 

     total cpu time spent up to now is       72.3 secs

     total energy              =   -2894.35558715 Ry
     estimated scf accuracy    <       9.31451390 Ry

     iteration #  3     ecut=    29.40 Ry     beta= 0.05
     Davidson diagonalization with overlap
     ethr =  2.43E-03,  avg # of iterations =  7.2

     negative rho (up, down):  2.209E-02 0.000E+00
 
     Adding external electric field

     Computed dipole along edir(3) : 
        Dipole               -0.4104 Ry au,         -1.0432 Debye
        Dipole field         -0.0008 Ry au, 
 
        Potential amp.        0.0718 Ry
        Total length         46.3494 bohr
 

     total cpu time spent up to now is       85.7 secs

     total energy              =   -2899.21767541 Ry
     estimated scf accuracy    <      33.90473884 Ry

     iteration #  4     ecut=    29.40 Ry     beta= 0.05
     Davidson diagonalization with overlap
     ethr =  2.43E-03,  avg # of iterations =  2.5

     negative rho (up, down):  2.169E-02 0.000E+00
 
     Adding external electric field

     Computed dipole along edir(3) : 
        Dipole               -0.3354 Ry au,         -0.8524 Debye
        Dipole field         -0.0006 Ry au, 
 
        Potential amp.        0.0587 Ry
        Total length         46.3494 bohr
 

     total cpu time spent up to now is       90.6 secs

     total energy              =   -2899.10364486 Ry
     estimated scf accuracy    <      28.60151476 Ry

     iteration #  5     ecut=    29.40 Ry     beta= 0.05
     Davidson diagonalization with overlap
     ethr =  2.43E-03,  avg # of iterations =  1.1

     negative rho (up, down):  2.124E-02 0.000E+00
 
     Adding external electric field

     Computed dipole along edir(3) : 
        Dipole               -0.1719 Ry au,         -0.4368 Debye
        Dipole field         -0.0003 Ry au, 
 
        Potential amp.        0.0301 Ry
        Total length         46.3494 bohr
 

     total cpu time spent up to now is       93.9 secs

     total energy              =   -2898.31805599 Ry
     estimated scf accuracy    <      26.16004749 Ry

     iteration #  6     ecut=    29.40 Ry     beta= 0.05
     Davidson diagonalization with overlap
     ethr =  2.43E-03,  avg # of iterations =  1.0

     negative rho (up, down):  2.096E-02 0.000E+00
 
     Adding external electric field

     Computed dipole along edir(3) : 
        Dipole               -0.2386 Ry au,         -0.6065 Debye
        Dipole field         -0.0005 Ry au, 
 
        Potential amp.        0.0417 Ry
        Total length         46.3494 bohr
 

     total cpu time spent up to now is      104.8 secs

     total energy              =   -2898.32660888 Ry
     estimated scf accuracy    <      18.45639426 Ry

     iteration #  7     ecut=    29.40 Ry     beta= 0.05
     Davidson diagonalization with overlap
     ethr =  2.43E-03,  avg # of iterations =  1.0

     negative rho (up, down):  2.077E-02 0.000E+00
 
     Adding external electric field

     Computed dipole along edir(3) : 
        Dipole               -0.0610 Ry au,         -0.1551 Debye
        Dipole field         -0.0001 Ry au, 
 
        Potential amp.        0.0107 Ry
        Total length         46.3494 bohr
 

     total cpu time spent up to now is      108.8 secs

     total energy              =   -2898.13829713 Ry
     estimated scf accuracy    <      17.36264017 Ry

     iteration #  8     ecut=    29.40 Ry     beta= 0.05
     Davidson diagonalization with overlap
     ethr =  2.43E-03,  avg # of iterations =  1.0

     negative rho (up, down):  2.064E-02 0.000E+00
 
     Adding external electric field

     Computed dipole along edir(3) : 
        Dipole                0.2270 Ry au,          0.5770 Debye
        Dipole field          0.0004 Ry au, 
 
        Potential amp.       -0.0397 Ry
        Total length         46.3494 bohr
 

     total cpu time spent up to now is      113.5 secs

     total energy              =   -2897.47692519 Ry
     estimated scf accuracy    <      14.84258208 Ry

     iteration #  9     ecut=    29.40 Ry     beta= 0.05
     Davidson diagonalization with overlap
     ethr =  2.43E-03,  avg # of iterations =  3.5

     negative rho (up, down):  2.058E-02 0.000E+00
 
     Adding external electric field

     Computed dipole along edir(3) : 
        Dipole                0.6962 Ry au,          1.7696 Debye
        Dipole field          0.0013 Ry au, 
 
        Potential amp.       -0.1218 Ry
        Total length         46.3494 bohr
 

     total cpu time spent up to now is      117.5 secs

     total energy              =   -2897.10084325 Ry
     estimated scf accuracy    <       5.63774444 Ry

     iteration # 10     ecut=    29.40 Ry     beta= 0.05
     Davidson diagonalization with overlap
     ethr =  1.47E-03,  avg # of iterations =  6.2

     negative rho (up, down):  2.043E-02 0.000E+00
 
     Adding external electric field

     Computed dipole along edir(3) : 
        Dipole                0.8254 Ry au,          2.0979 Debye
        Dipole field          0.0016 Ry au, 
 
        Potential amp.       -0.1444 Ry
        Total length         46.3494 bohr
 

     total cpu time spent up to now is      124.8 secs

     total energy              =   -2897.49044710 Ry
     estimated scf accuracy    <       0.98853329 Ry

     iteration # 11     ecut=    29.40 Ry     beta= 0.05
     Davidson diagonalization with overlap
     ethr =  2.57E-04,  avg # of iterations =  9.0

     negative rho (up, down):  2.029E-02 0.000E+00
 
     Adding external electric field

     Computed dipole along edir(3) : 
        Dipole                0.8246 Ry au,          2.0959 Debye
        Dipole field          0.0016 Ry au, 
 
        Potential amp.       -0.1443 Ry
        Total length         46.3494 bohr
 

     total cpu time spent up to now is      133.0 secs

     total energy              =   -2897.72955692 Ry
     estimated scf accuracy    <       0.61711255 Ry

     iteration # 12     ecut=    29.40 Ry     beta= 0.05
     Davidson diagonalization with overlap
     ethr =  1.61E-04,  avg # of iterations =  2.6

     negative rho (up, down):  2.021E-02 0.000E+00
 
     Adding external electric field

     Computed dipole along edir(3) : 
        Dipole                0.4877 Ry au,          1.2397 Debye
        Dipole field          0.0009 Ry au, 
 
        Potential amp.       -0.0853 Ry
        Total length         46.3494 bohr
 

     total cpu time spent up to now is      146.3 secs

     total energy              =   -2897.63735233 Ry
     estimated scf accuracy    <       0.61761371 Ry

     iteration # 13     ecut=    29.40 Ry     beta= 0.05
     Davidson diagonalization with overlap
     c_bands:  1 eigenvalues not converged
     c_bands:  2 eigenvalues not converged
     c_bands:  3 eigenvalues not converged
     c_bands:  1 eigenvalues not converged
     c_bands:  1 eigenvalues not converged
     c_bands:  1 eigenvalues not converged
     c_bands:  1 eigenvalues not converged
     ethr =  1.61E-04,  avg # of iterations = 19.7

     negative rho (up, down):  2.014E-02 0.000E+00
 
     Adding external electric field

     Computed dipole along edir(3) : 
        Dipole                0.4583 Ry au,          1.1648 Debye
        Dipole field          0.0009 Ry au, 
 
        Potential amp.       -0.0802 Ry
        Total length         46.3494 bohr
 

     total cpu time spent up to now is      160.0 secs

     total energy              =   -2897.64939044 Ry
     estimated scf accuracy    <       7.18911929 Ry

     iteration # 14     ecut=    29.40 Ry     beta= 0.05
     Davidson diagonalization with overlap
     ethr =  1.61E-04,  avg # of iterations =  5.3

     negative rho (up, down):  2.015E-02 0.000E+00
 
     Adding external electric field

     Computed dipole along edir(3) : 
        Dipole                0.3426 Ry au,          0.8707 Debye
        Dipole field          0.0006 Ry au, 
 
        Potential amp.       -0.0599 Ry
        Total length         46.3494 bohr
 

     total cpu time spent up to now is      164.4 secs

     total energy              =   -2897.67449792 Ry
     estimated scf accuracy    <       0.71472052 Ry

     iteration # 15     ecut=    29.40 Ry     beta= 0.05
     Davidson diagonalization with overlap
     c_bands:  2 eigenvalues not converged
     c_bands:  1 eigenvalues not converged
     c_bands:  2 eigenvalues not converged
     c_bands:  3 eigenvalues not converged
     ethr =  1.61E-04,  avg # of iterations = 13.8

     negative rho (up, down):  2.032E-02 0.000E+00
 
     Adding external electric field

     Computed dipole along edir(3) : 
        Dipole               -0.0640 Ry au,         -0.1628 Debye
        Dipole field         -0.0001 Ry au, 
 
        Potential amp.        0.0112 Ry
        Total length         46.3494 bohr
 

     total cpu time spent up to now is      174.8 secs

     total energy              =   -2897.82511911 Ry
     estimated scf accuracy    <       0.40488168 Ry

     iteration # 16     ecut=    29.40 Ry     beta= 0.05
     Davidson diagonalization with overlap
     c_bands:  2 eigenvalues not converged
     c_bands:  2 eigenvalues not converged
     c_bands:  2 eigenvalues not converged
     c_bands:  5 eigenvalues not converged
     c_bands:  3 eigenvalues not converged
     c_bands:  4 eigenvalues not converged
     c_bands:  3 eigenvalues not converged
     c_bands:  2 eigenvalues not converged
     ethr =  1.05E-04,  avg # of iterations = 20.6

     negative rho (up, down):  2.027E-02 0.000E+00
 
     Adding external electric field

     Computed dipole along edir(3) : 
        Dipole                0.1875 Ry au,          0.4766 Debye
        Dipole field          0.0004 Ry au, 
 
        Potential amp.       -0.0328 Ry
        Total length         46.3494 bohr
 

     total cpu time spent up to now is      217.7 secs

     total energy              =   -2897.91771695 Ry
     estimated scf accuracy    <       2.09430117 Ry

     iteration # 17     ecut=    29.40 Ry     beta= 0.05
     Davidson diagonalization with overlap
     c_bands:  1 eigenvalues not converged
     c_bands:  2 eigenvalues not converged
     ethr =  1.05E-04,  avg # of iterations = 13.9

     negative rho (up, down):  2.021E-02 0.000E+00
 
     Adding external electric field

     Computed dipole along edir(3) : 
        Dipole                0.2689 Ry au,          0.6835 Debye
        Dipole field          0.0005 Ry au, 
 
        Potential amp.       -0.0470 Ry
        Total length         46.3494 bohr
 

     total cpu time spent up to now is      261.5 secs

     total energy              =   -2897.96833113 Ry
     estimated scf accuracy    <       1.84221997 Ry

     iteration # 18     ecut=    29.40 Ry     beta= 0.05
     Davidson diagonalization with overlap
     c_bands:  2 eigenvalues not converged
     c_bands:  3 eigenvalues not converged
     ethr =  1.05E-04,  avg # of iterations =  6.5

     negative rho (up, down):  2.022E-02 0.000E+00
 
     Adding external electric field

     Computed dipole along edir(3) : 
        Dipole                0.4088 Ry au,          1.0390 Debye
        Dipole field          0.0008 Ry au, 
 
        Potential amp.       -0.0715 Ry
        Total length         46.3494 bohr
 

     total cpu time spent up to now is      269.9 secs

     total energy              =   -2898.02294450 Ry
     estimated scf accuracy    <       1.93969845 Ry

     iteration # 19     ecut=    29.40 Ry     beta= 0.05
     Davidson diagonalization with overlap
     c_bands:  3 eigenvalues not converged
     ethr =  1.05E-04,  avg # of iterations =  4.9

     negative rho (up, down):  2.006E-02 0.000E+00
 
     Adding external electric field

     Computed dipole along edir(3) : 
        Dipole               -0.6018 Ry au,         -1.5296 Debye
        Dipole field         -0.0011 Ry au, 
 
        Potential amp.        0.1053 Ry
        Total length         46.3494 bohr
 

     total cpu time spent up to now is      274.3 secs

     total energy              =   -2897.77386196 Ry
     estimated scf accuracy    <       2.34929345 Ry

     iteration # 20     ecut=    29.40 Ry     beta= 0.05
     Davidson diagonalization with overlap
     c_bands:  4 eigenvalues not converged
     c_bands:  3 eigenvalues not converged
     c_bands:  3 eigenvalues not converged
     c_bands:  1 eigenvalues not converged
     c_bands:  1 eigenvalues not converged
     ethr =  1.05E-04,  avg # of iterations = 17.2

     negative rho (up, down):  2.006E-02 0.000E+00
 
     Adding external electric field

     Computed dipole along edir(3) : 
        Dipole                0.6130 Ry au,          1.5580 Debye
        Dipole field          0.0012 Ry au, 
 
        Potential amp.       -0.1072 Ry
        Total length         46.3494 bohr
 

     total cpu time spent up to now is      297.9 secs

     total energy              =   -2897.30798340 Ry
     estimated scf accuracy    <      10.95341310 Ry

     iteration # 21     ecut=    29.40 Ry     beta= 0.05
     Davidson diagonalization with overlap
     c_bands:  3 eigenvalues not converged
     c_bands:  4 eigenvalues not converged
     c_bands:  2 eigenvalues not converged
     c_bands:  2 eigenvalues not converged
     c_bands:  2 eigenvalues not converged
     c_bands:  2 eigenvalues not converged
     ethr =  1.05E-04,  avg # of iterations = 17.2

     negative rho (up, down):  2.006E-02 0.000E+00
 
     Adding external electric field

     Computed dipole along edir(3) : 
        Dipole                1.6362 Ry au,          4.1588 Debye
        Dipole field          0.0031 Ry au, 
 
        Potential amp.       -0.2862 Ry
        Total length         46.3494 bohr
 

     total cpu time spent up to now is      328.0 secs

     total energy              =   -2897.70545680 Ry
     estimated scf accuracy    <       0.58125787 Ry

     iteration # 22     ecut=    29.40 Ry     beta= 0.05
     Davidson diagonalization with overlap
     c_bands:  4 eigenvalues not converged
     c_bands:  2 eigenvalues not converged
     c_bands:  1 eigenvalues not converged
     c_bands:  4 eigenvalues not converged
     c_bands:  2 eigenvalues not converged
     c_bands:  3 eigenvalues not converged
     c_bands:  4 eigenvalues not converged
     c_bands:  1 eigenvalues not converged
     ethr =  1.05E-04,  avg # of iterations = 20.2

     negative rho (up, down):  2.001E-02 0.000E+00
 
     Adding external electric field

     Computed dipole along edir(3) : 
        Dipole                1.4107 Ry au,          3.5855 Debye
        Dipole field          0.0027 Ry au, 
 
        Potential amp.       -0.2468 Ry
        Total length         46.3494 bohr
 

     total cpu time spent up to now is      342.6 secs

     total energy              =   -2897.86279046 Ry
     estimated scf accuracy    <      71.30344866 Ry

     iteration # 23     ecut=    29.40 Ry     beta= 0.05
     Davidson diagonalization with overlap
     c_bands:  1 eigenvalues not converged
     ethr =  1.05E-04,  avg # of iterations =  5.0

     negative rho (up, down):  2.002E-02 0.000E+00
 
     Adding external electric field

     Computed dipole along edir(3) : 
        Dipole                1.2586 Ry au,          3.1990 Debye
        Dipole field          0.0024 Ry au, 
 
        Potential amp.       -0.2202 Ry
        Total length         46.3494 bohr
 

     total cpu time spent up to now is      353.6 secs

     total energy              =   -2897.76892060 Ry
     estimated scf accuracy    <      36.66668332 Ry

     iteration # 24     ecut=    29.40 Ry     beta= 0.05
     Davidson diagonalization with overlap
     ethr =  1.05E-04,  avg # of iterations =  1.1

     negative rho (up, down):  2.004E-02 0.000E+00
 
     Adding external electric field

     Computed dipole along edir(3) : 
        Dipole                1.1114 Ry au,          2.8249 Debye
        Dipole field          0.0021 Ry au, 
 
        Potential amp.       -0.1944 Ry
        Total length         46.3494 bohr
 

     total cpu time spent up to now is      356.9 secs

     total energy              =   -2897.72444785 Ry
     estimated scf accuracy    <       9.77608386 Ry

     iteration # 25     ecut=    29.40 Ry     beta= 0.05
     Davidson diagonalization with overlap
     ethr =  1.05E-04,  avg # of iterations =  2.0

     negative rho (up, down):  2.068E-02 0.000E+00
 
     Adding external electric field

     Computed dipole along edir(3) : 
        Dipole                1.3833 Ry au,          3.5160 Debye
        Dipole field          0.0026 Ry au, 
 
        Potential amp.       -0.2420 Ry
        Total length         46.3494 bohr
 

     total cpu time spent up to now is      366.3 secs

     total energy              =   -2897.80489261 Ry
     estimated scf accuracy    <       2.37134625 Ry

     iteration # 26     ecut=    29.40 Ry     beta= 0.05
     Davidson diagonalization with overlap
     ethr =  1.05E-04,  avg # of iterations =  4.9

     negative rho (up, down):  2.060E-02 0.000E+00
 
     Adding external electric field

     Computed dipole along edir(3) : 
        Dipole                1.6837 Ry au,          4.2795 Debye
        Dipole field          0.0032 Ry au, 
 
        Potential amp.       -0.2945 Ry
        Total length         46.3494 bohr
 

     total cpu time spent up to now is      376.8 secs

     total energy              =   -2898.01323678 Ry
     estimated scf accuracy    <      23.63697256 Ry

     iteration # 27     ecut=    29.40 Ry     beta= 0.05
     Davidson diagonalization with overlap
     ethr =  1.05E-04,  avg # of iterations =  1.0

     negative rho (up, down):  2.041E-02 0.000E+00
 
     Adding external electric field

     Computed dipole along edir(3) : 
        Dipole                1.1249 Ry au,          2.8591 Debye
        Dipole field          0.0021 Ry au, 
 
        Potential amp.       -0.1968 Ry
        Total length         46.3494 bohr
 

     total cpu time spent up to now is      390.1 secs

     total energy              =   -2897.64538424 Ry
     estimated scf accuracy    <      78.83068194 Ry

     iteration # 28     ecut=    29.40 Ry     beta= 0.05
     Davidson diagonalization with overlap
     ethr =  1.05E-04,  avg # of iterations =  4.2

     negative rho (up, down):  2.013E-02 0.000E+00
 
     Adding external electric field

     Computed dipole along edir(3) : 
        Dipole                1.0804 Ry au,          2.7461 Debye
        Dipole field          0.0020 Ry au, 
 
        Potential amp.       -0.1890 Ry
        Total length         46.3494 bohr
 

     total cpu time spent up to now is      394.2 secs

     total energy              =   -2897.78066342 Ry
     estimated scf accuracy    <       5.02835273 Ry

     iteration # 29     ecut=    29.40 Ry     beta= 0.05
     Davidson diagonalization with overlap
     ethr =  1.05E-04,  avg # of iterations =  1.0

     negative rho (up, down):  2.043E-02 0.000E+00
 
     Adding external electric field

     Computed dipole along edir(3) : 
        Dipole                0.7347 Ry au,          1.8675 Debye
        Dipole field          0.0014 Ry au, 
 
        Potential amp.       -0.1285 Ry
        Total length         46.3494 bohr
 

     total cpu time spent up to now is      397.6 secs

     total energy              =   -2897.73223441 Ry
     estimated scf accuracy    <       6.24481766 Ry

     iteration # 30     ecut=    29.40 Ry     beta= 0.05
     Davidson diagonalization with overlap
     ethr =  1.05E-04,  avg # of iterations =  6.5

     negative rho (up, down):  2.047E-02 0.000E+00
 
     Adding external electric field

     Computed dipole along edir(3) : 
        Dipole                0.6755 Ry au,          1.7169 Debye
        Dipole field          0.0013 Ry au, 
 
        Potential amp.       -0.1182 Ry
        Total length         46.3494 bohr
 

     total cpu time spent up to now is      423.4 secs

     total energy              =   -2897.77928439 Ry
     estimated scf accuracy    <       0.72036961 Ry

     iteration # 31     ecut=    29.40 Ry     beta= 0.05
     Davidson diagonalization with overlap
     ethr =  1.05E-04,  avg # of iterations =  1.7

     negative rho (up, down):  2.041E-02 0.000E+00
 
     Adding external electric field

     Computed dipole along edir(3) : 
        Dipole                0.6907 Ry au,          1.7555 Debye
        Dipole field          0.0013 Ry au, 
 
        Potential amp.       -0.1208 Ry
        Total length         46.3494 bohr
 

     total cpu time spent up to now is      430.9 secs

     total energy              =   -2897.77167145 Ry
     estimated scf accuracy    <       0.54263466 Ry

     iteration # 32     ecut=    29.40 Ry     beta= 0.05
     Davidson diagonalization with overlap
     ethr =  1.05E-04,  avg # of iterations =  1.7

     negative rho (up, down):  2.033E-02 0.000E+00
 
     Adding external electric field

     Computed dipole along edir(3) : 
        Dipole                0.8542 Ry au,          2.1711 Debye
        Dipole field          0.0016 Ry au, 
 
        Potential amp.       -0.1494 Ry
        Total length         46.3494 bohr
 

     total cpu time spent up to now is      452.8 secs

     total energy              =   -2897.75162021 Ry
     estimated scf accuracy    <       0.47727108 Ry

     iteration # 33     ecut=    29.40 Ry     beta= 0.05
     Davidson diagonalization with overlap
     ethr =  1.05E-04,  avg # of iterations =  1.5

     negative rho (up, down):  2.023E-02 0.000E+00
 
     Adding external electric field

     Computed dipole along edir(3) : 
        Dipole                0.7951 Ry au,          2.0210 Debye
        Dipole field          0.0015 Ry au, 
 
        Potential amp.       -0.1391 Ry
        Total length         46.3494 bohr
 

     total cpu time spent up to now is      458.2 secs

     total energy              =   -2897.74527920 Ry
     estimated scf accuracy    <       0.55142892 Ry

     iteration # 34     ecut=    29.40 Ry     beta= 0.05
     Davidson diagonalization with overlap
     ethr =  1.05E-04,  avg # of iterations =  1.0

     negative rho (up, down):  2.017E-02 0.000E+00
 
     Adding external electric field

     Computed dipole along edir(3) : 
        Dipole                0.9465 Ry au,          2.4058 Debye
        Dipole field          0.0018 Ry au, 
 
        Potential amp.       -0.1656 Ry
        Total length         46.3494 bohr
 

     total cpu time spent up to now is      462.3 secs

     total energy              =   -2897.69202228 Ry
     estimated scf accuracy    <       0.42160102 Ry

     iteration # 35     ecut=    29.40 Ry     beta= 0.05
     Davidson diagonalization with overlap
     ethr =  1.05E-04,  avg # of iterations =  5.0

     negative rho (up, down):  2.020E-02 0.000E+00
 
     Adding external electric field

     Computed dipole along edir(3) : 
        Dipole                1.0743 Ry au,          2.7306 Debye
        Dipole field          0.0020 Ry au, 
 
        Potential amp.       -0.1879 Ry
        Total length         46.3494 bohr
 

     total cpu time spent up to now is      466.8 secs

     total energy              =   -2897.73740141 Ry
     estimated scf accuracy    <       0.68581331 Ry

     iteration # 36     ecut=    29.40 Ry     beta= 0.05
     Davidson diagonalization with overlap
     ethr =  1.05E-04,  avg # of iterations =  1.2

     negative rho (up, down):  2.035E-02 0.000E+00
 
     Adding external electric field

     Computed dipole along edir(3) : 
        Dipole                0.4944 Ry au,          1.2567 Debye
        Dipole field          0.0009 Ry au, 
 
        Potential amp.       -0.0865 Ry
        Total length         46.3494 bohr
 

     total cpu time spent up to now is      483.8 secs

     total energy              =   -2897.63632022 Ry
     estimated scf accuracy    <       1.89055110 Ry

     iteration # 37     ecut=    29.40 Ry     beta= 0.05
     Davidson diagonalization with overlap
     ethr =  1.05E-04,  avg # of iterations =  9.7

     negative rho (up, down):  2.025E-02 0.000E+00
 
     Adding external electric field

     Computed dipole along edir(3) : 
        Dipole                0.3854 Ry au,          0.9795 Debye
        Dipole field          0.0007 Ry au, 
 
        Potential amp.       -0.0674 Ry
        Total length         46.3494 bohr
 

     total cpu time spent up to now is      492.2 secs

     total energy              =   -2897.71488183 Ry
     estimated scf accuracy    <       0.20367306 Ry

     iteration # 38     ecut=    29.40 Ry     beta= 0.05
     Davidson diagonalization with overlap
     c_bands:  1 eigenvalues not converged
     c_bands:  4 eigenvalues not converged
     c_bands:  1 eigenvalues not converged
     c_bands:  1 eigenvalues not converged
     ethr =  5.30E-05,  avg # of iterations = 13.6

     negative rho (up, down):  2.024E-02 0.000E+00
 
     Adding external electric field

     Computed dipole along edir(3) : 
        Dipole                0.2306 Ry au,          0.5861 Debye
        Dipole field          0.0004 Ry au, 
 
        Potential amp.       -0.0403 Ry
        Total length         46.3494 bohr
 

     total cpu time spent up to now is      510.3 secs

     total energy              =   -2897.71817214 Ry
     estimated scf accuracy    <       0.12618686 Ry

     iteration # 39     ecut=    29.40 Ry     beta= 0.05
     Davidson diagonalization with overlap
     c_bands:  1 eigenvalues not converged
     c_bands:  1 eigenvalues not converged
     c_bands:  1 eigenvalues not converged
     c_bands:  2 eigenvalues not converged
     ethr =  3.29E-05,  avg # of iterations = 14.2

     negative rho (up, down):  2.020E-02 0.000E+00
 
     Adding external electric field

     Computed dipole along edir(3) : 
        Dipole                0.2903 Ry au,          0.7378 Debye
        Dipole field          0.0005 Ry au, 
 
        Potential amp.       -0.0508 Ry
        Total length         46.3494 bohr
 

     total cpu time spent up to now is      519.2 secs

     total energy              =   -2897.70536362 Ry
     estimated scf accuracy    <       0.11304395 Ry

     iteration # 40     ecut=    29.40 Ry     beta= 0.05
     Davidson diagonalization with overlap
     c_bands:  2 eigenvalues not converged
     c_bands:  1 eigenvalues not converged
     c_bands:  1 eigenvalues not converged
     c_bands:  5 eigenvalues not converged
     c_bands:  2 eigenvalues not converged
     c_bands:  1 eigenvalues not converged
     ethr =  2.94E-05,  avg # of iterations = 16.8

     negative rho (up, down):  2.038E-02 0.000E+00
 
     Adding external electric field

     Computed dipole along edir(3) : 
        Dipole                0.4822 Ry au,          1.2257 Debye
        Dipole field          0.0009 Ry au, 
 
        Potential amp.       -0.0844 Ry
        Total length         46.3494 bohr
 

     total cpu time spent up to now is      537.4 secs

     total energy              =   -2897.71783356 Ry
     estimated scf accuracy    <       0.06941395 Ry

     iteration # 41     ecut=    29.40 Ry     beta= 0.05
     Davidson diagonalization with overlap
     c_bands:  1 eigenvalues not converged
     c_bands:  3 eigenvalues not converged
     ethr =  1.81E-05,  avg # of iterations =  9.4

     negative rho (up, down):  2.051E-02 0.000E+00
 
     Adding external electric field

     Computed dipole along edir(3) : 
        Dipole                0.7970 Ry au,          2.0257 Debye
        Dipole field          0.0015 Ry au, 
 
        Potential amp.       -0.1394 Ry
        Total length         46.3494 bohr
 

     total cpu time spent up to now is      547.7 secs

     total energy              =   -2897.72232779 Ry
     estimated scf accuracy    <       0.04615836 Ry

     iteration # 42     ecut=    29.40 Ry     beta= 0.05
     Davidson diagonalization with overlap
     c_bands:  2 eigenvalues not converged
     c_bands:  1 eigenvalues not converged
     c_bands:  3 eigenvalues not converged
     c_bands:  1 eigenvalues not converged
     c_bands:  1 eigenvalues not converged
     ethr =  1.20E-05,  avg # of iterations = 14.3

     negative rho (up, down):  2.060E-02 0.000E+00
 
     Adding external electric field

     Computed dipole along edir(3) : 
        Dipole                0.6283 Ry au,          1.5971 Debye
        Dipole field          0.0012 Ry au, 
 
        Potential amp.       -0.1099 Ry
        Total length         46.3494 bohr
 

     total cpu time spent up to now is      557.9 secs

     total energy              =   -2897.71578825 Ry
     estimated scf accuracy    <       0.16465275 Ry

     iteration # 43     ecut=    29.40 Ry     beta= 0.05
     Davidson diagonalization with overlap
     c_bands:  3 eigenvalues not converged
     c_bands:  2 eigenvalues not converged
     c_bands:  1 eigenvalues not converged
     ethr =  1.20E-05,  avg # of iterations = 11.8

     negative rho (up, down):  2.065E-02 0.000E+00
 
     Adding external electric field

     Computed dipole along edir(3) : 
        Dipole                0.5924 Ry au,          1.5056 Debye
        Dipole field          0.0011 Ry au, 
 
        Potential amp.       -0.1036 Ry
        Total length         46.3494 bohr
 

     total cpu time spent up to now is      571.2 secs

     total energy              =   -2897.72546756 Ry
     estimated scf accuracy    <       0.03636877 Ry

     iteration # 44     ecut=    29.40 Ry     beta= 0.05
     Davidson diagonalization with overlap
     c_bands:  1 eigenvalues not converged
     c_bands:  1 eigenvalues not converged
     ethr =  9.47E-06,  avg # of iterations =  9.8

     negative rho (up, down):  2.064E-02 0.000E+00
 
     Adding external electric field

     Computed dipole along edir(3) : 
        Dipole                0.5662 Ry au,          1.4391 Debye
        Dipole field          0.0011 Ry au, 
 
        Potential amp.       -0.0990 Ry
        Total length         46.3494 bohr
 

     total cpu time spent up to now is      610.7 secs

     total energy              =   -2897.72779925 Ry
     estimated scf accuracy    <       0.03979162 Ry

     iteration # 45     ecut=    29.40 Ry     beta= 0.05
     Davidson diagonalization with overlap
     ethr =  9.47E-06,  avg # of iterations =  1.5

     negative rho (up, down):  2.064E-02 0.000E+00
 
     Adding external electric field

     Computed dipole along edir(3) : 
        Dipole                0.4798 Ry au,          1.2196 Debye
        Dipole field          0.0009 Ry au, 
 
        Potential amp.       -0.0839 Ry
        Total length         46.3494 bohr
 

     total cpu time spent up to now is      633.7 secs

     total energy              =   -2897.72831976 Ry
     estimated scf accuracy    <       0.03661397 Ry

     iteration # 46     ecut=    29.40 Ry     beta= 0.05
     Davidson diagonalization with overlap
     c_bands:  4 eigenvalues not converged
     c_bands:  2 eigenvalues not converged
     c_bands:  4 eigenvalues not converged
     c_bands:  1 eigenvalues not converged
     c_bands:  4 eigenvalues not converged
     ethr =  9.47E-06,  avg # of iterations = 12.1

     negative rho (up, down):  2.062E-02 0.000E+00
 
     Adding external electric field

     Computed dipole along edir(3) : 
        Dipole                0.4231 Ry au,          1.0754 Debye
        Dipole field          0.0008 Ry au, 
 
        Potential amp.       -0.0740 Ry
        Total length         46.3494 bohr
 

     total cpu time spent up to now is      643.9 secs

     total energy              =   -2897.72572624 Ry
     estimated scf accuracy    <       0.03636259 Ry

     iteration # 47     ecut=    29.40 Ry     beta= 0.05
     Davidson diagonalization with overlap
     ethr =  9.47E-06,  avg # of iterations =  7.9

     negative rho (up, down):  2.057E-02 0.000E+00
 
     Adding external electric field

     Computed dipole along edir(3) : 
        Dipole                0.3940 Ry au,          1.0014 Debye
        Dipole field          0.0007 Ry au, 
 
        Potential amp.       -0.0689 Ry
        Total length         46.3494 bohr
 

     total cpu time spent up to now is      650.9 secs

     total energy              =   -2897.72515037 Ry
     estimated scf accuracy    <       0.02354723 Ry

     iteration # 48     ecut=    29.40 Ry     beta= 0.05
     Davidson diagonalization with overlap
     ethr =  6.13E-06,  avg # of iterations =  7.6

     negative rho (up, down):  2.061E-02 0.000E+00
 
     Adding external electric field

     Computed dipole along edir(3) : 
        Dipole                0.3627 Ry au,          0.9218 Debye
        Dipole field          0.0007 Ry au, 
 
        Potential amp.       -0.0634 Ry
        Total length         46.3494 bohr
 

     total cpu time spent up to now is      656.2 secs

     total energy              =   -2897.72427448 Ry
     estimated scf accuracy    <       0.02214028 Ry

     iteration # 49     ecut=    29.40 Ry     beta= 0.05
     Davidson diagonalization with overlap
     c_bands:  2 eigenvalues not converged
     c_bands:  4 eigenvalues not converged
     ethr =  5.77E-06,  avg # of iterations =  9.9

     negative rho (up, down):  2.064E-02 0.000E+00
 
     Adding external electric field

     Computed dipole along edir(3) : 
        Dipole                0.4195 Ry au,          1.0662 Debye
        Dipole field          0.0008 Ry au, 
 
        Potential amp.       -0.0734 Ry
        Total length         46.3494 bohr
 

     total cpu time spent up to now is      666.5 secs

     total energy              =   -2897.72881630 Ry
     estimated scf accuracy    <       0.02588609 Ry

     iteration # 50     ecut=    29.40 Ry     beta= 0.05
     Davidson diagonalization with overlap
     ethr =  5.77E-06,  avg # of iterations =  5.7

     negative rho (up, down):  2.064E-02 0.000E+00
 
     Adding external electric field

     Computed dipole along edir(3) : 
        Dipole                0.5036 Ry au,          1.2801 Debye
        Dipole field          0.0010 Ry au, 
 
        Potential amp.       -0.0881 Ry
        Total length         46.3494 bohr
 

     total cpu time spent up to now is      686.7 secs

     total energy              =   -2897.72718175 Ry
     estimated scf accuracy    <       0.03464079 Ry

     iteration # 51     ecut=    29.40 Ry     beta= 0.05
     Davidson diagonalization with overlap
     ethr =  5.77E-06,  avg # of iterations =  6.6

     negative rho (up, down):  2.044E-02 0.000E+00
 
     Adding external electric field

     Computed dipole along edir(3) : 
        Dipole                0.2893 Ry au,          0.7354 Debye
        Dipole field          0.0005 Ry au, 
 
        Potential amp.       -0.0506 Ry
        Total length         46.3494 bohr
 

     total cpu time spent up to now is      691.5 secs

     total energy              =   -2897.72329761 Ry
     estimated scf accuracy    <       0.03538284 Ry

     iteration # 52     ecut=    29.40 Ry     beta= 0.05
     Davidson diagonalization with overlap
     c_bands:  4 eigenvalues not converged
     c_bands:  3 eigenvalues not converged
     c_bands:  2 eigenvalues not converged
     c_bands:  2 eigenvalues not converged
     c_bands:  4 eigenvalues not converged
     c_bands:  2 eigenvalues not converged
     c_bands:  3 eigenvalues not converged
     ethr =  5.77E-06,  avg # of iterations = 18.8

     negative rho (up, down):  2.046E-02 0.000E+00
 
     Adding external electric field

     Computed dipole along edir(3) : 
        Dipole                0.3314 Ry au,          0.8423 Debye
        Dipole field          0.0006 Ry au, 
 
        Potential amp.       -0.0580 Ry
        Total length         46.3494 bohr
 

     total cpu time spent up to now is      708.6 secs

     total energy              =   -2897.72365670 Ry
     estimated scf accuracy    <       0.01714420 Ry

     iteration # 53     ecut=    29.40 Ry     beta= 0.05
     Davidson diagonalization with overlap
     c_bands:  2 eigenvalues not converged
     ethr =  4.46E-06,  avg # of iterations = 10.5

     negative rho (up, down):  2.046E-02 0.000E+00
 
     Adding external electric field

     Computed dipole along edir(3) : 
        Dipole                0.3447 Ry au,          0.8762 Debye
        Dipole field          0.0007 Ry au, 
 
        Potential amp.       -0.0603 Ry
        Total length         46.3494 bohr
 

     total cpu time spent up to now is      719.2 secs

     total energy              =   -2897.72492772 Ry
     estimated scf accuracy    <       0.00585066 Ry

     iteration # 54     ecut=    29.40 Ry     beta= 0.05
     Davidson diagonalization with overlap
     c_bands:  2 eigenvalues not converged
     ethr =  1.52E-06,  avg # of iterations = 13.5

     negative rho (up, down):  2.044E-02 0.000E+00
 
     Adding external electric field

     Computed dipole along edir(3) : 
        Dipole                0.3380 Ry au,          0.8591 Debye
        Dipole field          0.0006 Ry au, 
 
        Potential amp.       -0.0591 Ry
        Total length         46.3494 bohr
 

     total cpu time spent up to now is      726.3 secs

     total energy              =   -2897.72473516 Ry
     estimated scf accuracy    <       0.00681812 Ry

     iteration # 55     ecut=    29.40 Ry     beta= 0.05
     Davidson diagonalization with overlap
     ethr =  1.52E-06,  avg # of iterations =  3.0

     negative rho (up, down):  2.041E-02 0.000E+00
 
     Adding external electric field

     Computed dipole along edir(3) : 
        Dipole                0.3244 Ry au,          0.8245 Debye
        Dipole field          0.0006 Ry au, 
 
        Potential amp.       -0.0567 Ry
        Total length         46.3494 bohr
 

     total cpu time spent up to now is      733.9 secs

     total energy              =   -2897.72446698 Ry
     estimated scf accuracy    <       0.00578633 Ry

     iteration # 56     ecut=    29.40 Ry     beta= 0.05
     Davidson diagonalization with overlap
     ethr =  1.51E-06,  avg # of iterations =  2.6

     negative rho (up, down):  2.039E-02 0.000E+00
 
     Adding external electric field

     Computed dipole along edir(3) : 
        Dipole                0.2900 Ry au,          0.7371 Debye
        Dipole field          0.0005 Ry au, 
 
        Potential amp.       -0.0507 Ry
        Total length         46.3494 bohr
 

     total cpu time spent up to now is      737.7 secs

     total energy              =   -2897.72422728 Ry
     estimated scf accuracy    <       0.00427432 Ry

     iteration # 57     ecut=    29.40 Ry     beta= 0.05
     Davidson diagonalization with overlap
     ethr =  1.11E-06,  avg # of iterations =  5.4

     negative rho (up, down):  2.038E-02 0.000E+00
 
     Adding external electric field

     Computed dipole along edir(3) : 
        Dipole                0.2704 Ry au,          0.6872 Debye
        Dipole field          0.0005 Ry au, 
 
        Potential amp.       -0.0473 Ry
        Total length         46.3494 bohr
 

     total cpu time spent up to now is      745.0 secs

     total energy              =   -2897.72455974 Ry
     estimated scf accuracy    <       0.00261257 Ry

     iteration # 58     ecut=    29.40 Ry     beta= 0.05
     Davidson diagonalization with overlap
     ethr =  6.80E-07,  avg # of iterations =  5.1

     negative rho (up, down):  2.039E-02 0.000E+00
 
     Adding external electric field

     Computed dipole along edir(3) : 
        Dipole                0.3096 Ry au,          0.7869 Debye
        Dipole field          0.0006 Ry au, 
 
        Potential amp.       -0.0542 Ry
        Total length         46.3494 bohr
 

     total cpu time spent up to now is      758.9 secs

     total energy              =   -2897.72390740 Ry
     estimated scf accuracy    <       0.00217158 Ry

     iteration # 59     ecut=    29.40 Ry     beta= 0.05
     Davidson diagonalization with overlap
     ethr =  5.66E-07,  avg # of iterations =  7.6

     negative rho (up, down):  2.039E-02 0.000E+00
 
     Adding external electric field

     Computed dipole along edir(3) : 
        Dipole                0.2932 Ry au,          0.7452 Debye
        Dipole field          0.0006 Ry au, 
 
        Potential amp.       -0.0513 Ry
        Total length         46.3494 bohr
 

     total cpu time spent up to now is      783.1 secs

     total energy              =   -2897.72461793 Ry
     estimated scf accuracy    <       0.00336536 Ry

     iteration # 60     ecut=    29.40 Ry     beta= 0.05
     Davidson diagonalization with overlap
     ethr =  5.66E-07,  avg # of iterations =  2.3

     negative rho (up, down):  2.039E-02 0.000E+00
 
     Adding external electric field

     Computed dipole along edir(3) : 
        Dipole                0.2858 Ry au,          0.7264 Debye
        Dipole field          0.0005 Ry au, 
 
        Potential amp.       -0.0500 Ry
        Total length         46.3494 bohr
 

     total cpu time spent up to now is      815.0 secs

     total energy              =   -2897.72412244 Ry
     estimated scf accuracy    <       0.00244499 Ry

     iteration # 61     ecut=    29.40 Ry     beta= 0.05
     Davidson diagonalization with overlap
     ethr =  5.66E-07,  avg # of iterations =  5.5

     negative rho (up, down):  2.039E-02 0.000E+00
 
     Adding external electric field

     Computed dipole along edir(3) : 
        Dipole                0.2876 Ry au,          0.7309 Debye
        Dipole field          0.0005 Ry au, 
 
        Potential amp.       -0.0503 Ry
        Total length         46.3494 bohr
 

     total cpu time spent up to now is      830.1 secs

     total energy              =   -2897.72440893 Ry
     estimated scf accuracy    <       0.00055409 Ry

     iteration # 62     ecut=    29.40 Ry     beta= 0.05
     Davidson diagonalization with overlap
     ethr =  1.44E-07,  avg # of iterations =  6.0

     negative rho (up, down):  2.039E-02 0.000E+00
 
     Adding external electric field

     Computed dipole along edir(3) : 
        Dipole                0.2867 Ry au,          0.7288 Debye
        Dipole field          0.0005 Ry au, 
 
        Potential amp.       -0.0502 Ry
        Total length         46.3494 bohr
 

     total cpu time spent up to now is      841.1 secs

     total energy              =   -2897.72447153 Ry
     estimated scf accuracy    <       0.00021279 Ry

     iteration # 63     ecut=    29.40 Ry     beta= 0.05
     Davidson diagonalization with overlap
     ethr =  5.54E-08,  avg # of iterations =  5.5

     negative rho (up, down):  2.038E-02 0.000E+00
 
     Adding external electric field

     Computed dipole along edir(3) : 
        Dipole                0.2844 Ry au,          0.7229 Debye
        Dipole field          0.0005 Ry au, 
 
        Potential amp.       -0.0498 Ry
        Total length         46.3494 bohr
 

     total cpu time spent up to now is      852.0 secs

     total energy              =   -2897.72448100 Ry
     estimated scf accuracy    <       0.00021886 Ry

     iteration # 64     ecut=    29.40 Ry     beta= 0.05
     Davidson diagonalization with overlap
     ethr =  5.54E-08,  avg # of iterations =  4.8

     negative rho (up, down):  2.037E-02 0.000E+00
 
     Adding external electric field

     Computed dipole along edir(3) : 
        Dipole                0.2760 Ry au,          0.7016 Debye
        Dipole field          0.0005 Ry au, 
 
        Potential amp.       -0.0483 Ry
        Total length         46.3494 bohr
 

     total cpu time spent up to now is      858.0 secs

     total energy              =   -2897.72450757 Ry
     estimated scf accuracy    <       0.00013627 Ry

     iteration # 65     ecut=    29.40 Ry     beta= 0.05
     Davidson diagonalization with overlap
     ethr =  3.55E-08,  avg # of iterations =  5.9

     negative rho (up, down):  2.037E-02 0.000E+00
 
     Adding external electric field

     Computed dipole along edir(3) : 
        Dipole                0.2742 Ry au,          0.6968 Debye
        Dipole field          0.0005 Ry au, 
 
        Potential amp.       -0.0480 Ry
        Total length         46.3494 bohr
 

     total cpu time spent up to now is      879.8 secs

     total energy              =   -2897.72451748 Ry
     estimated scf accuracy    <       0.00012584 Ry

     iteration # 66     ecut=    29.40 Ry     beta= 0.05
     Davidson diagonalization with overlap
     ethr =  3.28E-08,  avg # of iterations =  5.7

     negative rho (up, down):  2.039E-02 0.000E+00
 
     Adding external electric field

     Computed dipole along edir(3) : 
        Dipole                0.2871 Ry au,          0.7298 Debye
        Dipole field          0.0005 Ry au, 
 
        Potential amp.       -0.0502 Ry
        Total length         46.3494 bohr
 

     total cpu time spent up to now is      901.8 secs

     total energy              =   -2897.72451304 Ry
     estimated scf accuracy    <       0.00010438 Ry

     iteration # 67     ecut=    29.40 Ry     beta= 0.05
     Davidson diagonalization with overlap
     ethr =  2.72E-08,  avg # of iterations =  6.3

     negative rho (up, down):  2.038E-02 0.000E+00
 
     Adding external electric field

     Computed dipole along edir(3) : 
        Dipole                0.2838 Ry au,          0.7214 Debye
        Dipole field          0.0005 Ry au, 
 
        Potential amp.       -0.0496 Ry
        Total length         46.3494 bohr
 

     total cpu time spent up to now is      924.4 secs

     total energy              =   -2897.72453663 Ry
     estimated scf accuracy    <       0.00006903 Ry

     iteration # 68     ecut=    29.40 Ry     beta= 0.05
     Davidson diagonalization with overlap
     ethr =  1.80E-08,  avg # of iterations =  5.0

     negative rho (up, down):  2.038E-02 0.000E+00
 
     Adding external electric field

     Computed dipole along edir(3) : 
        Dipole                0.2833 Ry au,          0.7201 Debye
        Dipole field          0.0005 Ry au, 
 
        Potential amp.       -0.0496 Ry
        Total length         46.3494 bohr
 

     total cpu time spent up to now is      932.1 secs

     total energy              =   -2897.72453859 Ry
     estimated scf accuracy    <       0.00008232 Ry

     iteration # 69     ecut=    29.40 Ry     beta= 0.05
     Davidson diagonalization with overlap
     ethr =  1.80E-08,  avg # of iterations =  2.0

     negative rho (up, down):  2.037E-02 0.000E+00
 
     Adding external electric field

     Computed dipole along edir(3) : 
        Dipole                0.2832 Ry au,          0.7197 Debye
        Dipole field          0.0005 Ry au, 
 
        Potential amp.       -0.0495 Ry
        Total length         46.3494 bohr
 

     total cpu time spent up to now is      939.2 secs

     total energy              =   -2897.72452735 Ry
     estimated scf accuracy    <       0.00005429 Ry

     iteration # 70     ecut=    29.40 Ry     beta= 0.05
     Davidson diagonalization with overlap
     ethr =  1.41E-08,  avg # of iterations =  5.5

     negative rho (up, down):  2.037E-02 0.000E+00
 
     Adding external electric field

     Computed dipole along edir(3) : 
        Dipole                0.2839 Ry au,          0.7217 Debye
        Dipole field          0.0005 Ry au, 
 
        Potential amp.       -0.0497 Ry
        Total length         46.3494 bohr
 

     total cpu time spent up to now is      950.2 secs

     total energy              =   -2897.72453414 Ry
     estimated scf accuracy    <       0.00001449 Ry

     iteration # 71     ecut=    29.40 Ry     beta= 0.05
     Davidson diagonalization with overlap
     ethr =  3.77E-09,  avg # of iterations =  4.9

     negative rho (up, down):  2.037E-02 0.000E+00
 
     Adding external electric field

     Computed dipole along edir(3) : 
        Dipole                0.2844 Ry au,          0.7228 Debye
        Dipole field          0.0005 Ry au, 
 
        Potential amp.       -0.0497 Ry
        Total length         46.3494 bohr
 

     total cpu time spent up to now is      958.3 secs

     total energy              =   -2897.72453763 Ry
     estimated scf accuracy    <       0.00001560 Ry

     iteration # 72     ecut=    29.40 Ry     beta= 0.05
     Davidson diagonalization with overlap
     ethr =  3.77E-09,  avg # of iterations =  2.4

     negative rho (up, down):  2.037E-02 0.000E+00
 
     Adding external electric field

     Computed dipole along edir(3) : 
        Dipole                0.2846 Ry au,          0.7233 Debye
        Dipole field          0.0005 Ry au, 
 
        Potential amp.       -0.0498 Ry
        Total length         46.3494 bohr
 

     total cpu time spent up to now is      962.1 secs

     total energy              =   -2897.72453894 Ry
     estimated scf accuracy    <       0.00000556 Ry

     iteration # 73     ecut=    29.40 Ry     beta= 0.05
     Davidson diagonalization with overlap
     ethr =  1.45E-09,  avg # of iterations =  5.3

     negative rho (up, down):  2.037E-02 0.000E+00
 
     Adding external electric field

     Computed dipole along edir(3) : 
        Dipole                0.2835 Ry au,          0.7206 Debye
        Dipole field          0.0005 Ry au, 
 
        Potential amp.       -0.0496 Ry
        Total length         46.3494 bohr
 

     total cpu time spent up to now is      968.5 secs

     total energy              =   -2897.72454090 Ry
     estimated scf accuracy    <       0.00000928 Ry

     iteration # 74     ecut=    29.40 Ry     beta= 0.05
     Davidson diagonalization with overlap
     ethr =  1.45E-09,  avg # of iterations =  4.8

     negative rho (up, down):  2.037E-02 0.000E+00
 
     Adding external electric field

     Computed dipole along edir(3) : 
        Dipole                0.2834 Ry au,          0.7203 Debye
        Dipole field          0.0005 Ry au, 
 
        Potential amp.       -0.0496 Ry
        Total length         46.3494 bohr
 

     total cpu time spent up to now is      983.3 secs

     total energy              =   -2897.72454333 Ry
     estimated scf accuracy    <       0.00000293 Ry

     iteration # 75     ecut=    29.40 Ry     beta= 0.05
     Davidson diagonalization with overlap
     ethr =  7.63E-10,  avg # of iterations =  5.0

     negative rho (up, down):  2.037E-02 0.000E+00
 
     Adding external electric field

     Computed dipole along edir(3) : 
        Dipole                0.2837 Ry au,          0.7212 Debye
        Dipole field          0.0005 Ry au, 
 
        Potential amp.       -0.0496 Ry
        Total length         46.3494 bohr
 

     total cpu time spent up to now is     1011.8 secs

     total energy              =   -2897.72454445 Ry
     estimated scf accuracy    <       0.00000122 Ry

     iteration # 76     ecut=    29.40 Ry     beta= 0.05
     Davidson diagonalization with overlap
     ethr =  3.17E-10,  avg # of iterations =  6.0

     negative rho (up, down):  2.037E-02 0.000E+00
 
     Adding external electric field

     Computed dipole along edir(3) : 
        Dipole                0.2832 Ry au,          0.7199 Debye
        Dipole field          0.0005 Ry au, 
 
        Potential amp.       -0.0495 Ry
        Total length         46.3494 bohr
 

     total cpu time spent up to now is     1029.7 secs

     total energy              =   -2897.72454556 Ry
     estimated scf accuracy    <       0.00000125 Ry

     iteration # 77     ecut=    29.40 Ry     beta= 0.05
     Davidson diagonalization with overlap
     ethr =  3.17E-10,  avg # of iterations =  5.1

     negative rho (up, down):  2.037E-02 0.000E+00
 
     Adding external electric field

     Computed dipole along edir(3) : 
        Dipole                0.2831 Ry au,          0.7196 Debye
        Dipole field          0.0005 Ry au, 
 
        Potential amp.       -0.0495 Ry
        Total length         46.3494 bohr
 

     total cpu time spent up to now is     1038.1 secs

     total energy              =   -2897.72454653 Ry
     estimated scf accuracy    <       0.00000078 Ry

     iteration # 78     ecut=    29.40 Ry     beta= 0.05
     Davidson diagonalization with overlap
     ethr =  2.03E-10,  avg # of iterations =  1.2

     negative rho (up, down):  2.037E-02 0.000E+00
 
     Adding external electric field

     Computed dipole along edir(3) : 
        Dipole                0.2832 Ry au,          0.7199 Debye
        Dipole field          0.0005 Ry au, 
 
        Potential amp.       -0.0495 Ry
        Total length         46.3494 bohr
 

     total cpu time spent up to now is     1042.5 secs

     total energy              =   -2897.72454718 Ry
     estimated scf accuracy    <       0.00000043 Ry

     iteration # 79     ecut=    29.40 Ry     beta= 0.05
     Davidson diagonalization with overlap
     ethr =  1.12E-10,  avg # of iterations =  5.5

     negative rho (up, down):  2.037E-02 0.000E+00
 
     Adding external electric field

     Computed dipole along edir(3) : 
        Dipole                0.2832 Ry au,          0.7197 Debye
        Dipole field          0.0005 Ry au, 
 
        Potential amp.       -0.0495 Ry
        Total length         46.3494 bohr
 

     total cpu time spent up to now is     1068.7 secs

     total energy              =   -2897.72454795 Ry
     estimated scf accuracy    <       0.00000024 Ry

     iteration # 80     ecut=    29.40 Ry     beta= 0.05
     Davidson diagonalization with overlap
     ethr =  6.15E-11,  avg # of iterations =  4.0

     negative rho (up, down):  2.038E-02 0.000E+00
 
     Adding external electric field

     Computed dipole along edir(3) : 
        Dipole                0.2834 Ry au,          0.7204 Debye
        Dipole field          0.0005 Ry au, 
 
        Potential amp.       -0.0496 Ry
        Total length         46.3494 bohr
 

     total cpu time spent up to now is     1095.6 secs

     End of self-consistent calculation

          k = 0.0000 0.0000 0.0000 ( 18029 PWs)   bands (ev):

   -56.6526 -56.6185 -56.3991 -56.3625 -56.3262 -56.2735 -56.0913 -56.0855
   -56.0516 -55.9842 -55.9585 -55.9203 -55.5528 -55.4714 -55.4374 -55.4275
   -33.0821 -32.9454 -32.9015 -32.8727 -32.8432 -32.7770 -32.7516 -32.7231
   -32.7086 -32.6436 -32.6252 -32.5989 -32.5908 -32.5671 -32.5617 -32.5518
   -32.5483 -32.5305 -32.4589 -32.4543 -32.3878 -32.3488 -32.3371 -32.3258
   -32.3084 -32.3080 -32.2366 -32.2243 -32.2153 -32.1962 -32.1951 -32.1591
   -32.1500 -32.1366 -32.1125 -32.0575 -32.0198 -31.8729 -31.8612 -31.8070
   -31.7949 -31.7712 -31.7466 -31.6911 -31.6061 -31.6046 -31.4941 -31.4745
   -17.0504 -16.8384 -16.6270 -16.4780 -16.3966 -16.3443 -16.0508 -16.0335
   -16.0246 -15.9246 -15.9130 -15.8602 -15.8261 -15.8228 -15.8144 -15.8072
   -15.7722 -15.7290 -15.6969 -15.6615 -15.6286 -15.5946 -15.5044 -15.4659
   -15.4471 -15.3223 -15.2647 -15.2306 -15.0949 -13.9644 -13.8499  -8.3916
    -4.4329  -4.3838  -4.2313  -4.2227  -4.1030  -3.8887  -3.7064  -3.5189
    -3.4877  -3.4583  -3.4523  -3.3483  -3.2952  -3.1849  -3.1840  -3.1522
    -3.1383  -3.1064  -3.0848  -3.0804  -3.0393  -3.0206  -2.9572  -2.9148
    -2.9053  -2.8483  -2.7683  -2.6748  -2.6554  -2.6270  -2.5943  -2.5556
    -2.5379  -2.4393  -2.4327  -2.3669  -2.2319  -2.2094  -2.1617  -2.1332
    -2.1013  -2.0621  -1.9246  -1.7859  -1.7423  -1.7260  -1.6951  -1.6851
    -1.6550  -1.5323  -1.4901  -1.3903  -1.3592  -1.2476  -1.2346  -1.2175
    -1.2021  -1.1715  -1.1027  -1.0756  -1.0406  -0.9594  -0.8977  -0.7675
    -0.7340  -0.7153  -0.6866  -0.6792  -0.6208  -0.5789  -0.5210  -0.5110
    -0.4516  -0.4094  -0.3926  -0.3770  -0.3514  -0.2927  -0.2169  -0.1959
    -0.1323  -0.0950   0.1024   0.1434   0.1692   0.1811   0.2689   0.3018
     0.4792   0.4930   0.5574   0.7601   0.7990   1.1508   1.2302   1.7150
     2.6108   2.7909   2.9852   3.0432   3.0876   3.1675   3.2217   3.2998
     3.3327   3.4550

          k = 0.0000 0.0419 0.0000 ( 17933 PWs)   bands (ev):

   -56.6477 -56.6233 -56.3939 -56.3675 -56.3231 -56.2764 -56.0898 -56.0805
   -56.0565 -55.9855 -55.9539 -55.9248 -55.5516 -55.4663 -55.4423 -55.4286
   -33.0287 -32.8974 -32.8883 -32.8763 -32.8298 -32.7649 -32.7644 -32.7233
   -32.7106 -32.6515 -32.6359 -32.5925 -32.5912 -32.5804 -32.5596 -32.5399
   -32.5154 -32.5061 -32.4663 -32.4447 -32.4031 -32.3339 -32.3324 -32.3213
   -32.3114 -32.3056 -32.2553 -32.2516 -32.2249 -32.2216 -32.2110 -32.1871
   -32.1477 -32.1347 -32.1246 -32.1147 -31.9803 -31.8596 -31.8192 -31.8081
   -31.7913 -31.7745 -31.7425 -31.6787 -31.6403 -31.6184 -31.5510 -31.4852
   -16.9172 -16.7169 -16.5186 -16.3715 -16.3163 -16.2934 -16.2011 -16.0690
   -16.0116 -15.9742 -15.9278 -15.9244 -15.8540 -15.8096 -15.8022 -15.7556
   -15.7533 -15.7006 -15.6919 -15.6878 -15.6419 -15.5945 -15.5554 -15.5159
   -15.4503 -15.3770 -15.3335 -15.2880 -15.1601 -13.9693 -13.8897  -8.3936
    -4.2456  -4.2050  -4.0708  -4.0491  -3.9472  -3.6470  -3.5633  -3.5404
    -3.4851  -3.3938  -3.3566  -3.3305  -3.2990  -3.2891  -3.2535  -3.2180
    -3.2088  -3.1622  -3.1354  -3.0952  -3.0919  -3.0577  -3.0218  -2.9702
    -2.9266  -2.9137  -2.8561  -2.8269  -2.8088  -2.7215  -2.6573  -2.6089
    -2.5922  -2.4303  -2.3944  -2.3024  -2.2561  -2.2238  -2.0895  -2.0651
    -2.0322  -1.9361  -1.8912  -1.7383  -1.6829  -1.6461  -1.5603  -1.4697
    -1.4339  -1.4314  -1.3796  -1.3345  -1.3051  -1.2704  -1.2529  -1.2480
    -1.1786  -1.1618  -1.0878  -1.0737  -1.0359  -0.9948  -0.9359  -0.9022
    -0.8902  -0.8465  -0.7885  -0.7769  -0.7048  -0.6463  -0.6046  -0.5448
    -0.5331  -0.4812  -0.4278  -0.4021  -0.3948  -0.3418  -0.2771  -0.2430
    -0.1707  -0.1057  -0.0498  -0.0049   0.1069   0.1149   0.1585   0.1922
     0.2243   0.4175   0.6631   0.7609   0.8375   1.0849   1.1433   1.8231
     2.8780   2.9136   2.9772   3.0878   3.1029   3.2591   3.2791   3.3073
     3.3480   3.3564

          k = 0.0000-0.0839 0.0000 ( 17884 PWs)   bands (ev):

   -56.6382 -56.6327 -56.3845 -56.3769 -56.3197 -56.2797 -56.0883 -56.0693
   -56.0676 -55.9869 -55.9469 -55.9316 -55.5504 -55.4543 -55.4542 -55.4298
   -32.9004 -32.8958 -32.8900 -32.8832 -32.7997 -32.7950 -32.7528 -32.7465
   -32.6865 -32.6733 -32.6156 -32.6096 -32.5859 -32.5785 -32.5718 -32.5624
   -32.5212 -32.4848 -32.4164 -32.3859 -32.3849 -32.3302 -32.3229 -32.3198
   -32.3051 -32.2967 -32.2953 -32.2928 -32.2713 -32.2589 -32.2280 -32.2177
   -32.1592 -32.1474 -32.1456 -32.1332 -31.9284 -31.8580 -31.8092 -31.7827
   -31.7826 -31.7308 -31.6986 -31.6870 -31.6869 -31.6487 -31.6486 -31.4940
   -16.5929 -16.5687 -16.4243 -16.4179 -16.2896 -16.2825 -16.1539 -16.1431
   -16.0671 -16.0562 -15.9912 -15.9889 -15.8311 -15.8308 -15.8266 -15.8210
   -15.6865 -15.6751 -15.6392 -15.6371 -15.5875 -15.5852 -15.5352 -15.5098
   -15.5087 -15.4850 -15.4179 -15.4079 -15.2402 -13.9525 -13.9521  -8.3956
    -3.8242  -3.7883  -3.7679  -3.7655  -3.6997  -3.6842  -3.6267  -3.6160
    -3.6112  -3.6018  -3.4071  -3.3993  -3.3733  -3.3668  -3.3165  -3.3156
    -3.2835  -3.1865  -3.1732  -3.1201  -3.1153  -3.0982  -3.0361  -3.0124
    -2.9286  -2.9234  -2.9208  -2.8127  -2.7351  -2.7082  -2.6778  -2.6346
    -2.3413  -2.3278  -2.3095  -2.2731  -2.1130  -2.0971  -2.0520  -2.0318
    -1.9261  -1.8951  -1.8806  -1.8265  -1.8113  -1.7790  -1.7521  -1.7053
    -1.6441  -1.4725  -1.4679  -1.4563  -1.4263  -1.2996  -1.0883  -1.0536
    -1.0292  -1.0042  -0.9585  -0.9041  -0.8714  -0.8597  -0.8327  -0.8189
    -0.8111  -0.8032  -0.7993  -0.7815  -0.7801  -0.7415  -0.6916  -0.6662
    -0.6615  -0.6243  -0.6079  -0.5241  -0.4940  -0.4635  -0.4574  -0.4356
    -0.3099  -0.2722  -0.1299  -0.1160  -0.1047  -0.0759   0.2207   0.2871
     0.3322   0.4335   0.4414   0.8972   0.8982   1.0437   1.0440   1.9582
     3.0323   3.0417   3.0889   3.0939   3.2419   3.2489   3.2510   3.2581
     3.3087   3.3893

          k = 0.0380 0.0000 0.0000 ( 17913 PWs)   bands (ev):

   -56.6525 -56.6184 -56.3990 -56.3623 -56.3260 -56.2734 -56.0912 -56.0854
   -56.0515 -55.9841 -55.9585 -55.9202 -55.5527 -55.4713 -55.4373 -55.4274
   -33.0828 -32.9454 -32.9013 -32.8726 -32.8409 -32.7779 -32.7513 -32.7230
   -32.7083 -32.6435 -32.6250 -32.5949 -32.5915 -32.5865 -32.5686 -32.5493
   -32.5303 -32.5198 -32.4595 -32.4540 -32.3875 -32.3380 -32.3354 -32.3320
   -32.3085 -32.3079 -32.2344 -32.2241 -32.2157 -32.1964 -32.1951 -32.1591
   -32.1588 -32.1365 -32.1124 -32.0574 -32.0194 -31.8724 -31.8627 -31.8064
   -31.7976 -31.7693 -31.7464 -31.6909 -31.6060 -31.6044 -31.4938 -31.4743
   -16.9875 -16.7338 -16.5418 -16.4169 -16.3825 -16.3437 -16.1916 -16.1185
   -16.0233 -15.9766 -15.9728 -15.9473 -15.8659 -15.8573 -15.8403 -15.8010
   -15.7419 -15.6915 -15.6862 -15.6708 -15.5730 -15.5572 -15.5242 -15.4415
   -15.4320 -15.3886 -15.2656 -15.2260 -15.0932 -13.9613 -13.8496  -8.3872
    -4.3610  -4.1257  -4.0069  -3.9980  -3.8700  -3.8620  -3.7650  -3.7090
    -3.6104  -3.4847  -3.4683  -3.4386  -3.3367  -3.2915  -3.2419  -3.1821
    -3.1272  -3.0804  -3.0530  -2.9921  -2.9450  -2.9243  -2.9159  -2.8304
    -2.8095  -2.8022  -2.7665  -2.5918  -2.5822  -2.5523  -2.5455  -2.4540
    -2.4327  -2.3997  -2.3400  -2.2637  -2.2329  -2.1815  -2.1646  -2.1413
    -2.0596  -2.0088  -1.9537  -1.9185  -1.8624  -1.8171  -1.7601  -1.6993
    -1.6618  -1.6146  -1.5541  -1.5445  -1.4003  -1.3389  -1.3181  -1.2137
    -1.1792  -1.1490  -1.1211  -1.0960  -1.0560  -1.0186  -0.9548  -0.8629
    -0.7907  -0.7709  -0.7325  -0.7091  -0.6739  -0.6358  -0.5665  -0.5486
    -0.5374  -0.4899  -0.4768  -0.4285  -0.3993  -0.2443  -0.2072  -0.1755
    -0.1363  -0.0963  -0.0196  -0.0126   0.0170   0.1134   0.1891   0.3056
     0.3989   0.5007   0.5693   0.6687   0.7315   1.0314   1.1271   1.7232
     2.7962   2.8172   3.1329   3.1877   3.1935   3.2204   3.2639   3.2700
     3.2818   3.3589

          k = 0.0380 0.0419 0.0000 ( 17878 PWs)   bands (ev):

   -56.6476 -56.6233 -56.3939 -56.3674 -56.3230 -56.2763 -56.0898 -56.0804
   -56.0564 -55.9855 -55.9539 -55.9247 -55.5516 -55.4663 -55.4423 -55.4286
   -33.0295 -32.8972 -32.8883 -32.8763 -32.8279 -32.7646 -32.7645 -32.7241
   -32.7105 -32.6515 -32.6358 -32.5918 -32.5871 -32.5802 -32.5729 -32.5379
   -32.5182 -32.4909 -32.4659 -32.4448 -32.4039 -32.3326 -32.3262 -32.3226
   -32.3115 -32.3060 -32.2533 -32.2503 -32.2255 -32.2222 -32.2106 -32.1869
   -32.1553 -32.1372 -32.1247 -32.1145 -31.9801 -31.8607 -31.8189 -31.8081
   -31.7934 -31.7735 -31.7424 -31.6786 -31.6402 -31.6185 -31.5509 -31.4852
   -16.8607 -16.6189 -16.4394 -16.3201 -16.3037 -16.2826 -16.2079 -16.1625
   -16.0532 -15.9656 -15.9645 -15.9213 -15.8907 -15.8259 -15.7979 -15.7961
   -15.7819 -15.7650 -15.7296 -15.7060 -15.6009 -15.5713 -15.5470 -15.5167
   -15.4466 -15.4299 -15.3360 -15.2830 -15.1588 -13.9671 -13.8900  -8.3909
    -4.1882  -3.9472  -3.8403  -3.8221  -3.7113  -3.6462  -3.6098  -3.5432
    -3.5011  -3.4455  -3.3544  -3.3308  -3.2899  -3.2634  -3.2105  -3.1946
    -3.1539  -3.1408  -3.0991  -3.0733  -3.0516  -3.0124  -2.9725  -2.9508
    -2.9138  -2.8482  -2.8276  -2.8024  -2.7665  -2.6710  -2.6421  -2.5573
    -2.5422  -2.4168  -2.3895  -2.3203  -2.2369  -2.1979  -2.1290  -2.0784
    -1.9945  -1.8755  -1.8127  -1.7721  -1.7326  -1.6936  -1.6507  -1.5921
    -1.5463  -1.5271  -1.5054  -1.4444  -1.4168  -1.3930  -1.2831  -1.2493
    -1.2130  -1.1961  -1.1868  -1.1583  -1.1231  -1.1021  -1.0499  -0.9873
    -0.9445  -0.9158  -0.8968  -0.8623  -0.7694  -0.7317  -0.7107  -0.6712
    -0.6243  -0.5910  -0.4800  -0.4561  -0.3743  -0.3496  -0.2435  -0.1754
    -0.1223  -0.0819  -0.0486  -0.0023   0.0483   0.0583   0.1687   0.1817
     0.2344   0.3957   0.6180   0.7765   0.8443   1.0068   1.1050   1.8351
     2.9011   3.0552   3.0712   3.1317   3.1975   3.2364   3.2535   3.3163
     3.3579   3.3944

          k = 0.0380-0.0839 0.0000 ( 17916 PWs)   bands (ev):

   -56.6382 -56.6327 -56.3845 -56.3769 -56.3197 -56.2797 -56.0884 -56.0693
   -56.0676 -55.9869 -55.9470 -55.9317 -55.5504 -55.4543 -55.4543 -55.4298
   -32.9010 -32.8964 -32.8900 -32.8832 -32.7988 -32.7941 -32.7530 -32.7466
   -32.6866 -32.6735 -32.6161 -32.6097 -32.5861 -32.5783 -32.5717 -32.5630
   -32.5202 -32.4838 -32.4126 -32.3891 -32.3882 -32.3310 -32.3229 -32.3198
   -32.3066 -32.2934 -32.2907 -32.2890 -32.2677 -32.2569 -32.2310 -32.2177
   -32.1593 -32.1515 -32.1474 -32.1385 -31.9284 -31.8587 -31.8099 -31.7834
   -31.7834 -31.7308 -31.6986 -31.6869 -31.6868 -31.6487 -31.6486 -31.4940
   -16.5581 -16.5328 -16.3627 -16.3556 -16.2471 -16.2397 -16.1088 -16.0973
   -16.0556 -16.0511 -15.9642 -15.9612 -15.9431 -15.9418 -15.8042 -15.7997
   -15.7755 -15.7649 -15.7109 -15.7073 -15.5981 -15.5947 -15.5501 -15.5356
   -15.4991 -15.4618 -15.4136 -15.4021 -15.2376 -13.9523 -13.9519  -8.3946
    -3.8220  -3.7845  -3.5647  -3.5633  -3.5125  -3.5082  -3.4809  -3.4702
    -3.4117  -3.3961  -3.3242  -3.3088  -3.2945  -3.2791  -3.2306  -3.2121
    -3.2067  -3.1660  -3.1429  -3.1046  -3.1026  -3.0576  -3.0387  -3.0068
    -2.9661  -2.9541  -2.9164  -2.8509  -2.8278  -2.7380  -2.4320  -2.4053
    -2.3938  -2.3600  -2.2736  -2.2613  -2.2587  -2.2091  -2.1819  -2.1256
    -2.1136  -2.0615  -2.0071  -1.9523  -1.9241  -1.8197  -1.7741  -1.7613
    -1.7344  -1.5387  -1.5229  -1.4592  -1.4358  -1.2855  -1.2382  -1.2157
    -1.2058  -1.1446  -1.1220  -1.1028  -1.0871  -1.0478  -1.0026  -0.9845
    -0.9695  -0.9507  -0.9486  -0.8950  -0.8641  -0.8517  -0.8237  -0.7718
    -0.7495  -0.5793  -0.5631  -0.4746  -0.4476  -0.3677  -0.3330  -0.2488
    -0.1879  -0.1248  -0.0878  -0.0751  -0.0037   0.0002   0.1748   0.2830
     0.3389   0.4156   0.4263   0.9144   0.9152   1.0298   1.0306   1.9740
     3.0379   3.0426   3.0858   3.0887   3.2012   3.2100   3.2777   3.2791
     3.4683   3.5016

          k = 0.0380-0.0419 0.0000 ( 17876 PWs)   bands (ev):

   -56.6476 -56.6233 -56.3939 -56.3674 -56.3230 -56.2763 -56.0898 -56.0804
   -56.0564 -55.9855 -55.9539 -55.9247 -55.5516 -55.4663 -55.4423 -55.4286
   -33.0294 -32.8972 -32.8883 -32.8763 -32.8279 -32.7646 -32.7645 -32.7241
   -32.7105 -32.6515 -32.6358 -32.5918 -32.5871 -32.5803 -32.5726 -32.5379
   -32.5182 -32.4909 -32.4658 -32.4448 -32.4039 -32.3326 -32.3263 -32.3227
   -32.3115 -32.3060 -32.2532 -32.2502 -32.2255 -32.2222 -32.2105 -32.1869
   -32.1553 -32.1372 -32.1247 -32.1145 -31.9801 -31.8608 -31.8189 -31.8081
   -31.7934 -31.7735 -31.7424 -31.6786 -31.6402 -31.6185 -31.5509 -31.4852
   -16.8608 -16.6188 -16.4394 -16.3201 -16.3038 -16.2829 -16.2076 -16.1628
   -16.0532 -15.9667 -15.9634 -15.9196 -15.8902 -15.8267 -15.7975 -15.7966
   -15.7816 -15.7657 -15.7298 -15.7073 -15.6000 -15.5714 -15.5465 -15.5164
   -15.4477 -15.4295 -15.3363 -15.2830 -15.1588 -13.9671 -13.8900  -8.3909
    -4.1880  -3.9466  -3.8430  -3.8206  -3.7113  -3.6494  -3.6066  -3.5419
    -3.5003  -3.4440  -3.3512  -3.3319  -3.2877  -3.2531  -3.2093  -3.1976
    -3.1516  -3.1376  -3.1056  -3.0793  -3.0576  -3.0035  -2.9759  -2.9523
    -2.9139  -2.8468  -2.8339  -2.7960  -2.7671  -2.6753  -2.6395  -2.5523
    -2.5382  -2.4289  -2.3831  -2.3209  -2.2551  -2.2017  -2.1180  -2.0838
    -1.9941  -1.8769  -1.8134  -1.7728  -1.7372  -1.6919  -1.6460  -1.5924
    -1.5483  -1.5229  -1.5078  -1.4434  -1.4139  -1.3815  -1.2841  -1.2414
    -1.2132  -1.2034  -1.1908  -1.1493  -1.1213  -1.0986  -1.0369  -0.9960
    -0.9664  -0.9278  -0.9123  -0.8549  -0.7770  -0.7366  -0.7021  -0.6599
    -0.6368  -0.5809  -0.4768  -0.4588  -0.3836  -0.3495  -0.2286  -0.1814
    -0.1166  -0.0815  -0.0500  -0.0072   0.0514   0.0732   0.1699   0.1833
     0.2321   0.3973   0.6182   0.7764   0.8455   1.0065   1.1059   1.8362
     2.9026   3.0601   3.0637   3.1308   3.2050   3.2382   3.2405   3.3117
     3.3502   3.3988

          k =-0.0760-0.0000 0.0000 ( 17886 PWs)   bands (ev):

   -56.6524 -56.6184 -56.3989 -56.3623 -56.3260 -56.2734 -56.0912 -56.0853
   -56.0515 -55.9841 -55.9584 -55.9202 -55.5527 -55.4712 -55.4373 -55.4274
   -33.0836 -32.9455 -32.9012 -32.8725 -32.8386 -32.7787 -32.7516 -32.7228
   -32.7083 -32.6434 -32.6249 -32.6055 -32.5901 -32.5837 -32.5709 -32.5468
   -32.5302 -32.5058 -32.4601 -32.4542 -32.3875 -32.3393 -32.3367 -32.3218
   -32.3085 -32.3078 -32.2330 -32.2239 -32.2164 -32.1977 -32.1952 -32.1713
   -32.1588 -32.1350 -32.1123 -32.0576 -32.0191 -31.8721 -31.8645 -31.8061
   -31.8002 -31.7681 -31.7463 -31.6909 -31.6059 -31.6044 -31.4939 -31.4743
   -16.9131 -16.5503 -16.4599 -16.4170 -16.3485 -16.3354 -16.2748 -16.1135
   -16.0691 -16.0515 -16.0312 -16.0195 -15.9670 -15.9443 -15.8770 -15.7953
   -15.7231 -15.6796 -15.6548 -15.6476 -15.6345 -15.5440 -15.4927 -15.4593
   -15.4290 -15.3455 -15.2668 -15.2237 -15.0920 -13.9584 -13.8492  -8.3830
    -4.3474  -3.8920  -3.8504  -3.7949  -3.7644  -3.7450  -3.7430  -3.6418
    -3.6052  -3.5889  -3.4705  -3.3969  -3.3535  -3.2398  -3.2084  -3.0901
    -3.0811  -3.0108  -2.9905  -2.9561  -2.9256  -2.8602  -2.8244  -2.8164
    -2.7683  -2.7080  -2.6548  -2.5975  -2.5571  -2.5503  -2.5314  -2.5038
    -2.4646  -2.4355  -2.4139  -2.3786  -2.1716  -2.1484  -2.0863  -2.0826
    -2.0430  -2.0313  -1.9861  -1.9382  -1.9278  -1.8985  -1.7565  -1.7269
    -1.6948  -1.6727  -1.6301  -1.5831  -1.5309  -1.5107  -1.4719  -1.4615
    -1.2632  -1.1492  -1.0926  -1.0879  -1.0654  -1.0472  -1.0416  -0.9229
    -0.9116  -0.8270  -0.7938  -0.7815  -0.7351  -0.7194  -0.5926  -0.5756
    -0.5438  -0.5277  -0.4947  -0.4678  -0.4221  -0.4030  -0.2414  -0.1704
    -0.1204  -0.1010  -0.0515   0.0617   0.0971   0.1938   0.2025   0.2393
     0.2998   0.4497   0.5482   0.5923   0.7096   0.8862   1.0382   1.7260
     2.8149   2.9372   2.9468   3.0626   3.1352   3.2038   3.2267   3.3582
     3.3829   3.4072

          k =-0.0760 0.0419 0.0000 ( 17914 PWs)   bands (ev):

   -56.6476 -56.6233 -56.3939 -56.3675 -56.3231 -56.2763 -56.0898 -56.0804
   -56.0565 -55.9855 -55.9539 -55.9248 -55.5516 -55.4663 -55.4423 -55.4286
   -33.0304 -32.8972 -32.8885 -32.8764 -32.8263 -32.7648 -32.7646 -32.7251
   -32.7106 -32.6515 -32.6357 -32.5924 -32.5854 -32.5806 -32.5785 -32.5361
   -32.5211 -32.4796 -32.4657 -32.4451 -32.4048 -32.3328 -32.3316 -32.3115
   -32.3098 -32.3063 -32.2566 -32.2456 -32.2266 -32.2226 -32.2103 -32.1870
   -32.1648 -32.1388 -32.1247 -32.1146 -31.9799 -31.8622 -31.8187 -31.8083
   -31.7956 -31.7728 -31.7424 -31.6786 -31.6402 -31.6185 -31.5509 -31.4852
   -16.7949 -16.4295 -16.3771 -16.3100 -16.3052 -16.2545 -16.2401 -16.1872
   -16.0513 -16.0236 -15.9943 -15.9492 -15.9270 -15.9170 -15.8729 -15.8111
   -15.7938 -15.7432 -15.7420 -15.7001 -15.6938 -15.5487 -15.5438 -15.4862
   -15.4444 -15.4333 -15.3417 -15.2804 -15.1580 -13.9651 -13.8903  -8.3884
    -4.1787  -3.6643  -3.6291  -3.6154  -3.5522  -3.5401  -3.4806  -3.4612
    -3.4422  -3.3896  -3.3730  -3.3554  -3.2628  -3.2496  -3.1956  -3.1609
    -3.1527  -3.0623  -3.0463  -2.9939  -2.9867  -2.9791  -2.9654  -2.9575
    -2.9266  -2.8727  -2.7539  -2.7518  -2.6992  -2.6589  -2.5613  -2.4956
    -2.3892  -2.3819  -2.3479  -2.3354  -2.3126  -2.2779  -2.1736  -2.0073
    -1.9651  -1.9322  -1.9154  -1.8334  -1.7844  -1.7358  -1.7122  -1.7021
    -1.6538  -1.6009  -1.5833  -1.5731  -1.5624  -1.5167  -1.5051  -1.4253
    -1.3723  -1.3341  -1.3134  -1.2675  -1.2074  -1.1491  -1.1301  -1.0964
    -1.0707  -1.0527  -1.0276  -0.9478  -0.8849  -0.7735  -0.7393  -0.7213
    -0.6889  -0.6219  -0.4772  -0.4006  -0.3690  -0.2764  -0.2362  -0.1716
    -0.1471  -0.0612   0.0130   0.0995   0.1125   0.1211   0.2142   0.2190
     0.2866   0.3341   0.4842   0.7942   0.8504   0.9382   1.0764   1.8481
     2.8871   2.9990   3.0693   3.1037   3.1184   3.1940   3.2033   3.3225
     3.4089   3.4491

          k =-0.0760-0.0839 0.0000 ( 17948 PWs)   bands (ev):

   -56.6383 -56.6327 -56.3845 -56.3769 -56.3197 -56.2798 -56.0884 -56.0693
   -56.0676 -55.9870 -55.9470 -55.9317 -55.5504 -55.4543 -55.4543 -55.4298
   -32.9017 -32.8971 -32.8901 -32.8833 -32.7979 -32.7932 -32.7532 -32.7468
   -32.6868 -32.6736 -32.6167 -32.6098 -32.5862 -32.5784 -32.5712 -32.5637
   -32.5191 -32.4827 -32.4087 -32.3919 -32.3911 -32.3318 -32.3229 -32.3198
   -32.3079 -32.2931 -32.2878 -32.2842 -32.2620 -32.2532 -32.2341 -32.2174
   -32.1593 -32.1582 -32.1474 -32.1446 -31.9284 -31.8594 -31.8106 -31.7841
   -31.7841 -31.7308 -31.6986 -31.6869 -31.6868 -31.6487 -31.6487 -31.4940
   -16.5195 -16.4923 -16.2736 -16.2601 -16.1501 -16.1475 -16.1352 -16.1341
   -16.0457 -16.0414 -15.9952 -15.9750 -15.9172 -15.9048 -15.8636 -15.8621
   -15.8402 -15.8388 -15.7973 -15.7947 -15.6520 -15.6503 -15.5380 -15.5304
   -15.4928 -15.4510 -15.4108 -15.3982 -15.2353 -13.9521 -13.9517  -8.3936
    -3.8230  -3.7857  -3.4878  -3.4795  -3.2794  -3.2762  -3.2576  -3.2487
    -3.2288  -3.2015  -3.1976  -3.1861  -3.1479  -3.1069  -3.0844  -3.0660
    -3.0548  -3.0469  -3.0423  -3.0413  -3.0213  -3.0022  -2.9873  -2.9625
    -2.9027  -2.8917  -2.8680  -2.8589  -2.7761  -2.6314  -2.5646  -2.5586
    -2.5487  -2.5283  -2.4878  -2.3981  -2.3935  -2.3568  -2.3497  -2.3308
    -2.1375  -2.0728  -2.0694  -2.0077  -1.9789  -1.8752  -1.7273  -1.6952
    -1.6720  -1.6484  -1.5659  -1.5267  -1.5128  -1.4894  -1.4817  -1.4545
    -1.4443  -1.3590  -1.3499  -1.3173  -1.2715  -1.2099  -1.2057  -1.1842
    -1.1641  -1.0650  -0.9954  -0.9795  -0.9651  -0.9232  -0.8542  -0.8042
    -0.7633  -0.6752  -0.6593  -0.3909  -0.3890  -0.2533  -0.2413  -0.1132
    -0.1009  -0.0083   0.0227   0.0670   0.1816   0.1958   0.2006   0.2262
     0.3274   0.3287   0.3622   0.9411   0.9413   1.0068   1.0081   1.9898
     3.0333   3.0503   3.1319   3.1493   3.1538   3.1713   3.2154   3.2180
     3.5122   3.5245

     the Fermi energy is     2.3272 ev

!    total energy              =   -2897.72455429 Ry
     estimated scf accuracy    <       0.00000007 Ry
     smearing contrib. (-TS)   =      -0.00186090 Ry
     internal energy E=F+TS    =   -2897.72269339 Ry

     The total energy is F=E-TS. E is the sum of the following terms:
     one-electron contribution =  -24684.99740683 Ry
     hartree contribution      =   12420.45233663 Ry
     xc contribution           =    -473.85560318 Ry
     ewald contribution        =    9840.67782841 Ry
     electric field correction =       0.00015158 Ry

     convergence has been achieved in  80 iterations

     Forces acting on atoms (cartesian axes, Ry/au):

     atom    1 type  1   force =     0.00029793   -0.00004333    0.14818268
     atom    2 type  1   force =     0.00005501   -0.00032667   -0.17144322
     atom    3 type  2   force =    -0.00004660    0.00265435   -0.05991530
     atom    4 type  2   force =    -0.00032688   -0.00141447    0.04062521
     atom    5 type  2   force =    -0.02536723    0.00094218    0.00494197
     atom    6 type  2   force =     0.02287707    0.00011956    0.00299003
     atom    7 type  1   force =    -0.00051361   -0.00071948   -0.00013227
     atom    8 type  1   force =     0.00074155   -0.00041278    0.00041654
     atom    9 type  2   force =     0.00089789   -0.00028383    0.00032707
     atom   10 type  2   force =    -0.00010022   -0.00000718   -0.00023497
     atom   11 type  2   force =    -0.00014637    0.00004300    0.00014182
     atom   12 type  2   force =     0.00017861    0.00011648    0.00010045
     atom   13 type  1   force =     0.00003896   -0.00100647    0.00033203
     atom   14 type  1   force =    -0.00005676   -0.00114283   -0.00031136
     atom   15 type  2   force =     0.00056831   -0.00032356   -0.00051349
     atom   16 type  2   force =     0.00003324    0.00015305    0.00038909
     atom   17 type  2   force =     0.00133152    0.00024341    0.00043339
     atom   18 type  2   force =    -0.00052630   -0.00036089    0.00018411
     atom   19 type  1   force =     0.00022981   -0.00027194    0.00012425
     atom   20 type  1   force =     0.00016700   -0.00010548    0.00038522
     atom   21 type  2   force =     0.00014216   -0.00010231    0.10275419
     atom   22 type  2   force =     0.00003907   -0.00016070   -0.00027584
     atom   23 type  2   force =    -0.07353931    0.00029562   -0.03460569
     atom   24 type  2   force =     0.07358638    0.00074129   -0.03465518
     atom   25 type  1   force =     0.00007699   -0.00018443    0.14937579
     atom   26 type  1   force =     0.00000183   -0.00105173   -0.17160775
     atom   27 type  2   force =    -0.00006858    0.00192031   -0.05890036
     atom   28 type  2   force =    -0.00039755   -0.00137434    0.04059530
     atom   29 type  2   force =    -0.02528775    0.00191390    0.00522993
     atom   30 type  2   force =     0.02337864    0.00034713    0.00327758
     atom   31 type  1   force =    -0.00048403   -0.00019984   -0.00007883
     atom   32 type  1   force =     0.00062551   -0.00025819    0.00001308
     atom   33 type  2   force =     0.00005387   -0.00037684    0.00040405
     atom   34 type  2   force =     0.00007215   -0.00014840    0.00004622
     atom   35 type  2   force =    -0.00017498   -0.00035637   -0.00037232
     atom   36 type  2   force =     0.00052911   -0.00063254   -0.00014968
     atom   37 type  1   force =     0.00088475    0.00031110   -0.00003818
     atom   38 type  1   force =    -0.00036646   -0.00015410    0.00022271
     atom   39 type  2   force =    -0.00009266    0.00009749   -0.00110712
     atom   40 type  2   force =     0.00000620    0.00030146   -0.00081853
     atom   41 type  2   force =     0.00056765    0.00003772    0.00043063
     atom   42 type  2   force =     0.00053895    0.00070407    0.00020765
     atom   43 type  1   force =     0.00018669    0.00080620   -0.00077697
     atom   44 type  1   force =    -0.00056362    0.00027972    0.00006783
     atom   45 type  2   force =     0.00013746   -0.00009484    0.10271622
     atom   46 type  2   force =    -0.07356472   -0.00012469   -0.03459577
     atom   47 type  2   force =     0.07362210    0.00033847   -0.03466919
     atom   48 type  3   force =    -0.01543003   -0.00019876    0.00026786
     atom   49 type  4   force =     0.00705839    0.00044661    0.00524385
     atom   50 type  4   force =     0.00812888   -0.00097614   -0.00522476

     Total force =     0.404853     Total SCF correction =     0.000862
  @ DRIVER MODE: Message from server: STATUS
  @ DRIVER MODE: Message from server: GETFORCE
  @ DRIVER MODE: Returning v,forces,stress,ensemble 

     Writing output data file ./calc.save/
  @ DRIVER MODE: Message from server: EXIT
  @ DRIVE MODE: Exiting  
 
     init_run     :     10.88s CPU     11.48s WALL (       1 calls)
     electrons    :   1049.63s CPU   1068.78s WALL (       1 calls)
     forces       :      3.67s CPU      3.71s WALL (       1 calls)

     Called by init_run:
     wfcinit      :      7.15s CPU      7.34s WALL (       1 calls)
     potinit      :      1.90s CPU      1.95s WALL (       1 calls)
     hinit0       :      0.87s CPU      1.18s WALL (       1 calls)

     Called by electrons:
     c_bands      :    777.14s CPU    787.71s WALL (      80 calls)
     sum_band     :    175.49s CPU    179.51s WALL (      80 calls)
     v_of_rho     :     50.51s CPU     53.00s WALL (      81 calls)
     newd         :      5.54s CPU      5.72s WALL (      81 calls)
     mix_rho      :     37.77s CPU     39.25s WALL (      80 calls)
     vdW_kernel   :      1.02s CPU      1.03s WALL (       1 calls)

     Called by c_bands:
     init_us_2    :      1.13s CPU      1.21s WALL (    1620 calls)
     cegterg      :    771.58s CPU    781.74s WALL (     805 calls)

     Called by *egterg:
     cdiaghg      :    285.42s CPU    286.99s WALL (    6317 calls)
     h_psi        :    358.31s CPU    366.00s WALL (    6328 calls)
     s_psi        :     11.15s CPU     11.22s WALL (    6328 calls)
     g_psi        :      0.24s CPU      0.24s WALL (    5513 calls)

     Called by h_psi:
     h_psi:calbec :     18.10s CPU     18.37s WALL (    6328 calls)
     vloc_psi     :    327.51s CPU    334.80s WALL (    6328 calls)
     add_vuspsi   :     12.16s CPU     12.28s WALL (    6328 calls)

     General routines
     calbec       :     29.58s CPU     29.91s WALL (    7168 calls)
     fft          :     45.22s CPU     47.60s WALL (    5103 calls)
     ffts         :      0.90s CPU      0.94s WALL (     161 calls)
     fftw         :    483.62s CPU    494.46s WALL (  945996 calls)
     interpolate  :      1.61s CPU      1.69s WALL (      81 calls)
     davcio       :      0.00s CPU      0.04s WALL (      10 calls)
 
     Parallel routines
 
     PWSCF        :  18m 1.66s CPU  18m21.81s WALL

 
   This run was terminated on:  10:40: 9  24Aug2021            

=------------------------------------------------------------------------------=
   JOB DONE.
=------------------------------------------------------------------------------=
