
     Program PWSCF v.6.7GPU starts on 23Sep2021 at 22:56:39 

     This program is part of the open-source Quantum ESPRESSO suite
     for quantum simulation of materials; please cite
         "P. Giannozzi et al., J. Phys.:Condens. Matter 21 395502 (2009);
         "P. Giannozzi et al., J. Phys.:Condens. Matter 29 465901 (2017);
         "P. Giannozzi et al., J. Chem. Phys. 152 154105 (2020);
          URL http://www.quantum-espresso.org", 
     in publications or presentations arising from this work. More details at
     http://www.quantum-espresso.org/quote

     Parallel version (MPI), running on     8 processors

     MPI processes distributed on     1 nodes
     R & G space division:  proc/nbgrp/npool/nimage =       8
     Reading input from /storage/home/hcoda1/3/ntian30/research/carbon/CxH_vib/H2O_calc/ads_slab/CH2NHNH2HO_a/out_0027/pw.inp
Warning: card &CELL ignored
Warning: card   CELL_DYNAMICS='IPI', ignored
Warning: card / ignored

     Current dimensions of program PWSCF are:
     Max number of different atomic species (ntypx) = 10
     Max number of k-points (npk) =  40000
     Max angular momentum in pseudopotentials (lmaxx) =  3
     Presently no symmetry can be used with electric field

     Message from routine cell_base_init:
     DEPRECATED: use true lattice parameter, not A to a.u. conversion factor

     **************************************************************************
     Initializing libbeef V0.1.2 with the BEEF-vdW functional.
     Citation: Wellendorff et al., PRB 85, 235149 (2012).
     **************************************************************************


     IMPORTANT: XC functional enforced from input :
     Exchange-correlation= BEEF-VDW
                           (   1   4  43  14   2   0   0)
     Any further DFT definition will be discarded
     Please, verify this is what you really want


     Subspace diagonalization in iterative solution of the eigenvalue problem:
     one sub-group per band group will be used
     scalapack distributed-memory algorithm (size of sub-group:  2*  2 procs)

  @ DRIVER MODE: Connecting to 
 qe_1139763_2947313.sched-torque.pace.gatech.eduumvibmkk_scratch
  using UNIX socket
  @ DRIVER MODE: Message from server: STATUS
  @ DRIVER MODE: Message from server: INIT
  @ DRIVER MODE: Receiving replica           0          -1
  @ DRIVER MODE: Receiving encoded integer          25
  @ DRIVER MODE:  SCF:  T  FORCE:  T  STRESS:  F  VC:  F  ENSEMBLE:  F
  @ DRIVER MODE:  SCF:  T  FORCE:  T  STRESS:  F  VC:  F  ENSEMBLE:  F
 
     Parallelization info
     --------------------
     sticks:   dense  smooth     PW     G-vecs:    dense   smooth      PW
     Min         409     164     47                70857    17926    2743
     Max         411     165     48                70858    17931    2751
     Sum        3275    1317    379               566857   143421   21985
 
     Using Slab Decomposition
 


     bravais-lattice index     =            0
     lattice parameter (alat)  =       1.8897  a.u.
     unit-cell volume          =    6658.9804 (a.u.)^3
     number of atoms/cell      =           57
     number of atomic types    =            5
     number of electrons       =       404.00
     number of Kohn-Sham states=          212
     kinetic-energy cutoff     =      29.3995  Ry
     charge density cutoff     =     293.9946  Ry
     scf convergence threshold =      7.3E-08
     mixing beta               =       0.0500
     number of iterations used =            8  plain     mixing
     Exchange-correlation= BEEF-VDW
                           (   1   4  43  14   2   0   0)

     celldm(1)=   1.889726  celldm(2)=   0.000000  celldm(3)=   0.000000
     celldm(4)=   0.000000  celldm(5)=   0.000000  celldm(6)=   0.000000

     crystal axes: (cart. coord. in units of alat)
               a(1) = (   6.579727   0.000000   0.000000 )  
               a(2) = (  -0.000775   5.961596   0.000000 )  
               a(3) = (   0.000000   0.000000  25.155947 )  

     reciprocal axes: (cart. coord. in units 2 pi/alat)
               b(1) = (  0.151982  0.000020  0.000000 )  
               b(2) = (  0.000000  0.167740  0.000000 )  
               b(3) = (  0.000000  0.000000  0.039752 )  


     PseudoPot. # 1 for Ti read from file:
     /storage/coda1/p-amedford6/0/shared/rich_project_chbe-medford/medford-share/data/pseudos_module/espresso/nninc/pbe/van/Ti.UPF
     MD5 check sum: 8e4df49b7f0d34bbd5052bf3f5ea0213
     Pseudo is Ultrasoft, Zval = 12.0
     Generated by new atomic code, or converted to UPF format
     Using radial grid of  851 points,  6 beta functions with: 
                l(1) =   0
                l(2) =   0
                l(3) =   1
                l(4) =   1
                l(5) =   2
                l(6) =   2
     Q(r) pseudized with  8 coefficients,  rinner =    1.000   1.000   1.000
                                                       1.000   1.000

     PseudoPot. # 2 for O  read from file:
     /storage/coda1/p-amedford6/0/shared/rich_project_chbe-medford/medford-share/data/pseudos_module/espresso/nninc/pbe/van/O.UPF
     MD5 check sum: 78c19812648e8988a0fe644b0f25305e
     Pseudo is Ultrasoft, Zval =  6.0
     Generated by new atomic code, or converted to UPF format
     Using radial grid of  737 points,  4 beta functions with: 
                l(1) =   0
                l(2) =   0
                l(3) =   1
                l(4) =   1
     Q(r) pseudized with  8 coefficients,  rinner =    0.800   0.800   0.800


     PseudoPot. # 3 for N  read from file:
     /storage/coda1/p-amedford6/0/shared/rich_project_chbe-medford/medford-share/data/pseudos_module/espresso/nninc/pbe/van/N.UPF
     MD5 check sum: 90d10febe142ad51ac9d5be1deb811c4
     Pseudo is Ultrasoft, Zval =  5.0
     Generated by new atomic code, or converted to UPF format
     Using radial grid of  729 points,  4 beta functions with: 
                l(1) =   0
                l(2) =   0
                l(3) =   1
                l(4) =   1
     Q(r) pseudized with  8 coefficients,  rinner =    0.800   0.800   0.800


     PseudoPot. # 4 for C  read from file:
     /storage/coda1/p-amedford6/0/shared/rich_project_chbe-medford/medford-share/data/pseudos_module/espresso/nninc/pbe/van/C.UPF
     MD5 check sum: 1a69bf6b8db32088f5b2163dbdb77a27
     Pseudo is Ultrasoft, Zval =  4.0
     Generated by new atomic code, or converted to UPF format
     Using radial grid of  721 points,  4 beta functions with: 
                l(1) =   0
                l(2) =   0
                l(3) =   1
                l(4) =   1
     Q(r) pseudized with  8 coefficients,  rinner =    0.800   0.800   0.800


     PseudoPot. # 5 for H  read from file:
     /storage/coda1/p-amedford6/0/shared/rich_project_chbe-medford/medford-share/data/pseudos_module/espresso/nninc/pbe/van/H.UPF
     MD5 check sum: b5ee9d7bfd3a09ee7748110bda690ff7
     Pseudo is Ultrasoft, Zval =  1.0
     Generated by new atomic code, or converted to UPF format
     Using radial grid of  615 points,  1 beta functions with: 
                l(1) =   0
     Q(r) pseudized with  8 coefficients,  rinner =    0.800

     atomic species   valence    mass     pseudopotential
        Ti1           12.00    47.86700     Ti( 1.00)
        O1             6.00    15.99900     O ( 1.00)
        N1             5.00    14.00700     N ( 1.00)
        C1             4.00    12.01100     C ( 1.00)
        H1             1.00     1.00800     H ( 1.00)

     No symmetry found



   Cartesian axes

     site n.     atom                  positions (alat units)
         1           Ti1 tau(   1) = (   0.0004258   2.9801865   6.0000000  )
         2           Ti1 tau(   2) = (   3.2906075   1.4906267   6.0002472  )
         3           O1  tau(   3) = (   0.0006271   0.0005054   7.9858123  )
         4           O1  tau(   4) = (   3.2906025   0.0005020   7.3038282  )
         5           O1  tau(   5) = (   4.5942328   1.4918067   9.2879030  )
         6           O1  tau(   6) = (   1.9868534   1.4903216   9.2879459  )
         7           Ti1 tau(   7) = (   3.2907910   2.8959150   9.1758416  )
         8           Ti1 tau(   8) = (   0.0015273   1.4827037   9.2680791  )
         9           O1  tau(   9) = (   3.2769995   5.9424463  11.3879711  )
        10           O1  tau(  10) = (   0.0116148   5.9584955  10.6183126  )
        11           O1  tau(  11) = (   1.2559300   1.4809235  12.6914295  )
        12           O1  tau(  12) = (   5.2914439   1.4888754  12.6824943  )
        13           Ti1 tau(  13) = (   6.5693074   2.9549812  12.5071532  )
        14           Ti1 tau(  14) = (   3.2720578   1.2926143  12.7373905  )
        15           O1  tau(  15) = (   6.5263330   5.9075480  14.6758232  )
        16           O1  tau(  16) = (   3.2750150   0.0724425  14.0538047  )
        17           O1  tau(  17) = (   4.5404297   1.6145126  16.1214498  )
        18           O1  tau(  18) = (   1.9612862   1.5681812  16.1371236  )
        19           Ti1 tau(  19) = (   3.2615978   3.0295928  15.7214328  )
        20           Ti1 tau(  20) = (   6.4910920   1.3289874  15.8500745  )
        21           O1  tau(  21) = (   3.2904802   0.0005063   4.7018136  )
        22           O1  tau(  22) = (   6.5149858   0.1606772  17.2625446  )
        23           O1  tau(  23) = (   1.3043587   1.4918075   6.0039043  )
        24           O1  tau(  24) = (   5.2767064   1.4903225   6.0039473  )
        25           Ti1 tau(  25) = (   0.0000382   5.9609847   6.0000000  )
        26           Ti1 tau(  26) = (   3.2902200   4.4714249   6.0002472  )
        27           O1  tau(  27) = (   0.0002396   2.9813036   7.9858123  )
        28           O1  tau(  28) = (   3.2902150   2.9813002   7.3038282  )
        29           O1  tau(  29) = (   4.5938453   4.4726049   9.2879030  )
        30           O1  tau(  30) = (   1.9864658   4.4711199   9.2879459  )
        31           Ti1 tau(  31) = (   3.2891106   5.8743827   9.1763621  )
        32           Ti1 tau(  32) = (   0.0006254   4.4649316   9.2693709  )
        33           O1  tau(  33) = (   3.2749377   2.9871965  11.3337082  )
        34           O1  tau(  34) = (   0.0092240   2.9805883  10.6323155  )
        35           O1  tau(  35) = (   1.2597673   4.4587344  12.6634223  )
        36           O1  tau(  36) = (   5.2866262   4.4511231  12.6493885  )
        37           Ti1 tau(  37) = (   6.5604603   5.9292220  12.4937940  )
        38           Ti1 tau(  38) = (   3.2724722   4.3622713  12.4512132  )
        39           O1  tau(  39) = (   6.5737517   3.0258615  14.9025115  )
        40           O1  tau(  40) = (   3.2593133   3.0063273  13.9441864  )
        41           O1  tau(  41) = (   4.5441350   4.4310557  16.1689449  )
        42           O1  tau(  42) = (   1.9655774   4.4762250  16.2070539  )
        43           Ti1 tau(  43) = (   3.1776431   0.0563557  16.2565842  )
        44           Ti1 tau(  44) = (   6.5216753   4.5226504  15.9439936  )
        45           O1  tau(  45) = (   3.2900926   2.9813045   4.7018136  )
        46           O1  tau(  46) = (   1.3039711   4.4726057   6.0039043  )
        47           O1  tau(  47) = (   5.2763189   4.4711207   6.0039473  )
        48           N1  tau(  48) = (   0.8157702   2.5297039  18.7633901  )
        49           N1  tau(  49) = (   6.4302604   3.3580032  18.1334362  )
        50           C1  tau(  50) = (   1.9549655   3.0231469  19.2293773  )
        51           H1  tau(  51) = (   2.0901252   4.0892486  19.3254668  )
        52           H1  tau(  52) = (   2.7239663   2.2952050  19.4587972  )
        53           H1  tau(  53) = (   0.7490178   1.5515861  18.4517582  )
        54           H1  tau(  54) = (   6.4535031   4.2829477  18.5696568  )
        55           H1  tau(  55) = (   5.5068980   2.9516776  18.2836589  )
        56           O1  tau(  56) = (   3.3967406   0.0908776  18.1493316  )
        57           H1  tau(  57) = (   4.3453859   0.1513423  18.3540861  )

     number of k points=    10  Fermi-Dirac smearing, width (Ry)=  0.0073
                       cart. coord. in units 2pi/alat
        k(    1) = (   0.0000000   0.0000000   0.0000000), wk =   0.1250000
        k(    2) = (   0.0000000   0.0419351   0.0000000), wk =   0.2500000
        k(    3) = (   0.0000000  -0.0838702   0.0000000), wk =   0.1250000
        k(    4) = (   0.0379955   0.0000049   0.0000000), wk =   0.2500000
        k(    5) = (   0.0379955   0.0419400   0.0000000), wk =   0.2500000
        k(    6) = (   0.0379955  -0.0838652   0.0000000), wk =   0.2500000
        k(    7) = (   0.0379955  -0.0419301   0.0000000), wk =   0.2500000
        k(    8) = (  -0.0759910  -0.0000099   0.0000000), wk =   0.1250000
        k(    9) = (  -0.0759910   0.0419252   0.0000000), wk =   0.2500000
        k(   10) = (  -0.0759910  -0.0838800   0.0000000), wk =   0.1250000

     Dense  grid:   566857 G-vectors     FFT dimensions: (  72,  64, 270)

     Smooth grid:   143421 G-vectors     FFT dimensions: (  45,  40, 180)

     Estimated max dynamical RAM per process >     458.07 MB

     Estimated total dynamical RAM >       3.58 GB
     Cannot read rho : file not found

     Initial potential from superposition of free atoms

     starting charge  387.99913, renormalised to  404.00000

     negative rho (up, down):  1.608E-02 0.000E+00


     %%%%%%%%%%%%%%%%%%%%%%%%%%%%%%%%%%%%%%%%%%%%%%%%%%%%%%%%%%%%%%%%%%%%%%%%
     %                                                                      %
     % You are using vdW-DF, which was implemented by the Thonhauser group. %
     % Please cite the following two papers that made this development      %
     % possible and the two reviews that describe the various versions:     %
     %                                                                      %
     %   T. Thonhauser et al., PRL 115, 136402 (2015).                      %
     %   T. Thonhauser et al., PRB 76, 125112 (2007).                       %
     %   K. Berland et al., Rep. Prog. Phys. 78, 066501 (2015).             %
     %   D.C. Langreth et al., J. Phys.: Condens. Matter 21, 084203 (2009). %
     %                                                                      %
     %                                                                      %
     % If you are calculating the stress with vdW-DF, please also cite:     %
     %                                                                      %
     %   R. Sabatini et al., J. Phys.: Condens. Matter 24, 424209 (2012).   %
     %                                                                      %
     %%%%%%%%%%%%%%%%%%%%%%%%%%%%%%%%%%%%%%%%%%%%%%%%%%%%%%%%%%%%%%%%%%%%%%%%


 
     Adding external electric field

     Computed dipole along edir(3) : 
        Dipole              -13.8429 Ry au,        -35.1851 Debye
        Dipole field         -0.0261 Ry au, 
 
        Potential amp.        2.4216 Ry
        Total length         46.3494 bohr
 
     Starting wfcs are  306 atomic wfcs
  @ DRIVER MODE: Message from server: STATUS
  @ DRIVER MODE: Message from server: POSDATA
  @ DRIVER MODE: Reading and sharing cell 
  @ DRIVER MODE: Reading and sharing positions 
  @ DRIVER MODE: Received positions 

     total cpu time spent up to now is       14.2 secs

     Self-consistent Calculation

     iteration #  1     ecut=    29.40 Ry     beta= 0.05
     Davidson diagonalization with overlap
     c_bands:  1 eigenvalues not converged
     c_bands:  2 eigenvalues not converged
     c_bands:  1 eigenvalues not converged
     c_bands:  1 eigenvalues not converged
     c_bands:  1 eigenvalues not converged
     c_bands:  2 eigenvalues not converged
     c_bands:  5 eigenvalues not converged
     c_bands:  3 eigenvalues not converged
     ethr =  1.00E-05,  avg # of iterations = 32.8

     negative rho (up, down):  8.633E-03 0.000E+00
 
     Adding external electric field

     Computed dipole along edir(3) : 
        Dipole               59.8886 Ry au,        152.2216 Debye
        Dipole field          0.1130 Ry au, 
 
        Potential amp.      -10.4766 Ry
        Total length         46.3494 bohr
 

     total cpu time spent up to now is       79.9 secs

     total energy              =   -2231.91373132 Ry
     estimated scf accuracy    <    8426.11242431 Ry

     iteration #  2     ecut=    29.40 Ry     beta= 0.05
     Davidson diagonalization with overlap
     ethr =  1.00E-02,  avg # of iterations = 26.5

     negative rho (up, down):  3.185E-04 0.000E+00
 
     Adding external electric field

     Computed dipole along edir(3) : 
        Dipole                1.5855 Ry au,          4.0298 Debye
        Dipole field          0.0030 Ry au, 
 
        Potential amp.       -0.2774 Ry
        Total length         46.3494 bohr
 

     total cpu time spent up to now is      188.8 secs

     total energy              =   -2498.31977245 Ry
     estimated scf accuracy    <   73998.13727253 Ry

     iteration #  3     ecut=    29.40 Ry     beta= 0.05
     Davidson diagonalization with overlap
     ethr =  1.00E-02,  avg # of iterations = 16.5

     negative rho (up, down):  3.711E-04 0.000E+00
 
     Adding external electric field

     Computed dipole along edir(3) : 
        Dipole               -2.3417 Ry au,         -5.9520 Debye
        Dipole field         -0.0044 Ry au, 
 
        Potential amp.        0.4096 Ry
        Total length         46.3494 bohr
 

     total cpu time spent up to now is      250.7 secs

     total energy              =   -2960.38475646 Ry
     estimated scf accuracy    <    7875.61439090 Ry

     iteration #  4     ecut=    29.40 Ry     beta= 0.05
     Davidson diagonalization with overlap
     ethr =  1.00E-02,  avg # of iterations = 10.5

     negative rho (up, down):  3.913E-04 0.000E+00
 
     Adding external electric field

     Computed dipole along edir(3) : 
        Dipole               -4.2982 Ry au,        -10.9248 Debye
        Dipole field         -0.0081 Ry au, 
 
        Potential amp.        0.7519 Ry
        Total length         46.3494 bohr
 

     total cpu time spent up to now is      279.2 secs

     total energy              =   -2966.14656529 Ry
     estimated scf accuracy    <    2441.33722069 Ry

     iteration #  5     ecut=    29.40 Ry     beta= 0.05
     Davidson diagonalization with overlap
     ethr =  1.00E-02,  avg # of iterations =  7.2

     negative rho (up, down):  4.384E-04 0.000E+00
 
     Adding external electric field

     Computed dipole along edir(3) : 
        Dipole               -6.8151 Ry au,        -17.3222 Debye
        Dipole field         -0.0129 Ry au, 
 
        Potential amp.        1.1922 Ry
        Total length         46.3494 bohr
 

     total cpu time spent up to now is      295.1 secs

     total energy              =   -2945.46708386 Ry
     estimated scf accuracy    <    1947.20982327 Ry

     iteration #  6     ecut=    29.40 Ry     beta= 0.05
     Davidson diagonalization with overlap
     ethr =  1.00E-02,  avg # of iterations = 13.5

     negative rho (up, down):  4.321E-04 0.000E+00
 
     Adding external electric field

     Computed dipole along edir(3) : 
        Dipole               -5.4907 Ry au,        -13.9559 Debye
        Dipole field         -0.0104 Ry au, 
 
        Potential amp.        0.9605 Ry
        Total length         46.3494 bohr
 

     total cpu time spent up to now is      326.8 secs

     total energy              =   -2979.65810422 Ry
     estimated scf accuracy    <      47.03784180 Ry

     iteration #  7     ecut=    29.40 Ry     beta= 0.05
     Davidson diagonalization with overlap
     ethr =  1.00E-02,  avg # of iterations =  1.5

     negative rho (up, down):  4.394E-04 0.000E+00
 
     Adding external electric field

     Computed dipole along edir(3) : 
        Dipole               -4.9048 Ry au,        -12.4666 Debye
        Dipole field         -0.0093 Ry au, 
 
        Potential amp.        0.8580 Ry
        Total length         46.3494 bohr
 

     total cpu time spent up to now is      339.9 secs

     total energy              =   -2979.18919184 Ry
     estimated scf accuracy    <      20.19212190 Ry

     iteration #  8     ecut=    29.40 Ry     beta= 0.05
     Davidson diagonalization with overlap
     ethr =  5.00E-03,  avg # of iterations =  1.1

     negative rho (up, down):  4.831E-04 0.000E+00
 
     Adding external electric field

     Computed dipole along edir(3) : 
        Dipole               -2.6755 Ry au,         -6.8004 Debye
        Dipole field         -0.0050 Ry au, 
 
        Potential amp.        0.4680 Ry
        Total length         46.3494 bohr
 

     total cpu time spent up to now is      352.7 secs

     total energy              =   -2976.66517195 Ry
     estimated scf accuracy    <      17.31172453 Ry

     iteration #  9     ecut=    29.40 Ry     beta= 0.05
     Davidson diagonalization with overlap
     ethr =  4.29E-03,  avg # of iterations =  5.4

     negative rho (up, down):  4.833E-04 0.000E+00
 
     Adding external electric field

     Computed dipole along edir(3) : 
        Dipole               -2.6698 Ry au,         -6.7861 Debye
        Dipole field         -0.0050 Ry au, 
 
        Potential amp.        0.4670 Ry
        Total length         46.3494 bohr
 

     total cpu time spent up to now is      367.5 secs

     total energy              =   -2978.17240670 Ry
     estimated scf accuracy    <     192.01106915 Ry

     iteration # 10     ecut=    29.40 Ry     beta= 0.05
     Davidson diagonalization with overlap
     ethr =  4.29E-03,  avg # of iterations =  2.8

     negative rho (up, down):  5.633E-04 0.000E+00
 
     Adding external electric field

     Computed dipole along edir(3) : 
        Dipole               -0.6333 Ry au,         -1.6098 Debye
        Dipole field         -0.0012 Ry au, 
 
        Potential amp.        0.1108 Ry
        Total length         46.3494 bohr
 

     total cpu time spent up to now is      381.0 secs

     total energy              =   -2981.35944344 Ry
     estimated scf accuracy    <     190.08886511 Ry

     iteration # 11     ecut=    29.40 Ry     beta= 0.05
     Davidson diagonalization with overlap
     c_bands:  2 eigenvalues not converged
     c_bands:  1 eigenvalues not converged
     ethr =  4.29E-03,  avg # of iterations = 17.9

     negative rho (up, down):  7.065E-04 0.000E+00
 
     Adding external electric field

     Computed dipole along edir(3) : 
        Dipole                0.0794 Ry au,          0.2018 Debye
        Dipole field          0.0001 Ry au, 
 
        Potential amp.       -0.0139 Ry
        Total length         46.3494 bohr
 

     total cpu time spent up to now is      407.6 secs

     total energy              =   -2986.55439229 Ry
     estimated scf accuracy    <    1655.81418698 Ry

     iteration # 12     ecut=    29.40 Ry     beta= 0.05
     Davidson diagonalization with overlap
     ethr =  4.29E-03,  avg # of iterations =  1.7

     negative rho (up, down):  7.640E-04 0.000E+00
 
     Adding external electric field

     Computed dipole along edir(3) : 
        Dipole               -0.9590 Ry au,         -2.4374 Debye
        Dipole field         -0.0018 Ry au, 
 
        Potential amp.        0.1678 Ry
        Total length         46.3494 bohr
 

     total cpu time spent up to now is      421.0 secs

     total energy              =   -2975.35935103 Ry
     estimated scf accuracy    <    1502.34768564 Ry

     iteration # 13     ecut=    29.40 Ry     beta= 0.05
     Davidson diagonalization with overlap
     ethr =  4.29E-03,  avg # of iterations =  5.2

     negative rho (up, down):  7.833E-04 0.000E+00
 
     Adding external electric field

     Computed dipole along edir(3) : 
        Dipole               -1.5363 Ry au,         -3.9050 Debye
        Dipole field         -0.0029 Ry au, 
 
        Potential amp.        0.2688 Ry
        Total length         46.3494 bohr
 

     total cpu time spent up to now is      435.9 secs

     total energy              =   -2971.04464272 Ry
     estimated scf accuracy    <     844.97393310 Ry

     iteration # 14     ecut=    29.40 Ry     beta= 0.05
     Davidson diagonalization with overlap
     c_bands:  1 eigenvalues not converged
     ethr =  4.29E-03,  avg # of iterations =  9.5

     negative rho (up, down):  7.168E-04 0.000E+00
 
     Adding external electric field

     Computed dipole along edir(3) : 
        Dipole               -2.7546 Ry au,         -7.0015 Debye
        Dipole field         -0.0052 Ry au, 
 
        Potential amp.        0.4819 Ry
        Total length         46.3494 bohr
 

     total cpu time spent up to now is      454.1 secs

     total energy              =   -2967.30892050 Ry
     estimated scf accuracy    <     353.35762299 Ry

     iteration # 15     ecut=    29.40 Ry     beta= 0.05
     Davidson diagonalization with overlap
     c_bands:  2 eigenvalues not converged
     c_bands:  1 eigenvalues not converged
     c_bands:  4 eigenvalues not converged
     ethr =  4.29E-03,  avg # of iterations = 15.2

     negative rho (up, down):  7.594E-04 0.000E+00
 
     Adding external electric field

     Computed dipole along edir(3) : 
        Dipole               -2.5300 Ry au,         -6.4306 Debye
        Dipole field         -0.0048 Ry au, 
 
        Potential amp.        0.4426 Ry
        Total length         46.3494 bohr
 

     total cpu time spent up to now is      478.4 secs

     total energy              =   -2975.57163135 Ry
     estimated scf accuracy    <       7.18009501 Ry

     iteration # 16     ecut=    29.40 Ry     beta= 0.05
     Davidson diagonalization with overlap
     ethr =  1.78E-03,  avg # of iterations =  3.8

     negative rho (up, down):  1.179E-03 0.000E+00
 
     Adding external electric field

     Computed dipole along edir(3) : 
        Dipole               -1.5079 Ry au,         -3.8326 Debye
        Dipole field         -0.0028 Ry au, 
 
        Potential amp.        0.2638 Ry
        Total length         46.3494 bohr
 

     total cpu time spent up to now is      492.9 secs

     total energy              =   -2975.99965921 Ry
     estimated scf accuracy    <       7.17718874 Ry

     iteration # 17     ecut=    29.40 Ry     beta= 0.05
     Davidson diagonalization with overlap
     c_bands:  2 eigenvalues not converged
     c_bands:  1 eigenvalues not converged
     c_bands:  5 eigenvalues not converged
     c_bands:  2 eigenvalues not converged
     ethr =  1.78E-03,  avg # of iterations = 20.4

     negative rho (up, down):  1.299E-03 0.000E+00
 
     Adding external electric field

     Computed dipole along edir(3) : 
        Dipole               -0.9952 Ry au,         -2.5296 Debye
        Dipole field         -0.0019 Ry au, 
 
        Potential amp.        0.1741 Ry
        Total length         46.3494 bohr
 

     total cpu time spent up to now is      520.5 secs

     total energy              =   -2980.07255974 Ry
     estimated scf accuracy    <     714.63010338 Ry

     iteration # 18     ecut=    29.40 Ry     beta= 0.05
     Davidson diagonalization with overlap
     ethr =  1.78E-03,  avg # of iterations =  4.3

     negative rho (up, down):  1.238E-03 0.000E+00
 
     Adding external electric field

     Computed dipole along edir(3) : 
        Dipole               -1.1306 Ry au,         -2.8737 Debye
        Dipole field         -0.0021 Ry au, 
 
        Potential amp.        0.1978 Ry
        Total length         46.3494 bohr
 

     total cpu time spent up to now is      535.0 secs

     total energy              =   -2978.72648797 Ry
     estimated scf accuracy    <     828.45873186 Ry

     iteration # 19     ecut=    29.40 Ry     beta= 0.05
     Davidson diagonalization with overlap
     ethr =  1.78E-03,  avg # of iterations =  1.6

     negative rho (up, down):  1.144E-03 0.000E+00
 
     Adding external electric field

     Computed dipole along edir(3) : 
        Dipole               -1.0584 Ry au,         -2.6902 Debye
        Dipole field         -0.0020 Ry au, 
 
        Potential amp.        0.1852 Ry
        Total length         46.3494 bohr
 

     total cpu time spent up to now is      548.0 secs

     total energy              =   -2976.91110165 Ry
     estimated scf accuracy    <     629.87123645 Ry

     iteration # 20     ecut=    29.40 Ry     beta= 0.05
     Davidson diagonalization with overlap
     ethr =  1.78E-03,  avg # of iterations =  1.2

     negative rho (up, down):  1.164E-03 0.000E+00
 
     Adding external electric field

     Computed dipole along edir(3) : 
        Dipole               -1.0344 Ry au,         -2.6293 Debye
        Dipole field         -0.0020 Ry au, 
 
        Potential amp.        0.1810 Ry
        Total length         46.3494 bohr
 

     total cpu time spent up to now is      560.8 secs

     total energy              =   -2977.11101697 Ry
     estimated scf accuracy    <     351.47742284 Ry

     iteration # 21     ecut=    29.40 Ry     beta= 0.05
     Davidson diagonalization with overlap
     ethr =  1.78E-03,  avg # of iterations =  1.0

     negative rho (up, down):  1.166E-03 0.000E+00
 
     Adding external electric field

     Computed dipole along edir(3) : 
        Dipole               -1.0498 Ry au,         -2.6683 Debye
        Dipole field         -0.0020 Ry au, 
 
        Potential amp.        0.1836 Ry
        Total length         46.3494 bohr
 

     total cpu time spent up to now is      573.6 secs

     total energy              =   -2974.81738723 Ry
     estimated scf accuracy    <     341.60438027 Ry

     iteration # 22     ecut=    29.40 Ry     beta= 0.05
     Davidson diagonalization with overlap
     ethr =  1.78E-03,  avg # of iterations =  1.4

     negative rho (up, down):  1.124E-03 0.000E+00
 
     Adding external electric field

     Computed dipole along edir(3) : 
        Dipole               -1.1171 Ry au,         -2.8393 Debye
        Dipole field         -0.0021 Ry au, 
 
        Potential amp.        0.1954 Ry
        Total length         46.3494 bohr
 

     total cpu time spent up to now is      586.6 secs

     total energy              =   -2972.09165289 Ry
     estimated scf accuracy    <     178.86909055 Ry

     iteration # 23     ecut=    29.40 Ry     beta= 0.05
     Davidson diagonalization with overlap
     c_bands:  1 eigenvalues not converged
     c_bands:  2 eigenvalues not converged
     c_bands:  1 eigenvalues not converged
     c_bands:  3 eigenvalues not converged
     ethr =  1.78E-03,  avg # of iterations = 18.7

     negative rho (up, down):  1.122E-03 0.000E+00
 
     Adding external electric field

     Computed dipole along edir(3) : 
        Dipole               -1.1252 Ry au,         -2.8600 Debye
        Dipole field         -0.0021 Ry au, 
 
        Potential amp.        0.1968 Ry
        Total length         46.3494 bohr
 

     total cpu time spent up to now is      612.9 secs

     total energy              =   -2975.17987989 Ry
     estimated scf accuracy    <       3.52443506 Ry

     iteration # 24     ecut=    29.40 Ry     beta= 0.05
     Davidson diagonalization with overlap
     ethr =  8.72E-04,  avg # of iterations =  2.1

     negative rho (up, down):  1.186E-03 0.000E+00
 
     Adding external electric field

     Computed dipole along edir(3) : 
        Dipole               -0.7459 Ry au,         -1.8959 Debye
        Dipole field         -0.0014 Ry au, 
 
        Potential amp.        0.1305 Ry
        Total length         46.3494 bohr
 

     total cpu time spent up to now is      626.5 secs

     total energy              =   -2975.24024893 Ry
     estimated scf accuracy    <       4.17602644 Ry

     iteration # 25     ecut=    29.40 Ry     beta= 0.05
     Davidson diagonalization with overlap
     ethr =  8.72E-04,  avg # of iterations =  1.1

     negative rho (up, down):  1.610E-03 0.000E+00
 
     Adding external electric field

     Computed dipole along edir(3) : 
        Dipole                0.7877 Ry au,          2.0020 Debye
        Dipole field          0.0015 Ry au, 
 
        Potential amp.       -0.1378 Ry
        Total length         46.3494 bohr
 

     total cpu time spent up to now is      639.2 secs

     total energy              =   -2974.99179598 Ry
     estimated scf accuracy    <       3.12874208 Ry

     iteration # 26     ecut=    29.40 Ry     beta= 0.05
     Davidson diagonalization with overlap
     c_bands:  2 eigenvalues not converged
     ethr =  7.74E-04,  avg # of iterations = 16.8

     negative rho (up, down):  1.569E-03 0.000E+00
 
     Adding external electric field

     Computed dipole along edir(3) : 
        Dipole                0.6288 Ry au,          1.5983 Debye
        Dipole field          0.0012 Ry au, 
 
        Potential amp.       -0.1100 Ry
        Total length         46.3494 bohr
 

     total cpu time spent up to now is      659.0 secs

     total energy              =   -2975.21493044 Ry
     estimated scf accuracy    <       2.23681060 Ry

     iteration # 27     ecut=    29.40 Ry     beta= 0.05
     Davidson diagonalization with overlap
     ethr =  5.54E-04,  avg # of iterations =  1.2

     negative rho (up, down):  1.593E-03 0.000E+00
 
     Adding external electric field

     Computed dipole along edir(3) : 
        Dipole                0.8269 Ry au,          2.1017 Debye
        Dipole field          0.0016 Ry au, 
 
        Potential amp.       -0.1447 Ry
        Total length         46.3494 bohr
 

     total cpu time spent up to now is      671.8 secs

     total energy              =   -2975.26916382 Ry
     estimated scf accuracy    <       1.72374230 Ry

     iteration # 28     ecut=    29.40 Ry     beta= 0.05
     Davidson diagonalization with overlap
     ethr =  4.27E-04,  avg # of iterations =  1.2

     negative rho (up, down):  1.680E-03 0.000E+00
 
     Adding external electric field

     Computed dipole along edir(3) : 
        Dipole                0.8698 Ry au,          2.2108 Debye
        Dipole field          0.0016 Ry au, 
 
        Potential amp.       -0.1522 Ry
        Total length         46.3494 bohr
 

     total cpu time spent up to now is      684.6 secs

     total energy              =   -2975.24348768 Ry
     estimated scf accuracy    <       2.39775850 Ry

     iteration # 29     ecut=    29.40 Ry     beta= 0.05
     Davidson diagonalization with overlap
     ethr =  4.27E-04,  avg # of iterations =  3.5

     negative rho (up, down):  1.885E-03 0.000E+00
 
     Adding external electric field

     Computed dipole along edir(3) : 
        Dipole                0.9815 Ry au,          2.4947 Debye
        Dipole field          0.0019 Ry au, 
 
        Potential amp.       -0.1717 Ry
        Total length         46.3494 bohr
 

     total cpu time spent up to now is      698.8 secs

     total energy              =   -2975.22558272 Ry
     estimated scf accuracy    <       2.32263812 Ry

     iteration # 30     ecut=    29.40 Ry     beta= 0.05
     Davidson diagonalization with overlap
     ethr =  4.27E-04,  avg # of iterations =  2.0

     negative rho (up, down):  2.033E-03 0.000E+00
 
     Adding external electric field

     Computed dipole along edir(3) : 
        Dipole                0.6332 Ry au,          1.6094 Debye
        Dipole field          0.0012 Ry au, 
 
        Potential amp.       -0.1108 Ry
        Total length         46.3494 bohr
 

     total cpu time spent up to now is      712.5 secs

     total energy              =   -2975.13974278 Ry
     estimated scf accuracy    <       2.15019397 Ry

     iteration # 31     ecut=    29.40 Ry     beta= 0.05
     Davidson diagonalization with overlap
     ethr =  4.27E-04,  avg # of iterations = 15.7

     negative rho (up, down):  2.076E-03 0.000E+00
 
     Adding external electric field

     Computed dipole along edir(3) : 
        Dipole                0.5046 Ry au,          1.2825 Debye
        Dipole field          0.0010 Ry au, 
 
        Potential amp.       -0.0883 Ry
        Total length         46.3494 bohr
 

     total cpu time spent up to now is      732.6 secs

     total energy              =   -2975.31124483 Ry
     estimated scf accuracy    <       1.66101972 Ry

     iteration # 32     ecut=    29.40 Ry     beta= 0.05
     Davidson diagonalization with overlap
     ethr =  4.11E-04,  avg # of iterations =  2.4

     negative rho (up, down):  2.053E-03 0.000E+00
 
     Adding external electric field

     Computed dipole along edir(3) : 
        Dipole                0.4362 Ry au,          1.1087 Debye
        Dipole field          0.0008 Ry au, 
 
        Potential amp.       -0.0763 Ry
        Total length         46.3494 bohr
 

     total cpu time spent up to now is      746.0 secs

     total energy              =   -2975.32188144 Ry
     estimated scf accuracy    <       1.64328557 Ry

     iteration # 33     ecut=    29.40 Ry     beta= 0.05
     Davidson diagonalization with overlap
     ethr =  4.07E-04,  avg # of iterations =  1.0

     negative rho (up, down):  1.900E-03 0.000E+00
 
     Adding external electric field

     Computed dipole along edir(3) : 
        Dipole               -0.1797 Ry au,         -0.4567 Debye
        Dipole field         -0.0003 Ry au, 
 
        Potential amp.        0.0314 Ry
        Total length         46.3494 bohr
 

     total cpu time spent up to now is      758.7 secs

     total energy              =   -2975.35022218 Ry
     estimated scf accuracy    <       1.63280866 Ry

     iteration # 34     ecut=    29.40 Ry     beta= 0.05
     Davidson diagonalization with overlap
     c_bands:  2 eigenvalues not converged
     ethr =  4.04E-04,  avg # of iterations = 10.8

     negative rho (up, down):  1.877E-03 0.000E+00
 
     Adding external electric field

     Computed dipole along edir(3) : 
        Dipole               -0.1704 Ry au,         -0.4331 Debye
        Dipole field         -0.0003 Ry au, 
 
        Potential amp.        0.0298 Ry
        Total length         46.3494 bohr
 

     total cpu time spent up to now is      775.3 secs

     total energy              =   -2975.45145461 Ry
     estimated scf accuracy    <       4.43412851 Ry

     iteration # 35     ecut=    29.40 Ry     beta= 0.05
     Davidson diagonalization with overlap
     ethr =  4.04E-04,  avg # of iterations =  3.5

     negative rho (up, down):  2.159E-03 0.000E+00
 
     Adding external electric field

     Computed dipole along edir(3) : 
        Dipole               -0.0307 Ry au,         -0.0781 Debye
        Dipole field         -0.0001 Ry au, 
 
        Potential amp.        0.0054 Ry
        Total length         46.3494 bohr
 

     total cpu time spent up to now is      789.3 secs

     total energy              =   -2975.38728113 Ry
     estimated scf accuracy    <       4.81448603 Ry

     iteration # 36     ecut=    29.40 Ry     beta= 0.05
     Davidson diagonalization with overlap
     ethr =  4.04E-04,  avg # of iterations =  1.2

     negative rho (up, down):  2.879E-03 0.000E+00
 
     Adding external electric field

     Computed dipole along edir(3) : 
        Dipole                0.6907 Ry au,          1.7556 Debye
        Dipole field          0.0013 Ry au, 
 
        Potential amp.       -0.1208 Ry
        Total length         46.3494 bohr
 

     total cpu time spent up to now is      802.1 secs

     total energy              =   -2975.00488633 Ry
     estimated scf accuracy    <       4.22977821 Ry

     iteration # 37     ecut=    29.40 Ry     beta= 0.05
     Davidson diagonalization with overlap
     c_bands:  1 eigenvalues not converged
     c_bands:  3 eigenvalues not converged
     c_bands:  1 eigenvalues not converged
     c_bands:  2 eigenvalues not converged
     ethr =  4.04E-04,  avg # of iterations = 15.4

     negative rho (up, down):  2.873E-03 0.000E+00
 
     Adding external electric field

     Computed dipole along edir(3) : 
        Dipole                0.6782 Ry au,          1.7237 Debye
        Dipole field          0.0013 Ry au, 
 
        Potential amp.       -0.1186 Ry
        Total length         46.3494 bohr
 

     total cpu time spent up to now is      821.9 secs

     total energy              =   -2975.22025955 Ry
     estimated scf accuracy    <       1.42228669 Ry

     iteration # 38     ecut=    29.40 Ry     beta= 0.05
     Davidson diagonalization with overlap
     ethr =  3.52E-04,  avg # of iterations =  5.1

     negative rho (up, down):  3.180E-03 0.000E+00
 
     Adding external electric field

     Computed dipole along edir(3) : 
        Dipole                0.8535 Ry au,          2.1694 Debye
        Dipole field          0.0016 Ry au, 
 
        Potential amp.       -0.1493 Ry
        Total length         46.3494 bohr
 

     total cpu time spent up to now is      836.4 secs

     total energy              =   -2975.23187735 Ry
     estimated scf accuracy    <       1.49117241 Ry

     iteration # 39     ecut=    29.40 Ry     beta= 0.05
     Davidson diagonalization with overlap
     ethr =  3.52E-04,  avg # of iterations =  1.1

     negative rho (up, down):  2.919E-03 0.000E+00
 
     Adding external electric field

     Computed dipole along edir(3) : 
        Dipole                1.2537 Ry au,          3.1866 Debye
        Dipole field          0.0024 Ry au, 
 
        Potential amp.       -0.2193 Ry
        Total length         46.3494 bohr
 

     total cpu time spent up to now is      849.2 secs

     total energy              =   -2975.21044953 Ry
     estimated scf accuracy    <       1.45111888 Ry

     iteration # 40     ecut=    29.40 Ry     beta= 0.05
     Davidson diagonalization with overlap
     c_bands:  3 eigenvalues not converged
     c_bands:  1 eigenvalues not converged
     ethr =  3.52E-04,  avg # of iterations = 15.1

     negative rho (up, down):  2.574E-03 0.000E+00
 
     Adding external electric field

     Computed dipole along edir(3) : 
        Dipole                0.3444 Ry au,          0.8754 Debye
        Dipole field          0.0006 Ry au, 
 
        Potential amp.       -0.0603 Ry
        Total length         46.3494 bohr
 

     total cpu time spent up to now is      868.7 secs

     total energy              =   -2975.21431435 Ry
     estimated scf accuracy    <       1.27741213 Ry

     iteration # 41     ecut=    29.40 Ry     beta= 0.05
     Davidson diagonalization with overlap
     ethr =  3.16E-04,  avg # of iterations =  7.3

     negative rho (up, down):  2.045E-03 0.000E+00
 
     Adding external electric field

     Computed dipole along edir(3) : 
        Dipole                0.2697 Ry au,          0.6854 Debye
        Dipole field          0.0005 Ry au, 
 
        Potential amp.       -0.0472 Ry
        Total length         46.3494 bohr
 

     total cpu time spent up to now is      884.3 secs

     total energy              =   -2975.29768397 Ry
     estimated scf accuracy    <       1.60057386 Ry

     iteration # 42     ecut=    29.40 Ry     beta= 0.05
     Davidson diagonalization with overlap
     ethr =  3.16E-04,  avg # of iterations =  3.4

     negative rho (up, down):  2.295E-03 0.000E+00
 
     Adding external electric field

     Computed dipole along edir(3) : 
        Dipole                1.0475 Ry au,          2.6626 Debye
        Dipole field          0.0020 Ry au, 
 
        Potential amp.       -0.1833 Ry
        Total length         46.3494 bohr
 

     total cpu time spent up to now is      898.4 secs

     total energy              =   -2975.34730833 Ry
     estimated scf accuracy    <       1.88448447 Ry

     iteration # 43     ecut=    29.40 Ry     beta= 0.05
     Davidson diagonalization with overlap
     c_bands:  2 eigenvalues not converged
     ethr =  3.16E-04,  avg # of iterations =  8.6

     negative rho (up, down):  2.464E-03 0.000E+00
 
     Adding external electric field

     Computed dipole along edir(3) : 
        Dipole                0.7277 Ry au,          1.8496 Debye
        Dipole field          0.0014 Ry au, 
 
        Potential amp.       -0.1273 Ry
        Total length         46.3494 bohr
 

     total cpu time spent up to now is      914.8 secs

     total energy              =   -2975.18149016 Ry
     estimated scf accuracy    <       1.86543811 Ry

     iteration # 44     ecut=    29.40 Ry     beta= 0.05
     Davidson diagonalization with overlap
     c_bands:  1 eigenvalues not converged
     ethr =  3.16E-04,  avg # of iterations =  7.3

     negative rho (up, down):  2.431E-03 0.000E+00
 
     Adding external electric field

     Computed dipole along edir(3) : 
        Dipole                0.6720 Ry au,          1.7079 Debye
        Dipole field          0.0013 Ry au, 
 
        Potential amp.       -0.1175 Ry
        Total length         46.3494 bohr
 

     total cpu time spent up to now is      930.5 secs

     total energy              =   -2975.25447543 Ry
     estimated scf accuracy    <       1.39262613 Ry

     iteration # 45     ecut=    29.40 Ry     beta= 0.05
     Davidson diagonalization with overlap
     ethr =  3.16E-04,  avg # of iterations =  1.3

     negative rho (up, down):  2.088E-03 0.000E+00
 
     Adding external electric field

     Computed dipole along edir(3) : 
        Dipole                0.2083 Ry au,          0.5296 Debye
        Dipole field          0.0004 Ry au, 
 
        Potential amp.       -0.0364 Ry
        Total length         46.3494 bohr
 

     total cpu time spent up to now is      943.5 secs

     total energy              =   -2975.26087941 Ry
     estimated scf accuracy    <       1.55803313 Ry

     iteration # 46     ecut=    29.40 Ry     beta= 0.05
     Davidson diagonalization with overlap
     ethr =  3.16E-04,  avg # of iterations =  3.5

     negative rho (up, down):  2.311E-03 0.000E+00
 
     Adding external electric field

     Computed dipole along edir(3) : 
        Dipole                0.2815 Ry au,          0.7155 Debye
        Dipole field          0.0005 Ry au, 
 
        Potential amp.       -0.0492 Ry
        Total length         46.3494 bohr
 

     total cpu time spent up to now is      957.5 secs

     total energy              =   -2975.25583478 Ry
     estimated scf accuracy    <       1.44329215 Ry

     iteration # 47     ecut=    29.40 Ry     beta= 0.05
     Davidson diagonalization with overlap
     ethr =  3.16E-04,  avg # of iterations =  3.0

     negative rho (up, down):  3.037E-03 0.000E+00
 
     Adding external electric field

     Computed dipole along edir(3) : 
        Dipole                1.1051 Ry au,          2.8090 Debye
        Dipole field          0.0021 Ry au, 
 
        Potential amp.       -0.1933 Ry
        Total length         46.3494 bohr
 

     total cpu time spent up to now is      971.2 secs

     total energy              =   -2975.15353737 Ry
     estimated scf accuracy    <       1.51600788 Ry

     iteration # 48     ecut=    29.40 Ry     beta= 0.05
     Davidson diagonalization with overlap
     ethr =  3.16E-04,  avg # of iterations =  4.5

     negative rho (up, down):  2.940E-03 0.000E+00
 
     Adding external electric field

     Computed dipole along edir(3) : 
        Dipole                0.8381 Ry au,          2.1302 Debye
        Dipole field          0.0016 Ry au, 
 
        Potential amp.       -0.1466 Ry
        Total length         46.3494 bohr
 

     total cpu time spent up to now is      985.8 secs

     total energy              =   -2975.05096367 Ry
     estimated scf accuracy    <       1.31424203 Ry

     iteration # 49     ecut=    29.40 Ry     beta= 0.05
     Davidson diagonalization with overlap
     c_bands:  1 eigenvalues not converged
     c_bands:  2 eigenvalues not converged
     ethr =  3.16E-04,  avg # of iterations = 18.5

     negative rho (up, down):  2.766E-03 0.000E+00
 
     Adding external electric field

     Computed dipole along edir(3) : 
        Dipole                1.1739 Ry au,          2.9838 Debye
        Dipole field          0.0022 Ry au, 
 
        Potential amp.       -0.2054 Ry
        Total length         46.3494 bohr
 

     total cpu time spent up to now is     1009.4 secs

     total energy              =   -2974.89600289 Ry
     estimated scf accuracy    <       3.69843532 Ry

     iteration # 50     ecut=    29.40 Ry     beta= 0.05
     Davidson diagonalization with overlap
     c_bands:  1 eigenvalues not converged
     c_bands:  1 eigenvalues not converged
     c_bands:  1 eigenvalues not converged
     c_bands:  5 eigenvalues not converged
     c_bands:  1 eigenvalues not converged
     c_bands:  1 eigenvalues not converged
     ethr =  3.16E-04,  avg # of iterations = 17.7

     negative rho (up, down):  2.618E-03 0.000E+00
 
     Adding external electric field

     Computed dipole along edir(3) : 
        Dipole                0.5112 Ry au,          1.2994 Debye
        Dipole field          0.0010 Ry au, 
 
        Potential amp.       -0.0894 Ry
        Total length         46.3494 bohr
 

     total cpu time spent up to now is     1030.2 secs

     total energy              =   -2975.07653048 Ry
     estimated scf accuracy    <       0.81420597 Ry

     iteration # 51     ecut=    29.40 Ry     beta= 0.05
     Davidson diagonalization with overlap
     c_bands:  1 eigenvalues not converged
     c_bands:  2 eigenvalues not converged
     c_bands:  2 eigenvalues not converged
     ethr =  2.02E-04,  avg # of iterations = 17.2

     negative rho (up, down):  2.851E-03 0.000E+00
 
     Adding external electric field

     Computed dipole along edir(3) : 
        Dipole                0.8135 Ry au,          2.0678 Debye
        Dipole field          0.0015 Ry au, 
 
        Potential amp.       -0.1423 Ry
        Total length         46.3494 bohr
 

     total cpu time spent up to now is     1051.2 secs

     total energy              =   -2975.09911424 Ry
     estimated scf accuracy    <       1.89698921 Ry

     iteration # 52     ecut=    29.40 Ry     beta= 0.05
     Davidson diagonalization with overlap
     ethr =  2.02E-04,  avg # of iterations =  6.7

     negative rho (up, down):  3.330E-03 0.000E+00
 
     Adding external electric field

     Computed dipole along edir(3) : 
        Dipole                0.9178 Ry au,          2.3327 Debye
        Dipole field          0.0017 Ry au, 
 
        Potential amp.       -0.1605 Ry
        Total length         46.3494 bohr
 

     total cpu time spent up to now is     1066.3 secs

     total energy              =   -2975.12418413 Ry
     estimated scf accuracy    <       0.19450181 Ry

     iteration # 53     ecut=    29.40 Ry     beta= 0.05
     Davidson diagonalization with overlap
     c_bands:  3 eigenvalues not converged
     c_bands:  2 eigenvalues not converged
     c_bands:  1 eigenvalues not converged
     ethr =  4.81E-05,  avg # of iterations = 15.1

     negative rho (up, down):  3.384E-03 0.000E+00
 
     Adding external electric field

     Computed dipole along edir(3) : 
        Dipole                0.9903 Ry au,          2.5172 Debye
        Dipole field          0.0019 Ry au, 
 
        Potential amp.       -0.1732 Ry
        Total length         46.3494 bohr
 

     total cpu time spent up to now is     1086.1 secs

     total energy              =   -2975.12280216 Ry
     estimated scf accuracy    <       0.22273084 Ry

     iteration # 54     ecut=    29.40 Ry     beta= 0.05
     Davidson diagonalization with overlap
     c_bands:  1 eigenvalues not converged
     c_bands:  4 eigenvalues not converged
     c_bands:  1 eigenvalues not converged
     c_bands:  1 eigenvalues not converged
     c_bands:  2 eigenvalues not converged
     c_bands:  2 eigenvalues not converged
     c_bands:  3 eigenvalues not converged
     c_bands:  1 eigenvalues not converged
     c_bands:  2 eigenvalues not converged
     ethr =  4.81E-05,  avg # of iterations = 20.0

     negative rho (up, down):  3.375E-03 0.000E+00
 
     Adding external electric field

     Computed dipole along edir(3) : 
        Dipole                0.9639 Ry au,          2.4500 Debye
        Dipole field          0.0018 Ry au, 
 
        Potential amp.       -0.1686 Ry
        Total length         46.3494 bohr
 

     total cpu time spent up to now is     1108.9 secs

     total energy              =   -2975.14395239 Ry
     estimated scf accuracy    <       0.28305950 Ry

     iteration # 55     ecut=    29.40 Ry     beta= 0.05
     Davidson diagonalization with overlap
     ethr =  4.81E-05,  avg # of iterations =  4.9

     negative rho (up, down):  3.429E-03 0.000E+00
 
     Adding external electric field

     Computed dipole along edir(3) : 
        Dipole                0.8255 Ry au,          2.0981 Debye
        Dipole field          0.0016 Ry au, 
 
        Potential amp.       -0.1444 Ry
        Total length         46.3494 bohr
 

     total cpu time spent up to now is     1123.5 secs

     total energy              =   -2975.13600684 Ry
     estimated scf accuracy    <       0.20045403 Ry

     iteration # 56     ecut=    29.40 Ry     beta= 0.05
     Davidson diagonalization with overlap
     c_bands:  2 eigenvalues not converged
     c_bands:  4 eigenvalues not converged
     c_bands:  5 eigenvalues not converged
     c_bands:  1 eigenvalues not converged
     c_bands:  1 eigenvalues not converged
     ethr =  4.81E-05,  avg # of iterations = 19.5

     negative rho (up, down):  5.385E-03 0.000E+00
 
     Adding external electric field

     Computed dipole along edir(3) : 
        Dipole                1.1793 Ry au,          2.9974 Debye
        Dipole field          0.0022 Ry au, 
 
        Potential amp.       -0.2063 Ry
        Total length         46.3494 bohr
 

     total cpu time spent up to now is     1146.6 secs

     total energy              =   -2975.13916886 Ry
     estimated scf accuracy    <       0.31616874 Ry

     iteration # 57     ecut=    29.40 Ry     beta= 0.05
     Davidson diagonalization with overlap
     ethr =  4.81E-05,  avg # of iterations =  5.0

     negative rho (up, down):  6.156E-03 0.000E+00
 
     Adding external electric field

     Computed dipole along edir(3) : 
        Dipole                1.1123 Ry au,          2.8272 Debye
        Dipole field          0.0021 Ry au, 
 
        Potential amp.       -0.1946 Ry
        Total length         46.3494 bohr
 

     total cpu time spent up to now is     1161.2 secs

     total energy              =   -2975.14473834 Ry
     estimated scf accuracy    <       0.35497941 Ry

     iteration # 58     ecut=    29.40 Ry     beta= 0.05
     Davidson diagonalization with overlap
     ethr =  4.81E-05,  avg # of iterations =  1.0

     negative rho (up, down):  6.696E-03 0.000E+00
 
     Adding external electric field

     Computed dipole along edir(3) : 
        Dipole                1.1163 Ry au,          2.8374 Debye
        Dipole field          0.0021 Ry au, 
 
        Potential amp.       -0.1953 Ry
        Total length         46.3494 bohr
 

     total cpu time spent up to now is     1173.8 secs

     total energy              =   -2975.14807135 Ry
     estimated scf accuracy    <       0.01208630 Ry

     iteration # 59     ecut=    29.40 Ry     beta= 0.05
     Davidson diagonalization with overlap
     c_bands:  2 eigenvalues not converged
     c_bands:  2 eigenvalues not converged
     c_bands:  5 eigenvalues not converged
     c_bands:  2 eigenvalues not converged
     c_bands:  2 eigenvalues not converged
     c_bands:  3 eigenvalues not converged
     c_bands:  2 eigenvalues not converged
     c_bands:  3 eigenvalues not converged
     ethr =  2.99E-06,  avg # of iterations = 19.7

     negative rho (up, down):  6.855E-03 0.000E+00
 
     Adding external electric field

     Computed dipole along edir(3) : 
        Dipole                1.1181 Ry au,          2.8418 Debye
        Dipole field          0.0021 Ry au, 
 
        Potential amp.       -0.1956 Ry
        Total length         46.3494 bohr
 

     total cpu time spent up to now is     1199.6 secs

     total energy              =   -2975.14970372 Ry
     estimated scf accuracy    <       0.01523984 Ry

     iteration # 60     ecut=    29.40 Ry     beta= 0.05
     Davidson diagonalization with overlap
     ethr =  2.99E-06,  avg # of iterations =  9.8

     negative rho (up, down):  1.014E-02 0.000E+00
 
     Adding external electric field

     Computed dipole along edir(3) : 
        Dipole                1.0917 Ry au,          2.7748 Debye
        Dipole field          0.0021 Ry au, 
 
        Potential amp.       -0.1910 Ry
        Total length         46.3494 bohr
 

     total cpu time spent up to now is     1215.4 secs

     total energy              =   -2975.14923403 Ry
     estimated scf accuracy    <       0.01547297 Ry

     iteration # 61     ecut=    29.40 Ry     beta= 0.05
     Davidson diagonalization with overlap
     c_bands:  1 eigenvalues not converged
     c_bands:  1 eigenvalues not converged
     c_bands:  1 eigenvalues not converged
     ethr =  2.99E-06,  avg # of iterations = 15.5

     negative rho (up, down):  9.863E-03 0.000E+00
 
     Adding external electric field

     Computed dipole along edir(3) : 
        Dipole                1.1127 Ry au,          2.8281 Debye
        Dipole field          0.0021 Ry au, 
 
        Potential amp.       -0.1946 Ry
        Total length         46.3494 bohr
 

     total cpu time spent up to now is     1235.0 secs

     total energy              =   -2975.14932643 Ry
     estimated scf accuracy    <       0.08767204 Ry

     iteration # 62     ecut=    29.40 Ry     beta= 0.05
     Davidson diagonalization with overlap
     ethr =  2.99E-06,  avg # of iterations =  7.1

     negative rho (up, down):  9.943E-03 0.000E+00
 
     Adding external electric field

     Computed dipole along edir(3) : 
        Dipole                1.1172 Ry au,          2.8397 Debye
        Dipole field          0.0021 Ry au, 
 
        Potential amp.       -0.1954 Ry
        Total length         46.3494 bohr
 

     total cpu time spent up to now is     1250.4 secs

     total energy              =   -2975.14974699 Ry
     estimated scf accuracy    <       0.01178300 Ry

     iteration # 63     ecut=    29.40 Ry     beta= 0.05
     Davidson diagonalization with overlap
     ethr =  2.92E-06,  avg # of iterations =  1.2

     negative rho (up, down):  1.207E-02 0.000E+00
 
     Adding external electric field

     Computed dipole along edir(3) : 
        Dipole                1.1866 Ry au,          3.0161 Debye
        Dipole field          0.0022 Ry au, 
 
        Potential amp.       -0.2076 Ry
        Total length         46.3494 bohr
 

     total cpu time spent up to now is     1263.2 secs

     total energy              =   -2975.14929612 Ry
     estimated scf accuracy    <       0.01614281 Ry

     iteration # 64     ecut=    29.40 Ry     beta= 0.05
     Davidson diagonalization with overlap
     ethr =  2.92E-06,  avg # of iterations = 11.8

     negative rho (up, down):  1.199E-02 0.000E+00
 
     Adding external electric field

     Computed dipole along edir(3) : 
        Dipole                1.1869 Ry au,          3.0169 Debye
        Dipole field          0.0022 Ry au, 
 
        Potential amp.       -0.2076 Ry
        Total length         46.3494 bohr
 

     total cpu time spent up to now is     1281.0 secs

     total energy              =   -2975.14989983 Ry
     estimated scf accuracy    <       0.00242761 Ry

     iteration # 65     ecut=    29.40 Ry     beta= 0.05
     Davidson diagonalization with overlap
     c_bands:  1 eigenvalues not converged
     c_bands:  1 eigenvalues not converged
     ethr =  6.01E-07,  avg # of iterations = 13.4

     negative rho (up, down):  1.214E-02 0.000E+00
 
     Adding external electric field

     Computed dipole along edir(3) : 
        Dipole                1.1520 Ry au,          2.9281 Debye
        Dipole field          0.0022 Ry au, 
 
        Potential amp.       -0.2015 Ry
        Total length         46.3494 bohr
 

     total cpu time spent up to now is     1299.6 secs

     total energy              =   -2975.14951944 Ry
     estimated scf accuracy    <       0.00198166 Ry

     iteration # 66     ecut=    29.40 Ry     beta= 0.05
     Davidson diagonalization with overlap
     ethr =  4.91E-07,  avg # of iterations = 14.1

     negative rho (up, down):  1.328E-02 0.000E+00
 
     Adding external electric field

     Computed dipole along edir(3) : 
        Dipole                1.1775 Ry au,          2.9929 Debye
        Dipole field          0.0022 Ry au, 
 
        Potential amp.       -0.2060 Ry
        Total length         46.3494 bohr
 

     total cpu time spent up to now is     1322.9 secs

     total energy              =   -2975.14985093 Ry
     estimated scf accuracy    <       0.00152218 Ry

     iteration # 67     ecut=    29.40 Ry     beta= 0.05
     Davidson diagonalization with overlap
     ethr =  3.77E-07,  avg # of iterations =  8.2

     negative rho (up, down):  1.397E-02 0.000E+00
 
     Adding external electric field

     Computed dipole along edir(3) : 
        Dipole                1.1822 Ry au,          3.0050 Debye
        Dipole field          0.0022 Ry au, 
 
        Potential amp.       -0.2068 Ry
        Total length         46.3494 bohr
 

     total cpu time spent up to now is     1339.6 secs

     total energy              =   -2975.14995537 Ry
     estimated scf accuracy    <       0.00036423 Ry

     iteration # 68     ecut=    29.40 Ry     beta= 0.05
     Davidson diagonalization with overlap
     ethr =  9.02E-08,  avg # of iterations = 14.2

     negative rho (up, down):  1.387E-02 0.000E+00
 
     Adding external electric field

     Computed dipole along edir(3) : 
        Dipole                1.1810 Ry au,          3.0017 Debye
        Dipole field          0.0022 Ry au, 
 
        Potential amp.       -0.2066 Ry
        Total length         46.3494 bohr
 

     total cpu time spent up to now is     1364.1 secs

     total energy              =   -2975.14998800 Ry
     estimated scf accuracy    <       0.00031311 Ry

     iteration # 69     ecut=    29.40 Ry     beta= 0.05
     Davidson diagonalization with overlap
     ethr =  7.75E-08,  avg # of iterations =  8.8

     negative rho (up, down):  1.389E-02 0.000E+00
 
     Adding external electric field

     Computed dipole along edir(3) : 
        Dipole                1.1822 Ry au,          3.0049 Debye
        Dipole field          0.0022 Ry au, 
 
        Potential amp.       -0.2068 Ry
        Total length         46.3494 bohr
 

     total cpu time spent up to now is     1380.3 secs

     total energy              =   -2975.14999192 Ry
     estimated scf accuracy    <       0.00015007 Ry

     iteration # 70     ecut=    29.40 Ry     beta= 0.05
     Davidson diagonalization with overlap
     ethr =  3.71E-08,  avg # of iterations = 11.8

     negative rho (up, down):  1.414E-02 0.000E+00
 
     Adding external electric field

     Computed dipole along edir(3) : 
        Dipole                1.1805 Ry au,          3.0006 Debye
        Dipole field          0.0022 Ry au, 
 
        Potential amp.       -0.2065 Ry
        Total length         46.3494 bohr
 

     total cpu time spent up to now is     1399.8 secs

     total energy              =   -2975.15001749 Ry
     estimated scf accuracy    <       0.00016467 Ry

     iteration # 71     ecut=    29.40 Ry     beta= 0.05
     Davidson diagonalization with overlap
     ethr =  3.71E-08,  avg # of iterations =  2.0

     negative rho (up, down):  1.499E-02 0.000E+00
 
     Adding external electric field

     Computed dipole along edir(3) : 
        Dipole                1.1806 Ry au,          3.0009 Debye
        Dipole field          0.0022 Ry au, 
 
        Potential amp.       -0.2065 Ry
        Total length         46.3494 bohr
 

     total cpu time spent up to now is     1413.5 secs

     total energy              =   -2975.15003759 Ry
     estimated scf accuracy    <       0.00010402 Ry

     iteration # 72     ecut=    29.40 Ry     beta= 0.05
     Davidson diagonalization with overlap
     ethr =  2.57E-08,  avg # of iterations =  9.2

     negative rho (up, down):  1.520E-02 0.000E+00
 
     Adding external electric field

     Computed dipole along edir(3) : 
        Dipole                1.1810 Ry au,          3.0018 Debye
        Dipole field          0.0022 Ry au, 
 
        Potential amp.       -0.2066 Ry
        Total length         46.3494 bohr
 

     total cpu time spent up to now is     1431.1 secs

     total energy              =   -2975.15005317 Ry
     estimated scf accuracy    <       0.00002241 Ry

     iteration # 73     ecut=    29.40 Ry     beta= 0.05
     Davidson diagonalization with overlap
     ethr =  5.55E-09,  avg # of iterations = 11.0

     negative rho (up, down):  1.527E-02 0.000E+00
 
     Adding external electric field

     Computed dipole along edir(3) : 
        Dipole                1.1820 Ry au,          3.0044 Debye
        Dipole field          0.0022 Ry au, 
 
        Potential amp.       -0.2068 Ry
        Total length         46.3494 bohr
 

     total cpu time spent up to now is     1450.4 secs

     total energy              =   -2975.15005792 Ry
     estimated scf accuracy    <       0.00001480 Ry

     iteration # 74     ecut=    29.40 Ry     beta= 0.05
     Davidson diagonalization with overlap
     ethr =  3.66E-09,  avg # of iterations =  5.6

     negative rho (up, down):  1.527E-02 0.000E+00
 
     Adding external electric field

     Computed dipole along edir(3) : 
        Dipole                1.1821 Ry au,          3.0046 Debye
        Dipole field          0.0022 Ry au, 
 
        Potential amp.       -0.2068 Ry
        Total length         46.3494 bohr
 

     total cpu time spent up to now is     1465.4 secs

     total energy              =   -2975.15005927 Ry
     estimated scf accuracy    <       0.00000927 Ry

     iteration # 75     ecut=    29.40 Ry     beta= 0.05
     Davidson diagonalization with overlap
     ethr =  2.29E-09,  avg # of iterations = 12.5

     negative rho (up, down):  1.527E-02 0.000E+00
 
     Adding external electric field

     Computed dipole along edir(3) : 
        Dipole                1.1817 Ry au,          3.0035 Debye
        Dipole field          0.0022 Ry au, 
 
        Potential amp.       -0.2067 Ry
        Total length         46.3494 bohr
 

     total cpu time spent up to now is     1489.0 secs

     total energy              =   -2975.15006272 Ry
     estimated scf accuracy    <       0.00000355 Ry

     iteration # 76     ecut=    29.40 Ry     beta= 0.05
     Davidson diagonalization with overlap
     ethr =  8.78E-10,  avg # of iterations =  9.6

     negative rho (up, down):  1.530E-02 0.000E+00
 
     Adding external electric field

     Computed dipole along edir(3) : 
        Dipole                1.1823 Ry au,          3.0050 Debye
        Dipole field          0.0022 Ry au, 
 
        Potential amp.       -0.2068 Ry
        Total length         46.3494 bohr
 

     total cpu time spent up to now is     1507.1 secs

     total energy              =   -2975.15006470 Ry
     estimated scf accuracy    <       0.00000283 Ry

     iteration # 77     ecut=    29.40 Ry     beta= 0.05
     Davidson diagonalization with overlap
     ethr =  6.99E-10,  avg # of iterations =  7.7

     negative rho (up, down):  1.529E-02 0.000E+00
 
     Adding external electric field

     Computed dipole along edir(3) : 
        Dipole                1.1822 Ry au,          3.0047 Debye
        Dipole field          0.0022 Ry au, 
 
        Potential amp.       -0.2068 Ry
        Total length         46.3494 bohr
 

     total cpu time spent up to now is     1523.1 secs

     total energy              =   -2975.15006636 Ry
     estimated scf accuracy    <       0.00000199 Ry

     iteration # 78     ecut=    29.40 Ry     beta= 0.05
     Davidson diagonalization with overlap
     ethr =  4.92E-10,  avg # of iterations = 13.8

     negative rho (up, down):  1.527E-02 0.000E+00
 
     Adding external electric field

     Computed dipole along edir(3) : 
        Dipole                1.1818 Ry au,          3.0039 Debye
        Dipole field          0.0022 Ry au, 
 
        Potential amp.       -0.2067 Ry
        Total length         46.3494 bohr
 

     total cpu time spent up to now is     1547.9 secs

     total energy              =   -2975.15006807 Ry
     estimated scf accuracy    <       0.00000096 Ry

     iteration # 79     ecut=    29.40 Ry     beta= 0.05
     Davidson diagonalization with overlap
     ethr =  2.39E-10,  avg # of iterations = 10.9

     negative rho (up, down):  1.525E-02 0.000E+00
 
     Adding external electric field

     Computed dipole along edir(3) : 
        Dipole                1.1817 Ry au,          3.0035 Debye
        Dipole field          0.0022 Ry au, 
 
        Potential amp.       -0.2067 Ry
        Total length         46.3494 bohr
 

     total cpu time spent up to now is     1565.6 secs

     total energy              =   -2975.15006934 Ry
     estimated scf accuracy    <       0.00000055 Ry

     iteration # 80     ecut=    29.40 Ry     beta= 0.05
     Davidson diagonalization with overlap
     ethr =  1.37E-10,  avg # of iterations =  6.4

     negative rho (up, down):  1.525E-02 0.000E+00
 
     Adding external electric field

     Computed dipole along edir(3) : 
        Dipole                1.1818 Ry au,          3.0038 Debye
        Dipole field          0.0022 Ry au, 
 
        Potential amp.       -0.2067 Ry
        Total length         46.3494 bohr
 

     total cpu time spent up to now is     1581.2 secs

     total energy              =   -2975.15007054 Ry
     estimated scf accuracy    <       0.00000046 Ry

     iteration # 81     ecut=    29.40 Ry     beta= 0.05
     Davidson diagonalization with overlap
     ethr =  1.14E-10,  avg # of iterations =  6.2

     negative rho (up, down):  1.522E-02 0.000E+00
 
     Adding external electric field

     Computed dipole along edir(3) : 
        Dipole                1.1814 Ry au,          3.0029 Debye
        Dipole field          0.0022 Ry au, 
 
        Potential amp.       -0.2067 Ry
        Total length         46.3494 bohr
 

     total cpu time spent up to now is     1596.3 secs

     total energy              =   -2975.15007164 Ry
     estimated scf accuracy    <       0.00000032 Ry

     iteration # 82     ecut=    29.40 Ry     beta= 0.05
     Davidson diagonalization with overlap
     c_bands:  1 eigenvalues not converged
     ethr =  7.81E-11,  avg # of iterations = 10.5

     negative rho (up, down):  1.522E-02 0.000E+00
 
     Adding external electric field

     Computed dipole along edir(3) : 
        Dipole                1.1815 Ry au,          3.0032 Debye
        Dipole field          0.0022 Ry au, 
 
        Potential amp.       -0.2067 Ry
        Total length         46.3494 bohr
 

     total cpu time spent up to now is     1619.7 secs

     total energy              =   -2975.15007268 Ry
     estimated scf accuracy    <       0.00000029 Ry

     iteration # 83     ecut=    29.40 Ry     beta= 0.05
     Davidson diagonalization with overlap
     ethr =  7.27E-11,  avg # of iterations =  8.3

     negative rho (up, down):  1.523E-02 0.000E+00
 
     Adding external electric field

     Computed dipole along edir(3) : 
        Dipole                1.1815 Ry au,          3.0032 Debye
        Dipole field          0.0022 Ry au, 
 
        Potential amp.       -0.2067 Ry
        Total length         46.3494 bohr
 

     total cpu time spent up to now is     1636.1 secs

     total energy              =   -2975.15007354 Ry
     estimated scf accuracy    <       0.00000011 Ry

     iteration # 84     ecut=    29.40 Ry     beta= 0.05
     Davidson diagonalization with overlap
     ethr =  2.65E-11,  avg # of iterations = 11.7

     negative rho (up, down):  1.524E-02 0.000E+00
 
     Adding external electric field

     Computed dipole along edir(3) : 
        Dipole                1.1818 Ry au,          3.0037 Debye
        Dipole field          0.0022 Ry au, 
 
        Potential amp.       -0.2067 Ry
        Total length         46.3494 bohr
 

     total cpu time spent up to now is     1656.0 secs

     End of self-consistent calculation

          k = 0.0000 0.0000 0.0000 ( 18029 PWs)   bands (ev):

   -55.4165 -55.3338 -55.2997 -55.2293 -55.1911 -55.1800 -55.1653 -55.1642
   -55.1492 -55.1296 -55.1014 -55.0302 -55.0222 -54.9958 -54.3281 -54.2940
   -31.8217 -31.7716 -31.7431 -31.7151 -31.6685 -31.6679 -31.6329 -31.6235
   -31.6205 -31.6080 -31.5791 -31.5415 -31.5040 -31.4868 -31.4710 -31.4634
   -31.4465 -31.4434 -31.4425 -31.4080 -31.3914 -31.3801 -31.3744 -31.3707
   -31.3662 -31.3599 -31.3565 -31.3347 -31.3291 -31.3258 -31.3257 -31.3022
   -31.2940 -31.2902 -31.2781 -31.2540 -31.2358 -31.2322 -31.2099 -31.1998
   -31.1965 -31.1931 -30.7351 -30.6462 -30.6238 -30.5524 -30.4658 -30.3542
   -19.3742 -16.2712 -16.0493 -15.8837 -15.6683 -15.6222 -15.5317 -15.3695
   -15.2574 -15.1870 -15.0783 -15.0028 -14.9286 -14.8940 -14.8848 -14.8713
   -14.8660 -14.8150 -14.8061 -14.7922 -14.7818 -14.7714 -14.7644 -14.7304
   -14.6963 -14.6480 -14.6094 -14.4928 -14.4544 -14.4179 -14.2948 -14.2750
   -12.8270 -12.7102 -10.1819  -7.8134  -6.5572  -5.3797  -4.1899  -3.8001
    -3.6633  -3.3920  -3.2835  -3.2517  -3.1884  -3.1570  -2.9025  -2.8031
    -2.7842  -2.6479  -2.5292  -2.4825  -2.4221  -2.3514  -2.3200  -2.2970
    -2.2717  -2.2155  -2.1517  -2.1376  -2.1241  -2.0476  -2.0431  -1.9687
    -1.9198  -1.9068  -1.8020  -1.7295  -1.6982  -1.6850  -1.6734  -1.6567
    -1.6320  -1.6249  -1.6013  -1.5392  -1.4735  -1.4644  -1.3990  -1.3728
    -1.1018  -1.0367  -0.9714  -0.9418  -0.8654  -0.8264  -0.8093  -0.7857
    -0.7423  -0.7394  -0.7179  -0.6576  -0.5594  -0.5046  -0.4739  -0.4546
    -0.4020  -0.2887  -0.2687  -0.1576  -0.1287  -0.1217  -0.0826  -0.0345
     0.0070   0.0463   0.1081   0.1783   0.2284   0.2792   0.3114   0.3375
     0.3780   0.4133   0.4735   0.5511   0.5750   0.6196   0.6495   0.6698
     0.6793   0.7361   0.7530   0.8408   0.9215   0.9329   1.0309   1.0626
     1.1123   1.2980   1.3347   1.6341   1.6803   1.6984   1.8869   2.2681
     2.3145   3.7332   3.8576   3.8877   3.8979   3.9367   3.9701   4.0256
     4.2202   4.2319   4.3436   4.4240

          k = 0.0000 0.0419 0.0000 ( 17933 PWs)   bands (ev):

   -55.4160 -55.3287 -55.3046 -55.2247 -55.1955 -55.1789 -55.1657 -55.1591
   -55.1461 -55.1345 -55.1044 -55.0258 -55.0232 -55.0001 -54.3230 -54.2989
   -31.7677 -31.7312 -31.7112 -31.6654 -31.6599 -31.6261 -31.6196 -31.6187
   -31.5878 -31.5798 -31.5726 -31.5120 -31.5004 -31.4962 -31.4729 -31.4565
   -31.4501 -31.4486 -31.4387 -31.4096 -31.4053 -31.4030 -31.3868 -31.3847
   -31.3806 -31.3762 -31.3756 -31.3491 -31.3384 -31.3319 -31.3299 -31.3227
   -31.3096 -31.3002 -31.2962 -31.2957 -31.2552 -31.2407 -31.2320 -31.2275
   -31.2085 -31.1990 -30.6810 -30.6427 -30.6269 -30.5398 -30.4784 -30.4114
   -19.3723 -16.2590 -15.9403 -15.7772 -15.6092 -15.5426 -15.4281 -15.2928
   -15.1995 -15.1602 -15.1202 -15.0784 -14.9899 -14.9375 -14.8962 -14.8616
   -14.8497 -14.8269 -14.8200 -14.8141 -14.8058 -14.7827 -14.7627 -14.7576
   -14.7125 -14.6436 -14.6194 -14.5490 -14.5143 -14.4763 -14.3680 -14.3234
   -12.8309 -12.7496 -10.1700  -7.8162  -6.5577  -5.3885  -4.1703  -3.8046
    -3.6615  -3.2100  -3.1196  -3.0763  -3.0668  -3.0078  -2.7795  -2.6756
    -2.6138  -2.5017  -2.4612  -2.4294  -2.4087  -2.3588  -2.3421  -2.3167
    -2.2750  -2.2400  -2.2359  -2.2268  -2.1130  -2.0937  -2.0605  -2.0597
    -2.0065  -1.9755  -1.9480  -1.9279  -1.9055  -1.8699  -1.8556  -1.7658
    -1.7255  -1.6498  -1.6240  -1.5268  -1.4293  -1.3531  -1.1992  -1.1756
    -1.1195  -1.1049  -1.0043  -0.9011  -0.8681  -0.7946  -0.7228  -0.6665
    -0.6211  -0.5930  -0.5749  -0.5438  -0.4894  -0.4241  -0.3460  -0.3235
    -0.2920  -0.2760  -0.2368  -0.1944  -0.1830  -0.1435  -0.1167  -0.0790
    -0.0528   0.0306   0.0583   0.0876   0.1466   0.1902   0.2178   0.2844
     0.3295   0.3930   0.4261   0.4501   0.4600   0.4838   0.5255   0.5944
     0.6932   0.7107   0.7437   0.8276   0.8583   0.8954   0.9316   0.9558
     0.9881   1.0561   1.1987   1.3119   1.5679   1.8852   1.9743   2.2233
     2.2259   3.8535   3.9513   3.9840   4.0399   4.1303   4.1423   4.1760
     4.2019   4.3113   4.3381   4.3564

          k = 0.0000-0.0839 0.0000 ( 17884 PWs)   bands (ev):

   -55.4156 -55.3169 -55.3164 -55.2180 -55.2022 -55.1778 -55.1660 -55.1478
   -55.1464 -55.1417 -55.1081 -55.0243 -55.0189 -55.0070 -54.3114 -54.3104
   -31.6819 -31.6707 -31.6627 -31.6355 -31.6352 -31.6217 -31.6090 -31.6086
   -31.5680 -31.5328 -31.5173 -31.4955 -31.4864 -31.4627 -31.4564 -31.4519
   -31.4424 -31.4399 -31.4394 -31.4389 -31.4322 -31.4282 -31.4265 -31.4229
   -31.4130 -31.4093 -31.4055 -31.4014 -31.3672 -31.3455 -31.3415 -31.3250
   -31.3240 -31.3206 -31.3189 -31.2986 -31.2863 -31.2847 -31.2458 -31.2326
   -31.2068 -31.1987 -30.6349 -30.6342 -30.5486 -30.5473 -30.5095 -30.5087
   -19.3704 -16.2498 -15.7810 -15.5954 -15.4930 -15.4631 -15.3078 -15.2865
   -15.2496 -15.2242 -15.1235 -15.0959 -15.0599 -15.0099 -14.9506 -14.9155
   -14.8946 -14.8426 -14.8271 -14.8148 -14.7374 -14.7336 -14.7192 -14.6951
   -14.6823 -14.6678 -14.6503 -14.6308 -14.6033 -14.5607 -14.4553 -14.3998
   -12.8126 -12.8120 -10.1585  -7.8191  -6.5579  -5.3959  -4.1521  -3.8109
    -3.6564  -2.8570  -2.8139  -2.8068  -2.7244  -2.7003  -2.6663  -2.6462
    -2.6377  -2.6325  -2.5559  -2.5274  -2.4257  -2.4164  -2.3948  -2.3771
    -2.3556  -2.3343  -2.3199  -2.2658  -2.2108  -2.2082  -2.1786  -2.1654
    -2.0795  -2.0686  -2.0219  -1.9518  -1.9038  -1.8541  -1.7507  -1.6416
    -1.6213  -1.5130  -1.4950  -1.4761  -1.4244  -1.3732  -1.1945  -1.1179
    -1.0521  -0.9967  -0.9799  -0.8605  -0.8215  -0.7964  -0.7760  -0.7680
    -0.7369  -0.7077  -0.6931  -0.6525  -0.5352  -0.5195  -0.5048  -0.4747
    -0.3909  -0.1956  -0.0814  -0.0619  -0.0509   0.0021   0.0308   0.0340
     0.0592   0.0815   0.1354   0.1404   0.1731   0.1862   0.1995   0.2473
     0.2724   0.3052   0.3517   0.3703   0.4055   0.4362   0.4512   0.4616
     0.5296   0.5630   0.5745   0.6272   0.6918   0.8149   0.8539   0.8921
     0.8947   1.0453   1.1346   1.3132   1.3513   2.0259   2.0347   2.1586
     2.1596   3.7982   4.1541   4.1906   4.2056   4.2230   4.2465   4.2484
     4.3021   4.3297   4.3665   4.4148

          k = 0.0380 0.0000 0.0000 ( 17913 PWs)   bands (ev):

   -55.4164 -55.3337 -55.2996 -55.2291 -55.1910 -55.1799 -55.1653 -55.1637
   -55.1495 -55.1295 -55.1013 -55.0301 -55.0221 -54.9957 -54.3280 -54.2939
   -31.8225 -31.7718 -31.7453 -31.7172 -31.6681 -31.6645 -31.6377 -31.6233
   -31.6200 -31.6082 -31.5790 -31.5419 -31.5038 -31.4837 -31.4618 -31.4463
   -31.4436 -31.4431 -31.4423 -31.4022 -31.3912 -31.3798 -31.3737 -31.3662
   -31.3637 -31.3585 -31.3565 -31.3451 -31.3396 -31.3289 -31.3252 -31.3021
   -31.2958 -31.2901 -31.2769 -31.2545 -31.2372 -31.2320 -31.2189 -31.1967
   -31.1965 -31.1931 -30.7346 -30.6496 -30.6218 -30.5522 -30.4657 -30.3540
   -19.3737 -16.2612 -15.9796 -15.8076 -15.6640 -15.5546 -15.4457 -15.3828
   -15.2715 -15.1903 -15.1412 -15.1042 -15.0350 -14.9972 -14.9905 -14.9246
   -14.8722 -14.8287 -14.8152 -14.8050 -14.7840 -14.7616 -14.6650 -14.6412
   -14.5887 -14.5872 -14.5577 -14.5465 -14.5252 -14.4894 -14.2917 -14.2741
   -12.8237 -12.7099 -10.1796  -7.7951  -6.5550  -5.4121  -4.1774  -3.8116
    -3.6287  -3.2693  -3.0927  -3.0180  -2.9850  -2.9752  -2.8691  -2.8171
    -2.7824  -2.7222  -2.6824  -2.6372  -2.5578  -2.4311  -2.4250  -2.3303
    -2.2700  -2.1434  -2.0830  -2.0544  -2.0228  -1.9906  -1.9341  -1.9206
    -1.8617  -1.7899  -1.7475  -1.7228  -1.6874  -1.6842  -1.6609  -1.6240
    -1.6126  -1.5843  -1.5720  -1.4754  -1.3965  -1.3045  -1.2610  -1.1613
    -1.1305  -1.0867  -1.0312  -0.9648  -0.9273  -0.8989  -0.8570  -0.8010
[...]

          k = 0.0380 0.0419 0.0000 ( 17878 PWs)   bands (ev):

   -55.4160 -55.3287 -55.3046 -55.2246 -55.1955 -55.1788 -55.1657 -55.1587
   -55.1463 -55.1345 -55.1044 -55.0258 -55.0232 -55.0000 -54.3229 -54.2989
   -31.7685 -31.7316 -31.7134 -31.6620 -31.6617 -31.6263 -31.6191 -31.6184
   -31.5881 -31.5850 -31.5730 -31.5128 -31.5005 -31.4960 -31.4703 -31.4491
   -31.4479 -31.4386 -31.4334 -31.4124 -31.4049 -31.3938 -31.3873 -31.3811
   -31.3758 -31.3739 -31.3724 -31.3495 -31.3434 -31.3427 -31.3313 -31.3288
   -31.3070 -31.3013 -31.3002 -31.2960 -31.2549 -31.2416 -31.2331 -31.2275
   -31.2150 -31.1986 -30.6806 -30.6454 -30.6258 -30.5396 -30.4785 -30.4112
   -19.3719 -16.2523 -15.8836 -15.7097 -15.6046 -15.4576 -15.3605 -15.2904
   -15.2159 -15.1560 -15.1400 -15.1130 -15.0460 -15.0057 -14.9841 -14.8931
   -14.8816 -14.8639 -14.8526 -14.8218 -14.8033 -14.7831 -14.6862 -14.6713
   -14.6622 -14.6470 -14.6129 -14.5944 -14.5767 -14.5306 -14.3657 -14.3232
   -12.8286 -12.7499 -10.1673  -7.7968  -6.5542  -5.4199  -4.1650  -3.8185
    -3.6345  -3.1091  -2.9443  -2.8612  -2.8413  -2.8016  -2.7323  -2.6785
    -2.6170  -2.5637  -2.5232  -2.4565  -2.3839  -2.3660  -2.2782  -2.2679
    -2.2380  -2.2288  -2.1733  -2.1499  -2.1123  -2.0708  -2.0454  -2.0323
    -1.9990  -1.9717  -1.9558  -1.9120  -1.8787  -1.8155  -1.7739  -1.7289
    -1.6717  -1.6190  -1.5411  -1.4603  -1.3695  -1.3311  -1.3017  -1.1664
    -1.1079  -1.0284  -0.9969  -0.9355  -0.9108  -0.8267  -0.7558  -0.7232
    -0.6897  -0.6711  -0.6446  -0.5985  -0.5515  -0.5167  -0.4916  -0.4399
    -0.3758  -0.3255  -0.3076  -0.2660  -0.2063  -0.1970  -0.1512  -0.1188
    -0.0717  -0.0460  -0.0191   0.0175   0.0494   0.0948   0.1765   0.2021
     0.2206   0.2672   0.3039   0.3471   0.3996   0.4392   0.4758   0.5785
     0.6135   0.6799   0.7590   0.8023   0.8466   0.8783   0.9307   0.9871
     1.0567   1.0831   1.1772   1.2753   1.5062   1.8955   1.9775   2.1459
     2.2069   3.8331   3.9387   3.9669   4.0384   4.1773   4.2088   4.2243
     4.2774   4.3150   4.3452   4.3768

          k = 0.0380-0.0839 0.0000 ( 17916 PWs)   bands (ev):

   -55.4156 -55.3169 -55.3164 -55.2180 -55.2022 -55.1777 -55.1661 -55.1473
   -55.1464 -55.1422 -55.1082 -55.0243 -55.0189 -55.0070 -54.3114 -54.3104
   -31.6831 -31.6725 -31.6591 -31.6362 -31.6360 -31.6215 -31.6090 -31.6087
   -31.5680 -31.5349 -31.5193 -31.4959 -31.4867 -31.4719 -31.4619 -31.4535
   -31.4463 -31.4445 -31.4426 -31.4380 -31.4376 -31.4267 -31.4185 -31.4035
   -31.4026 -31.3982 -31.3955 -31.3901 -31.3672 -31.3459 -31.3445 -31.3305
   -31.3249 -31.3238 -31.3204 -31.3100 -31.2859 -31.2847 -31.2459 -31.2359
   -31.2103 -31.2020 -30.6359 -30.6352 -30.5485 -30.5472 -30.5095 -30.5087
   -19.3700 -16.2460 -15.7674 -15.5481 -15.4394 -15.4129 -15.2658 -15.2384
   -15.2050 -15.1972 -15.1373 -15.0600 -15.0523 -15.0177 -14.9683 -14.9655
   -14.9114 -14.9020 -14.8276 -14.8090 -14.7737 -14.7646 -14.7286 -14.7214
   -14.7170 -14.7015 -14.6962 -14.6784 -14.6541 -14.5418 -14.4471 -14.3984
   -12.8124 -12.8118 -10.1558  -7.7998  -6.5532  -5.4289  -4.1502  -3.8154
    -3.6396  -2.8441  -2.7307  -2.6135  -2.5946  -2.5390  -2.5020  -2.4916
    -2.4570  -2.4462  -2.4393  -2.4351  -2.3876  -2.3698  -2.3166  -2.2875
    -2.2804  -2.2583  -2.2448  -2.2342  -2.1972  -2.1693  -2.1292  -2.1060
    -2.0481  -2.0383  -2.0083  -1.9583  -1.9359  -1.9293  -1.7266  -1.6239
    -1.5402  -1.5288  -1.5116  -1.4508  -1.3615  -1.3127  -1.2283  -1.1912
    -1.1593  -1.1324  -1.0988  -1.0698  -1.0435  -1.0103  -1.0048  -0.8804
    -0.8634  -0.7689  -0.6953  -0.6497  -0.5982  -0.5543  -0.5195  -0.4926
    -0.4097  -0.3116  -0.2765  -0.2020  -0.1638  -0.1361  -0.1059  -0.0797
    -0.0648  -0.0464  -0.0110   0.0325   0.0540   0.0807   0.1038   0.1353
     0.1696   0.1988   0.2926   0.3116   0.3598   0.4647   0.4750   0.5623
     0.6002   0.6567   0.7532   0.7632   0.7872   0.8642   0.8883   0.9340
     0.9514   1.0388   1.1230   1.2942   1.3054   2.0392   2.0475   2.1486
     2.1497   3.7934   4.0301   4.1591   4.1772   4.2024   4.2208   4.2460
     4.3134   4.3375   4.3929   4.4049

          k = 0.0380-0.0419 0.0000 ( 17876 PWs)   bands (ev):

   -55.4160 -55.3287 -55.3046 -55.2246 -55.1955 -55.1788 -55.1657 -55.1587
   -55.1463 -55.1345 -55.1044 -55.0258 -55.0232 -55.0000 -54.3229 -54.2989
   -31.7685 -31.7315 -31.7133 -31.6621 -31.6618 -31.6263 -31.6191 -31.6184
   -31.5881 -31.5850 -31.5730 -31.5128 -31.5005 -31.4960 -31.4703 -31.4492
   -31.4478 -31.4385 -31.4333 -31.4151 -31.4049 -31.3906 -31.3875 -31.3810
   -31.3758 -31.3739 -31.3724 -31.3495 -31.3434 -31.3430 -31.3313 -31.3288
   -31.3071 -31.3012 -31.3001 -31.2961 -31.2549 -31.2410 -31.2340 -31.2274
   -31.2150 -31.1986 -30.6806 -30.6454 -30.6258 -30.5396 -30.4785 -30.4112
   -19.3718 -16.2534 -15.8832 -15.7096 -15.6059 -15.4609 -15.3614 -15.2901
   -15.2151 -15.1548 -15.1334 -15.1144 -15.0382 -15.0061 -14.9844 -14.8975
   -14.8824 -14.8641 -14.8512 -14.8197 -14.7990 -14.7832 -14.6874 -14.6760
   -14.6670 -14.6490 -14.6124 -14.5949 -14.5771 -14.5307 -14.3624 -14.3244
   -12.8286 -12.7499 -10.1675  -7.7979  -6.5543  -5.4225  -4.1611  -3.8083
    -3.6373  -3.1088  -2.9446  -2.8638  -2.8501  -2.8009  -2.7306  -2.6776
    -2.6129  -2.5550  -2.5278  -2.4547  -2.3856  -2.3660  -2.2762  -2.2656
    -2.2429  -2.2255  -2.1749  -2.1430  -2.1106  -2.0691  -2.0483  -2.0320
    -1.9959  -1.9716  -1.9488  -1.9172  -1.8806  -1.8140  -1.7661  -1.7442
    -1.6770  -1.6057  -1.5379  -1.4600  -1.3712  -1.3283  -1.2951  -1.1803
    -1.0949  -1.0397  -1.0261  -0.9722  -0.8960  -0.8603  -0.7607  -0.7122
    -0.6829  -0.6584  -0.6328  -0.5789  -0.5534  -0.5096  -0.4832  -0.4475
    -0.3822  -0.3393  -0.3136  -0.2614  -0.2057  -0.1902  -0.1553  -0.1045
    -0.0702  -0.0437  -0.0131   0.0201   0.0583   0.0798   0.1418   0.1857
     0.2175   0.2619   0.3206   0.3788   0.3928   0.4442   0.4714   0.5995
     0.6226   0.6736   0.7611   0.8127   0.8440   0.8819   0.9293   0.9815
     1.0446   1.0815   1.1770   1.2754   1.5071   1.8955   1.9775   2.1457
     2.2075   3.8366   3.9392   3.9655   4.0183   4.1772   4.2100   4.2270
     4.2679   4.3145   4.3445   4.3753

          k =-0.0760-0.0000 0.0000 ( 17886 PWs)   bands (ev):

   -55.4163 -55.3336 -55.2996 -55.2291 -55.1910 -55.1797 -55.1654 -55.1633
   -55.1498 -55.1295 -55.1013 -55.0301 -55.0221 -54.9957 -54.3279 -54.2939
   -31.8234 -31.7721 -31.7476 -31.7192 -31.6683 -31.6608 -31.6424 -31.6232
   -31.6193 -31.6085 -31.5790 -31.5424 -31.5036 -31.4807 -31.4524 -31.4461
   -31.4431 -31.4423 -31.3981 -31.3953 -31.3916 -31.3913 -31.3788 -31.3731
   -31.3653 -31.3578 -31.3575 -31.3565 -31.3480 -31.3288 -31.3251 -31.3021
   -31.2974 -31.2900 -31.2757 -31.2555 -31.2386 -31.2318 -31.2286 -31.1966
   -31.1945 -31.1930 -30.7342 -30.6529 -30.6205 -30.5521 -30.4656 -30.3541
   -19.3732 -16.2531 -15.8770 -15.7133 -15.6951 -15.4646 -15.3628 -15.3509
   -15.2692 -15.2168 -15.1879 -15.1657 -15.1180 -15.0791 -15.0628 -15.0377
   -14.8669 -14.8475 -14.8370 -14.7953 -14.7710 -14.7240 -14.6833 -14.6705
   -14.6367 -14.6016 -14.5228 -14.5114 -14.4986 -14.4659 -14.2891 -14.2748
   -12.8207 -12.7095 -10.1774  -7.7767  -6.5525  -5.4454  -4.1679  -3.8176
    -3.5992  -3.2388  -3.0008  -2.8993  -2.8619  -2.8133  -2.7941  -2.7672
    -2.6784  -2.6777  -2.6219  -2.6063  -2.6032  -2.5907  -2.3108  -2.3043
    -2.1738  -2.0717  -2.0169  -1.9625  -1.9475  -1.9298  -1.8582  -1.8409
    -1.8090  -1.7990  -1.7468  -1.7175  -1.7160  -1.6840  -1.6322  -1.6004
    -1.5814  -1.5721  -1.5069  -1.5043  -1.4553  -1.4093  -1.2713  -1.1410
    -1.0908  -0.9834  -0.9632  -0.9468  -0.9356  -0.9280  -0.9157  -0.8569
    -0.8165  -0.8058  -0.7916  -0.7387  -0.7129  -0.6667  -0.5845  -0.5702
    -0.5416  -0.4551  -0.4437  -0.2961  -0.2542  -0.1848  -0.1137  -0.0444
     0.0246   0.0368   0.0555   0.0891   0.1175   0.1756   0.1801   0.2371
     0.3160   0.3242   0.3538   0.3892   0.4149   0.4823   0.4864   0.5566
     0.5693   0.5826   0.6528   0.7026   0.8401   0.8519   0.8836   0.9522
     1.0832   1.2376   1.2631   1.3432   1.6470   1.7313   1.8318   2.0286
     2.1775   3.7462   3.7903   3.8485   4.0322   4.0585   4.0798   4.1342
     4.1389   4.2184   4.2865   4.3197

          k =-0.0760 0.0419 0.0000 ( 17914 PWs)   bands (ev):

   -55.4160 -55.3287 -55.3046 -55.2246 -55.1955 -55.1787 -55.1658 -55.1584
   -55.1466 -55.1345 -55.1045 -55.0258 -55.0232 -55.0001 -54.3229 -54.2989
   -31.7695 -31.7319 -31.7156 -31.6643 -31.6586 -31.6267 -31.6187 -31.6185
   -31.5905 -31.5882 -31.5733 -31.5137 -31.5008 -31.4961 -31.4681 -31.4488
   -31.4401 -31.4384 -31.4167 -31.4049 -31.3994 -31.3887 -31.3825 -31.3809
   -31.3793 -31.3749 -31.3703 -31.3609 -31.3509 -31.3487 -31.3311 -31.3279
   -31.3094 -31.3058 -31.3003 -31.2961 -31.2548 -31.2424 -31.2349 -31.2275
   -31.2224 -31.1983 -30.6804 -30.6482 -30.6252 -30.5396 -30.4785 -30.4113
   -19.3714 -16.2474 -15.8143 -15.6215 -15.6016 -15.3714 -15.2878 -15.2764
   -15.2207 -15.1544 -15.1312 -15.1204 -15.0975 -15.0889 -15.0524 -14.9882
   -14.8856 -14.8795 -14.8751 -14.8334 -14.8107 -14.7850 -14.6958 -14.6872
   -14.6843 -14.6422 -14.6190 -14.6048 -14.5647 -14.5319 -14.3603 -14.3260
   -12.8265 -12.7502 -10.1650  -7.7784  -6.5505  -5.4549  -4.1576  -3.8207
    -3.6105  -3.0880  -2.8629  -2.7363  -2.6516  -2.6090  -2.5785  -2.5514
    -2.5301  -2.4551  -2.4450  -2.3923  -2.3883  -2.3100  -2.2957  -2.2817
    -2.2285  -2.1902  -2.1269  -2.1060  -2.0705  -2.0239  -2.0016  -1.9637
    -1.9505  -1.9296  -1.8911  -1.8706  -1.8669  -1.8229  -1.8052  -1.7493
    -1.5647  -1.5298  -1.4905  -1.4050  -1.3551  -1.3363  -1.3136  -1.1673
    -1.1281  -1.0652  -1.0157  -0.9747  -0.9275  -0.8938  -0.8620  -0.8158
    -0.7649  -0.7109  -0.6983  -0.6358  -0.6135  -0.6094  -0.5796  -0.5707
    -0.5371  -0.5036  -0.4562  -0.4224  -0.3797  -0.3373  -0.2828  -0.2489
    -0.1675  -0.1201  -0.0909  -0.0715  -0.0269   0.0012   0.0451   0.1022
     0.1754   0.2545   0.3080   0.3666   0.4275   0.4507   0.4699   0.5082
     0.5394   0.6624   0.7865   0.8156   0.9274   0.9765   0.9910   1.0726
     1.1216   1.1345   1.1541   1.2495   1.3296   1.9095   1.9794   2.0684
     2.1961   3.8082   3.9325   3.9642   3.9959   4.0826   4.1447   4.1610
     4.2051   4.2553   4.3791   4.3972

          k =-0.0760-0.0839 0.0000 ( 17948 PWs)   bands (ev):

   -55.4156 -55.3169 -55.3165 -55.2180 -55.2022 -55.1776 -55.1662 -55.1466
   -55.1463 -55.1429 -55.1082 -55.0243 -55.0189 -55.0070 -54.3115 -54.3105
   -31.6838 -31.6743 -31.6558 -31.6370 -31.6367 -31.6212 -31.6091 -31.6087
   -31.5681 -31.5369 -31.5212 -31.4961 -31.4867 -31.4785 -31.4669 -31.4540
   -31.4525 -31.4471 -31.4439 -31.4368 -31.4364 -31.4269 -31.4112 -31.4032
   -31.3990 -31.3814 -31.3674 -31.3671 -31.3608 -31.3584 -31.3534 -31.3435
   -31.3290 -31.3249 -31.3236 -31.3202 -31.2856 -31.2847 -31.2460 -31.2392
   -31.2140 -31.2055 -30.6369 -30.6362 -30.5485 -30.5472 -30.5095 -30.5087
   -19.3697 -16.2422 -15.7538 -15.4854 -15.3602 -15.3483 -15.2270 -15.2107
   -15.1484 -15.1401 -15.1106 -15.0976 -15.0869 -15.0425 -15.0137 -14.9304
   -14.9148 -14.8740 -14.8706 -14.8248 -14.8225 -14.8209 -14.7991 -14.7776
   -14.7717 -14.7466 -14.7218 -14.6835 -14.6702 -14.5331 -14.4402 -14.3979
   -12.8122 -12.8116 -10.1532  -7.7802  -6.5483  -5.4627  -4.1487  -3.8193
    -3.6228  -2.8411  -2.6982  -2.5967  -2.4868  -2.4547  -2.4061  -2.3569
    -2.3434  -2.3117  -2.2398  -2.2115  -2.1964  -2.1604  -2.1593  -2.1361
    -2.1264  -2.1066  -2.0783  -2.0585  -2.0486  -2.0422  -2.0153  -1.9996
    -1.9853  -1.9601  -1.9322  -1.9113  -1.8978  -1.8902  -1.8396  -1.7343
    -1.6456  -1.5667  -1.5303  -1.5046  -1.4921  -1.4456  -1.4322  -1.4206
    -1.3850  -1.3616  -1.2273  -1.2055  -1.0673  -1.0121  -0.9781  -0.9325
    -0.8784  -0.8699  -0.8530  -0.8132  -0.7738  -0.6411  -0.6096  -0.5750
    -0.5072  -0.4439  -0.3567  -0.3425  -0.3183  -0.3010  -0.2654  -0.2462
    -0.2320  -0.2022  -0.1728  -0.0946  -0.0605  -0.0483  -0.0297   0.0693
     0.1686   0.2083   0.2722   0.3416   0.3834   0.4081   0.4371   0.6221
     0.6518   0.7953   0.8040   0.8086   0.9538   0.9540   1.0021   1.0509
     1.0812   1.1234   1.1524   1.1671   1.2022   2.0572   2.0655   2.1347
     2.1349   3.7700   3.9350   4.1583   4.1808   4.2393   4.2505   4.2815
     4.3072   4.3367   4.3775   4.3965

     the Fermi energy is     3.7830 ev

!    total energy              =   -2975.15008121 Ry
     estimated scf accuracy    <       0.00000006 Ry
     smearing contrib. (-TS)   =      -0.03329846 Ry
     internal energy E=F+TS    =   -2975.11678275 Ry

     The total energy is F=E-TS. E is the sum of the following terms:
     one-electron contribution =  -23379.76110309 Ry
     hartree contribution      =   11787.13855602 Ry
     xc contribution           =    -494.89815687 Ry
     ewald contribution        =    9112.40128575 Ry
     electric field correction =       0.00263544 Ry

     convergence has been achieved in  84 iterations

     Forces acting on atoms (cartesian axes, Ry/au):

     atom    1 type  1   force =     0.00028411   -0.00019942    0.09344912
     atom    2 type  1   force =    -0.00005553    0.00053290   -0.17635408
     atom    3 type  2   force =     0.00004304   -0.00029228   -0.02071508
     atom    4 type  2   force =     0.00001678   -0.00222305    0.05687500
     atom    5 type  2   force =    -0.00784410   -0.00263832    0.00514207
     atom    6 type  2   force =     0.00890973   -0.00212087    0.00326122
     atom    7 type  1   force =    -0.00077978   -0.00333046    0.00574717
     atom    8 type  1   force =     0.00086275    0.00107673   -0.00173179
     atom    9 type  2   force =    -0.00018680    0.00014874    0.00006242
     atom   10 type  2   force =    -0.00341849    0.00106236   -0.00642025
     atom   11 type  2   force =     0.00018924   -0.00013085    0.00032689
     atom   12 type  2   force =    -0.00012177   -0.00022661    0.00004955
     atom   13 type  1   force =     0.00000662   -0.00005521   -0.00019819
     atom   14 type  1   force =     0.00053193   -0.00037046   -0.00025072
     atom   15 type  2   force =    -0.00002492   -0.00099996   -0.00043820
     atom   16 type  2   force =     0.00020860    0.00063514    0.00086405
     atom   17 type  2   force =    -0.00127421    0.00034279   -0.00040734
     atom   18 type  2   force =     0.00133092   -0.00000953   -0.00070393
     atom   19 type  1   force =     0.00006352    0.00059267   -0.00002929
     atom   20 type  1   force =     0.00052334    0.00026336   -0.00058709
     atom   21 type  2   force =     0.00011527    0.00005080    0.10356735
     atom   22 type  2   force =     0.00011353    0.00008598    0.00068921
     atom   23 type  2   force =    -0.07135507   -0.00017265   -0.02700222
     atom   24 type  2   force =     0.07135004    0.00027680   -0.02703407
     atom   25 type  1   force =     0.00007338   -0.00017536    0.09321488
     atom   26 type  1   force =     0.00008430   -0.00126079   -0.17656137
     atom   27 type  2   force =     0.00007749   -0.00015466   -0.01948463
     atom   28 type  2   force =     0.00001822   -0.00059934    0.05224270
     atom   29 type  2   force =    -0.00741847    0.00176059    0.00490285
     atom   30 type  2   force =     0.00834791    0.00234607    0.00300575
     atom   31 type  1   force =    -0.00097938    0.00886099   -0.00437593
     atom   32 type  1   force =     0.00094447   -0.00221909   -0.00239704
     atom   33 type  2   force =    -0.00022430   -0.00136392   -0.00063979
     atom   34 type  2   force =    -0.00214480   -0.00210806   -0.00762333
     atom   35 type  2   force =    -0.00001288    0.00015988    0.00028696
     atom   36 type  2   force =     0.00017522    0.00015535    0.00022609
     atom   37 type  1   force =     0.00003260   -0.00030799    0.00014111
     atom   38 type  1   force =     0.00035185    0.00047381    0.00018627
     atom   39 type  2   force =    -0.00000532    0.00074140   -0.00016316
     atom   40 type  2   force =     0.00021290   -0.00016444    0.00040983
     atom   41 type  2   force =    -0.00045786   -0.00011679    0.00019229
     atom   42 type  2   force =     0.00081851   -0.00024646    0.00006479
     atom   43 type  1   force =     0.00038214   -0.00065406   -0.00027273
     atom   44 type  1   force =     0.00005939    0.00090526    0.00022548
     atom   45 type  2   force =     0.00010115   -0.00008890    0.10332589
     atom   46 type  2   force =    -0.07139694   -0.00003353   -0.02704002
     atom   47 type  2   force =     0.07137234    0.00038284   -0.02707189
     atom   48 type  3   force =    -0.00127511    0.00046453   -0.00026379
     atom   49 type  3   force =     0.00031672    0.00053215    0.00036612
     atom   50 type  4   force =     0.00584656   -0.00688000    0.00161462
     atom   51 type  5   force =     0.00116063   -0.00114740   -0.00029639
     atom   52 type  5   force =    -0.00549333    0.00709505   -0.00166236
     atom   53 type  5   force =    -0.00016472    0.00049141    0.00000761
     atom   54 type  5   force =    -0.00019472    0.00023215   -0.00037122
     atom   55 type  5   force =    -0.00000866    0.00041266    0.00050607
     atom   56 type  2   force =     0.00076669    0.00090195   -0.00007086
     atom   57 type  5   force =    -0.00085470   -0.00069392   -0.00078659

     Total force =     0.363327     Total SCF correction =     0.000773
  @ DRIVER MODE: Message from server: STATUS
  @ DRIVER MODE: Message from server: GETFORCE
  @ DRIVER MODE: Returning v,forces,stress,ensemble 

     Writing output data file ./calc.save/
  @ DRIVER MODE: Message from server: EXIT
  @ DRIVE MODE: Exiting  
 
     init_run     :     13.53s CPU     13.92s WALL (       1 calls)
     electrons    :   1602.15s CPU   1641.75s WALL (       1 calls)
     forces       :      2.90s CPU      3.05s WALL (       1 calls)

     Called by init_run:
     wfcinit      :      5.89s CPU      6.05s WALL (       1 calls)
     potinit      :      6.88s CPU      6.97s WALL (       1 calls)
     hinit0       :      0.36s CPU      0.38s WALL (       1 calls)

     Called by electrons:
     c_bands      :   1352.42s CPU   1373.97s WALL (      84 calls)
     sum_band     :    170.01s CPU    178.79s WALL (      84 calls)
     v_of_rho     :     59.40s CPU     61.82s WALL (      85 calls)
     newd         :     23.93s CPU     30.64s WALL (      85 calls)
     mix_rho      :      2.20s CPU      2.31s WALL (      84 calls)
     vdW_kernel   :      5.84s CPU      5.86s WALL (       1 calls)

     Called by c_bands:
     init_us_2    :      9.93s CPU     10.00s WALL (    1700 calls)
     cegterg      :   1324.28s CPU   1345.26s WALL (     859 calls)

     Called by *egterg:
     cdiaghg      :    208.40s CPU    209.40s WALL (    8296 calls)
     h_psi        :    724.66s CPU    738.42s WALL (    8313 calls)
     s_psi        :     96.18s CPU     96.50s WALL (    8313 calls)
     g_psi        :      2.59s CPU      2.60s WALL (    7444 calls)

     Called by h_psi:
     h_psi:calbec :     89.50s CPU     91.14s WALL (    8313 calls)
     vloc_psi     :    534.64s CPU    541.83s WALL (    8313 calls)
     add_vuspsi   :     96.30s CPU     98.46s WALL (    8313 calls)

     General routines
     calbec       :    118.74s CPU    120.47s WALL (    9193 calls)
     fft          :     30.58s CPU     30.74s WALL (    5355 calls)
     ffts         :      0.20s CPU      0.21s WALL (     169 calls)
     fftw         :    600.04s CPU    608.06s WALL ( 1129732 calls)
     interpolate  :      0.61s CPU      0.62s WALL (      85 calls)
     davcio       :      0.00s CPU      0.52s WALL (      10 calls)
 
     Parallel routines
 
     PWSCF        :  26m58.86s CPU  28m19.75s WALL

 
   This run was terminated on:  23:24:59  23Sep2021            

=------------------------------------------------------------------------------=
   JOB DONE.
=------------------------------------------------------------------------------=
