
     Program PWSCF v.6.7GPU starts on 10Sep2021 at 19:53:51 

     This program is part of the open-source Quantum ESPRESSO suite
     for quantum simulation of materials; please cite
         "P. Giannozzi et al., J. Phys.:Condens. Matter 21 395502 (2009);
         "P. Giannozzi et al., J. Phys.:Condens. Matter 29 465901 (2017);
         "P. Giannozzi et al., J. Chem. Phys. 152 154105 (2020);
          URL http://www.quantum-espresso.org", 
     in publications or presentations arising from this work. More details at
     http://www.quantum-espresso.org/quote

     Parallel version (MPI), running on    10 processors

     MPI processes distributed on     1 nodes
     R & G space division:  proc/nbgrp/npool/nimage =      10
     Reading input from /storage/home/hcoda1/3/ntian30/research/carbon/CxH_vib/CH2_calc/ads_slab/CH2OH_f/out_0007/pw.inp
Warning: card &CELL ignored
Warning: card   CELL_DYNAMICS='IPI', ignored
Warning: card / ignored

     Current dimensions of program PWSCF are:
     Max number of different atomic species (ntypx) = 10
     Max number of k-points (npk) =  40000
     Max angular momentum in pseudopotentials (lmaxx) =  3
     Presently no symmetry can be used with electric field

     Message from routine cell_base_init:
     DEPRECATED: use true lattice parameter, not A to a.u. conversion factor

     **************************************************************************
     Initializing libbeef V0.1.2 with the BEEF-vdW functional.
     Citation: Wellendorff et al., PRB 85, 235149 (2012).
     **************************************************************************


     IMPORTANT: XC functional enforced from input :
     Exchange-correlation= BEEF-VDW
                           (   1   4  43  14   2   0   0)
     Any further DFT definition will be discarded
     Please, verify this is what you really want


     Subspace diagonalization in iterative solution of the eigenvalue problem:
     one sub-group per band group will be used
     scalapack distributed-memory algorithm (size of sub-group:  3*  3 procs)

  @ DRIVER MODE: Connecting to 
 qe_1139763_2792042.sched-torque.pace.gatech.edub17_t831_scratch
  using UNIX socket
  @ DRIVER MODE: Message from server: STATUS
  @ DRIVER MODE: Message from server: INIT
  @ DRIVER MODE: Receiving replica           0          -1
  @ DRIVER MODE: Receiving encoded integer          25
  @ DRIVER MODE:  SCF:  T  FORCE:  T  STRESS:  F  VC:  F  ENSEMBLE:  F
  @ DRIVER MODE:  SCF:  T  FORCE:  T  STRESS:  F  VC:  F  ENSEMBLE:  F
 
     Parallelization info
     --------------------
     sticks:   dense  smooth     PW     G-vecs:    dense   smooth      PW
     Min         327     131     37                56683    14340    2191
     Max         328     133     38                56694    14346    2206
     Sum        3275    1317    379               566857   143421   21985
 
     Using Slab Decomposition
 


     bravais-lattice index     =            0
     lattice parameter (alat)  =       1.8897  a.u.
     unit-cell volume          =    6658.9804 (a.u.)^3
     number of atoms/cell      =           52
     number of atomic types    =            4
     number of electrons       =       391.00
     number of Kohn-Sham states=          205
     kinetic-energy cutoff     =      29.3995  Ry
     charge density cutoff     =     293.9946  Ry
     scf convergence threshold =      7.3E-08
     mixing beta               =       0.0500
     number of iterations used =            8  plain     mixing
     Exchange-correlation= BEEF-VDW
                           (   1   4  43  14   2   0   0)

     celldm(1)=   1.889726  celldm(2)=   0.000000  celldm(3)=   0.000000
     celldm(4)=   0.000000  celldm(5)=   0.000000  celldm(6)=   0.000000

     crystal axes: (cart. coord. in units of alat)
               a(1) = (   6.579727   0.000000   0.000000 )  
               a(2) = (  -0.000775   5.961596   0.000000 )  
               a(3) = (   0.000000   0.000000  25.155947 )  

     reciprocal axes: (cart. coord. in units 2 pi/alat)
               b(1) = (  0.151982  0.000020  0.000000 )  
               b(2) = (  0.000000  0.167740  0.000000 )  
               b(3) = (  0.000000  0.000000  0.039752 )  


     PseudoPot. # 1 for O  read from file:
     /storage/coda1/p-amedford6/0/shared/rich_project_chbe-medford/medford-share/data/pseudos_module/espresso/nninc/pbe/van/O.UPF
     MD5 check sum: 78c19812648e8988a0fe644b0f25305e
     Pseudo is Ultrasoft, Zval =  6.0
     Generated by new atomic code, or converted to UPF format
     Using radial grid of  737 points,  4 beta functions with: 
                l(1) =   0
                l(2) =   0
                l(3) =   1
                l(4) =   1
     Q(r) pseudized with  8 coefficients,  rinner =    0.800   0.800   0.800


     PseudoPot. # 2 for Ti read from file:
     /storage/coda1/p-amedford6/0/shared/rich_project_chbe-medford/medford-share/data/pseudos_module/espresso/nninc/pbe/van/Ti.UPF
     MD5 check sum: 8e4df49b7f0d34bbd5052bf3f5ea0213
     Pseudo is Ultrasoft, Zval = 12.0
     Generated by new atomic code, or converted to UPF format
     Using radial grid of  851 points,  6 beta functions with: 
                l(1) =   0
                l(2) =   0
                l(3) =   1
                l(4) =   1
                l(5) =   2
                l(6) =   2
     Q(r) pseudized with  8 coefficients,  rinner =    1.000   1.000   1.000
                                                       1.000   1.000

     PseudoPot. # 3 for H  read from file:
     /storage/coda1/p-amedford6/0/shared/rich_project_chbe-medford/medford-share/data/pseudos_module/espresso/nninc/pbe/van/H.UPF
     MD5 check sum: b5ee9d7bfd3a09ee7748110bda690ff7
     Pseudo is Ultrasoft, Zval =  1.0
     Generated by new atomic code, or converted to UPF format
     Using radial grid of  615 points,  1 beta functions with: 
                l(1) =   0
     Q(r) pseudized with  8 coefficients,  rinner =    0.800

     PseudoPot. # 4 for C  read from file:
     /storage/coda1/p-amedford6/0/shared/rich_project_chbe-medford/medford-share/data/pseudos_module/espresso/nninc/pbe/van/C.UPF
     MD5 check sum: 1a69bf6b8db32088f5b2163dbdb77a27
     Pseudo is Ultrasoft, Zval =  4.0
     Generated by new atomic code, or converted to UPF format
     Using radial grid of  721 points,  4 beta functions with: 
                l(1) =   0
                l(2) =   0
                l(3) =   1
                l(4) =   1
     Q(r) pseudized with  8 coefficients,  rinner =    0.800   0.800   0.800


     atomic species   valence    mass     pseudopotential
        O1             6.00    15.99900     O ( 1.00)
        Ti1           12.00    47.86700     Ti( 1.00)
        H1             1.00     1.00800     H ( 1.00)
        C1             4.00    12.01100     C ( 1.00)

     No symmetry found



   Cartesian axes

     site n.     atom                  positions (alat units)
         1           O1  tau(   1) = (   3.2904802   0.0005063   4.7018136  )
         2           O1  tau(   2) = (   3.2900926   2.9813045   4.7018136  )
         3           Ti1 tau(   3) = (   0.0004258   2.9801865   6.0000000  )
         4           Ti1 tau(   4) = (   0.0000382   5.9609847   6.0000000  )
         5           Ti1 tau(   5) = (   3.2906075   1.4906267   6.0002472  )
         6           Ti1 tau(   6) = (   3.2902200   4.4714249   6.0002472  )
         7           O1  tau(   7) = (   1.3043587   1.4918075   6.0039043  )
         8           O1  tau(   8) = (   1.3039711   4.4726057   6.0039043  )
         9           O1  tau(   9) = (   5.2767064   1.4903225   6.0039473  )
        10           O1  tau(  10) = (   5.2763189   4.4711207   6.0039473  )
        11           O1  tau(  11) = (   3.2906025   0.0005020   7.3038282  )
        12           O1  tau(  12) = (   3.2902150   2.9813002   7.3038282  )
        13           O1  tau(  13) = (   0.0006271   0.0005054   7.9858123  )
        14           O1  tau(  14) = (   0.0002396   2.9813036   7.9858123  )
        15           Ti1 tau(  15) = (   3.3208325   5.9232416   9.1783542  )
        16           Ti1 tau(  16) = (   3.3324863   2.9377666   9.1648094  )
        17           Ti1 tau(  17) = (   0.0524917   1.4788520   9.2606301  )
        18           Ti1 tau(  18) = (   0.0483789   4.4105323   9.3105966  )
        19           O1  tau(  19) = (   4.5942328   1.4918067   9.2879030  )
        20           O1  tau(  20) = (   4.5938453   4.4726049   9.2879030  )
        21           O1  tau(  21) = (   1.9868534   1.4903216   9.2879459  )
        22           O1  tau(  22) = (   1.9864658   4.4711199   9.2879459  )
        23           O1  tau(  23) = (   6.5712937   0.0017758  10.5841540  )
        24           O1  tau(  24) = (   0.0002036   2.9871675  10.5944109  )
        25           O1  tau(  25) = (   3.2216619   2.9970402  11.3379169  )
        26           O1  tau(  26) = (   3.2239595   0.0054171  11.3328765  )
        27           Ti1 tau(  27) = (   6.5319223   0.0329622  12.4533321  )
        28           Ti1 tau(  28) = (   3.1914638   1.6317768  12.6145244  )
        29           Ti1 tau(  29) = (   3.1843358   4.5420783  12.4476223  )
        30           Ti1 tau(  30) = (   6.4449355   3.0101977  12.6586491  )
        31           O1  tau(  31) = (   5.2440064   1.5124744  12.5792363  )
        32           O1  tau(  32) = (   5.2402295   4.4617308  12.5795526  )
        33           O1  tau(  33) = (   1.2196697   1.4730338  12.6667888  )
        34           O1  tau(  34) = (   1.2190574   4.4979232  12.6669875  )
        35           O1  tau(  35) = (   3.2067865   2.9341989  13.9395670  )
        36           O1  tau(  36) = (   3.3440650   5.9513154  13.9008253  )
        37           O1  tau(  37) = (   6.3267833   5.9539684  14.6370341  )
        38           O1  tau(  38) = (   6.3913104   2.9714873  14.7475579  )
        39           Ti1 tau(  39) = (   3.1260420   2.9476348  15.9752747  )
        40           Ti1 tau(  40) = (   3.1986908   5.9292636  15.6746755  )
        41           Ti1 tau(  41) = (   6.4744102   1.3498976  15.9078779  )
        42           Ti1 tau(  42) = (   6.4721656   4.5656371  15.8700466  )
        43           O1  tau(  43) = (   1.8677001   4.5604514  15.8157410  )
        44           O1  tau(  44) = (   1.8686447   1.3618557  15.8396546  )
        45           O1  tau(  45) = (   4.4008848   1.5192286  16.2292034  )
        46           O1  tau(  46) = (   4.3978686   4.4066597  16.2143399  )
        47           O1  tau(  47) = (   6.4830960   5.9408203  17.1431429  )
        48           O1  tau(  48) = (   0.4828407   2.9769521  17.4917737  )
        49           H1  tau(  49) = (   6.4926766   3.0145448  18.2851392  )
        50           C1  tau(  50) = (   1.9555054   2.9805414  17.9097346  )
        51           H1  tau(  51) = (   2.0761010   2.0893267  18.5304525  )
        52           H1  tau(  52) = (   2.0801140   3.8867162  18.5073456  )

     number of k points=    10  Fermi-Dirac smearing, width (Ry)=  0.0073
                       cart. coord. in units 2pi/alat
        k(    1) = (   0.0000000   0.0000000   0.0000000), wk =   0.1250000
        k(    2) = (   0.0000000   0.0419351   0.0000000), wk =   0.2500000
        k(    3) = (   0.0000000  -0.0838702   0.0000000), wk =   0.1250000
        k(    4) = (   0.0379955   0.0000049   0.0000000), wk =   0.2500000
        k(    5) = (   0.0379955   0.0419400   0.0000000), wk =   0.2500000
        k(    6) = (   0.0379955  -0.0838652   0.0000000), wk =   0.2500000
        k(    7) = (   0.0379955  -0.0419301   0.0000000), wk =   0.2500000
        k(    8) = (  -0.0759910  -0.0000099   0.0000000), wk =   0.1250000
        k(    9) = (  -0.0759910   0.0419252   0.0000000), wk =   0.2500000
        k(   10) = (  -0.0759910  -0.0838800   0.0000000), wk =   0.1250000

     Dense  grid:   566857 G-vectors     FFT dimensions: (  72,  64, 270)

     Smooth grid:   143421 G-vectors     FFT dimensions: (  45,  40, 180)

     Estimated max dynamical RAM per process >     362.08 MB

     Estimated total dynamical RAM >       3.54 GB
     Cannot read rho : file not found

     Initial potential from superposition of free atoms

     starting charge  374.99918, renormalised to  391.00000

     negative rho (up, down):  1.928E-02 0.000E+00


     %%%%%%%%%%%%%%%%%%%%%%%%%%%%%%%%%%%%%%%%%%%%%%%%%%%%%%%%%%%%%%%%%%%%%%%%
     %                                                                      %
     % You are using vdW-DF, which was implemented by the Thonhauser group. %
     % Please cite the following two papers that made this development      %
     % possible and the two reviews that describe the various versions:     %
     %                                                                      %
     %   T. Thonhauser et al., PRL 115, 136402 (2015).                      %
     %   T. Thonhauser et al., PRB 76, 125112 (2007).                       %
     %   K. Berland et al., Rep. Prog. Phys. 78, 066501 (2015).             %
     %   D.C. Langreth et al., J. Phys.: Condens. Matter 21, 084203 (2009). %
     %                                                                      %
     %                                                                      %
     % If you are calculating the stress with vdW-DF, please also cite:     %
     %                                                                      %
     %   R. Sabatini et al., J. Phys.: Condens. Matter 24, 424209 (2012).   %
     %                                                                      %
     %%%%%%%%%%%%%%%%%%%%%%%%%%%%%%%%%%%%%%%%%%%%%%%%%%%%%%%%%%%%%%%%%%%%%%%%


 
     Adding external electric field

     Computed dipole along edir(3) : 
        Dipole               -5.2494 Ry au,        -13.3426 Debye
        Dipole field         -0.0099 Ry au, 
 
        Potential amp.        0.9183 Ry
        Total length         46.3494 bohr
 
     Starting wfcs are  295 atomic wfcs
  @ DRIVER MODE: Message from server: STATUS
  @ DRIVER MODE: Message from server: POSDATA
  @ DRIVER MODE: Reading and sharing cell 
  @ DRIVER MODE: Reading and sharing positions 
  @ DRIVER MODE: Received positions 

     total cpu time spent up to now is       11.7 secs

     Self-consistent Calculation

     iteration #  1     ecut=    29.40 Ry     beta= 0.05
     Davidson diagonalization with overlap
     c_bands:  1 eigenvalues not converged
     c_bands:  4 eigenvalues not converged
     c_bands:  1 eigenvalues not converged
     c_bands:  2 eigenvalues not converged
     c_bands:  4 eigenvalues not converged
     c_bands:  1 eigenvalues not converged
     c_bands:  1 eigenvalues not converged
     c_bands:  3 eigenvalues not converged
     ethr =  1.00E-05,  avg # of iterations = 19.6

     negative rho (up, down):  1.860E-02 0.000E+00
 
     Adding external electric field

     Computed dipole along edir(3) : 
        Dipole               24.3865 Ry au,         61.9843 Debye
        Dipole field          0.0460 Ry au, 
 
        Potential amp.       -4.2660 Ry
        Total length         46.3494 bohr
 

     total cpu time spent up to now is       51.1 secs

     total energy              =   -2799.25829348 Ry
     estimated scf accuracy    <    1451.20014534 Ry

     iteration #  2     ecut=    29.40 Ry     beta= 0.05
     Davidson diagonalization with overlap
     ethr =  1.00E-02,  avg # of iterations = 17.1

     negative rho (up, down):  8.058E-03 0.000E+00
 
     Adding external electric field

     Computed dipole along edir(3) : 
        Dipole               -2.0955 Ry au,         -5.3263 Debye
        Dipole field         -0.0040 Ry au, 
 
        Potential amp.        0.3666 Ry
        Total length         46.3494 bohr
 

     total cpu time spent up to now is       94.6 secs

     total energy              =   -2667.76453679 Ry
     estimated scf accuracy    <   33807.76343178 Ry

     iteration #  3     ecut=    29.40 Ry     beta= 0.05
     Davidson diagonalization with overlap
     ethr =  1.00E-02,  avg # of iterations = 14.4

     negative rho (up, down):  8.086E-03 0.000E+00
 
     Adding external electric field

     Computed dipole along edir(3) : 
        Dipole               -3.1315 Ry au,         -7.9594 Debye
        Dipole field         -0.0059 Ry au, 
 
        Potential amp.        0.5478 Ry
        Total length         46.3494 bohr
 

     total cpu time spent up to now is      132.3 secs

     total energy              =   -2918.97529208 Ry
     estimated scf accuracy    <    1149.54434299 Ry

     iteration #  4     ecut=    29.40 Ry     beta= 0.05
     Davidson diagonalization with overlap
     ethr =  1.00E-02,  avg # of iterations =  8.3

     negative rho (up, down):  8.152E-03 0.000E+00
 
     Adding external electric field

     Computed dipole along edir(3) : 
        Dipole               -3.9618 Ry au,        -10.0699 Debye
        Dipole field         -0.0075 Ry au, 
 
        Potential amp.        0.6931 Ry
        Total length         46.3494 bohr
 

     total cpu time spent up to now is      145.4 secs

     total energy              =   -2917.84989880 Ry
     estimated scf accuracy    <     622.43876179 Ry

     iteration #  5     ecut=    29.40 Ry     beta= 0.05
     Davidson diagonalization with overlap
     ethr =  1.00E-02,  avg # of iterations =  9.3

     negative rho (up, down):  8.064E-03 0.000E+00
 
     Adding external electric field

     Computed dipole along edir(3) : 
        Dipole               -3.7147 Ry au,         -9.4418 Debye
        Dipole field         -0.0070 Ry au, 
 
        Potential amp.        0.6498 Ry
        Total length         46.3494 bohr
 

     total cpu time spent up to now is      161.4 secs

     total energy              =   -2933.39403643 Ry
     estimated scf accuracy    <      12.12837572 Ry

     iteration #  6     ecut=    29.40 Ry     beta= 0.05
     Davidson diagonalization with overlap
     ethr =  3.10E-03,  avg # of iterations =  2.3

     negative rho (up, down):  8.215E-03 0.000E+00
 
     Adding external electric field

     Computed dipole along edir(3) : 
        Dipole               -1.1758 Ry au,         -2.9885 Debye
        Dipole field         -0.0022 Ry au, 
 
        Potential amp.        0.2057 Ry
        Total length         46.3494 bohr
 

     total cpu time spent up to now is      172.3 secs

     total energy              =   -2929.22092955 Ry
     estimated scf accuracy    <      10.96790784 Ry

     iteration #  7     ecut=    29.40 Ry     beta= 0.05
     Davidson diagonalization with overlap
     ethr =  2.81E-03,  avg # of iterations = 12.9

     negative rho (up, down):  8.149E-03 0.000E+00
 
     Adding external electric field

     Computed dipole along edir(3) : 
        Dipole               -1.1937 Ry au,         -3.0341 Debye
        Dipole field         -0.0023 Ry au, 
 
        Potential amp.        0.2088 Ry
        Total length         46.3494 bohr
 

     total cpu time spent up to now is      191.9 secs

     total energy              =   -2934.53771731 Ry
     estimated scf accuracy    <     264.87909708 Ry

     iteration #  8     ecut=    29.40 Ry     beta= 0.05
     Davidson diagonalization with overlap
     ethr =  2.81E-03,  avg # of iterations =  1.0

     negative rho (up, down):  8.008E-03 0.000E+00
 
     Adding external electric field

     Computed dipole along edir(3) : 
        Dipole               -2.6289 Ry au,         -6.6819 Debye
        Dipole field         -0.0050 Ry au, 
 
        Potential amp.        0.4599 Ry
        Total length         46.3494 bohr
 

     total cpu time spent up to now is      202.1 secs

     total energy              =   -2927.60865211 Ry
     estimated scf accuracy    <     266.15538746 Ry

     iteration #  9     ecut=    29.40 Ry     beta= 0.05
     Davidson diagonalization with overlap
     ethr =  2.81E-03,  avg # of iterations =  9.5

     negative rho (up, down):  7.985E-03 0.000E+00
 
     Adding external electric field

     Computed dipole along edir(3) : 
        Dipole               -2.2964 Ry au,         -5.8368 Debye
        Dipole field         -0.0043 Ry au, 
 
        Potential amp.        0.4017 Ry
        Total length         46.3494 bohr
 

     total cpu time spent up to now is      215.4 secs

     total energy              =   -2930.57941767 Ry
     estimated scf accuracy    <      62.33376556 Ry

     iteration # 10     ecut=    29.40 Ry     beta= 0.05
     Davidson diagonalization with overlap
     ethr =  2.81E-03,  avg # of iterations =  2.2

     negative rho (up, down):  8.022E-03 0.000E+00
 
     Adding external electric field

     Computed dipole along edir(3) : 
        Dipole               -2.4800 Ry au,         -6.3035 Debye
        Dipole field         -0.0047 Ry au, 
 
        Potential amp.        0.4338 Ry
        Total length         46.3494 bohr
 

     total cpu time spent up to now is      225.8 secs

     total energy              =   -2929.68991025 Ry
     estimated scf accuracy    <      76.88787377 Ry

     iteration # 11     ecut=    29.40 Ry     beta= 0.05
     Davidson diagonalization with overlap
     c_bands:  1 eigenvalues not converged
     ethr =  2.81E-03,  avg # of iterations =  8.2

     negative rho (up, down):  8.132E-03 0.000E+00
 
     Adding external electric field

     Computed dipole along edir(3) : 
        Dipole               -2.2977 Ry au,         -5.8401 Debye
        Dipole field         -0.0043 Ry au, 
 
        Potential amp.        0.4019 Ry
        Total length         46.3494 bohr
 

     total cpu time spent up to now is      238.3 secs

     total energy              =   -2930.37711770 Ry
     estimated scf accuracy    <      17.27616092 Ry

     iteration # 12     ecut=    29.40 Ry     beta= 0.05
     Davidson diagonalization with overlap
     ethr =  2.81E-03,  avg # of iterations =  3.2

     negative rho (up, down):  8.515E-03 0.000E+00
 
     Adding external electric field

     Computed dipole along edir(3) : 
        Dipole               -1.5617 Ry au,         -3.9694 Debye
        Dipole field         -0.0029 Ry au, 
 
        Potential amp.        0.2732 Ry
        Total length         46.3494 bohr
 

     total cpu time spent up to now is      249.6 secs

     total energy              =   -2930.71604964 Ry
     estimated scf accuracy    <       4.77169688 Ry

     iteration # 13     ecut=    29.40 Ry     beta= 0.05
     Davidson diagonalization with overlap
     c_bands:  4 eigenvalues not converged
     c_bands:  1 eigenvalues not converged
     ethr =  1.22E-03,  avg # of iterations = 17.1

     negative rho (up, down):  8.325E-03 0.000E+00
 
     Adding external electric field

     Computed dipole along edir(3) : 
        Dipole               -1.2091 Ry au,         -3.0733 Debye
        Dipole field         -0.0023 Ry au, 
 
        Potential amp.        0.2115 Ry
        Total length         46.3494 bohr
 

     total cpu time spent up to now is      267.5 secs

     total energy              =   -2931.29180255 Ry
     estimated scf accuracy    <       2.50473325 Ry

     iteration # 14     ecut=    29.40 Ry     beta= 0.05
     Davidson diagonalization with overlap
     ethr =  6.41E-04,  avg # of iterations =  3.5

     negative rho (up, down):  8.248E-03 0.000E+00
 
     Adding external electric field

     Computed dipole along edir(3) : 
        Dipole               -1.2294 Ry au,         -3.1247 Debye
        Dipole field         -0.0023 Ry au, 
 
        Potential amp.        0.2151 Ry
        Total length         46.3494 bohr
 

     total cpu time spent up to now is      278.6 secs

     total energy              =   -2931.30808917 Ry
     estimated scf accuracy    <       1.15595366 Ry

     iteration # 15     ecut=    29.40 Ry     beta= 0.05
     Davidson diagonalization with overlap
     ethr =  2.96E-04,  avg # of iterations =  7.1

     negative rho (up, down):  8.546E-03 0.000E+00
 
     Adding external electric field

     Computed dipole along edir(3) : 
        Dipole               -0.8270 Ry au,         -2.1021 Debye
        Dipole field         -0.0016 Ry au, 
 
        Potential amp.        0.1447 Ry
        Total length         46.3494 bohr
 

     total cpu time spent up to now is      291.1 secs

     total energy              =   -2931.38184740 Ry
     estimated scf accuracy    <       0.84509359 Ry

     iteration # 16     ecut=    29.40 Ry     beta= 0.05
     Davidson diagonalization with overlap
     ethr =  2.16E-04,  avg # of iterations =  4.2

     negative rho (up, down):  9.110E-03 0.000E+00
 
     Adding external electric field

     Computed dipole along edir(3) : 
        Dipole               -0.4688 Ry au,         -1.1916 Debye
        Dipole field         -0.0009 Ry au, 
 
        Potential amp.        0.0820 Ry
        Total length         46.3494 bohr
 

     total cpu time spent up to now is      302.9 secs

     total energy              =   -2931.43163576 Ry
     estimated scf accuracy    <       1.10519358 Ry

     iteration # 17     ecut=    29.40 Ry     beta= 0.05
     Davidson diagonalization with overlap
     ethr =  2.16E-04,  avg # of iterations =  2.5

     negative rho (up, down):  1.030E-02 0.000E+00
 
     Adding external electric field

     Computed dipole along edir(3) : 
        Dipole               -0.2756 Ry au,         -0.7006 Debye
        Dipole field         -0.0005 Ry au, 
 
        Potential amp.        0.0482 Ry
        Total length         46.3494 bohr
 

     total cpu time spent up to now is      314.4 secs

     total energy              =   -2931.37558959 Ry
     estimated scf accuracy    <       1.29440803 Ry

     iteration # 18     ecut=    29.40 Ry     beta= 0.05
     Davidson diagonalization with overlap
     c_bands:  4 eigenvalues not converged
     ethr =  2.16E-04,  avg # of iterations =  4.8

     negative rho (up, down):  1.053E-02 0.000E+00
 
     Adding external electric field

     Computed dipole along edir(3) : 
        Dipole               -0.3018 Ry au,         -0.7671 Debye
        Dipole field         -0.0006 Ry au, 
 
        Potential amp.        0.0528 Ry
        Total length         46.3494 bohr
 

     total cpu time spent up to now is      325.9 secs

     total energy              =   -2931.40075789 Ry
     estimated scf accuracy    <       0.96876566 Ry

     iteration # 19     ecut=    29.40 Ry     beta= 0.05
     Davidson diagonalization with overlap
     ethr =  2.16E-04,  avg # of iterations =  1.1

     negative rho (up, down):  1.090E-02 0.000E+00
 
     Adding external electric field

     Computed dipole along edir(3) : 
        Dipole               -0.3042 Ry au,         -0.7732 Debye
        Dipole field         -0.0006 Ry au, 
 
        Potential amp.        0.0532 Ry
        Total length         46.3494 bohr
 

     total cpu time spent up to now is      336.3 secs

     total energy              =   -2931.42074671 Ry
     estimated scf accuracy    <       1.02809322 Ry

     iteration # 20     ecut=    29.40 Ry     beta= 0.05
     Davidson diagonalization with overlap
     ethr =  2.16E-04,  avg # of iterations =  1.1

     negative rho (up, down):  1.132E-02 0.000E+00
 
     Adding external electric field

     Computed dipole along edir(3) : 
        Dipole               -0.1962 Ry au,         -0.4986 Debye
        Dipole field         -0.0004 Ry au, 
 
        Potential amp.        0.0343 Ry
        Total length         46.3494 bohr
 

     total cpu time spent up to now is      346.2 secs

     total energy              =   -2931.41045429 Ry
     estimated scf accuracy    <       1.13587801 Ry

     iteration # 21     ecut=    29.40 Ry     beta= 0.05
     Davidson diagonalization with overlap
     ethr =  2.16E-04,  avg # of iterations =  1.1

     negative rho (up, down):  1.159E-02 0.000E+00
 
     Adding external electric field

     Computed dipole along edir(3) : 
        Dipole                0.9574 Ry au,          2.4335 Debye
        Dipole field          0.0018 Ry au, 
 
        Potential amp.       -0.1675 Ry
        Total length         46.3494 bohr
 

     total cpu time spent up to now is      356.2 secs

     total energy              =   -2931.19548876 Ry
     estimated scf accuracy    <       1.01393413 Ry

     iteration # 22     ecut=    29.40 Ry     beta= 0.05
     Davidson diagonalization with overlap
     c_bands:  1 eigenvalues not converged
     c_bands:  2 eigenvalues not converged
     ethr =  2.16E-04,  avg # of iterations = 16.8

     negative rho (up, down):  1.067E-02 0.000E+00
 
     Adding external electric field

     Computed dipole along edir(3) : 
        Dipole                0.8493 Ry au,          2.1588 Debye
        Dipole field          0.0016 Ry au, 
 
        Potential amp.       -0.1486 Ry
        Total length         46.3494 bohr
 

     total cpu time spent up to now is      376.3 secs

     total energy              =   -2931.43165809 Ry
     estimated scf accuracy    <       2.74156781 Ry

     iteration # 23     ecut=    29.40 Ry     beta= 0.05
     Davidson diagonalization with overlap
     ethr =  2.16E-04,  avg # of iterations =  1.2

     negative rho (up, down):  9.447E-03 0.000E+00
 
     Adding external electric field

     Computed dipole along edir(3) : 
        Dipole                0.3175 Ry au,          0.8071 Debye
        Dipole field          0.0006 Ry au, 
 
        Potential amp.       -0.0555 Ry
        Total length         46.3494 bohr
 

     total cpu time spent up to now is      386.7 secs

     total energy              =   -2931.31279304 Ry
     estimated scf accuracy    <       1.31302917 Ry

     iteration # 24     ecut=    29.40 Ry     beta= 0.05
     Davidson diagonalization with overlap
     ethr =  2.16E-04,  avg # of iterations =  7.5

     negative rho (up, down):  9.473E-03 0.000E+00
 
     Adding external electric field

     Computed dipole along edir(3) : 
        Dipole                0.2654 Ry au,          0.6745 Debye
        Dipole field          0.0005 Ry au, 
 
        Potential amp.       -0.0464 Ry
        Total length         46.3494 bohr
 

     total cpu time spent up to now is      399.2 secs

     total energy              =   -2931.32145950 Ry
     estimated scf accuracy    <       0.49931053 Ry

     iteration # 25     ecut=    29.40 Ry     beta= 0.05
     Davidson diagonalization with overlap
     c_bands:  2 eigenvalues not converged
     ethr =  1.28E-04,  avg # of iterations = 10.4

     negative rho (up, down):  1.279E-02 0.000E+00
 
     Adding external electric field

     Computed dipole along edir(3) : 
        Dipole                0.2445 Ry au,          0.6216 Debye
        Dipole field          0.0005 Ry au, 
 
        Potential amp.       -0.0428 Ry
        Total length         46.3494 bohr
 

     total cpu time spent up to now is      413.0 secs

     total energy              =   -2931.29765530 Ry
     estimated scf accuracy    <       0.24465773 Ry

     iteration # 26     ecut=    29.40 Ry     beta= 0.05
     Davidson diagonalization with overlap
     c_bands:  1 eigenvalues not converged
     c_bands:  3 eigenvalues not converged
     c_bands:  1 eigenvalues not converged
     ethr =  6.26E-05,  avg # of iterations = 17.1

     negative rho (up, down):  1.193E-02 0.000E+00
 
     Adding external electric field

     Computed dipole along edir(3) : 
        Dipole                0.5827 Ry au,          1.4811 Debye
        Dipole field          0.0011 Ry au, 
 
        Potential amp.       -0.1019 Ry
        Total length         46.3494 bohr
 

     total cpu time spent up to now is      433.7 secs

     total energy              =   -2931.31233473 Ry
     estimated scf accuracy    <       0.34819671 Ry

     iteration # 27     ecut=    29.40 Ry     beta= 0.05
     Davidson diagonalization with overlap
     c_bands:  1 eigenvalues not converged
     ethr =  6.26E-05,  avg # of iterations =  9.5

     negative rho (up, down):  1.284E-02 0.000E+00
 
     Adding external electric field

     Computed dipole along edir(3) : 
        Dipole                0.6100 Ry au,          1.5506 Debye
        Dipole field          0.0012 Ry au, 
 
        Potential amp.       -0.1067 Ry
        Total length         46.3494 bohr
 

     total cpu time spent up to now is      447.0 secs

     total energy              =   -2931.33250058 Ry
     estimated scf accuracy    <       0.12994328 Ry

     iteration # 28     ecut=    29.40 Ry     beta= 0.05
     Davidson diagonalization with overlap
     ethr =  3.32E-05,  avg # of iterations =  7.8

     negative rho (up, down):  1.668E-02 0.000E+00
 
     Adding external electric field

     Computed dipole along edir(3) : 
        Dipole                0.8860 Ry au,          2.2519 Debye
        Dipole field          0.0017 Ry au, 
 
        Potential amp.       -0.1550 Ry
        Total length         46.3494 bohr
 

     total cpu time spent up to now is      459.2 secs

     total energy              =   -2931.33254755 Ry
     estimated scf accuracy    <       0.13846881 Ry

     iteration # 29     ecut=    29.40 Ry     beta= 0.05
     Davidson diagonalization with overlap
     c_bands:  3 eigenvalues not converged
     c_bands:  2 eigenvalues not converged
     c_bands:  3 eigenvalues not converged
     c_bands:  2 eigenvalues not converged
     c_bands:  2 eigenvalues not converged
     c_bands:  2 eigenvalues not converged
     c_bands:  2 eigenvalues not converged
     ethr =  3.32E-05,  avg # of iterations = 17.9

     negative rho (up, down):  1.324E-02 0.000E+00
 
     Adding external electric field

     Computed dipole along edir(3) : 
        Dipole                0.6872 Ry au,          1.7467 Debye
        Dipole field          0.0013 Ry au, 
 
        Potential amp.       -0.1202 Ry
        Total length         46.3494 bohr
 

     total cpu time spent up to now is      477.6 secs

     total energy              =   -2931.33892802 Ry
     estimated scf accuracy    <       0.11663481 Ry

     iteration # 30     ecut=    29.40 Ry     beta= 0.05
     Davidson diagonalization with overlap
     c_bands:  1 eigenvalues not converged
     ethr =  2.98E-05,  avg # of iterations = 12.4

     negative rho (up, down):  1.153E-02 0.000E+00
 
     Adding external electric field

     Computed dipole along edir(3) : 
        Dipole                0.5839 Ry au,          1.4842 Debye
        Dipole field          0.0011 Ry au, 
 
        Potential amp.       -0.1022 Ry
        Total length         46.3494 bohr
 

     total cpu time spent up to now is      491.4 secs

     total energy              =   -2931.32046087 Ry
     estimated scf accuracy    <       0.10595679 Ry

     iteration # 31     ecut=    29.40 Ry     beta= 0.05
     Davidson diagonalization with overlap
     c_bands:  1 eigenvalues not converged
     c_bands:  3 eigenvalues not converged
     c_bands:  1 eigenvalues not converged
     c_bands:  1 eigenvalues not converged
     c_bands:  2 eigenvalues not converged
     ethr =  2.71E-05,  avg # of iterations = 16.4

     negative rho (up, down):  1.297E-02 0.000E+00
 
     Adding external electric field

     Computed dipole along edir(3) : 
        Dipole                0.6389 Ry au,          1.6240 Debye
        Dipole field          0.0012 Ry au, 
 
        Potential amp.       -0.1118 Ry
        Total length         46.3494 bohr
 

     total cpu time spent up to now is      508.8 secs

     total energy              =   -2931.32481948 Ry
     estimated scf accuracy    <       0.05813860 Ry

     iteration # 32     ecut=    29.40 Ry     beta= 0.05
     Davidson diagonalization with overlap
     c_bands:  3 eigenvalues not converged
     c_bands:  2 eigenvalues not converged
     c_bands:  2 eigenvalues not converged
     c_bands:  1 eigenvalues not converged
     ethr =  1.49E-05,  avg # of iterations = 15.7

     negative rho (up, down):  1.397E-02 0.000E+00
 
     Adding external electric field

     Computed dipole along edir(3) : 
        Dipole                0.7970 Ry au,          2.0257 Debye
        Dipole field          0.0015 Ry au, 
 
        Potential amp.       -0.1394 Ry
        Total length         46.3494 bohr
 

     total cpu time spent up to now is      526.4 secs

     total energy              =   -2931.32608552 Ry
     estimated scf accuracy    <       0.02672222 Ry

     iteration # 33     ecut=    29.40 Ry     beta= 0.05
     Davidson diagonalization with overlap
     c_bands:  2 eigenvalues not converged
     c_bands:  1 eigenvalues not converged
     c_bands:  2 eigenvalues not converged
     c_bands:  2 eigenvalues not converged
     c_bands:  2 eigenvalues not converged
     c_bands:  1 eigenvalues not converged
     ethr =  6.83E-06,  avg # of iterations = 17.5

     negative rho (up, down):  1.397E-02 0.000E+00
 
     Adding external electric field

     Computed dipole along edir(3) : 
        Dipole                0.8160 Ry au,          2.0741 Debye
        Dipole field          0.0015 Ry au, 
 
        Potential amp.       -0.1427 Ry
        Total length         46.3494 bohr
 

     total cpu time spent up to now is      546.1 secs

     total energy              =   -2931.32818632 Ry
     estimated scf accuracy    <       0.01187840 Ry

     iteration # 34     ecut=    29.40 Ry     beta= 0.05
     Davidson diagonalization with overlap
     c_bands:  1 eigenvalues not converged
     c_bands:  1 eigenvalues not converged
     c_bands:  1 eigenvalues not converged
     ethr =  3.04E-06,  avg # of iterations = 14.7

     negative rho (up, down):  1.461E-02 0.000E+00
 
     Adding external electric field

     Computed dipole along edir(3) : 
        Dipole                0.8625 Ry au,          2.1923 Debye
        Dipole field          0.0016 Ry au, 
 
        Potential amp.       -0.1509 Ry
        Total length         46.3494 bohr
 

     total cpu time spent up to now is      562.7 secs

     total energy              =   -2931.32794557 Ry
     estimated scf accuracy    <       0.00922031 Ry

     iteration # 35     ecut=    29.40 Ry     beta= 0.05
     Davidson diagonalization with overlap
     c_bands:  1 eigenvalues not converged
     ethr =  2.36E-06,  avg # of iterations =  7.3

     negative rho (up, down):  1.522E-02 0.000E+00
 
     Adding external electric field

     Computed dipole along edir(3) : 
        Dipole                0.8772 Ry au,          2.2296 Debye
        Dipole field          0.0017 Ry au, 
 
        Potential amp.       -0.1535 Ry
        Total length         46.3494 bohr
 

     total cpu time spent up to now is      575.8 secs

     total energy              =   -2931.32865373 Ry
     estimated scf accuracy    <       0.00407560 Ry

     iteration # 36     ecut=    29.40 Ry     beta= 0.05
     Davidson diagonalization with overlap
     ethr =  1.04E-06,  avg # of iterations =  9.2

     negative rho (up, down):  1.640E-02 0.000E+00
 
     Adding external electric field

     Computed dipole along edir(3) : 
        Dipole                0.9312 Ry au,          2.3668 Debye
        Dipole field          0.0018 Ry au, 
 
        Potential amp.       -0.1629 Ry
        Total length         46.3494 bohr
 

     total cpu time spent up to now is      588.8 secs

     total energy              =   -2931.32881482 Ry
     estimated scf accuracy    <       0.00283501 Ry

     iteration # 37     ecut=    29.40 Ry     beta= 0.05
     Davidson diagonalization with overlap
     ethr =  7.25E-07,  avg # of iterations = 10.1

     negative rho (up, down):  1.665E-02 0.000E+00
 
     Adding external electric field

     Computed dipole along edir(3) : 
        Dipole                0.9274 Ry au,          2.3571 Debye
        Dipole field          0.0018 Ry au, 
 
        Potential amp.       -0.1622 Ry
        Total length         46.3494 bohr
 

     total cpu time spent up to now is      604.0 secs

     total energy              =   -2931.32893742 Ry
     estimated scf accuracy    <       0.00158137 Ry

     iteration # 38     ecut=    29.40 Ry     beta= 0.05
     Davidson diagonalization with overlap
     ethr =  4.04E-07,  avg # of iterations =  6.3

     negative rho (up, down):  1.655E-02 0.000E+00
 
     Adding external electric field

     Computed dipole along edir(3) : 
        Dipole                0.8940 Ry au,          2.2722 Debye
        Dipole field          0.0017 Ry au, 
 
        Potential amp.       -0.1564 Ry
        Total length         46.3494 bohr
 

     total cpu time spent up to now is      616.2 secs

     total energy              =   -2931.32880957 Ry
     estimated scf accuracy    <       0.00113836 Ry

     iteration # 39     ecut=    29.40 Ry     beta= 0.05
     Davidson diagonalization with overlap
     ethr =  2.91E-07,  avg # of iterations =  9.8

     negative rho (up, down):  1.679E-02 0.000E+00
 
     Adding external electric field

     Computed dipole along edir(3) : 
        Dipole                0.9088 Ry au,          2.3100 Debye
        Dipole field          0.0017 Ry au, 
 
        Potential amp.       -0.1590 Ry
        Total length         46.3494 bohr
 

     total cpu time spent up to now is      633.6 secs

     total energy              =   -2931.32896619 Ry
     estimated scf accuracy    <       0.00139496 Ry

     iteration # 40     ecut=    29.40 Ry     beta= 0.05
     Davidson diagonalization with overlap
     ethr =  2.91E-07,  avg # of iterations =  2.0

     negative rho (up, down):  1.843E-02 0.000E+00
 
     Adding external electric field

     Computed dipole along edir(3) : 
        Dipole                0.9839 Ry au,          2.5009 Debye
        Dipole field          0.0019 Ry au, 
 
        Potential amp.       -0.1721 Ry
        Total length         46.3494 bohr
 

     total cpu time spent up to now is      644.4 secs

     total energy              =   -2931.32863286 Ry
     estimated scf accuracy    <       0.00093213 Ry

     iteration # 41     ecut=    29.40 Ry     beta= 0.05
     Davidson diagonalization with overlap
     c_bands:  1 eigenvalues not converged
     c_bands:  1 eigenvalues not converged
     ethr =  2.38E-07,  avg # of iterations = 15.5

     negative rho (up, down):  1.781E-02 0.000E+00
 
     Adding external electric field

     Computed dipole along edir(3) : 
        Dipole                0.9403 Ry au,          2.3899 Debye
        Dipole field          0.0018 Ry au, 
 
        Potential amp.       -0.1645 Ry
        Total length         46.3494 bohr
 

     total cpu time spent up to now is      669.2 secs

     total energy              =   -2931.32878944 Ry
     estimated scf accuracy    <       0.00224189 Ry

     iteration # 42     ecut=    29.40 Ry     beta= 0.05
     Davidson diagonalization with overlap
     ethr =  2.38E-07,  avg # of iterations =  7.9

     negative rho (up, down):  1.764E-02 0.000E+00
 
     Adding external electric field

     Computed dipole along edir(3) : 
        Dipole                0.9237 Ry au,          2.3478 Debye
        Dipole field          0.0017 Ry au, 
 
        Potential amp.       -0.1616 Ry
        Total length         46.3494 bohr
 

     total cpu time spent up to now is      684.2 secs

     total energy              =   -2931.32883509 Ry
     estimated scf accuracy    <       0.00048542 Ry

     iteration # 43     ecut=    29.40 Ry     beta= 0.05
     Davidson diagonalization with overlap
     ethr =  1.24E-07,  avg # of iterations = 10.5

     negative rho (up, down):  1.802E-02 0.000E+00
 
     Adding external electric field

     Computed dipole along edir(3) : 
        Dipole                0.9340 Ry au,          2.3740 Debye
        Dipole field          0.0018 Ry au, 
 
        Potential amp.       -0.1634 Ry
        Total length         46.3494 bohr
 

     total cpu time spent up to now is      704.2 secs

     total energy              =   -2931.32903217 Ry
     estimated scf accuracy    <       0.00024888 Ry

     iteration # 44     ecut=    29.40 Ry     beta= 0.05
     Davidson diagonalization with overlap
     ethr =  6.37E-08,  avg # of iterations =  1.8

     negative rho (up, down):  1.871E-02 0.000E+00
 
     Adding external electric field

     Computed dipole along edir(3) : 
        Dipole                0.9573 Ry au,          2.4332 Debye
        Dipole field          0.0018 Ry au, 
 
        Potential amp.       -0.1675 Ry
        Total length         46.3494 bohr
 

     total cpu time spent up to now is      714.8 secs

     total energy              =   -2931.32901727 Ry
     estimated scf accuracy    <       0.00014415 Ry

     iteration # 45     ecut=    29.40 Ry     beta= 0.05
     Davidson diagonalization with overlap
     ethr =  3.69E-08,  avg # of iterations =  8.5

     negative rho (up, down):  1.870E-02 0.000E+00
 
     Adding external electric field

     Computed dipole along edir(3) : 
        Dipole                0.9565 Ry au,          2.4311 Debye
        Dipole field          0.0018 Ry au, 
 
        Potential amp.       -0.1673 Ry
        Total length         46.3494 bohr
 

     total cpu time spent up to now is      731.6 secs

     total energy              =   -2931.32906813 Ry
     estimated scf accuracy    <       0.00003081 Ry

     iteration # 46     ecut=    29.40 Ry     beta= 0.05
     Davidson diagonalization with overlap
     ethr =  7.88E-09,  avg # of iterations =  8.7

     negative rho (up, down):  1.870E-02 0.000E+00
 
     Adding external electric field

     Computed dipole along edir(3) : 
        Dipole                0.9540 Ry au,          2.4249 Debye
        Dipole field          0.0018 Ry au, 
 
        Potential amp.       -0.1669 Ry
        Total length         46.3494 bohr
 

     total cpu time spent up to now is      745.6 secs

     total energy              =   -2931.32908345 Ry
     estimated scf accuracy    <       0.00002912 Ry

     iteration # 47     ecut=    29.40 Ry     beta= 0.05
     Davidson diagonalization with overlap
     ethr =  7.45E-09,  avg # of iterations =  8.8

     negative rho (up, down):  1.881E-02 0.000E+00
 
     Adding external electric field

     Computed dipole along edir(3) : 
        Dipole                0.9569 Ry au,          2.4322 Debye
        Dipole field          0.0018 Ry au, 
 
        Potential amp.       -0.1674 Ry
        Total length         46.3494 bohr
 

     total cpu time spent up to now is      759.1 secs

     total energy              =   -2931.32910137 Ry
     estimated scf accuracy    <       0.00001365 Ry

     iteration # 48     ecut=    29.40 Ry     beta= 0.05
     Davidson diagonalization with overlap
     ethr =  3.49E-09,  avg # of iterations =  6.8

     negative rho (up, down):  1.883E-02 0.000E+00
 
     Adding external electric field

     Computed dipole along edir(3) : 
        Dipole                0.9530 Ry au,          2.4222 Debye
        Dipole field          0.0018 Ry au, 
 
        Potential amp.       -0.1667 Ry
        Total length         46.3494 bohr
 

     total cpu time spent up to now is      772.1 secs

     total energy              =   -2931.32911287 Ry
     estimated scf accuracy    <       0.00001562 Ry

     iteration # 49     ecut=    29.40 Ry     beta= 0.05
     Davidson diagonalization with overlap
     ethr =  3.49E-09,  avg # of iterations =  6.6

     negative rho (up, down):  1.879E-02 0.000E+00
 
     Adding external electric field

     Computed dipole along edir(3) : 
        Dipole                0.9505 Ry au,          2.4160 Debye
        Dipole field          0.0018 Ry au, 
 
        Potential amp.       -0.1663 Ry
        Total length         46.3494 bohr
 

     total cpu time spent up to now is      786.4 secs

     total energy              =   -2931.32912555 Ry
     estimated scf accuracy    <       0.00000358 Ry

     iteration # 50     ecut=    29.40 Ry     beta= 0.05
     Davidson diagonalization with overlap
     c_bands:  2 eigenvalues not converged
     c_bands:  1 eigenvalues not converged
     ethr =  9.17E-10,  avg # of iterations = 15.2

     negative rho (up, down):  1.879E-02 0.000E+00
 
     Adding external electric field

     Computed dipole along edir(3) : 
        Dipole                0.9508 Ry au,          2.4167 Debye
        Dipole field          0.0018 Ry au, 
 
        Potential amp.       -0.1663 Ry
        Total length         46.3494 bohr
 

     total cpu time spent up to now is      811.8 secs

     total energy              =   -2931.32913920 Ry
     estimated scf accuracy    <       0.00001230 Ry

     iteration # 51     ecut=    29.40 Ry     beta= 0.05
     Davidson diagonalization with overlap
     ethr =  9.17E-10,  avg # of iterations =  1.2

     negative rho (up, down):  1.885E-02 0.000E+00
 
     Adding external electric field

     Computed dipole along edir(3) : 
        Dipole                0.9537 Ry au,          2.4240 Debye
        Dipole field          0.0018 Ry au, 
 
        Potential amp.       -0.1668 Ry
        Total length         46.3494 bohr
 

     total cpu time spent up to now is      821.5 secs

     total energy              =   -2931.32914629 Ry
     estimated scf accuracy    <       0.00001165 Ry

     iteration # 52     ecut=    29.40 Ry     beta= 0.05
     Davidson diagonalization with overlap
     c_bands:  1 eigenvalues not converged
     ethr =  9.17E-10,  avg # of iterations =  8.9

     negative rho (up, down):  1.886E-02 0.000E+00
 
     Adding external electric field

     Computed dipole along edir(3) : 
        Dipole                0.9533 Ry au,          2.4231 Debye
        Dipole field          0.0018 Ry au, 
 
        Potential amp.       -0.1668 Ry
        Total length         46.3494 bohr
 

     total cpu time spent up to now is      838.7 secs

     total energy              =   -2931.32915647 Ry
     estimated scf accuracy    <       0.00000135 Ry

     iteration # 53     ecut=    29.40 Ry     beta= 0.05
     Davidson diagonalization with overlap
     ethr =  3.45E-10,  avg # of iterations =  2.3

     negative rho (up, down):  1.887E-02 0.000E+00
 
     Adding external electric field

     Computed dipole along edir(3) : 
        Dipole                0.9535 Ry au,          2.4235 Debye
        Dipole field          0.0018 Ry au, 
 
        Potential amp.       -0.1668 Ry
        Total length         46.3494 bohr
 

     total cpu time spent up to now is      849.7 secs

     total energy              =   -2931.32916443 Ry
     estimated scf accuracy    <       0.00000089 Ry

     iteration # 54     ecut=    29.40 Ry     beta= 0.05
     Davidson diagonalization with overlap
     ethr =  2.28E-10,  avg # of iterations =  3.7

     negative rho (up, down):  1.889E-02 0.000E+00
 
     Adding external electric field

     Computed dipole along edir(3) : 
        Dipole                0.9535 Ry au,          2.4236 Debye
        Dipole field          0.0018 Ry au, 
 
        Potential amp.       -0.1668 Ry
        Total length         46.3494 bohr
 

     total cpu time spent up to now is      861.0 secs

     total energy              =   -2931.32917166 Ry
     estimated scf accuracy    <       0.00000066 Ry

     iteration # 55     ecut=    29.40 Ry     beta= 0.05
     Davidson diagonalization with overlap
     c_bands:  2 eigenvalues not converged
     ethr =  1.68E-10,  avg # of iterations = 10.4

     negative rho (up, down):  1.889E-02 0.000E+00
 
     Adding external electric field

     Computed dipole along edir(3) : 
        Dipole                0.9537 Ry au,          2.4241 Debye
        Dipole field          0.0018 Ry au, 
 
        Potential amp.       -0.1668 Ry
        Total length         46.3494 bohr
 

     total cpu time spent up to now is      875.7 secs

     total energy              =   -2931.32917868 Ry
     estimated scf accuracy    <       0.00000032 Ry

     iteration # 56     ecut=    29.40 Ry     beta= 0.05
     Davidson diagonalization with overlap
     c_bands:  2 eigenvalues not converged
     ethr =  8.24E-11,  avg # of iterations = 14.2

     negative rho (up, down):  1.886E-02 0.000E+00
 
     Adding external electric field

     Computed dipole along edir(3) : 
        Dipole                0.9528 Ry au,          2.4217 Debye
        Dipole field          0.0018 Ry au, 
 
        Potential amp.       -0.1667 Ry
        Total length         46.3494 bohr
 

     total cpu time spent up to now is      896.2 secs

     total energy              =   -2931.32918513 Ry
     estimated scf accuracy    <       0.00000032 Ry

     iteration # 57     ecut=    29.40 Ry     beta= 0.05
     Davidson diagonalization with overlap
     ethr =  8.23E-11,  avg # of iterations =  8.8

     negative rho (up, down):  1.886E-02 0.000E+00
 
     Adding external electric field

     Computed dipole along edir(3) : 
        Dipole                0.9528 Ry au,          2.4217 Debye
        Dipole field          0.0018 Ry au, 
 
        Potential amp.       -0.1667 Ry
        Total length         46.3494 bohr
 

     total cpu time spent up to now is      911.4 secs

     total energy              =   -2931.32919046 Ry
     estimated scf accuracy    <       0.00000018 Ry

     iteration # 58     ecut=    29.40 Ry     beta= 0.05
     Davidson diagonalization with overlap
     ethr =  4.59E-11,  avg # of iterations =  4.5

     negative rho (up, down):  1.885E-02 0.000E+00
 
     Adding external electric field

     Computed dipole along edir(3) : 
        Dipole                0.9529 Ry au,          2.4221 Debye
        Dipole field          0.0018 Ry au, 
 
        Potential amp.       -0.1667 Ry
        Total length         46.3494 bohr
 

     total cpu time spent up to now is      923.2 secs

     total energy              =   -2931.32919522 Ry
     estimated scf accuracy    <       0.00000008 Ry

     iteration # 59     ecut=    29.40 Ry     beta= 0.05
     Davidson diagonalization with overlap
     ethr =  2.05E-11,  avg # of iterations = 11.2

     negative rho (up, down):  1.885E-02 0.000E+00
 
     Adding external electric field

     Computed dipole along edir(3) : 
        Dipole                0.9527 Ry au,          2.4214 Debye
        Dipole field          0.0018 Ry au, 
 
        Potential amp.       -0.1667 Ry
        Total length         46.3494 bohr
 

     total cpu time spent up to now is      941.7 secs

     total energy              =   -2931.32919952 Ry
     estimated scf accuracy    <       0.00000013 Ry

     iteration # 60     ecut=    29.40 Ry     beta= 0.05
     Davidson diagonalization with overlap
     ethr =  2.05E-11,  avg # of iterations =  6.9

     negative rho (up, down):  1.889E-02 0.000E+00
 
     Adding external electric field

     Computed dipole along edir(3) : 
        Dipole                0.9531 Ry au,          2.4226 Debye
        Dipole field          0.0018 Ry au, 
 
        Potential amp.       -0.1667 Ry
        Total length         46.3494 bohr
 

     total cpu time spent up to now is      956.2 secs

     End of self-consistent calculation

          k = 0.0000 0.0000 0.0000 ( 18029 PWs)   bands (ev):

   -55.8497 -55.8120 -55.7578 -55.7453 -55.6919 -55.6843 -55.6693 -55.6649
   -55.6344 -55.6155 -55.6138 -55.5880 -55.5813 -55.5650 -54.8246 -54.7905
   -32.3593 -32.3239 -32.2333 -32.2042 -32.1586 -32.1336 -32.1217 -32.0968
   -32.0882 -32.0608 -32.0346 -32.0127 -32.0044 -31.9914 -31.9642 -31.9569
   -31.9459 -31.9347 -31.9161 -31.9135 -31.9090 -31.9033 -31.8756 -31.8575
   -31.8520 -31.8490 -31.8475 -31.8375 -31.8312 -31.8219 -31.8131 -31.8106
   -31.8005 -31.7882 -31.7844 -31.7836 -31.7706 -31.7648 -31.7479 -31.7362
   -31.7170 -31.6445 -31.2317 -31.1424 -31.1199 -31.0488 -30.9625 -30.8509
   -19.5052 -16.5534 -16.3375 -16.1508 -16.0518 -16.0013 -15.8327 -15.7505
   -15.5402 -15.4877 -15.4762 -15.4500 -15.3940 -15.3775 -15.3710 -15.3522
   -15.3413 -15.3156 -15.2561 -15.2473 -15.2391 -15.2042 -15.1467 -15.1171
   -14.9896 -14.9808 -14.9651 -14.9464 -14.8626 -14.7324 -13.3247 -13.2078
    -9.6078  -6.4213  -4.1952  -3.9961  -3.8635  -3.7676  -3.7522  -3.7314
    -3.5686  -3.4954  -3.2708  -3.1386  -3.0872  -3.0196  -2.9799  -2.9179
    -2.8257  -2.7631  -2.7213  -2.6806  -2.6475  -2.6462  -2.6305  -2.5764
    -2.5465  -2.5004  -2.4000  -2.3978  -2.3458  -2.2893  -2.2492  -2.2073
    -2.1660  -2.1504  -2.1299  -2.0934  -2.0601  -2.0501  -2.0177  -1.9875
    -1.9305  -1.8498  -1.8202  -1.5580  -1.4662  -1.3807  -1.3678  -1.2999
    -1.2761  -1.2468  -1.2318  -1.1914  -1.1791  -1.0936  -1.0843  -1.0124
    -0.9712  -0.8902  -0.8297  -0.7529  -0.6898  -0.6306  -0.6093  -0.5796
    -0.5640  -0.5540  -0.3928  -0.3818  -0.3545  -0.2440  -0.2277  -0.1631
    -0.1395  -0.0770  -0.0540   0.0109   0.0690   0.0908   0.1125   0.1487
     0.1591   0.1712   0.2136   0.2955   0.3853   0.3990   0.4164   0.4795
     0.6452   0.7189   0.8226   0.8866   1.1248   1.2002   1.2375   1.2827
     1.3865   1.7741   1.8271   3.2982   3.3674   3.4155   3.4258   3.4646
     3.5466   3.7367   3.7448   3.8033   3.8875

          k = 0.0000 0.0419 0.0000 ( 17933 PWs)   bands (ev):

   -55.8453 -55.8163 -55.7557 -55.7423 -55.6948 -55.6862 -55.6674 -55.6624
   -55.6308 -55.6175 -55.6098 -55.5916 -55.5859 -55.5662 -54.8195 -54.7954
   -32.3237 -32.2701 -32.1809 -32.1540 -32.1433 -32.1141 -32.0769 -32.0707
   -32.0524 -32.0430 -32.0216 -32.0024 -32.0006 -31.9907 -31.9810 -31.9770
   -31.9526 -31.9293 -31.9251 -31.9227 -31.9130 -31.9026 -31.9007 -31.8892
   -31.8644 -31.8537 -31.8445 -31.8403 -31.8347 -31.8303 -31.8269 -31.8251
   -31.8189 -31.8132 -31.8083 -31.8003 -31.7974 -31.7784 -31.7713 -31.7673
   -31.7592 -31.6443 -31.1776 -31.1389 -31.1229 -31.0362 -30.9751 -30.9080
   -19.5024 -16.4310 -16.2220 -16.0449 -15.9897 -15.8982 -15.7903 -15.7044
   -15.6009 -15.5050 -15.4951 -15.4357 -15.3958 -15.3901 -15.3768 -15.3334
   -15.3263 -15.3117 -15.2999 -15.2898 -15.2287 -15.1915 -15.1840 -15.1628
   -15.0467 -15.0390 -15.0247 -14.9987 -14.9188 -14.8419 -13.3286 -13.2472
    -9.6065  -6.4172  -4.1971  -3.9221  -3.7035  -3.5922  -3.5862  -3.5605
    -3.4373  -3.3497  -3.0905  -3.0555  -3.0011  -2.9846  -2.9076  -2.8528
    -2.8364  -2.8075  -2.7830  -2.7661  -2.7459  -2.7136  -2.6386  -2.6157
    -2.6047  -2.5613  -2.5221  -2.4953  -2.4596  -2.3910  -2.3477  -2.3050
    -2.2614  -2.2452  -2.2358  -2.1863  -2.1251  -2.0908  -1.9991  -1.9289
    -1.8085  -1.6625  -1.6264  -1.5589  -1.5017  -1.4507  -1.3595  -1.2759
    -1.2497  -1.1334  -1.0624  -1.0240  -1.0028  -0.9868  -0.9280  -0.9021
    -0.8707  -0.8131  -0.7887  -0.7739  -0.6907  -0.6635  -0.6475  -0.6077
    -0.5884  -0.5140  -0.4971  -0.4772  -0.3919  -0.3457  -0.3076  -0.2767
    -0.2436  -0.2046  -0.1380  -0.0373  -0.0248  -0.0147   0.0226   0.0368
     0.0949   0.1340   0.1871   0.2462   0.2895   0.3158   0.3837   0.4919
     0.5166   0.5376   0.6365   0.7654   0.8180   1.1237   1.2900   1.3901
     1.4814   1.7260   1.7394   3.4756   3.5369   3.5648   3.6192   3.6392
     3.6604   3.6995   3.7828   3.8297   3.8386

          k = 0.0000-0.0839 0.0000 ( 17884 PWs)   bands (ev):

   -55.8388 -55.8227 -55.7535 -55.7388 -55.6982 -55.6883 -55.6657 -55.6594
   -55.6264 -55.6209 -55.5995 -55.5981 -55.5940 -55.5675 -54.8076 -54.8073
   -32.2816 -32.1462 -32.1358 -32.1304 -32.1084 -32.0793 -32.0784 -32.0507
   -32.0131 -32.0023 -31.9921 -31.9837 -31.9756 -31.9732 -31.9659 -31.9651
   -31.9625 -31.9511 -31.9510 -31.9332 -31.9270 -31.9156 -31.9127 -31.9113
   -31.9035 -31.8955 -31.8943 -31.8763 -31.8718 -31.8567 -31.8549 -31.8424
   -31.8359 -31.8320 -31.8285 -31.8224 -31.8126 -31.7948 -31.7941 -31.7719
   -31.7573 -31.6445 -31.1309 -31.1305 -31.0453 -31.0443 -31.0058 -31.0051
   -19.4996 -16.2356 -16.0002 -15.9284 -15.8836 -15.8609 -15.7606 -15.7471
   -15.6723 -15.6002 -15.5729 -15.5216 -15.4936 -15.3877 -15.2994 -15.2923
   -15.2818 -15.2579 -15.2271 -15.1927 -15.1854 -15.1791 -15.1706 -15.1666
   -15.1645 -15.1427 -15.1076 -15.0657 -15.0436 -15.0417 -13.3119 -13.3080
    -9.6052  -6.4134  -4.2035  -3.8588  -3.3234  -3.3068  -3.2154  -3.1837
    -3.1740  -3.1620  -3.1518  -3.1270  -3.1205  -3.0908  -3.0224  -2.9895
    -2.9285  -2.8904  -2.8619  -2.8487  -2.8038  -2.7714  -2.7401  -2.7202
    -2.6872  -2.6223  -2.5856  -2.5735  -2.5546  -2.4270  -2.3921  -2.3767
    -2.2089  -2.1875  -2.1364  -2.0867  -1.9405  -1.8346  -1.8209  -1.7798
    -1.6921  -1.6423  -1.5478  -1.5344  -1.5186  -1.4689  -1.3067  -1.2949
    -1.2555  -1.2489  -1.2245  -1.2048  -1.1848  -1.1749  -1.1213  -1.0688
    -0.8896  -0.8454  -0.8008  -0.7654  -0.6823  -0.5666  -0.4997  -0.4729
    -0.4442  -0.4017  -0.3702  -0.3527  -0.3412  -0.3369  -0.3126  -0.2830
    -0.2206  -0.2049  -0.1768  -0.1621  -0.1595  -0.1070  -0.0847  -0.0670
    -0.0214   0.0038   0.0143   0.0635   0.1223   0.1548   0.3428   0.4056
     0.4133   0.4431   0.6462   0.7169   0.8367   0.9155   1.2991   1.5302
     1.5366   1.6650   1.6669   3.5098   3.6715   3.7068   3.7243   3.7549
     3.8422   3.8806   3.8990   3.9009   3.9205

          k = 0.0380 0.0000 0.0000 ( 17913 PWs)   bands (ev):

   -55.8496 -55.8119 -55.7576 -55.7451 -55.6918 -55.6842 -55.6694 -55.6649
   -55.6340 -55.6155 -55.6138 -55.5879 -55.5812 -55.5649 -54.8245 -54.7904
   -32.3593 -32.3248 -32.2360 -32.2045 -32.1587 -32.1335 -32.1266 -32.1011
   -32.0882 -32.0606 -32.0347 -32.0016 -32.0007 -31.9743 -31.9640 -31.9564
   -31.9456 -31.9348 -31.9135 -31.9088 -31.8974 -31.8963 -31.8742 -31.8727
   -31.8521 -31.8487 -31.8463 -31.8387 -31.8372 -31.8214 -31.8130 -31.8104
   -31.8038 -31.7883 -31.7853 -31.7842 -31.7831 -31.7641 -31.7481 -31.7350
   -31.7179 -31.6447 -31.2313 -31.1457 -31.1179 -31.0486 -30.9624 -30.8507
   -19.5048 -16.4686 -16.2491 -16.1188 -16.0395 -15.9131 -15.8352 -15.7623
   -15.5891 -15.5728 -15.5282 -15.5264 -15.5068 -15.4710 -15.4218 -15.3909
   -15.3781 -15.3145 -15.2202 -15.2096 -15.1632 -15.1027 -15.0805 -15.0449
   -15.0363 -14.9866 -14.9809 -14.9629 -14.9300 -14.7324 -13.3214 -13.2075
    -9.6105  -6.4184  -4.1967  -3.9794  -3.7013  -3.5962  -3.5362  -3.5022
    -3.4626  -3.3783  -3.2558  -3.2448  -3.1437  -3.1119  -3.0382  -2.9551
    -2.9253  -2.9172  -2.8107  -2.7280  -2.6105  -2.5552  -2.5338  -2.4813
    -2.4196  -2.4035  -2.3641  -2.3496  -2.2815  -2.2478  -2.2239  -2.1956
    -2.1903  -2.1331  -2.1106  -2.0521  -2.0109  -1.9861  -1.9509  -1.7907
    -1.7785  -1.7352  -1.6809  -1.6326  -1.4748  -1.4609  -1.4292  -1.4152
    -1.3579  -1.3204  -1.2713  -1.2608  -1.2302  -1.1623  -1.1406  -1.1156
    -1.0613  -0.9842  -0.8676  -0.7847  -0.6977  -0.6648  -0.6449  -0.6006
    -0.5543  -0.4812  -0.4281  -0.4055  -0.3627  -0.3104  -0.2029  -0.1767
    -0.1692  -0.1268  -0.0917  -0.0682  -0.0403  -0.0189   0.0094   0.0508
     0.0751   0.1502   0.1948   0.2149   0.3007   0.3294   0.3987   0.4745
     0.4989   0.5374   0.7433   0.8586   1.0977   1.1481   1.2121   1.3091
     1.3556   1.6617   1.7416   3.3345   3.3605   3.5776   3.6079   3.6349
     3.6805   3.7210   3.7348   3.7513   3.7676

          k = 0.0380 0.0419 0.0000 ( 17878 PWs)   bands (ev):

   -55.8452 -55.8163 -55.7556 -55.7421 -55.6948 -55.6861 -55.6675 -55.6624
   -55.6305 -55.6175 -55.6099 -55.5915 -55.5860 -55.5662 -54.8194 -54.7954
   -32.3238 -32.2709 -32.1836 -32.1546 -32.1432 -32.1141 -32.0815 -32.0709
   -32.0535 -32.0478 -32.0217 -32.0025 -31.9902 -31.9883 -31.9774 -31.9659
   -31.9523 -31.9296 -31.9251 -31.9223 -31.9039 -31.8993 -31.8870 -31.8845
   -31.8681 -31.8642 -31.8466 -31.8406 -31.8357 -31.8343 -31.8277 -31.8187
   -31.8177 -31.8121 -31.8083 -31.8023 -31.7990 -31.7934 -31.7724 -31.7676
   -31.7633 -31.6448 -31.1773 -31.1415 -31.1219 -31.0360 -30.9751 -30.9079
   -19.5021 -16.3559 -16.1420 -16.0499 -15.9350 -15.8292 -15.7612 -15.7242
   -15.6030 -15.5643 -15.5264 -15.5031 -15.4701 -15.4381 -15.4245 -15.3892
   -15.3285 -15.3109 -15.3034 -15.2226 -15.2051 -15.1810 -15.1627 -15.0996
   -15.0890 -15.0598 -15.0318 -15.0147 -14.9787 -14.8421 -13.3263 -13.2475
    -9.6085  -6.4133  -4.1977  -3.9186  -3.5377  -3.4533  -3.3715  -3.3498
    -3.2879  -3.2273  -3.1304  -3.0597  -2.9924  -2.9819  -2.9286  -2.8699
    -2.8289  -2.7566  -2.7439  -2.7168  -2.6695  -2.6504  -2.6117  -2.5762
    -2.5611  -2.5516  -2.5129  -2.4713  -2.4566  -2.4231  -2.3327  -2.2958
    -2.2783  -2.2453  -2.1796  -2.1320  -2.0469  -1.9857  -1.9283  -1.8490
    -1.7896  -1.7453  -1.6325  -1.5605  -1.5000  -1.4588  -1.4108  -1.3305
    -1.2690  -1.2230  -1.1734  -1.1377  -1.0690  -1.0462  -1.0263  -0.9695
    -0.9291  -0.8966  -0.8650  -0.7779  -0.7707  -0.7473  -0.6733  -0.6434
    -0.5964  -0.5734  -0.5474  -0.5346  -0.4807  -0.4541  -0.4228  -0.3798
    -0.3501  -0.2707  -0.2642  -0.2188  -0.1306  -0.0993  -0.0369  -0.0089
     0.0220   0.0856   0.1739   0.2669   0.3276   0.3690   0.4268   0.4807
     0.5311   0.5470   0.6176   0.7300   0.7850   1.0687   1.2958   1.4011
     1.4847   1.6488   1.7169   3.4829   3.5271   3.5937   3.6653   3.7084
     3.7563   3.7837   3.8284   3.8495   3.8691

          k = 0.0380-0.0839 0.0000 ( 17916 PWs)   bands (ev):

   -55.8388 -55.8227 -55.7535 -55.7387 -55.6983 -55.6882 -55.6658 -55.6594
   -55.6263 -55.6209 -55.5992 -55.5979 -55.5946 -55.5675 -54.8076 -54.8073
   -32.2819 -32.1468 -32.1360 -32.1311 -32.1084 -32.0816 -32.0791 -32.0515
   -32.0171 -32.0027 -31.9926 -31.9828 -31.9763 -31.9742 -31.9652 -31.9622
   -31.9613 -31.9517 -31.9499 -31.9329 -31.9246 -31.9180 -31.9111 -31.9004
   -31.8993 -31.8953 -31.8949 -31.8723 -31.8575 -31.8546 -31.8518 -31.8397
   -31.8369 -31.8349 -31.8330 -31.8225 -31.8125 -31.8015 -31.7944 -31.7833
   -31.7685 -31.6453 -31.1319 -31.1314 -31.0452 -31.0442 -31.0058 -31.0051
   -19.4994 -16.1956 -15.9385 -15.9189 -15.8668 -15.8012 -15.6996 -15.6966
   -15.6364 -15.6046 -15.5401 -15.5114 -15.4768 -15.4345 -15.3622 -15.3598
   -15.3499 -15.2730 -15.2598 -15.2485 -15.2101 -15.2057 -15.1865 -15.1751
   -15.1402 -15.1360 -15.1194 -15.0943 -15.0811 -15.0323 -13.3117 -13.3078
    -9.6067  -6.4088  -4.2026  -3.8588  -3.2876  -3.2221  -3.1091  -3.0477
    -3.0054  -2.9971  -2.9682  -2.9616  -2.9367  -2.9194  -2.9125  -2.8972
    -2.8774  -2.8280  -2.7954  -2.7569  -2.7468  -2.7223  -2.7118  -2.6776
    -2.6364  -2.6043  -2.5881  -2.5292  -2.5034  -2.4534  -2.4377  -2.3391
    -2.2259  -2.1612  -2.0934  -2.0149  -1.8863  -1.8456  -1.8144  -1.7610
    -1.7207  -1.6867  -1.6563  -1.6027  -1.5833  -1.5724  -1.5533  -1.5217
    -1.4663  -1.4452  -1.3815  -1.3743  -1.2358  -1.2137  -1.0295  -0.9967
    -0.9745  -0.9394  -0.8686  -0.8245  -0.7885  -0.6725  -0.6306  -0.6018
    -0.5829  -0.5619  -0.5265  -0.5024  -0.4684  -0.4359  -0.4272  -0.3910
    -0.3828  -0.3769  -0.2882  -0.2647  -0.2371  -0.1400  -0.1214  -0.0784
     0.0251   0.0428   0.2180   0.2577   0.2794   0.2943   0.3212   0.4063
     0.4626   0.5069   0.6192   0.6735   0.8299   0.8902   1.2692   1.5440
     1.5500   1.6543   1.6576   3.5607   3.6478   3.7032   3.7257   3.7625
     3.8639   3.8719   3.9170   3.9261   3.9617

          k = 0.0380-0.0419 0.0000 ( 17876 PWs)   bands (ev):

   -55.8452 -55.8163 -55.7556 -55.7421 -55.6948 -55.6861 -55.6675 -55.6624
   -55.6305 -55.6175 -55.6099 -55.5915 -55.5860 -55.5662 -54.8194 -54.7954
   -32.3238 -32.2709 -32.1836 -32.1545 -32.1432 -32.1141 -32.0814 -32.0709
   -32.0536 -32.0477 -32.0217 -32.0025 -31.9903 -31.9883 -31.9773 -31.9663
   -31.9523 -31.9294 -31.9256 -31.9223 -31.9041 -31.9015 -31.8855 -31.8824
   -31.8678 -31.8640 -31.8457 -31.8404 -31.8364 -31.8351 -31.8275 -31.8185
   -31.8179 -31.8124 -31.8085 -31.8024 -31.7991 -31.7938 -31.7717 -31.7681
   -31.7630 -31.6449 -31.1773 -31.1415 -31.1219 -31.0360 -30.9751 -30.9079
   -19.5021 -16.3560 -16.1419 -16.0498 -15.9356 -15.8287 -15.7617 -15.7241
   -15.6036 -15.5647 -15.5256 -15.5033 -15.4699 -15.4367 -15.4252 -15.3894
   -15.3312 -15.3089 -15.3036 -15.2225 -15.2071 -15.1797 -15.1622 -15.0991
   -15.0892 -15.0591 -15.0303 -15.0136 -14.9809 -14.8423 -13.3263 -13.2475
    -9.6086  -6.4135  -4.1969  -3.9178  -3.5396  -3.4495  -3.3748  -3.3482
    -3.2874  -3.2304  -3.1323  -3.0587  -2.9933  -2.9846  -2.9343  -2.8754
    -2.8257  -2.7636  -2.7403  -2.7328  -2.6552  -2.6475  -2.6137  -2.5679
    -2.5607  -2.5442  -2.5129  -2.4774  -2.4597  -2.4227  -2.3358  -2.3151
    -2.2751  -2.2478  -2.1765  -2.1426  -2.0582  -1.9601  -1.9384  -1.8502
    -1.7778  -1.7342  -1.6301  -1.5533  -1.4965  -1.4599  -1.4026  -1.3237
    -1.2618  -1.2128  -1.1774  -1.1233  -1.0793  -1.0423  -1.0112  -0.9903
    -0.9373  -0.8921  -0.8472  -0.7939  -0.7693  -0.7229  -0.6676  -0.6344
    -0.5844  -0.5677  -0.5432  -0.5355  -0.4815  -0.4473  -0.4264  -0.3920
    -0.3624  -0.2982  -0.2785  -0.2117  -0.1246  -0.1047  -0.0541  -0.0100
     0.0286   0.0726   0.1802   0.2635   0.3238   0.3486   0.4263   0.4845
     0.5195   0.5467   0.6182   0.7344   0.7832   1.0673   1.2934   1.4015
     1.4848   1.6490   1.7173   3.4734   3.5338   3.5888   3.6546   3.7371
     3.7562   3.7919   3.8449   3.8750   3.8862

          k =-0.0760-0.0000 0.0000 ( 17886 PWs)   bands (ev):

   -55.8495 -55.8119 -55.7576 -55.7450 -55.6918 -55.6841 -55.6694 -55.6649
   -55.6337 -55.6157 -55.6138 -55.5879 -55.5812 -55.5649 -54.8244 -54.7904
   -32.3596 -32.3257 -32.2388 -32.2049 -32.1587 -32.1335 -32.1314 -32.1053
   -32.0882 -32.0603 -32.0349 -31.9987 -31.9869 -31.9639 -31.9561 -31.9471
   -31.9455 -31.9350 -31.9135 -31.9091 -31.9001 -31.8921 -31.8705 -31.8552
   -31.8522 -31.8518 -31.8482 -31.8452 -31.8422 -31.8360 -31.8213 -31.8129
   -31.8050 -31.7917 -31.7886 -31.7840 -31.7827 -31.7640 -31.7484 -31.7337
   -31.7192 -31.6451 -31.2309 -31.1489 -31.1166 -31.0485 -30.9623 -30.8508
   -19.5043 -16.2987 -16.2542 -16.1002 -15.9553 -15.8249 -15.8214 -15.7422
   -15.6549 -15.6410 -15.6108 -15.6013 -15.5401 -15.5039 -15.4971 -15.4800
   -15.3849 -15.3121 -15.2170 -15.2030 -15.1517 -15.1100 -15.0812 -15.0504
   -15.0234 -14.9913 -14.9817 -14.9385 -14.8970 -14.7330 -13.3184 -13.2072
    -9.6132  -6.4154  -4.1982  -3.9665  -3.6239  -3.5936  -3.3698  -3.3518
    -3.2490  -3.2391  -3.1967  -3.1761  -3.1016  -3.0842  -3.0548  -3.0479
    -2.9870  -2.8023  -2.7746  -2.6598  -2.4820  -2.4467  -2.3882  -2.3730
    -2.3649  -2.3367  -2.3126  -2.2986  -2.2851  -2.2769  -2.2448  -2.1832
    -2.1609  -2.1343  -2.1079  -2.0856  -2.0684  -1.9924  -1.9699  -1.9278
    -1.8545  -1.6198  -1.6061  -1.5451  -1.4848  -1.4538  -1.4512  -1.4211
    -1.4095  -1.3859  -1.3037  -1.2993  -1.2920  -1.2409  -1.1878  -1.1509
    -1.1171  -1.0713  -0.9903  -0.9878  -0.9304  -0.7199  -0.6566  -0.6047
    -0.5914  -0.4919  -0.4481  -0.4237  -0.3934  -0.3790  -0.2780  -0.2566
    -0.2438  -0.2261  -0.1889  -0.1288  -0.1104  -0.0579  -0.0189   0.0027
     0.0624   0.1025   0.1430   0.2058   0.2549   0.2990   0.3822   0.4384
     0.5667   0.6169   0.7748   0.8493   0.8549   1.1504   1.2336   1.3290
     1.3365   1.5299   1.6816   3.3318   3.3436   3.4407   3.5415   3.5816
     3.6654   3.6961   3.7499   3.7614   3.8008

          k =-0.0760 0.0419 0.0000 ( 17914 PWs)   bands (ev):

   -55.8452 -55.8163 -55.7556 -55.7421 -55.6948 -55.6861 -55.6676 -55.6625
   -55.6303 -55.6175 -55.6100 -55.5914 -55.5861 -55.5662 -54.8194 -54.7954
   -32.3240 -32.2719 -32.1865 -32.1552 -32.1433 -32.1143 -32.0863 -32.0711
   -32.0545 -32.0525 -32.0219 -32.0027 -31.9862 -31.9785 -31.9772 -31.9522
   -31.9452 -31.9297 -31.9263 -31.9222 -31.9027 -31.8946 -31.8899 -31.8776
   -31.8639 -31.8486 -31.8469 -31.8438 -31.8429 -31.8389 -31.8337 -31.8307
   -31.8171 -31.8111 -31.8087 -31.8067 -31.7985 -31.7969 -31.7769 -31.7687
   -31.7669 -31.6455 -31.1771 -31.1443 -31.1212 -31.0360 -30.9751 -30.9079
   -19.5017 -16.2197 -16.1478 -16.0173 -15.8584 -15.7469 -15.7448 -15.6699
   -15.6217 -15.5928 -15.5770 -15.5731 -15.5320 -15.5000 -15.4504 -15.4421
   -15.3965 -15.3389 -15.2687 -15.2329 -15.2156 -15.1549 -15.1387 -15.1169
   -15.1141 -15.0858 -15.0249 -15.0124 -14.9767 -14.8434 -13.3242 -13.2478
    -9.6107  -6.4097  -4.1974  -3.9108  -3.4689  -3.4552  -3.1561  -3.1382
    -3.1046  -3.0308  -3.0090  -2.9545  -2.9441  -2.8816  -2.8782  -2.8609
    -2.8014  -2.7812  -2.7159  -2.6945  -2.6180  -2.6110  -2.5718  -2.5487
    -2.5143  -2.4960  -2.4539  -2.4250  -2.3884  -2.3452  -2.3322  -2.3142
    -2.2921  -2.2543  -2.2372  -2.0642  -1.9532  -1.9117  -1.8799  -1.8505
    -1.8083  -1.7368  -1.6411  -1.6175  -1.5133  -1.4443  -1.3834  -1.3614
    -1.3364  -1.3159  -1.2358  -1.2147  -1.1787  -1.1378  -1.1251  -1.0712
    -1.0449  -1.0209  -0.9933  -0.9678  -0.9421  -0.9006  -0.8474  -0.7876
    -0.7558  -0.7187  -0.6190  -0.5885  -0.5477  -0.5349  -0.4888  -0.4557
    -0.3945  -0.3638  -0.3241  -0.3101  -0.1763  -0.1525  -0.0934   0.0009
     0.0268   0.0977   0.1482   0.3245   0.3400   0.4233   0.4683   0.5492
     0.6154   0.6403   0.6683   0.7066   0.7838   0.8961   1.2978   1.4157
     1.4870   1.5725   1.7037   3.4806   3.5097   3.5436   3.5959   3.6533
     3.6596   3.7604   3.7943   3.9014   3.9226

          k =-0.0760-0.0839 0.0000 ( 17948 PWs)   bands (ev):

   -55.8388 -55.8227 -55.7535 -55.7387 -55.6983 -55.6882 -55.6659 -55.6595
   -55.6262 -55.6210 -55.5991 -55.5972 -55.5956 -55.5676 -54.8076 -54.8073
   -32.2821 -32.1475 -32.1361 -32.1318 -32.1084 -32.0841 -32.0796 -32.0521
   -32.0204 -32.0029 -31.9929 -31.9895 -31.9765 -31.9669 -31.9650 -31.9601
   -31.9591 -31.9513 -31.9486 -31.9328 -31.9307 -31.9229 -31.9001 -31.8966
   -31.8923 -31.8858 -31.8844 -31.8743 -31.8660 -31.8596 -31.8464 -31.8436
   -31.8337 -31.8249 -31.8228 -31.8131 -31.8102 -31.8080 -31.8061 -31.7941
   -31.7903 -31.6460 -31.1328 -31.1324 -31.0452 -31.0442 -31.0058 -31.0051
   -19.4992 -16.1426 -15.9585 -15.8045 -15.7907 -15.7849 -15.6329 -15.6296
   -15.6049 -15.5681 -15.5354 -15.5173 -15.4796 -15.4756 -15.4322 -15.3805
   -15.3741 -15.3620 -15.3356 -15.2844 -15.2721 -15.2572 -15.1802 -15.1694
   -15.1611 -15.1348 -15.1321 -15.1003 -15.0998 -15.0254 -13.3115 -13.3076
    -9.6083  -6.4043  -4.2015  -3.8568  -3.2828  -3.2096  -3.0170  -3.0022
    -2.9275  -2.8927  -2.8670  -2.8266  -2.7765  -2.7694  -2.7548  -2.6804
    -2.6565  -2.6518  -2.6074  -2.5944  -2.5839  -2.5676  -2.5539  -2.5163
    -2.4934  -2.4692  -2.4461  -2.4309  -2.4090  -2.4003  -2.3956  -2.3503
    -2.3297  -2.2092  -2.1184  -2.0555  -2.0091  -1.9683  -1.9420  -1.9234
    -1.9056  -1.8912  -1.8781  -1.8382  -1.7693  -1.6030  -1.5248  -1.5199
    -1.4568  -1.4363  -1.3847  -1.3661  -1.2904  -1.2610  -1.2105  -1.1989
    -1.1832  -1.0799  -1.0565  -0.9626  -0.9308  -0.8250  -0.8015  -0.7882
    -0.7691  -0.7275  -0.7053  -0.6419  -0.6187  -0.5812  -0.5537  -0.5029
    -0.4577  -0.4409  -0.3434  -0.3021  -0.2485  -0.2011  -0.1338  -0.0251
     0.1534   0.1757   0.2110   0.3155   0.3544   0.4258   0.4824   0.5009
     0.5648   0.6012   0.6454   0.6943   0.7575   0.7941   1.2454   1.5618
     1.5703   1.6348   1.6465   3.6005   3.6496   3.7691   3.7822   3.8119
     3.8227   3.8356   3.8512   3.9007   3.9554

     the Fermi energy is     3.2914 ev

!    total energy              =   -2931.32923900 Ry
     estimated scf accuracy    <       0.00000004 Ry
     smearing contrib. (-TS)   =      -0.02173140 Ry
     internal energy E=F+TS    =   -2931.30750760 Ry

     The total energy is F=E-TS. E is the sum of the following terms:
     one-electron contribution =  -24944.40996356 Ry
     hartree contribution      =   12558.62188486 Ry
     xc contribution           =    -482.03581505 Ry
     ewald contribution        =    9936.51467186 Ry
     electric field correction =       0.00171429 Ry

     convergence has been achieved in  60 iterations

     Forces acting on atoms (cartesian axes, Ry/au):

     atom    1 type  1   force =    -0.00001294    0.00009970    0.10310744
     atom    2 type  1   force =     0.00000654    0.00011231    0.10343272
     atom    3 type  2   force =    -0.00029432    0.00099251    0.09592404
     atom    4 type  2   force =    -0.00015217   -0.00100446    0.10944839
     atom    5 type  2   force =    -0.00014748   -0.00319178   -0.17643411
     atom    6 type  2   force =    -0.00014331    0.00267670   -0.17603194
     atom    7 type  1   force =    -0.07086922    0.00113755   -0.02854829
     atom    8 type  1   force =    -0.07121362   -0.00152529   -0.02857885
     atom    9 type  1   force =     0.07071521    0.00155178   -0.02857710
     atom   10 type  1   force =     0.07093599   -0.00114927   -0.02862361
     atom   11 type  1   force =     0.00048652   -0.00020993    0.05106718
     atom   12 type  1   force =     0.00072081   -0.00042177    0.05034095
     atom   13 type  1   force =     0.00061423    0.00264674   -0.02978154
     atom   14 type  1   force =     0.00055790   -0.00112103   -0.02625958
     atom   15 type  2   force =     0.00018876   -0.00145815   -0.00053330
     atom   16 type  2   force =    -0.00010846    0.00158129   -0.00011940
     atom   17 type  2   force =    -0.00007043   -0.00003931    0.00027432
     atom   18 type  2   force =     0.00008945    0.00060191    0.00039508
     atom   19 type  1   force =    -0.01648286    0.00013059    0.00404736
     atom   20 type  1   force =    -0.01693735   -0.00138266    0.00404651
     atom   21 type  1   force =     0.01271783    0.00185512    0.00029205
     atom   22 type  1   force =     0.01236999    0.00142522    0.00045975
     atom   23 type  1   force =     0.00020281   -0.00009611   -0.00060149
     atom   24 type  1   force =     0.00017269   -0.00040870   -0.00047575
     atom   25 type  1   force =     0.00035242   -0.00003456   -0.00001031
     atom   26 type  1   force =     0.00006848   -0.00044302   -0.00067335
     atom   27 type  2   force =    -0.00001800   -0.00061040   -0.00026616
     atom   28 type  2   force =     0.00015926    0.00005346   -0.00032393
     atom   29 type  2   force =    -0.00012389   -0.00110568    0.00030393
     atom   30 type  2   force =     0.00036832    0.00034803    0.00019352
     atom   31 type  1   force =     0.00014311    0.00005325   -0.00006953
     atom   32 type  1   force =    -0.00010040   -0.00034406    0.00039309
     atom   33 type  1   force =     0.00023501   -0.00016956   -0.00013276
     atom   34 type  1   force =     0.00050513   -0.00037742    0.00024911
     atom   35 type  1   force =    -0.00010696    0.00015760    0.00181709
     atom   36 type  1   force =     0.00034813    0.00014242    0.00035519
     atom   37 type  1   force =     0.00014763   -0.00000280   -0.00008978
     atom   38 type  1   force =     0.00041126   -0.00037727    0.00008302
     atom   39 type  2   force =     0.00024757    0.00132621   -0.00092695
     atom   40 type  2   force =     0.00039206   -0.00027358    0.00006523
     atom   41 type  2   force =     0.00016641   -0.00066558    0.00045966
     atom   42 type  2   force =     0.00030161    0.00041156    0.00001027
     atom   43 type  1   force =     0.00099833    0.00016032   -0.00000889
     atom   44 type  1   force =     0.00066141   -0.00015496    0.00001089
     atom   45 type  1   force =     0.00015492    0.00000042    0.00010431
     atom   46 type  1   force =     0.00043310   -0.00029644    0.00028300
     atom   47 type  1   force =     0.00049307    0.00042190   -0.00039126
     atom   48 type  1   force =    -0.00647516    0.00025655    0.00718918
     atom   49 type  3   force =     0.00744619   -0.00086142   -0.00784160
     atom   50 type  4   force =    -0.00131601   -0.00052568    0.00097330
     atom   51 type  3   force =     0.00044591    0.00003638    0.00007616
     atom   52 type  3   force =     0.00031452    0.00007139   -0.00010326

     Total force =     0.368679     Total SCF correction =     0.000497
  @ DRIVER MODE: Message from server: STATUS
  @ DRIVER MODE: Message from server: GETFORCE
  @ DRIVER MODE: Returning v,forces,stress,ensemble 

     Writing output data file ./calc.save/
  @ DRIVER MODE: Message from server: EXIT
  @ DRIVE MODE: Exiting  
 
     init_run     :     10.73s CPU     11.19s WALL (       1 calls)
     electrons    :    897.92s CPU    944.60s WALL (       1 calls)
     forces       :      2.19s CPU      2.92s WALL (       1 calls)

     Called by init_run:
     wfcinit      :      4.85s CPU      4.98s WALL (       1 calls)
     potinit      :      5.30s CPU      5.52s WALL (       1 calls)
     hinit0       :      0.24s CPU      0.26s WALL (       1 calls)

     Called by electrons:
     c_bands      :    757.35s CPU    791.75s WALL (      60 calls)
     sum_band     :     93.96s CPU     99.92s WALL (      60 calls)
     v_of_rho     :     35.36s CPU     37.84s WALL (      61 calls)
     newd         :     13.18s CPU     16.73s WALL (      61 calls)
     mix_rho      :      2.41s CPU      2.57s WALL (      60 calls)
     vdW_kernel   :      4.54s CPU      4.69s WALL (       1 calls)

     Called by c_bands:
     init_us_2    :      5.29s CPU      5.55s WALL (    1220 calls)
     cegterg      :    741.63s CPU    774.94s WALL (     600 calls)

     Called by *egterg:
     cdiaghg      :    125.45s CPU    130.45s WALL (    5825 calls)
     h_psi        :    396.84s CPU    415.48s WALL (    5835 calls)
     s_psi        :     51.75s CPU     53.99s WALL (    5835 calls)
     g_psi        :      1.42s CPU      1.49s WALL (    5225 calls)

     Called by h_psi:
     h_psi:calbec :     48.85s CPU     51.10s WALL (    5835 calls)
     vloc_psi     :    293.18s CPU    306.92s WALL (    5835 calls)
     add_vuspsi   :     52.37s CPU     54.70s WALL (    5835 calls)

     General routines
     calbec       :     65.42s CPU     68.19s WALL (    6475 calls)
     fft          :     18.20s CPU     18.77s WALL (    3843 calls)
     ffts         :      0.18s CPU      0.19s WALL (     121 calls)
     fftw         :    332.46s CPU    347.42s WALL (  783042 calls)
     interpolate  :      0.49s CPU      0.56s WALL (      61 calls)
     davcio       :      0.00s CPU      0.93s WALL (      10 calls)
 
     Parallel routines
 
     PWSCF        :  15m11.20s CPU  16m 3.53s WALL

 
   This run was terminated on:  20: 9:55  10Sep2021            

=------------------------------------------------------------------------------=
   JOB DONE.
=------------------------------------------------------------------------------=
