
     Program PWSCF v.6.7GPU starts on 11Sep2021 at  3:22:37 

     This program is part of the open-source Quantum ESPRESSO suite
     for quantum simulation of materials; please cite
         "P. Giannozzi et al., J. Phys.:Condens. Matter 21 395502 (2009);
         "P. Giannozzi et al., J. Phys.:Condens. Matter 29 465901 (2017);
         "P. Giannozzi et al., J. Chem. Phys. 152 154105 (2020);
          URL http://www.quantum-espresso.org", 
     in publications or presentations arising from this work. More details at
     http://www.quantum-espresso.org/quote

     Parallel version (MPI), running on    10 processors

     MPI processes distributed on     1 nodes
     R & G space division:  proc/nbgrp/npool/nimage =      10
     Reading input from /storage/home/hcoda1/3/ntian30/research/carbon/CxH_vib/CH2_calc/ads_slab/CH2NHNH2_a/out_0026/pw.inp
Warning: card &CELL ignored
Warning: card   CELL_DYNAMICS='IPI', ignored
Warning: card / ignored

     Current dimensions of program PWSCF are:
     Max number of different atomic species (ntypx) = 10
     Max number of k-points (npk) =  40000
     Max angular momentum in pseudopotentials (lmaxx) =  3
     Presently no symmetry can be used with electric field

     Message from routine cell_base_init:
     DEPRECATED: use true lattice parameter, not A to a.u. conversion factor

     **************************************************************************
     Initializing libbeef V0.1.2 with the BEEF-vdW functional.
     Citation: Wellendorff et al., PRB 85, 235149 (2012).
     **************************************************************************


     IMPORTANT: XC functional enforced from input :
     Exchange-correlation= BEEF-VDW
                           (   1   4  43  14   2   0   0)
     Any further DFT definition will be discarded
     Please, verify this is what you really want


     Subspace diagonalization in iterative solution of the eigenvalue problem:
     one sub-group per band group will be used
     scalapack distributed-memory algorithm (size of sub-group:  3*  3 procs)

  @ DRIVER MODE: Connecting to 
 qe_1139763_2792044.sched-torque.pace.gatech.edu22bdezaw_scratch
  using UNIX socket
  @ DRIVER MODE: Message from server: STATUS
  @ DRIVER MODE: Message from server: INIT
  @ DRIVER MODE: Receiving replica           0          -1
  @ DRIVER MODE: Receiving encoded integer          25
  @ DRIVER MODE:  SCF:  T  FORCE:  T  STRESS:  F  VC:  F  ENSEMBLE:  F
  @ DRIVER MODE:  SCF:  T  FORCE:  T  STRESS:  F  VC:  F  ENSEMBLE:  F
 
     Parallelization info
     --------------------
     sticks:   dense  smooth     PW     G-vecs:    dense   smooth      PW
     Min         327     131     37                56683    14340    2191
     Max         328     133     38                56694    14346    2206
     Sum        3275    1317    379               566857   143421   21985
 
     Using Slab Decomposition
 


     bravais-lattice index     =            0
     lattice parameter (alat)  =       1.8897  a.u.
     unit-cell volume          =    6658.9804 (a.u.)^3
     number of atoms/cell      =           55
     number of atomic types    =            5
     number of electrons       =       397.00
     number of Kohn-Sham states=          208
     kinetic-energy cutoff     =      29.3995  Ry
     charge density cutoff     =     293.9946  Ry
     scf convergence threshold =      7.3E-08
     mixing beta               =       0.0500
     number of iterations used =            8  plain     mixing
     Exchange-correlation= BEEF-VDW
                           (   1   4  43  14   2   0   0)

     celldm(1)=   1.889726  celldm(2)=   0.000000  celldm(3)=   0.000000
     celldm(4)=   0.000000  celldm(5)=   0.000000  celldm(6)=   0.000000

     crystal axes: (cart. coord. in units of alat)
               a(1) = (   6.579727   0.000000   0.000000 )  
               a(2) = (  -0.000775   5.961596   0.000000 )  
               a(3) = (   0.000000   0.000000  25.155947 )  

     reciprocal axes: (cart. coord. in units 2 pi/alat)
               b(1) = (  0.151982  0.000020  0.000000 )  
               b(2) = (  0.000000  0.167740  0.000000 )  
               b(3) = (  0.000000  0.000000  0.039752 )  


     PseudoPot. # 1 for Ti read from file:
     /storage/coda1/p-amedford6/0/shared/rich_project_chbe-medford/medford-share/data/pseudos_module/espresso/nninc/pbe/van/Ti.UPF
     MD5 check sum: 8e4df49b7f0d34bbd5052bf3f5ea0213
     Pseudo is Ultrasoft, Zval = 12.0
     Generated by new atomic code, or converted to UPF format
     Using radial grid of  851 points,  6 beta functions with: 
                l(1) =   0
                l(2) =   0
                l(3) =   1
                l(4) =   1
                l(5) =   2
                l(6) =   2
     Q(r) pseudized with  8 coefficients,  rinner =    1.000   1.000   1.000
                                                       1.000   1.000

     PseudoPot. # 2 for O  read from file:
     /storage/coda1/p-amedford6/0/shared/rich_project_chbe-medford/medford-share/data/pseudos_module/espresso/nninc/pbe/van/O.UPF
     MD5 check sum: 78c19812648e8988a0fe644b0f25305e
     Pseudo is Ultrasoft, Zval =  6.0
     Generated by new atomic code, or converted to UPF format
     Using radial grid of  737 points,  4 beta functions with: 
                l(1) =   0
                l(2) =   0
                l(3) =   1
                l(4) =   1
     Q(r) pseudized with  8 coefficients,  rinner =    0.800   0.800   0.800


     PseudoPot. # 3 for N  read from file:
     /storage/coda1/p-amedford6/0/shared/rich_project_chbe-medford/medford-share/data/pseudos_module/espresso/nninc/pbe/van/N.UPF
     MD5 check sum: 90d10febe142ad51ac9d5be1deb811c4
     Pseudo is Ultrasoft, Zval =  5.0
     Generated by new atomic code, or converted to UPF format
     Using radial grid of  729 points,  4 beta functions with: 
                l(1) =   0
                l(2) =   0
                l(3) =   1
                l(4) =   1
     Q(r) pseudized with  8 coefficients,  rinner =    0.800   0.800   0.800


     PseudoPot. # 4 for C  read from file:
     /storage/coda1/p-amedford6/0/shared/rich_project_chbe-medford/medford-share/data/pseudos_module/espresso/nninc/pbe/van/C.UPF
     MD5 check sum: 1a69bf6b8db32088f5b2163dbdb77a27
     Pseudo is Ultrasoft, Zval =  4.0
     Generated by new atomic code, or converted to UPF format
     Using radial grid of  721 points,  4 beta functions with: 
                l(1) =   0
                l(2) =   0
                l(3) =   1
                l(4) =   1
     Q(r) pseudized with  8 coefficients,  rinner =    0.800   0.800   0.800


     PseudoPot. # 5 for H  read from file:
     /storage/coda1/p-amedford6/0/shared/rich_project_chbe-medford/medford-share/data/pseudos_module/espresso/nninc/pbe/van/H.UPF
     MD5 check sum: b5ee9d7bfd3a09ee7748110bda690ff7
     Pseudo is Ultrasoft, Zval =  1.0
     Generated by new atomic code, or converted to UPF format
     Using radial grid of  615 points,  1 beta functions with: 
                l(1) =   0
     Q(r) pseudized with  8 coefficients,  rinner =    0.800

     atomic species   valence    mass     pseudopotential
        Ti1           12.00    47.86700     Ti( 1.00)
        O1             6.00    15.99900     O ( 1.00)
        N1             5.00    14.00700     N ( 1.00)
        C1             4.00    12.01100     C ( 1.00)
        H1             1.00     1.00800     H ( 1.00)

     No symmetry found



   Cartesian axes

     site n.     atom                  positions (alat units)
         1           Ti1 tau(   1) = (   0.0004258   2.9801865   6.0000000  )
         2           Ti1 tau(   2) = (   3.2906075   1.4906267   6.0002472  )
         3           O1  tau(   3) = (   0.0006271   0.0005054   7.9858123  )
         4           O1  tau(   4) = (   3.2906025   0.0005020   7.3038282  )
         5           O1  tau(   5) = (   4.5942328   1.4918067   9.2879030  )
         6           O1  tau(   6) = (   1.9868534   1.4903216   9.2879459  )
         7           Ti1 tau(   7) = (   3.2907910   2.8959150   9.1758416  )
         8           Ti1 tau(   8) = (   0.0015273   1.4827037   9.2680791  )
         9           O1  tau(   9) = (   3.2904964   5.9585769  11.3857690  )
        10           O1  tau(  10) = (   0.0116148   5.9584955  10.6183126  )
        11           O1  tau(  11) = (   1.2878431   1.4867815  12.6991744  )
        12           O1  tau(  12) = (   5.2968392   1.4897239  12.6840540  )
        13           Ti1 tau(  13) = (   0.0031652   2.9724310  12.5021289  )
        14           Ti1 tau(  14) = (   3.2974598   1.4750309  12.5411678  )
        15           O1  tau(  15) = (   6.5490940   5.8844369  14.7025010  )
        16           O1  tau(  16) = (   3.3056738   5.9474069  14.0077327  )
        17           O1  tau(  17) = (   4.5358307   1.5199601  16.1809847  )
        18           O1  tau(  18) = (   2.0145668   1.5037208  16.1256758  )
        19           Ti1 tau(  19) = (   3.2722398   2.9952086  15.7861162  )
        20           Ti1 tau(  20) = (   6.5630583   1.3046800  15.8709962  )
        21           O1  tau(  21) = (   3.2904802   0.0005063   4.7018136  )
        22           O1  tau(  22) = (   0.0019326   0.1554656  17.2922311  )
        23           O1  tau(  23) = (   1.3043587   1.4918075   6.0039043  )
        24           O1  tau(  24) = (   5.2767064   1.4903225   6.0039473  )
        25           Ti1 tau(  25) = (   0.0000382   5.9609847   6.0000000  )
        26           Ti1 tau(  26) = (   3.2902200   4.4714249   6.0002472  )
        27           O1  tau(  27) = (   0.0002396   2.9813036   7.9858123  )
        28           O1  tau(  28) = (   3.2902150   2.9813002   7.3038282  )
        29           O1  tau(  29) = (   4.5938453   4.4726049   9.2879030  )
        30           O1  tau(  30) = (   1.9864658   4.4711199   9.2879459  )
        31           Ti1 tau(  31) = (   3.2891106   5.8743827   9.1763621  )
        32           Ti1 tau(  32) = (   0.0006254   4.4649316   9.2693709  )
        33           O1  tau(  33) = (   3.2902589   2.9648534  11.3782866  )
        34           O1  tau(  34) = (   0.0092240   2.9805883  10.6323155  )
        35           O1  tau(  35) = (   1.2907939   4.4579819  12.6664495  )
        36           O1  tau(  36) = (   5.2949113   4.4550998  12.6520156  )
        37           Ti1 tau(  37) = (   0.0082621   5.9437129  12.5015890  )
        38           Ti1 tau(  38) = (   3.2989848   4.4491302  12.5337562  )
        39           O1  tau(  39) = (   6.5545586   3.0159292  14.9830317  )
        40           O1  tau(  40) = (   3.2960925   2.9977268  13.9872472  )
        41           O1  tau(  41) = (   4.5245867   4.4695491  16.2648171  )
        42           O1  tau(  42) = (   2.0004542   4.4779941  16.2115700  )
        43           Ti1 tau(  43) = (   3.2998562   0.0139781  15.8031611  )
        44           Ti1 tau(  44) = (   0.0298651   4.5190837  16.0363964  )
        45           O1  tau(  45) = (   3.2900926   2.9813045   4.7018136  )
        46           O1  tau(  46) = (   1.3039711   4.4726057   6.0039043  )
        47           O1  tau(  47) = (   5.2763189   4.4711207   6.0039473  )
        48           N1  tau(  48) = (   0.7490466   2.5008218  18.8353846  )
        49           N1  tau(  49) = (   6.4369825   3.4131575  18.1751453  )
        50           C1  tau(  50) = (   1.9829018   2.9174465  19.1941100  )
        51           H1  tau(  51) = (   2.1359794   3.9544348  19.4490303  )
        52           H1  tau(  52) = (   2.7035556   2.1521737  19.4548401  )
        53           H1  tau(  53) = (   0.6355624   1.5475814  18.4636284  )
        54           H1  tau(  54) = (   6.4936903   4.3158724  18.6511896  )
        55           H1  tau(  55) = (   5.4890587   3.0624770  18.3097170  )

     number of k points=    10  Fermi-Dirac smearing, width (Ry)=  0.0073
                       cart. coord. in units 2pi/alat
        k(    1) = (   0.0000000   0.0000000   0.0000000), wk =   0.1250000
        k(    2) = (   0.0000000   0.0419351   0.0000000), wk =   0.2500000
        k(    3) = (   0.0000000  -0.0838702   0.0000000), wk =   0.1250000
        k(    4) = (   0.0379955   0.0000049   0.0000000), wk =   0.2500000
        k(    5) = (   0.0379955   0.0419400   0.0000000), wk =   0.2500000
        k(    6) = (   0.0379955  -0.0838652   0.0000000), wk =   0.2500000
        k(    7) = (   0.0379955  -0.0419301   0.0000000), wk =   0.2500000
        k(    8) = (  -0.0759910  -0.0000099   0.0000000), wk =   0.1250000
        k(    9) = (  -0.0759910   0.0419252   0.0000000), wk =   0.2500000
        k(   10) = (  -0.0759910  -0.0838800   0.0000000), wk =   0.1250000

     Dense  grid:   566857 G-vectors     FFT dimensions: (  72,  64, 270)

     Smooth grid:   143421 G-vectors     FFT dimensions: (  45,  40, 180)

     Estimated max dynamical RAM per process >     363.76 MB

     Estimated total dynamical RAM >       3.55 GB
     Cannot read rho : file not found

     Initial potential from superposition of free atoms

     starting charge  380.99914, renormalised to  397.00000

     negative rho (up, down):  1.606E-02 0.000E+00


     %%%%%%%%%%%%%%%%%%%%%%%%%%%%%%%%%%%%%%%%%%%%%%%%%%%%%%%%%%%%%%%%%%%%%%%%
     %                                                                      %
     % You are using vdW-DF, which was implemented by the Thonhauser group. %
     % Please cite the following two papers that made this development      %
     % possible and the two reviews that describe the various versions:     %
     %                                                                      %
     %   T. Thonhauser et al., PRL 115, 136402 (2015).                      %
     %   T. Thonhauser et al., PRB 76, 125112 (2007).                       %
     %   K. Berland et al., Rep. Prog. Phys. 78, 066501 (2015).             %
     %   D.C. Langreth et al., J. Phys.: Condens. Matter 21, 084203 (2009). %
     %                                                                      %
     %                                                                      %
     % If you are calculating the stress with vdW-DF, please also cite:     %
     %                                                                      %
     %   R. Sabatini et al., J. Phys.: Condens. Matter 24, 424209 (2012).   %
     %                                                                      %
     %%%%%%%%%%%%%%%%%%%%%%%%%%%%%%%%%%%%%%%%%%%%%%%%%%%%%%%%%%%%%%%%%%%%%%%%


 
     Adding external electric field

     Computed dipole along edir(3) : 
        Dipole              -10.6770 Ry au,        -27.1381 Debye
        Dipole field         -0.0201 Ry au, 
 
        Potential amp.        1.8678 Ry
        Total length         46.3494 bohr
 
     Starting wfcs are  301 atomic wfcs
  @ DRIVER MODE: Message from server: STATUS
  @ DRIVER MODE: Message from server: POSDATA
  @ DRIVER MODE: Reading and sharing cell 
  @ DRIVER MODE: Reading and sharing positions 
  @ DRIVER MODE: Received positions 

     total cpu time spent up to now is       11.5 secs

     Self-consistent Calculation

     iteration #  1     ecut=    29.40 Ry     beta= 0.05
     Davidson diagonalization with overlap
     c_bands:  2 eigenvalues not converged
     c_bands:  3 eigenvalues not converged
     c_bands:  1 eigenvalues not converged
     c_bands:  4 eigenvalues not converged
     c_bands:  4 eigenvalues not converged
     c_bands:  4 eigenvalues not converged
     c_bands:  1 eigenvalues not converged
     c_bands:  2 eigenvalues not converged
     c_bands:  2 eigenvalues not converged
     ethr =  1.00E-05,  avg # of iterations = 20.0

     negative rho (up, down):  1.145E-02 0.000E+00
 
     Adding external electric field

     Computed dipole along edir(3) : 
        Dipole               46.7720 Ry au,        118.8825 Debye
        Dipole field          0.0883 Ry au, 
 
        Potential amp.       -8.1820 Ry
        Total length         46.3494 bohr
 

     total cpu time spent up to now is       53.1 secs

     total energy              =   -2465.32160102 Ry
     estimated scf accuracy    <    5331.47531520 Ry

     iteration #  2     ecut=    29.40 Ry     beta= 0.05
     Davidson diagonalization with overlap
     ethr =  1.00E-02,  avg # of iterations = 23.6

     negative rho (up, down):  2.765E-03 0.000E+00
 
     Adding external electric field

     Computed dipole along edir(3) : 
        Dipole               -1.5483 Ry au,         -3.9355 Debye
        Dipole field         -0.0029 Ry au, 
 
        Potential amp.        0.2709 Ry
        Total length         46.3494 bohr
 

     total cpu time spent up to now is      130.4 secs

     total energy              =   -2449.96641954 Ry
     estimated scf accuracy    <   68564.94894362 Ry

     iteration #  3     ecut=    29.40 Ry     beta= 0.05
     Davidson diagonalization with overlap
     ethr =  1.00E-02,  avg # of iterations = 17.3

     negative rho (up, down):  2.827E-03 0.000E+00
 
     Adding external electric field

     Computed dipole along edir(3) : 
        Dipole               -3.8790 Ry au,         -9.8595 Debye
        Dipole field         -0.0073 Ry au, 
 
        Potential amp.        0.6786 Ry
        Total length         46.3494 bohr
 

     total cpu time spent up to now is      179.7 secs

     total energy              =   -2931.72661576 Ry
     estimated scf accuracy    <    4310.08044820 Ry

     iteration #  4     ecut=    29.40 Ry     beta= 0.05
     Davidson diagonalization with overlap
     ethr =  1.00E-02,  avg # of iterations = 14.1

     negative rho (up, down):  2.870E-03 0.000E+00
 
     Adding external electric field

     Computed dipole along edir(3) : 
        Dipole               -5.5602 Ry au,        -14.1325 Debye
        Dipole field         -0.0105 Ry au, 
 
        Potential amp.        0.9727 Ry
        Total length         46.3494 bohr
 

     total cpu time spent up to now is      198.7 secs

     total energy              =   -2929.61178426 Ry
     estimated scf accuracy    <    1791.22899967 Ry

     iteration #  5     ecut=    29.40 Ry     beta= 0.05
     Davidson diagonalization with overlap
     ethr =  1.00E-02,  avg # of iterations =  6.1

     negative rho (up, down):  2.990E-03 0.000E+00
 
     Adding external electric field

     Computed dipole along edir(3) : 
        Dipole               -7.9562 Ry au,        -20.2227 Debye
        Dipole field         -0.0150 Ry au, 
 
        Potential amp.        1.3918 Ry
        Total length         46.3494 bohr
 

     total cpu time spent up to now is      211.0 secs

     total energy              =   -2911.23502629 Ry
     estimated scf accuracy    <    1367.10523709 Ry

     iteration #  6     ecut=    29.40 Ry     beta= 0.05
     Davidson diagonalization with overlap
     c_bands:  2 eigenvalues not converged
     ethr =  1.00E-02,  avg # of iterations = 15.1

     negative rho (up, down):  2.545E-03 0.000E+00
 
     Adding external electric field

     Computed dipole along edir(3) : 
        Dipole               -6.2525 Ry au,        -15.8922 Debye
        Dipole field         -0.0118 Ry au, 
 
        Potential amp.        1.0938 Ry
        Total length         46.3494 bohr
 

     total cpu time spent up to now is      235.9 secs

     total energy              =   -2945.32985009 Ry
     estimated scf accuracy    <     110.64155735 Ry

     iteration #  7     ecut=    29.40 Ry     beta= 0.05
     Davidson diagonalization with overlap
     ethr =  1.00E-02,  avg # of iterations =  1.6

     negative rho (up, down):  2.692E-03 0.000E+00
 
     Adding external electric field

     Computed dipole along edir(3) : 
        Dipole               -5.2706 Ry au,        -13.3966 Debye
        Dipole field         -0.0099 Ry au, 
 
        Potential amp.        0.9220 Ry
        Total length         46.3494 bohr
 

     total cpu time spent up to now is      246.4 secs

     total energy              =   -2944.62936708 Ry
     estimated scf accuracy    <      29.88304447 Ry

     iteration #  8     ecut=    29.40 Ry     beta= 0.05
     Davidson diagonalization with overlap
     ethr =  7.53E-03,  avg # of iterations =  1.2

     negative rho (up, down):  2.623E-03 0.000E+00
 
     Adding external electric field

     Computed dipole along edir(3) : 
        Dipole               -5.2843 Ry au,        -13.4314 Debye
        Dipole field         -0.0100 Ry au, 
 
        Potential amp.        0.9244 Ry
        Total length         46.3494 bohr
 

     total cpu time spent up to now is      256.6 secs

     total energy              =   -2945.13640642 Ry
     estimated scf accuracy    <      17.12105430 Ry

     iteration #  9     ecut=    29.40 Ry     beta= 0.05
     Davidson diagonalization with overlap
     ethr =  4.31E-03,  avg # of iterations =  1.3

     negative rho (up, down):  1.963E-02 0.000E+00
 
     Adding external electric field

     Computed dipole along edir(3) : 
        Dipole               -4.0703 Ry au,        -10.3456 Debye
        Dipole field         -0.0077 Ry au, 
 
        Potential amp.        0.7120 Ry
        Total length         46.3494 bohr
 

     total cpu time spent up to now is      266.9 secs

     total energy              =   -2940.63094702 Ry
     estimated scf accuracy    <      17.52015893 Ry

     iteration # 10     ecut=    29.40 Ry     beta= 0.05
     Davidson diagonalization with overlap
     c_bands:  2 eigenvalues not converged
     c_bands:  1 eigenvalues not converged
     c_bands:  1 eigenvalues not converged
     ethr =  4.31E-03,  avg # of iterations = 15.2

     negative rho (up, down):  1.313E-01 0.000E+00
 
     Adding external electric field

     Computed dipole along edir(3) : 
        Dipole               -1.2109 Ry au,         -3.0779 Debye
        Dipole field         -0.0023 Ry au, 
 
        Potential amp.        0.2118 Ry
        Total length         46.3494 bohr
 

     total cpu time spent up to now is      282.7 secs

     total energy              =   -2943.83389562 Ry
     estimated scf accuracy    <      13.74243892 Ry

     iteration # 11     ecut=    29.40 Ry     beta= 0.05
     Davidson diagonalization with overlap
     ethr =  3.46E-03,  avg # of iterations = 10.3

     negative rho (up, down):  1.336E-01 0.000E+00
 
     Adding external electric field

     Computed dipole along edir(3) : 
        Dipole               -1.2989 Ry au,         -3.3016 Debye
        Dipole field         -0.0025 Ry au, 
 
        Potential amp.        0.2272 Ry
        Total length         46.3494 bohr
 

     total cpu time spent up to now is      306.0 secs

     total energy              =   -2965.45869521 Ry
     estimated scf accuracy    <    2811.93885798 Ry

     iteration # 12     ecut=    29.40 Ry     beta= 0.05
     Davidson diagonalization with overlap
     ethr =  3.46E-03,  avg # of iterations =  1.1

     negative rho (up, down):  1.193E-01 0.000E+00
 
     Adding external electric field

     Computed dipole along edir(3) : 
        Dipole               -1.2514 Ry au,         -3.1807 Debye
        Dipole field         -0.0024 Ry au, 
 
        Potential amp.        0.2189 Ry
        Total length         46.3494 bohr
 

     total cpu time spent up to now is      316.1 secs

     total energy              =   -2964.44771080 Ry
     estimated scf accuracy    <    2490.15486283 Ry

     iteration # 13     ecut=    29.40 Ry     beta= 0.05
     Davidson diagonalization with overlap
     ethr =  3.46E-03,  avg # of iterations =  1.0

     negative rho (up, down):  8.601E-02 0.000E+00
 
     Adding external electric field

     Computed dipole along edir(3) : 
        Dipole               -1.6281 Ry au,         -4.1383 Debye
        Dipole field         -0.0031 Ry au, 
 
        Potential amp.        0.2848 Ry
        Total length         46.3494 bohr
 

     total cpu time spent up to now is      326.1 secs

     total energy              =   -2955.25160046 Ry
     estimated scf accuracy    <    2452.44398437 Ry

     iteration # 14     ecut=    29.40 Ry     beta= 0.05
     Davidson diagonalization with overlap
     ethr =  3.46E-03,  avg # of iterations =  1.6

     negative rho (up, down):  7.284E-02 0.000E+00
 
     Adding external electric field

     Computed dipole along edir(3) : 
        Dipole               -2.8917 Ry au,         -7.3499 Debye
        Dipole field         -0.0055 Ry au, 
 
        Potential amp.        0.5059 Ry
        Total length         46.3494 bohr
 

     total cpu time spent up to now is      336.7 secs

     total energy              =   -2948.54925156 Ry
     estimated scf accuracy    <    1737.85255165 Ry

     iteration # 15     ecut=    29.40 Ry     beta= 0.05
     Davidson diagonalization with overlap
     ethr =  3.46E-03,  avg # of iterations =  6.1

     negative rho (up, down):  2.759E-02 0.000E+00
 
     Adding external electric field

     Computed dipole along edir(3) : 
        Dipole               -1.7950 Ry au,         -4.5624 Debye
        Dipole field         -0.0034 Ry au, 
 
        Potential amp.        0.3140 Ry
        Total length         46.3494 bohr
 

     total cpu time spent up to now is      348.9 secs

     total energy              =   -2943.98924820 Ry
     estimated scf accuracy    <    1481.13206988 Ry

     iteration # 16     ecut=    29.40 Ry     beta= 0.05
     Davidson diagonalization with overlap
     ethr =  3.46E-03,  avg # of iterations =  5.8

     negative rho (up, down):  1.604E-02 0.000E+00
 
     Adding external electric field

     Computed dipole along edir(3) : 
        Dipole               -0.0984 Ry au,         -0.2500 Debye
        Dipole field         -0.0002 Ry au, 
 
        Potential amp.        0.0172 Ry
        Total length         46.3494 bohr
 

     total cpu time spent up to now is      361.0 secs

     total energy              =   -2949.31593263 Ry
     estimated scf accuracy    <    1338.85447990 Ry

     iteration # 17     ecut=    29.40 Ry     beta= 0.05
     Davidson diagonalization with overlap
     ethr =  3.46E-03,  avg # of iterations =  2.9

     negative rho (up, down):  1.373E-02 0.000E+00
 
     Adding external electric field

     Computed dipole along edir(3) : 
        Dipole                1.4478 Ry au,          3.6800 Debye
        Dipole field          0.0027 Ry au, 
 
        Potential amp.       -0.2533 Ry
        Total length         46.3494 bohr
 

     total cpu time spent up to now is      372.1 secs

     total energy              =   -2957.03343113 Ry
     estimated scf accuracy    <    1358.25478764 Ry

     iteration # 18     ecut=    29.40 Ry     beta= 0.05
     Davidson diagonalization with overlap
     ethr =  3.46E-03,  avg # of iterations =  4.3

     negative rho (up, down):  1.107E-02 0.000E+00
 
     Adding external electric field

     Computed dipole along edir(3) : 
        Dipole                1.0284 Ry au,          2.6140 Debye
        Dipole field          0.0019 Ry au, 
 
        Potential amp.       -0.1799 Ry
        Total length         46.3494 bohr
 

     total cpu time spent up to now is      383.6 secs

     total energy              =   -2954.36825012 Ry
     estimated scf accuracy    <    1933.84617578 Ry

     iteration # 19     ecut=    29.40 Ry     beta= 0.05
     Davidson diagonalization with overlap
     ethr =  3.46E-03,  avg # of iterations =  1.2

     negative rho (up, down):  3.110E-03 0.000E+00
 
     Adding external electric field

     Computed dipole along edir(3) : 
        Dipole               -8.4151 Ry au,        -21.3892 Debye
        Dipole field         -0.0159 Ry au, 
 
        Potential amp.        1.4721 Ry
        Total length         46.3494 bohr
 

     total cpu time spent up to now is      393.8 secs

     total energy              =   -2890.07520665 Ry
     estimated scf accuracy    <    1652.34995617 Ry

     iteration # 20     ecut=    29.40 Ry     beta= 0.05
     Davidson diagonalization with overlap
     c_bands:  1 eigenvalues not converged
     c_bands:  1 eigenvalues not converged
     c_bands:  1 eigenvalues not converged
     ethr =  3.46E-03,  avg # of iterations = 17.7

     negative rho (up, down):  5.020E-04 0.000E+00
 
     Adding external electric field

     Computed dipole along edir(3) : 
        Dipole               -1.9730 Ry au,         -5.0148 Debye
        Dipole field         -0.0037 Ry au, 
 
        Potential amp.        0.3451 Ry
        Total length         46.3494 bohr
 

     total cpu time spent up to now is      429.6 secs

     total energy              =   -2926.94359756 Ry
     estimated scf accuracy    <    2556.93475247 Ry

     iteration # 21     ecut=    29.40 Ry     beta= 0.05
     Davidson diagonalization with overlap
     c_bands:  1 eigenvalues not converged
     c_bands:  4 eigenvalues not converged
     c_bands:  1 eigenvalues not converged
     c_bands:  4 eigenvalues not converged
     c_bands:  1 eigenvalues not converged
     ethr =  3.46E-03,  avg # of iterations = 17.9

     negative rho (up, down):  6.904E-04 0.000E+00
 
     Adding external electric field

     Computed dipole along edir(3) : 
        Dipole               -0.0949 Ry au,         -0.2411 Debye
        Dipole field         -0.0002 Ry au, 
 
        Potential amp.        0.0166 Ry
        Total length         46.3494 bohr
 

     total cpu time spent up to now is      450.2 secs

     total energy              =   -2941.07456396 Ry
     estimated scf accuracy    <      48.57610325 Ry

     iteration # 22     ecut=    29.40 Ry     beta= 0.05
     Davidson diagonalization with overlap
     c_bands:  3 eigenvalues not converged
     ethr =  3.46E-03,  avg # of iterations = 10.0

     negative rho (up, down):  6.800E-04 0.000E+00
 
     Adding external electric field

     Computed dipole along edir(3) : 
        Dipole               -0.3309 Ry au,         -0.8409 Debye
        Dipole field         -0.0006 Ry au, 
 
        Potential amp.        0.0579 Ry
        Total length         46.3494 bohr
 

     total cpu time spent up to now is      463.6 secs

     total energy              =   -2941.96494034 Ry
     estimated scf accuracy    <      12.69400521 Ry

     iteration # 23     ecut=    29.40 Ry     beta= 0.05
     Davidson diagonalization with overlap
     ethr =  3.20E-03,  avg # of iterations =  1.2

     negative rho (up, down):  7.093E-04 0.000E+00
 
     Adding external electric field

     Computed dipole along edir(3) : 
        Dipole               -0.4786 Ry au,         -1.2166 Debye
        Dipole field         -0.0009 Ry au, 
 
        Potential amp.        0.0837 Ry
        Total length         46.3494 bohr
 

     total cpu time spent up to now is      473.7 secs

     total energy              =   -2941.69931676 Ry
     estimated scf accuracy    <      14.83630770 Ry

     iteration # 24     ecut=    29.40 Ry     beta= 0.05
     Davidson diagonalization with overlap
     ethr =  3.20E-03,  avg # of iterations =  5.3

     negative rho (up, down):  7.479E-04 0.000E+00
 
     Adding external electric field

     Computed dipole along edir(3) : 
        Dipole               -0.2736 Ry au,         -0.6954 Debye
        Dipole field         -0.0005 Ry au, 
 
        Potential amp.        0.0479 Ry
        Total length         46.3494 bohr
 

     total cpu time spent up to now is      485.4 secs

     total energy              =   -2941.46824568 Ry
     estimated scf accuracy    <      16.59496224 Ry

     iteration # 25     ecut=    29.40 Ry     beta= 0.05
     Davidson diagonalization with overlap
     ethr =  3.20E-03,  avg # of iterations =  1.1

     negative rho (up, down):  8.417E-04 0.000E+00
 
     Adding external electric field

     Computed dipole along edir(3) : 
        Dipole                0.7201 Ry au,          1.8302 Debye
        Dipole field          0.0014 Ry au, 
 
        Potential amp.       -0.1260 Ry
        Total length         46.3494 bohr
 

     total cpu time spent up to now is      495.5 secs

     total energy              =   -2940.90268304 Ry
     estimated scf accuracy    <      14.68370599 Ry

     iteration # 26     ecut=    29.40 Ry     beta= 0.05
     Davidson diagonalization with overlap
     c_bands:  1 eigenvalues not converged
     ethr =  3.20E-03,  avg # of iterations =  6.0

     negative rho (up, down):  8.349E-04 0.000E+00
 
     Adding external electric field

     Computed dipole along edir(3) : 
        Dipole                0.5695 Ry au,          1.4475 Debye
        Dipole field          0.0011 Ry au, 
 
        Potential amp.       -0.0996 Ry
        Total length         46.3494 bohr
 

     total cpu time spent up to now is      507.6 secs

     total energy              =   -2941.40489112 Ry
     estimated scf accuracy    <       3.79818736 Ry

     iteration # 27     ecut=    29.40 Ry     beta= 0.05
     Davidson diagonalization with overlap
     c_bands:  1 eigenvalues not converged
     c_bands:  1 eigenvalues not converged
     ethr =  9.57E-04,  avg # of iterations = 11.5

     negative rho (up, down):  8.188E-04 0.000E+00
 
     Adding external electric field

     Computed dipole along edir(3) : 
        Dipole                0.1101 Ry au,          0.2798 Debye
        Dipole field          0.0002 Ry au, 
 
        Potential amp.       -0.0193 Ry
        Total length         46.3494 bohr
 

     total cpu time spent up to now is      521.6 secs

     total energy              =   -2941.62978790 Ry
     estimated scf accuracy    <       1.81587177 Ry

     iteration # 28     ecut=    29.40 Ry     beta= 0.05
     Davidson diagonalization with overlap
     c_bands:  1 eigenvalues not converged
     ethr =  4.57E-04,  avg # of iterations = 11.8

     negative rho (up, down):  9.343E-04 0.000E+00
 
     Adding external electric field

     Computed dipole along edir(3) : 
        Dipole                0.0160 Ry au,          0.0408 Debye
        Dipole field          0.0000 Ry au, 
 
        Potential amp.       -0.0028 Ry
        Total length         46.3494 bohr
 

     total cpu time spent up to now is      536.1 secs

     total energy              =   -2941.60392924 Ry
     estimated scf accuracy    <       2.34088526 Ry

     iteration # 29     ecut=    29.40 Ry     beta= 0.05
     Davidson diagonalization with overlap
     ethr =  4.57E-04,  avg # of iterations =  1.5

     negative rho (up, down):  1.644E-03 0.000E+00
 
     Adding external electric field

     Computed dipole along edir(3) : 
        Dipole               -1.3589 Ry au,         -3.4539 Debye
        Dipole field         -0.0026 Ry au, 
 
        Potential amp.        0.2377 Ry
        Total length         46.3494 bohr
 

     total cpu time spent up to now is      546.6 secs

     total energy              =   -2941.23648764 Ry
     estimated scf accuracy    <       1.68265437 Ry

     iteration # 30     ecut=    29.40 Ry     beta= 0.05
     Davidson diagonalization with overlap
     c_bands:  1 eigenvalues not converged
     ethr =  4.24E-04,  avg # of iterations = 15.0

     negative rho (up, down):  1.859E-03 0.000E+00
 
     Adding external electric field

     Computed dipole along edir(3) : 
        Dipole               -1.2407 Ry au,         -3.1536 Debye
        Dipole field         -0.0023 Ry au, 
 
        Potential amp.        0.2170 Ry
        Total length         46.3494 bohr
 

     total cpu time spent up to now is      564.5 secs

     total energy              =   -2941.80579381 Ry
     estimated scf accuracy    <       9.55677069 Ry

     iteration # 31     ecut=    29.40 Ry     beta= 0.05
     Davidson diagonalization with overlap
     ethr =  4.24E-04,  avg # of iterations =  1.3

     negative rho (up, down):  2.254E-03 0.000E+00
 
     Adding external electric field

     Computed dipole along edir(3) : 
        Dipole               -0.5003 Ry au,         -1.2717 Debye
        Dipole field         -0.0009 Ry au, 
 
        Potential amp.        0.0875 Ry
        Total length         46.3494 bohr
 

     total cpu time spent up to now is      574.8 secs

     total energy              =   -2941.46659765 Ry
     estimated scf accuracy    <       9.14662300 Ry

     iteration # 32     ecut=    29.40 Ry     beta= 0.05
     Davidson diagonalization with overlap
     c_bands:  3 eigenvalues not converged
     c_bands:  5 eigenvalues not converged
     c_bands:  1 eigenvalues not converged
     c_bands:  3 eigenvalues not converged
     c_bands:  3 eigenvalues not converged
     c_bands:  1 eigenvalues not converged
     c_bands:  2 eigenvalues not converged
     ethr =  4.24E-04,  avg # of iterations = 19.3

     negative rho (up, down):  1.534E-03 0.000E+00
 
     Adding external electric field

     Computed dipole along edir(3) : 
        Dipole                0.1930 Ry au,          0.4906 Debye
        Dipole field          0.0004 Ry au, 
 
        Potential amp.       -0.0338 Ry
        Total length         46.3494 bohr
 

     total cpu time spent up to now is      593.7 secs

     total energy              =   -2941.52306816 Ry
     estimated scf accuracy    <       2.56275240 Ry

     iteration # 33     ecut=    29.40 Ry     beta= 0.05
     Davidson diagonalization with overlap
     ethr =  4.24E-04,  avg # of iterations =  5.3

     negative rho (up, down):  1.394E-03 0.000E+00
 
     Adding external electric field

     Computed dipole along edir(3) : 
        Dipole                0.2078 Ry au,          0.5281 Debye
        Dipole field          0.0004 Ry au, 
 
        Potential amp.       -0.0363 Ry
        Total length         46.3494 bohr
 

     total cpu time spent up to now is      605.5 secs

     total energy              =   -2941.51374250 Ry
     estimated scf accuracy    <       1.76026865 Ry

     iteration # 34     ecut=    29.40 Ry     beta= 0.05
     Davidson diagonalization with overlap
     ethr =  4.24E-04,  avg # of iterations =  3.2

     negative rho (up, down):  1.392E-03 0.000E+00
 
     Adding external electric field

     Computed dipole along edir(3) : 
        Dipole                0.0547 Ry au,          0.1389 Debye
        Dipole field          0.0001 Ry au, 
 
        Potential amp.       -0.0096 Ry
        Total length         46.3494 bohr
 

     total cpu time spent up to now is      616.5 secs

     total energy              =   -2941.50834389 Ry
     estimated scf accuracy    <       0.85803973 Ry

     iteration # 35     ecut=    29.40 Ry     beta= 0.05
     Davidson diagonalization with overlap
     c_bands:  3 eigenvalues not converged
     c_bands:  1 eigenvalues not converged
     ethr =  2.16E-04,  avg # of iterations = 12.2

     negative rho (up, down):  1.299E-03 0.000E+00
 
     Adding external electric field

     Computed dipole along edir(3) : 
        Dipole                0.2227 Ry au,          0.5661 Debye
        Dipole field          0.0004 Ry au, 
 
        Potential amp.       -0.0390 Ry
        Total length         46.3494 bohr
 

     total cpu time spent up to now is      630.8 secs

     total energy              =   -2941.51275105 Ry
     estimated scf accuracy    <       1.09227129 Ry

     iteration # 36     ecut=    29.40 Ry     beta= 0.05
     Davidson diagonalization with overlap
     ethr =  2.16E-04,  avg # of iterations =  8.8

     negative rho (up, down):  2.350E-03 0.000E+00
 
     Adding external electric field

     Computed dipole along edir(3) : 
        Dipole                0.4662 Ry au,          1.1849 Debye
        Dipole field          0.0009 Ry au, 
 
        Potential amp.       -0.0816 Ry
        Total length         46.3494 bohr
 

     total cpu time spent up to now is      643.9 secs

     total energy              =   -2941.49487067 Ry
     estimated scf accuracy    <       0.25718660 Ry

     iteration # 37     ecut=    29.40 Ry     beta= 0.05
     Davidson diagonalization with overlap
     c_bands:  1 eigenvalues not converged
     c_bands:  1 eigenvalues not converged
     c_bands:  1 eigenvalues not converged
     ethr =  6.48E-05,  avg # of iterations = 17.1

     negative rho (up, down):  1.643E-03 0.000E+00
 
     Adding external electric field

     Computed dipole along edir(3) : 
        Dipole                0.7770 Ry au,          1.9750 Debye
        Dipole field          0.0015 Ry au, 
 
        Potential amp.       -0.1359 Ry
        Total length         46.3494 bohr
 

     total cpu time spent up to now is      661.2 secs

     total energy              =   -2941.46986702 Ry
     estimated scf accuracy    <       0.93256041 Ry

     iteration # 38     ecut=    29.40 Ry     beta= 0.05
     Davidson diagonalization with overlap
     c_bands:  1 eigenvalues not converged
     c_bands:  1 eigenvalues not converged
     c_bands:  1 eigenvalues not converged
     c_bands:  1 eigenvalues not converged
     ethr =  6.48E-05,  avg # of iterations = 15.1

     negative rho (up, down):  2.359E-03 0.000E+00
 
     Adding external electric field

     Computed dipole along edir(3) : 
        Dipole                0.9792 Ry au,          2.4889 Debye
        Dipole field          0.0018 Ry au, 
 
        Potential amp.       -0.1713 Ry
        Total length         46.3494 bohr
 

     total cpu time spent up to now is      677.4 secs

     total energy              =   -2941.50300018 Ry
     estimated scf accuracy    <       1.37904333 Ry

     iteration # 39     ecut=    29.40 Ry     beta= 0.05
     Davidson diagonalization with overlap
     c_bands:  2 eigenvalues not converged
     ethr =  6.48E-05,  avg # of iterations = 13.2

     negative rho (up, down):  2.426E-03 0.000E+00
 
     Adding external electric field

     Computed dipole along edir(3) : 
        Dipole                0.9218 Ry au,          2.3431 Debye
        Dipole field          0.0017 Ry au, 
 
        Potential amp.       -0.1613 Ry
        Total length         46.3494 bohr
 

     total cpu time spent up to now is      692.6 secs

     total energy              =   -2941.52091945 Ry
     estimated scf accuracy    <       0.92570478 Ry

     iteration # 40     ecut=    29.40 Ry     beta= 0.05
     Davidson diagonalization with overlap
     ethr =  6.48E-05,  avg # of iterations =  2.8

     negative rho (up, down):  2.334E-03 0.000E+00
 
     Adding external electric field

     Computed dipole along edir(3) : 
        Dipole                0.8449 Ry au,          2.1476 Debye
        Dipole field          0.0016 Ry au, 
 
        Potential amp.       -0.1478 Ry
        Total length         46.3494 bohr
 

     total cpu time spent up to now is      703.4 secs

     total energy              =   -2941.51816017 Ry
     estimated scf accuracy    <       0.68957983 Ry

     iteration # 41     ecut=    29.40 Ry     beta= 0.05
     Davidson diagonalization with overlap
     ethr =  6.48E-05,  avg # of iterations =  1.1

     negative rho (up, down):  2.347E-03 0.000E+00
 
     Adding external electric field

     Computed dipole along edir(3) : 
        Dipole                0.7963 Ry au,          2.0241 Debye
        Dipole field          0.0015 Ry au, 
 
        Potential amp.       -0.1393 Ry
        Total length         46.3494 bohr
 

     total cpu time spent up to now is      713.5 secs

     total energy              =   -2941.50646659 Ry
     estimated scf accuracy    <       0.48837432 Ry

     iteration # 42     ecut=    29.40 Ry     beta= 0.05
     Davidson diagonalization with overlap
     ethr =  6.48E-05,  avg # of iterations =  2.3

     negative rho (up, down):  3.678E-03 0.000E+00
 
     Adding external electric field

     Computed dipole along edir(3) : 
        Dipole                0.8708 Ry au,          2.2135 Debye
        Dipole field          0.0016 Ry au, 
 
        Potential amp.       -0.1523 Ry
        Total length         46.3494 bohr
 

     total cpu time spent up to now is      724.4 secs

     total energy              =   -2941.49242871 Ry
     estimated scf accuracy    <       0.23679345 Ry

     iteration # 43     ecut=    29.40 Ry     beta= 0.05
     Davidson diagonalization with overlap
     ethr =  5.96E-05,  avg # of iterations =  9.1

     negative rho (up, down):  5.797E-03 0.000E+00
 
     Adding external electric field

     Computed dipole along edir(3) : 
        Dipole                1.2035 Ry au,          3.0589 Debye
        Dipole field          0.0023 Ry au, 
 
        Potential amp.       -0.2105 Ry
        Total length         46.3494 bohr
 

     total cpu time spent up to now is      737.6 secs

     total energy              =   -2941.49849633 Ry
     estimated scf accuracy    <       0.17950328 Ry

     iteration # 44     ecut=    29.40 Ry     beta= 0.05
     Davidson diagonalization with overlap
     c_bands:  1 eigenvalues not converged
     ethr =  4.52E-05,  avg # of iterations =  9.0

     negative rho (up, down):  5.851E-03 0.000E+00
 
     Adding external electric field

     Computed dipole along edir(3) : 
        Dipole                1.1424 Ry au,          2.9036 Debye
        Dipole field          0.0022 Ry au, 
 
        Potential amp.       -0.1998 Ry
        Total length         46.3494 bohr
 

     total cpu time spent up to now is      750.6 secs

     total energy              =   -2941.50776860 Ry
     estimated scf accuracy    <       0.24047457 Ry

     iteration # 45     ecut=    29.40 Ry     beta= 0.05
     Davidson diagonalization with overlap
     ethr =  4.52E-05,  avg # of iterations =  1.1

     negative rho (up, down):  6.961E-03 0.000E+00
 
     Adding external electric field

     Computed dipole along edir(3) : 
        Dipole                1.1096 Ry au,          2.8203 Debye
        Dipole field          0.0021 Ry au, 
 
        Potential amp.       -0.1941 Ry
        Total length         46.3494 bohr
 

     total cpu time spent up to now is      760.7 secs

     total energy              =   -2941.50320068 Ry
     estimated scf accuracy    <       0.08661395 Ry

     iteration # 46     ecut=    29.40 Ry     beta= 0.05
     Davidson diagonalization with overlap
     c_bands:  3 eigenvalues not converged
     c_bands:  1 eigenvalues not converged
     c_bands:  1 eigenvalues not converged
     ethr =  2.18E-05,  avg # of iterations = 15.2

     negative rho (up, down):  6.817E-03 0.000E+00
 
     Adding external electric field

     Computed dipole along edir(3) : 
        Dipole                1.0972 Ry au,          2.7889 Debye
        Dipole field          0.0021 Ry au, 
 
        Potential amp.       -0.1919 Ry
        Total length         46.3494 bohr
 

     total cpu time spent up to now is      776.3 secs

     total energy              =   -2941.50759022 Ry
     estimated scf accuracy    <       0.01618134 Ry

     iteration # 47     ecut=    29.40 Ry     beta= 0.05
     Davidson diagonalization with overlap
     c_bands:  2 eigenvalues not converged
     c_bands:  1 eigenvalues not converged
     c_bands:  2 eigenvalues not converged
     c_bands:  1 eigenvalues not converged
     c_bands:  1 eigenvalues not converged
     ethr =  4.08E-06,  avg # of iterations = 17.8

     negative rho (up, down):  7.278E-03 0.000E+00
 
     Adding external electric field

     Computed dipole along edir(3) : 
        Dipole                1.0952 Ry au,          2.7837 Debye
        Dipole field          0.0021 Ry au, 
 
        Potential amp.       -0.1916 Ry
        Total length         46.3494 bohr
 

     total cpu time spent up to now is      793.7 secs

     total energy              =   -2941.50826277 Ry
     estimated scf accuracy    <       0.01039187 Ry

     iteration # 48     ecut=    29.40 Ry     beta= 0.05
     Davidson diagonalization with overlap
     c_bands:  1 eigenvalues not converged
     c_bands:  1 eigenvalues not converged
     c_bands:  3 eigenvalues not converged
     ethr =  2.62E-06,  avg # of iterations = 11.8

     negative rho (up, down):  9.283E-03 0.000E+00
 
     Adding external electric field

     Computed dipole along edir(3) : 
        Dipole                1.1227 Ry au,          2.8537 Debye
        Dipole field          0.0021 Ry au, 
 
        Potential amp.       -0.1964 Ry
        Total length         46.3494 bohr
 

     total cpu time spent up to now is      807.5 secs

     total energy              =   -2941.50890799 Ry
     estimated scf accuracy    <       0.00895403 Ry

     iteration # 49     ecut=    29.40 Ry     beta= 0.05
     Davidson diagonalization with overlap
     c_bands:  1 eigenvalues not converged
     c_bands:  1 eigenvalues not converged
     c_bands:  2 eigenvalues not converged
     ethr =  2.26E-06,  avg # of iterations = 13.5

     negative rho (up, down):  1.084E-02 0.000E+00
 
     Adding external electric field

     Computed dipole along edir(3) : 
        Dipole                1.1884 Ry au,          3.0205 Debye
        Dipole field          0.0022 Ry au, 
 
        Potential amp.       -0.2079 Ry
        Total length         46.3494 bohr
 

     total cpu time spent up to now is      823.1 secs

     total energy              =   -2941.50921681 Ry
     estimated scf accuracy    <       0.01249881 Ry

     iteration # 50     ecut=    29.40 Ry     beta= 0.05
     Davidson diagonalization with overlap
     c_bands:  1 eigenvalues not converged
     ethr =  2.26E-06,  avg # of iterations = 15.7

     negative rho (up, down):  1.209E-02 0.000E+00
 
     Adding external electric field

     Computed dipole along edir(3) : 
        Dipole                1.1912 Ry au,          3.0277 Debye
        Dipole field          0.0022 Ry au, 
 
        Potential amp.       -0.2084 Ry
        Total length         46.3494 bohr
 

     total cpu time spent up to now is      838.4 secs

     total energy              =   -2941.50979346 Ry
     estimated scf accuracy    <       0.00665321 Ry

     iteration # 51     ecut=    29.40 Ry     beta= 0.05
     Davidson diagonalization with overlap
     c_bands:  1 eigenvalues not converged
     ethr =  1.68E-06,  avg # of iterations = 10.8

     negative rho (up, down):  1.366E-02 0.000E+00
 
     Adding external electric field

     Computed dipole along edir(3) : 
        Dipole                1.2085 Ry au,          3.0717 Debye
        Dipole field          0.0023 Ry au, 
 
        Potential amp.       -0.2114 Ry
        Total length         46.3494 bohr
 

     total cpu time spent up to now is      851.7 secs

     total energy              =   -2941.51027375 Ry
     estimated scf accuracy    <       0.00140342 Ry

     iteration # 52     ecut=    29.40 Ry     beta= 0.05
     Davidson diagonalization with overlap
     c_bands:  1 eigenvalues not converged
     c_bands:  1 eigenvalues not converged
     c_bands:  3 eigenvalues not converged
     c_bands:  1 eigenvalues not converged
     c_bands:  1 eigenvalues not converged
     c_bands:  2 eigenvalues not converged
     ethr =  3.54E-07,  avg # of iterations = 17.8

     negative rho (up, down):  1.390E-02 0.000E+00
 
     Adding external electric field

     Computed dipole along edir(3) : 
        Dipole                1.1996 Ry au,          3.0492 Debye
        Dipole field          0.0023 Ry au, 
 
        Potential amp.       -0.2099 Ry
        Total length         46.3494 bohr
 

     total cpu time spent up to now is      870.0 secs

     total energy              =   -2941.51029900 Ry
     estimated scf accuracy    <       0.00103939 Ry

     iteration # 53     ecut=    29.40 Ry     beta= 0.05
     Davidson diagonalization with overlap
     c_bands:  1 eigenvalues not converged
     c_bands:  2 eigenvalues not converged
     ethr =  2.62E-07,  avg # of iterations = 13.7

     negative rho (up, down):  1.431E-02 0.000E+00
 
     Adding external electric field

     Computed dipole along edir(3) : 
        Dipole                1.2085 Ry au,          3.0717 Debye
        Dipole field          0.0023 Ry au, 
 
        Potential amp.       -0.2114 Ry
        Total length         46.3494 bohr
 

     total cpu time spent up to now is      886.0 secs

     total energy              =   -2941.51033723 Ry
     estimated scf accuracy    <       0.00123989 Ry

     iteration # 54     ecut=    29.40 Ry     beta= 0.05
     Davidson diagonalization with overlap
     c_bands:  2 eigenvalues not converged
     ethr =  2.62E-07,  avg # of iterations =  8.5

     negative rho (up, down):  1.440E-02 0.000E+00
 
     Adding external electric field

     Computed dipole along edir(3) : 
        Dipole                1.1919 Ry au,          3.0295 Debye
        Dipole field          0.0022 Ry au, 
 
        Potential amp.       -0.2085 Ry
        Total length         46.3494 bohr
 

     total cpu time spent up to now is      898.8 secs

     total energy              =   -2941.51034783 Ry
     estimated scf accuracy    <       0.00069275 Ry

     iteration # 55     ecut=    29.40 Ry     beta= 0.05
     Davidson diagonalization with overlap
     c_bands:  1 eigenvalues not converged
     c_bands:  1 eigenvalues not converged
     c_bands:  1 eigenvalues not converged
     c_bands:  1 eigenvalues not converged
     ethr =  1.74E-07,  avg # of iterations = 16.2

     negative rho (up, down):  1.462E-02 0.000E+00
 
     Adding external electric field

     Computed dipole along edir(3) : 
        Dipole                1.1944 Ry au,          3.0359 Debye
        Dipole field          0.0023 Ry au, 
 
        Potential amp.       -0.2089 Ry
        Total length         46.3494 bohr
 

     total cpu time spent up to now is      915.8 secs

     total energy              =   -2941.51039032 Ry
     estimated scf accuracy    <       0.00043172 Ry

     iteration # 56     ecut=    29.40 Ry     beta= 0.05
     Davidson diagonalization with overlap
     c_bands:  1 eigenvalues not converged
     ethr =  1.09E-07,  avg # of iterations = 10.7

     negative rho (up, down):  1.472E-02 0.000E+00
 
     Adding external electric field

     Computed dipole along edir(3) : 
        Dipole                1.1936 Ry au,          3.0338 Debye
        Dipole field          0.0023 Ry au, 
 
        Potential amp.       -0.2088 Ry
        Total length         46.3494 bohr
 

     total cpu time spent up to now is      929.4 secs

     total energy              =   -2941.51040631 Ry
     estimated scf accuracy    <       0.00016189 Ry

     iteration # 57     ecut=    29.40 Ry     beta= 0.05
     Davidson diagonalization with overlap
     c_bands:  2 eigenvalues not converged
     c_bands:  3 eigenvalues not converged
     ethr =  4.08E-08,  avg # of iterations = 16.5

     negative rho (up, down):  1.515E-02 0.000E+00
 
     Adding external electric field

     Computed dipole along edir(3) : 
        Dipole                1.1975 Ry au,          3.0437 Debye
        Dipole field          0.0023 Ry au, 
 
        Potential amp.       -0.2095 Ry
        Total length         46.3494 bohr
 

     total cpu time spent up to now is      947.6 secs

     total energy              =   -2941.51045344 Ry
     estimated scf accuracy    <       0.00008001 Ry

     iteration # 58     ecut=    29.40 Ry     beta= 0.05
     Davidson diagonalization with overlap
     c_bands:  2 eigenvalues not converged
     ethr =  2.02E-08,  avg # of iterations = 12.6

     negative rho (up, down):  1.526E-02 0.000E+00
 
     Adding external electric field

     Computed dipole along edir(3) : 
        Dipole                1.2008 Ry au,          3.0522 Debye
        Dipole field          0.0023 Ry au, 
 
        Potential amp.       -0.2101 Ry
        Total length         46.3494 bohr
 

     total cpu time spent up to now is      963.9 secs

     total energy              =   -2941.51046599 Ry
     estimated scf accuracy    <       0.00006576 Ry

     iteration # 59     ecut=    29.40 Ry     beta= 0.05
     Davidson diagonalization with overlap
     c_bands:  1 eigenvalues not converged
     c_bands:  1 eigenvalues not converged
     c_bands:  1 eigenvalues not converged
     ethr =  1.66E-08,  avg # of iterations = 14.5

     negative rho (up, down):  1.531E-02 0.000E+00
 
     Adding external electric field

     Computed dipole along edir(3) : 
        Dipole                1.2021 Ry au,          3.0554 Debye
        Dipole field          0.0023 Ry au, 
 
        Potential amp.       -0.2103 Ry
        Total length         46.3494 bohr
 

     total cpu time spent up to now is      980.1 secs

     total energy              =   -2941.51048152 Ry
     estimated scf accuracy    <       0.00002178 Ry

     iteration # 60     ecut=    29.40 Ry     beta= 0.05
     Davidson diagonalization with overlap
     c_bands:  1 eigenvalues not converged
     c_bands:  2 eigenvalues not converged
     c_bands:  1 eigenvalues not converged
     ethr =  5.49E-09,  avg # of iterations = 13.2

     negative rho (up, down):  1.523E-02 0.000E+00
 
     Adding external electric field

     Computed dipole along edir(3) : 
        Dipole                1.2017 Ry au,          3.0543 Debye
        Dipole field          0.0023 Ry au, 
 
        Potential amp.       -0.2102 Ry
        Total length         46.3494 bohr
 

     total cpu time spent up to now is      995.4 secs

     total energy              =   -2941.51048966 Ry
     estimated scf accuracy    <       0.00001615 Ry

     iteration # 61     ecut=    29.40 Ry     beta= 0.05
     Davidson diagonalization with overlap
     c_bands:  1 eigenvalues not converged
     ethr =  4.07E-09,  avg # of iterations = 13.6

     negative rho (up, down):  1.516E-02 0.000E+00
 
     Adding external electric field

     Computed dipole along edir(3) : 
        Dipole                1.2028 Ry au,          3.0573 Debye
        Dipole field          0.0023 Ry au, 
 
        Potential amp.       -0.2104 Ry
        Total length         46.3494 bohr
 

     total cpu time spent up to now is     1011.3 secs

     total energy              =   -2941.51049727 Ry
     estimated scf accuracy    <       0.00000858 Ry

     iteration # 62     ecut=    29.40 Ry     beta= 0.05
     Davidson diagonalization with overlap
     c_bands:  1 eigenvalues not converged
     c_bands:  1 eigenvalues not converged
     ethr =  2.16E-09,  avg # of iterations = 12.5

     negative rho (up, down):  1.520E-02 0.000E+00
 
     Adding external electric field

     Computed dipole along edir(3) : 
        Dipole                1.2042 Ry au,          3.0608 Debye
        Dipole field          0.0023 Ry au, 
 
        Potential amp.       -0.2107 Ry
        Total length         46.3494 bohr
 

     total cpu time spent up to now is     1027.5 secs

     total energy              =   -2941.51050510 Ry
     estimated scf accuracy    <       0.00000473 Ry

     iteration # 63     ecut=    29.40 Ry     beta= 0.05
     Davidson diagonalization with overlap
     c_bands:  2 eigenvalues not converged
     c_bands:  1 eigenvalues not converged
     ethr =  1.19E-09,  avg # of iterations = 15.9

     negative rho (up, down):  1.509E-02 0.000E+00
 
     Adding external electric field

     Computed dipole along edir(3) : 
        Dipole                1.2033 Ry au,          3.0585 Debye
        Dipole field          0.0023 Ry au, 
 
        Potential amp.       -0.2105 Ry
        Total length         46.3494 bohr
 

     total cpu time spent up to now is     1045.9 secs

     total energy              =   -2941.51051051 Ry
     estimated scf accuracy    <       0.00000379 Ry

     iteration # 64     ecut=    29.40 Ry     beta= 0.05
     Davidson diagonalization with overlap
     c_bands:  1 eigenvalues not converged
     ethr =  9.54E-10,  avg # of iterations = 16.0

     negative rho (up, down):  1.509E-02 0.000E+00
 
     Adding external electric field

     Computed dipole along edir(3) : 
        Dipole                1.2038 Ry au,          3.0599 Debye
        Dipole field          0.0023 Ry au, 
 
        Potential amp.       -0.2106 Ry
        Total length         46.3494 bohr
 

     total cpu time spent up to now is     1066.9 secs

     total energy              =   -2941.51051631 Ry
     estimated scf accuracy    <       0.00000232 Ry

     iteration # 65     ecut=    29.40 Ry     beta= 0.05
     Davidson diagonalization with overlap
     c_bands:  1 eigenvalues not converged
     c_bands:  1 eigenvalues not converged
     c_bands:  1 eigenvalues not converged
     ethr =  5.85E-10,  avg # of iterations = 16.0

     negative rho (up, down):  1.509E-02 0.000E+00
 
     Adding external electric field

     Computed dipole along edir(3) : 
        Dipole                1.2041 Ry au,          3.0605 Debye
        Dipole field          0.0023 Ry au, 
 
        Potential amp.       -0.2106 Ry
        Total length         46.3494 bohr
 

     total cpu time spent up to now is     1084.5 secs

     total energy              =   -2941.51052161 Ry
     estimated scf accuracy    <       0.00000254 Ry

     iteration # 66     ecut=    29.40 Ry     beta= 0.05
     Davidson diagonalization with overlap
     ethr =  5.85E-10,  avg # of iterations =  7.6

     negative rho (up, down):  1.511E-02 0.000E+00
 
     Adding external electric field

     Computed dipole along edir(3) : 
        Dipole                1.2037 Ry au,          3.0594 Debye
        Dipole field          0.0023 Ry au, 
 
        Potential amp.       -0.2106 Ry
        Total length         46.3494 bohr
 

     total cpu time spent up to now is     1097.3 secs

     total energy              =   -2941.51052582 Ry
     estimated scf accuracy    <       0.00000189 Ry

     iteration # 67     ecut=    29.40 Ry     beta= 0.05
     Davidson diagonalization with overlap
     ethr =  4.77E-10,  avg # of iterations = 11.5

     negative rho (up, down):  1.512E-02 0.000E+00
 
     Adding external electric field

     Computed dipole along edir(3) : 
        Dipole                1.2037 Ry au,          3.0595 Debye
        Dipole field          0.0023 Ry au, 
 
        Potential amp.       -0.2106 Ry
        Total length         46.3494 bohr
 

     total cpu time spent up to now is     1112.7 secs

     total energy              =   -2941.51052999 Ry
     estimated scf accuracy    <       0.00000048 Ry

     iteration # 68     ecut=    29.40 Ry     beta= 0.05
     Davidson diagonalization with overlap
     c_bands:  1 eigenvalues not converged
     c_bands:  1 eigenvalues not converged
     ethr =  1.20E-10,  avg # of iterations = 12.0

     negative rho (up, down):  1.510E-02 0.000E+00
 
     Adding external electric field

     Computed dipole along edir(3) : 
        Dipole                1.2038 Ry au,          3.0597 Debye
        Dipole field          0.0023 Ry au, 
 
        Potential amp.       -0.2106 Ry
        Total length         46.3494 bohr
 

     total cpu time spent up to now is     1130.5 secs

     total energy              =   -2941.51053353 Ry
     estimated scf accuracy    <       0.00000027 Ry

     iteration # 69     ecut=    29.40 Ry     beta= 0.05
     Davidson diagonalization with overlap
     ethr =  6.71E-11,  avg # of iterations = 11.8

     negative rho (up, down):  1.510E-02 0.000E+00
 
     Adding external electric field

     Computed dipole along edir(3) : 
        Dipole                1.2036 Ry au,          3.0593 Debye
        Dipole field          0.0023 Ry au, 
 
        Potential amp.       -0.2106 Ry
        Total length         46.3494 bohr
 

     total cpu time spent up to now is     1146.0 secs

     total energy              =   -2941.51053668 Ry
     estimated scf accuracy    <       0.00000021 Ry

     iteration # 70     ecut=    29.40 Ry     beta= 0.05
     Davidson diagonalization with overlap
     ethr =  5.31E-11,  avg # of iterations = 10.5

     negative rho (up, down):  1.511E-02 0.000E+00
 
     Adding external electric field

     Computed dipole along edir(3) : 
        Dipole                1.2035 Ry au,          3.0590 Debye
        Dipole field          0.0023 Ry au, 
 
        Potential amp.       -0.2105 Ry
        Total length         46.3494 bohr
 

     total cpu time spent up to now is     1159.6 secs

     total energy              =   -2941.51053959 Ry
     estimated scf accuracy    <       0.00000013 Ry

     iteration # 71     ecut=    29.40 Ry     beta= 0.05
     Davidson diagonalization with overlap
     ethr =  3.39E-11,  avg # of iterations = 13.4

     negative rho (up, down):  1.514E-02 0.000E+00
 
     Adding external electric field

     Computed dipole along edir(3) : 
        Dipole                1.2043 Ry au,          3.0609 Debye
        Dipole field          0.0023 Ry au, 
 
        Potential amp.       -0.2107 Ry
        Total length         46.3494 bohr
 

     total cpu time spent up to now is     1178.5 secs

     End of self-consistent calculation

          k = 0.0000 0.0000 0.0000 ( 18029 PWs)   bands (ev):

   -55.3825 -55.3456 -55.3369 -55.3027 -55.2643 -55.2584 -55.2297 -55.2112
   -55.1868 -55.1844 -55.1768 -55.1675 -55.1338 -55.0320 -54.3700 -54.3359
   -31.9453 -31.8302 -31.7774 -31.7517 -31.7003 -31.6899 -31.6843 -31.6740
   -31.6256 -31.6172 -31.5947 -31.5816 -31.5723 -31.5481 -31.5418 -31.5347
   -31.5223 -31.5063 -31.5048 -31.4895 -31.4888 -31.4517 -31.4515 -31.4415
   -31.4414 -31.4134 -31.3947 -31.3940 -31.3935 -31.3890 -31.3728 -31.3663
   -31.3653 -31.3589 -31.3589 -31.3566 -31.3245 -31.3004 -31.2954 -31.2790
   -31.2470 -31.2021 -30.7795 -30.6848 -30.6628 -30.5958 -30.5090 -30.3982
   -18.8996 -16.2147 -15.9613 -15.8141 -15.7066 -15.5891 -15.4804 -15.4255
   -15.3194 -15.2479 -15.1339 -15.0846 -15.0681 -15.0363 -15.0272 -15.0150
   -14.9354 -14.9290 -14.9112 -14.8883 -14.8824 -14.8406 -14.8289 -14.7880
   -14.7629 -14.7570 -14.6356 -14.5497 -14.4749 -14.3227 -14.3127 -12.8727
   -12.7552  -9.8531  -7.4581  -6.2659  -4.9931  -4.0189  -3.5776  -3.5471
    -3.4083  -3.3002  -3.2793  -3.2411  -3.1429  -2.9621  -2.8255  -2.7923
    -2.6759  -2.5954  -2.5820  -2.5514  -2.4265  -2.3894  -2.3507  -2.2859
    -2.2562  -2.1938  -2.1751  -2.1637  -2.1446  -2.1205  -2.0958  -1.9947
    -1.9561  -1.8603  -1.8206  -1.7870  -1.7459  -1.7289  -1.7086  -1.6778
    -1.6676  -1.6134  -1.5999  -1.5857  -1.5368  -1.4191  -1.2981  -1.2645
    -1.1760  -1.0281  -0.9910  -0.9706  -0.9142  -0.8784  -0.8560  -0.8255
    -0.7649  -0.7259  -0.6677  -0.6093  -0.5412  -0.4967  -0.4494  -0.4132
    -0.3781  -0.2934  -0.2120  -0.1679  -0.1547  -0.1375  -0.0382  -0.0021
     0.0525   0.1292   0.1312   0.1434   0.1861   0.2684   0.3456   0.3634
     0.3865   0.4915   0.4962   0.5391   0.5417   0.5619   0.5961   0.6305
     0.6808   0.7078   0.7952   0.8918   1.1179   1.2192   1.2222   1.5455
     1.5564   1.6527   1.8357   2.2293   2.2778   3.7092   3.7797   3.8011
     3.8571   3.8601   3.9298   3.9465   4.1922   4.2177   4.2182   4.2372

          k = 0.0000 0.0419 0.0000 ( 17933 PWs)   bands (ev):

   -55.3775 -55.3505 -55.3318 -55.3077 -55.2593 -55.2563 -55.2346 -55.2061
   -55.1883 -55.1838 -55.1817 -55.1625 -55.1386 -55.0330 -54.3649 -54.3408
   -31.8884 -31.7761 -31.7363 -31.6969 -31.6787 -31.6470 -31.6341 -31.6311
   -31.6258 -31.6206 -31.5999 -31.5834 -31.5774 -31.5671 -31.5481 -31.5357
   -31.5320 -31.5082 -31.4946 -31.4916 -31.4916 -31.4756 -31.4475 -31.4371
   -31.4354 -31.4237 -31.4169 -31.4122 -31.4079 -31.4041 -31.4020 -31.3820
   -31.3805 -31.3608 -31.3574 -31.3550 -31.3520 -31.3517 -31.3332 -31.3057
   -31.2524 -31.2374 -30.7253 -30.6814 -30.6658 -30.5832 -30.5216 -30.4554
   -18.8969 -16.0874 -15.8484 -15.7206 -15.6387 -15.4834 -15.4301 -15.3924
   -15.2981 -15.2449 -15.2055 -15.1593 -15.0784 -15.0629 -15.0357 -14.9984
   -14.9654 -14.9572 -14.9064 -14.8884 -14.8733 -14.8723 -14.8475 -14.8230
   -14.7992 -14.7596 -14.6915 -14.6048 -14.5347 -14.4819 -14.2519 -12.8762
   -12.7944  -9.8399  -7.4589  -6.2676  -5.0053  -3.9911  -3.5906  -3.3589
    -3.2400  -3.1435  -3.1066  -3.1029  -2.9965  -2.7437  -2.7246  -2.6859
    -2.6293  -2.5550  -2.5329  -2.4856  -2.4629  -2.4104  -2.4047  -2.3570
    -2.3361  -2.3290  -2.2919  -2.2613  -2.1866  -2.1633  -2.1330  -2.1047
    -2.0172  -1.9861  -1.9581  -1.9435  -1.9230  -1.8716  -1.8157  -1.7497
    -1.7029  -1.6628  -1.5489  -1.4229  -1.3547  -1.3289  -1.2212  -1.2033
    -1.1352  -1.0712  -0.9860  -0.9452  -0.7787  -0.7530  -0.7388  -0.7118
    -0.6495  -0.6265  -0.5727  -0.5681  -0.5263  -0.4040  -0.3936  -0.3825
    -0.3198  -0.3126  -0.2463  -0.2194  -0.2113  -0.1854  -0.1117  -0.0264
    -0.0065   0.0134   0.0957   0.1009   0.1545   0.1964   0.2571   0.3333
     0.3466   0.3613   0.3948   0.4174   0.4389   0.5320   0.5601   0.6002
     0.6388   0.7116   0.7809   0.9068   0.9179   0.9557   1.0875   1.2600
     1.4206   1.8359   1.9109   2.1842   2.1880   3.7788   3.9126   3.9201
     3.9474   4.0080   4.0841   4.1084   4.1291   4.1432   4.2216   4.2384

          k = 0.0000-0.0839 0.0000 ( 17884 PWs)   bands (ev):

   -55.3685 -55.3594 -55.3200 -55.3194 -55.2541 -55.2493 -55.2446 -55.1955
   -55.1923 -55.1903 -55.1828 -55.1513 -55.1498 -55.0341 -54.3529 -54.3527
   -31.7539 -31.7448 -31.6857 -31.6620 -31.6439 -31.6434 -31.6267 -31.6108
   -31.6105 -31.5778 -31.5692 -31.5605 -31.5574 -31.5573 -31.5561 -31.5302
   -31.5213 -31.5201 -31.5155 -31.5119 -31.4798 -31.4627 -31.4616 -31.4578
   -31.4557 -31.4531 -31.4445 -31.4420 -31.4415 -31.4279 -31.4251 -31.4218
   -31.4192 -31.4167 -31.3880 -31.3568 -31.3516 -31.3498 -31.3320 -31.3303
   -31.2965 -31.2418 -30.6734 -30.6733 -30.5922 -30.5921 -30.5524 -30.5524
   -18.8943 -15.8496 -15.7145 -15.5944 -15.5348 -15.4912 -15.4077 -15.4000
   -15.2848 -15.2544 -15.2437 -15.2097 -15.1701 -15.1448 -15.0099 -14.9996
   -14.9842 -14.9820 -14.9316 -14.8964 -14.8618 -14.8369 -14.8167 -14.7975
   -14.7958 -14.7456 -14.7321 -14.6807 -14.6770 -14.6491 -14.2406 -12.8570
   -12.8570  -9.8273  -7.4600  -6.2685  -5.0146  -3.9660  -3.6012  -2.9276
    -2.9191  -2.8602  -2.8243  -2.8084  -2.7934  -2.7763  -2.7265  -2.7080
    -2.6610  -2.6588  -2.5965  -2.5843  -2.5438  -2.5330  -2.5042  -2.4444
    -2.3939  -2.3594  -2.3281  -2.2711  -2.2618  -2.2403  -2.2321  -2.2180
    -2.1361  -2.1206  -2.0237  -2.0012  -1.8871  -1.8290  -1.8046  -1.7606
    -1.5678  -1.5300  -1.4572  -1.4503  -1.3134  -1.1907  -1.1653  -1.1624
    -1.1275  -0.9139  -0.9022  -0.8865  -0.8723  -0.8546  -0.8435  -0.7773
    -0.7713  -0.7181  -0.6305  -0.6016  -0.5604  -0.5493  -0.4592  -0.3764
    -0.2591  -0.2020  -0.1403  -0.1314  -0.1048  -0.0331  -0.0136   0.0008
     0.0043   0.0494   0.0882   0.1307   0.1358   0.1873   0.1977   0.2259
     0.2325   0.2558   0.3009   0.3386   0.3558   0.4001   0.4007   0.4208
     0.4248   0.7538   0.7969   0.8208   0.8247   0.9654   0.9811   1.1673
     1.1745   1.9776   1.9781   2.1198   2.1200   3.7146   3.9918   4.0001
     4.0246   4.0335   4.1501   4.1924   4.1929   4.2299   4.2877   4.3132

          k = 0.0380 0.0000 0.0000 ( 17913 PWs)   bands (ev):

   -55.3824 -55.3455 -55.3368 -55.3026 -55.2643 -55.2582 -55.2296 -55.2109
   -55.1864 -55.1846 -55.1767 -55.1675 -55.1337 -55.0319 -54.3699 -54.3358
   -31.9454 -31.8311 -31.7775 -31.7570 -31.7043 -31.6898 -31.6870 -31.6744
   -31.6253 -31.6171 -31.5815 -31.5776 -31.5722 -31.5480 -31.5415 -31.5343
   -31.5158 -31.4915 -31.4884 -31.4883 -31.4849 -31.4592 -31.4524 -31.4512
   -31.4412 -31.4134 -31.3967 -31.3939 -31.3938 -31.3815 -31.3776 -31.3727
   -31.3662 -31.3652 -31.3619 -31.3595 -31.3232 -31.3000 -31.2953 -31.2793
   -31.2488 -31.2022 -30.7790 -30.6884 -30.6608 -30.5956 -30.5089 -30.3980
   -18.8991 -16.1342 -15.8747 -15.8099 -15.6688 -15.5049 -15.4751 -15.4255
   -15.3415 -15.2540 -15.2006 -15.1690 -15.1503 -15.0871 -15.0799 -15.0560
   -15.0177 -14.9862 -14.9366 -14.8879 -14.8357 -14.7934 -14.7767 -14.7557
   -14.7099 -14.6479 -14.6251 -14.6080 -14.5611 -14.3304 -14.3098 -12.8693
   -12.7549  -9.8509  -7.4360  -6.2642  -5.0340  -4.0007  -3.5550  -3.4196
    -3.2783  -3.1739  -3.0607  -3.0367  -2.9917  -2.9414  -2.9141  -2.8269
    -2.7984  -2.7332  -2.6926  -2.5329  -2.4625  -2.4519  -2.3597  -2.3082
    -2.1789  -2.1621  -2.1262  -2.0879  -2.0688  -2.0553  -1.9877  -1.9631
    -1.9142  -1.8077  -1.7757  -1.7417  -1.7277  -1.7097  -1.6932  -1.6291
    -1.6222  -1.5562  -1.5066  -1.4709  -1.4357  -1.3705  -1.3209  -1.2224
    -1.1950  -1.0699  -1.0238  -1.0049  -0.9418  -0.9077  -0.8753  -0.8233
    -0.8024  -0.7902  -0.7435  -0.7055  -0.5811  -0.4861  -0.4552  -0.4070
    -0.3301  -0.2798  -0.2729  -0.2465  -0.2248  -0.0984  -0.0901  -0.0491
    -0.0045   0.0274   0.0962   0.1339   0.1572   0.2098   0.2586   0.2971
     0.3297   0.3470   0.3729   0.4281   0.4622   0.5183   0.5378   0.5718
     0.6056   0.6084   0.7104   0.7949   0.8902   1.0367   1.2741   1.4061
     1.5618   1.6646   1.8045   2.1166   2.1950   3.7238   3.7788   3.8271
     4.0162   4.0262   4.0442   4.1015   4.1531   4.1718   4.2028   4.2214

          k = 0.0380 0.0419 0.0000 ( 17878 PWs)   bands (ev):

   -55.3773 -55.3505 -55.3317 -55.3076 -55.2593 -55.2562 -55.2345 -55.2059
   -55.1880 -55.1840 -55.1817 -55.1626 -55.1386 -55.0329 -54.3648 -54.3408
   -31.8885 -31.7770 -31.7365 -31.7033 -31.6785 -31.6512 -31.6370 -31.6314
   -31.6260 -31.6204 -31.6001 -31.5777 -31.5702 -31.5666 -31.5481 -31.5354
   -31.5224 -31.5083 -31.4927 -31.4807 -31.4753 -31.4720 -31.4521 -31.4492
   -31.4368 -31.4211 -31.4171 -31.4076 -31.4048 -31.4044 -31.3999 -31.3892
   -31.3795 -31.3674 -31.3640 -31.3581 -31.3569 -31.3515 -31.3330 -31.3057
   -31.2540 -31.2382 -30.7249 -30.6842 -30.6648 -30.5830 -30.5217 -30.4552
   -18.8965 -16.0143 -15.7767 -15.7293 -15.5748 -15.4409 -15.3959 -15.3759
   -15.3094 -15.2631 -15.2042 -15.1937 -15.1403 -15.0917 -15.0620 -15.0411
   -15.0323 -14.9849 -14.9499 -14.9231 -14.8674 -14.8412 -14.8156 -14.8069
   -14.7628 -14.7142 -14.6801 -14.6730 -14.6151 -14.4776 -14.2563 -12.8739
   -12.7947  -9.8377  -7.4379  -6.2649  -5.0447  -3.9817  -3.5836  -3.2427
    -3.1220  -3.0073  -2.9007  -2.8816  -2.8196  -2.7825  -2.7253  -2.6904
    -2.6454  -2.5852  -2.5117  -2.4703  -2.4238  -2.4070  -2.3814  -2.3335
    -2.2884  -2.2524  -2.2155  -2.1996  -2.1669  -2.1473  -2.0940  -2.0851
    -2.0270  -1.9970  -1.9693  -1.8998  -1.8845  -1.8236  -1.7913  -1.6931
    -1.6773  -1.5978  -1.4560  -1.4036  -1.3905  -1.3323  -1.2118  -1.1739
    -1.1158  -1.0570  -0.9773  -0.9409  -0.8753  -0.8291  -0.8167  -0.7602
    -0.7356  -0.6898  -0.6737  -0.6382  -0.5688  -0.5322  -0.4755  -0.4245
    -0.3707  -0.3397  -0.3319  -0.2880  -0.2055  -0.1798  -0.1571  -0.1054
    -0.0875  -0.0472  -0.0185  -0.0046   0.0314   0.0752   0.1447   0.1695
     0.2076   0.2565   0.3278   0.3492   0.4191   0.4858   0.5552   0.5806
     0.6379   0.7100   0.7582   0.8549   0.8882   1.0267   1.0313   1.2038
     1.3783   1.8468   1.9143   2.1064   2.1698   3.7485   3.9051   3.9157
     3.9548   4.0529   4.1116   4.1313   4.1526   4.2349   4.2625   4.2988

          k = 0.0380-0.0839 0.0000 ( 17916 PWs)   bands (ev):

   -55.3686 -55.3594 -55.3200 -55.3194 -55.2540 -55.2493 -55.2446 -55.1955
   -55.1922 -55.1901 -55.1830 -55.1514 -55.1499 -55.0341 -54.3529 -54.3527
   -31.7542 -31.7451 -31.6860 -31.6621 -31.6447 -31.6442 -31.6268 -31.6109
   -31.6106 -31.5864 -31.5786 -31.5778 -31.5615 -31.5324 -31.5297 -31.5282
   -31.5240 -31.5209 -31.5199 -31.5179 -31.4783 -31.4643 -31.4600 -31.4574
   -31.4452 -31.4411 -31.4407 -31.4354 -31.4328 -31.4304 -31.4278 -31.4253
   -31.4250 -31.4127 -31.3871 -31.3636 -31.3632 -31.3614 -31.3321 -31.3303
   -31.2962 -31.2452 -30.6745 -30.6743 -30.5921 -30.5920 -30.5524 -30.5524
   -18.8939 -15.8126 -15.6648 -15.5733 -15.4848 -15.4753 -15.3668 -15.3468
   -15.2808 -15.2440 -15.2404 -15.2091 -15.1352 -15.1029 -15.0206 -15.0140
   -15.0121 -14.9869 -14.9767 -14.9641 -14.8888 -14.8712 -14.8374 -14.8251
   -14.8194 -14.7650 -14.7531 -14.7312 -14.7303 -14.6373 -14.2432 -12.8568
   -12.8568  -9.8250  -7.4390  -6.2659  -5.0522  -3.9640  -3.6014  -2.8640
    -2.8589  -2.8376  -2.6866  -2.6519  -2.6370  -2.5913  -2.5799  -2.5511
    -2.5244  -2.5122  -2.4971  -2.4669  -2.4633  -2.4393  -2.4251  -2.3693
    -2.3651  -2.3269  -2.3044  -2.2756  -2.2411  -2.2322  -2.1600  -2.1286
    -2.1016  -2.0724  -2.0390  -2.0146  -1.9570  -1.9210  -1.6625  -1.6093
    -1.5895  -1.5278  -1.4378  -1.3954  -1.3474  -1.3206  -1.2769  -1.2537
    -1.1761  -1.1368  -1.0899  -1.0713  -1.0673  -0.9604  -0.9223  -0.8266
    -0.7884  -0.7408  -0.7299  -0.6913  -0.6474  -0.5312  -0.4750  -0.4326
    -0.3831  -0.3518  -0.3261  -0.2413  -0.2151  -0.1965  -0.1857  -0.1470
    -0.0880  -0.0341  -0.0279  -0.0060   0.0412   0.0800   0.0926   0.1194
     0.1347   0.2358   0.3272   0.3334   0.3651   0.4747   0.4979   0.6684
     0.6697   0.6822   0.7632   0.8241   0.8582   0.9223   0.9437   1.1579
     1.1642   1.9911   1.9915   2.1104   2.1111   3.7039   3.9109   3.9702
     4.0102   4.0288   4.1238   4.1686   4.1748   4.2614   4.3041   4.3383

          k = 0.0380-0.0419 0.0000 ( 17876 PWs)   bands (ev):

   -55.3773 -55.3505 -55.3317 -55.3076 -55.2593 -55.2562 -55.2345 -55.2059
   -55.1880 -55.1839 -55.1817 -55.1626 -55.1386 -55.0329 -54.3648 -54.3408
   -31.8885 -31.7770 -31.7365 -31.7033 -31.6785 -31.6512 -31.6370 -31.6314
   -31.6260 -31.6204 -31.6001 -31.5777 -31.5704 -31.5665 -31.5481 -31.5354
   -31.5223 -31.5083 -31.4928 -31.4817 -31.4753 -31.4720 -31.4518 -31.4472
   -31.4368 -31.4212 -31.4171 -31.4076 -31.4044 -31.4038 -31.3998 -31.3894
   -31.3818 -31.3696 -31.3638 -31.3582 -31.3570 -31.3488 -31.3330 -31.3057
   -31.2529 -31.2393 -30.7249 -30.6842 -30.6647 -30.5830 -30.5217 -30.4552
   -18.8964 -16.0142 -15.7759 -15.7299 -15.5783 -15.4430 -15.3949 -15.3755
   -15.3070 -15.2636 -15.2086 -15.1826 -15.1412 -15.0936 -15.0611 -15.0422
   -15.0333 -14.9878 -14.9497 -14.9229 -14.8672 -14.8401 -14.8121 -14.8036
   -14.7623 -14.7135 -14.6800 -14.6733 -14.6154 -14.4882 -14.2526 -12.8739
   -12.7947  -9.8376  -7.4368  -6.2659  -5.0441  -3.9808  -3.5802  -3.2426
    -3.1225  -3.0075  -2.9089  -2.8807  -2.8186  -2.7807  -2.7275  -2.6905
    -2.6438  -2.5864  -2.5137  -2.4704  -2.4248  -2.4115  -2.3796  -2.3313
    -2.2890  -2.2559  -2.2186  -2.1921  -2.1808  -2.1493  -2.0942  -2.0851
    -2.0270  -2.0013  -1.9696  -1.8983  -1.8424  -1.8260  -1.7966  -1.7266
    -1.6705  -1.5973  -1.4574  -1.4072  -1.3856  -1.3171  -1.2052  -1.1770
    -1.1171  -1.0800  -0.9707  -0.9265  -0.8782  -0.8300  -0.8047  -0.7801
    -0.7381  -0.7009  -0.6650  -0.5923  -0.5661  -0.5366  -0.4808  -0.4195
    -0.3533  -0.3424  -0.3226  -0.2971  -0.2174  -0.1919  -0.1607  -0.1039
    -0.0866  -0.0458  -0.0251  -0.0065   0.0281   0.0757   0.1332   0.1652
     0.2016   0.2588   0.3305   0.3500   0.4183   0.4805   0.5567   0.5802
     0.6412   0.7093   0.7581   0.8601   0.8925   1.0300   1.0318   1.2042
     1.3785   1.8468   1.9143   2.1062   2.1704   3.7521   3.9049   3.9170
     3.9505   4.0543   4.1106   4.1204   4.1441   4.2342   4.2691   4.2926

          k =-0.0760-0.0000 0.0000 ( 17886 PWs)   bands (ev):

   -55.3823 -55.3455 -55.3367 -55.3026 -55.2643 -55.2581 -55.2296 -55.2107
   -55.1859 -55.1851 -55.1767 -55.1676 -55.1337 -55.0319 -54.3698 -54.3358
   -31.9456 -31.8320 -31.7778 -31.7622 -31.7082 -31.6906 -31.6889 -31.6747
   -31.6252 -31.6171 -31.5815 -31.5723 -31.5535 -31.5479 -31.5403 -31.5342
   -31.5103 -31.4889 -31.4849 -31.4836 -31.4717 -31.4558 -31.4533 -31.4512
   -31.4414 -31.4134 -31.4108 -31.4035 -31.3941 -31.3936 -31.3729 -31.3725
   -31.3664 -31.3655 -31.3649 -31.3637 -31.3224 -31.2999 -31.2952 -31.2799
   -31.2506 -31.2024 -30.7786 -30.6918 -30.6594 -30.5956 -30.5088 -30.3980
   -18.8986 -15.9863 -15.9122 -15.7350 -15.6067 -15.4560 -15.4332 -15.4245
   -15.3052 -15.2904 -15.2462 -15.2338 -15.2137 -15.1694 -15.1393 -15.1034
   -15.0802 -15.0003 -14.9069 -14.8849 -14.8272 -14.7984 -14.7964 -14.7816
   -14.7225 -14.6744 -14.6329 -14.5576 -14.5197 -14.3368 -14.3082 -12.8662
   -12.7545  -9.8489  -7.4135  -6.2622  -5.0758  -3.9872  -3.5405  -3.3804
    -3.2592  -3.0236  -2.9262  -2.8926  -2.8783  -2.8759  -2.8512  -2.8200
    -2.7988  -2.7050  -2.6335  -2.6174  -2.4498  -2.3184  -2.3009  -2.2344
    -2.1280  -2.0968  -2.0347  -1.9923  -1.9823  -1.9511  -1.9284  -1.8944
    -1.8674  -1.8489  -1.7805  -1.7708  -1.7434  -1.7259  -1.7020  -1.6881
    -1.6796  -1.5903  -1.5420  -1.4739  -1.3735  -1.3038  -1.2037  -1.1096
    -1.0829  -1.0388  -1.0311  -1.0126  -1.0003  -0.9520  -0.9451  -0.9230
    -0.8739  -0.8289  -0.7482  -0.7385  -0.6829  -0.6664  -0.5948  -0.5769
    -0.3875  -0.3513  -0.2960  -0.2545  -0.2394  -0.1842  -0.1193  -0.0892
    -0.0587   0.0052   0.0334   0.0578   0.0916   0.1104   0.1754   0.1924
     0.2664   0.2940   0.3531   0.3646   0.3982   0.4118   0.4495   0.4611
     0.5548   0.6269   0.7323   0.8270   0.8365   1.0916   1.1319   1.3009
     1.5664   1.6860   1.7795   1.9863   2.1399   3.7221   3.7447   3.7971
     3.8616   3.9840   4.0945   4.0995   4.1612   4.2011   4.2242   4.2451

          k =-0.0760 0.0419 0.0000 ( 17914 PWs)   bands (ev):

   -55.3773 -55.3505 -55.3317 -55.3077 -55.2593 -55.2561 -55.2346 -55.2058
   -55.1879 -55.1842 -55.1817 -55.1627 -55.1387 -55.0330 -54.3648 -54.3408
   -31.8889 -31.7781 -31.7368 -31.7094 -31.6786 -31.6555 -31.6401 -31.6320
   -31.6261 -31.6204 -31.6001 -31.5779 -31.5674 -31.5525 -31.5482 -31.5347
   -31.5131 -31.5086 -31.4927 -31.4717 -31.4709 -31.4633 -31.4521 -31.4414
   -31.4375 -31.4205 -31.4186 -31.4171 -31.4085 -31.4074 -31.4070 -31.3790
   -31.3767 -31.3763 -31.3750 -31.3666 -31.3574 -31.3495 -31.3335 -31.3058
   -31.2549 -31.2400 -30.7247 -30.6872 -30.6641 -30.5830 -30.5217 -30.4553
   -18.8960 -15.8701 -15.8387 -15.6496 -15.5147 -15.3959 -15.3678 -15.3548
   -15.2975 -15.2617 -15.2028 -15.1933 -15.1814 -15.1723 -15.1159 -15.0831
   -15.0747 -15.0037 -14.9733 -14.9430 -14.8654 -14.8490 -14.8264 -14.8173
   -14.7736 -14.7702 -14.6773 -14.6453 -14.6268 -14.4842 -14.2569 -12.8717
   -12.7950  -9.8356  -7.4154  -6.2628  -5.0846  -3.9738  -3.5767  -3.2139
    -3.1061  -2.8011  -2.7663  -2.7092  -2.6837  -2.6532  -2.6296  -2.6076
    -2.5926  -2.5359  -2.4772  -2.4174  -2.3855  -2.3583  -2.3433  -2.3305
    -2.2772  -2.2096  -2.1979  -2.1133  -2.1070  -2.0636  -2.0096  -1.9941
    -1.9755  -1.9480  -1.9360  -1.9205  -1.8883  -1.8492  -1.7606  -1.6090
    -1.5771  -1.5554  -1.5379  -1.4620  -1.3656  -1.2281  -1.1611  -1.1493
    -1.1371  -1.0708  -1.0221  -0.9808  -0.9681  -0.9460  -0.8916  -0.8131
    -0.7963  -0.7708  -0.7382  -0.7264  -0.6678  -0.6534  -0.6097  -0.5941
    -0.5727  -0.4815  -0.4635  -0.4167  -0.3918  -0.3603  -0.2699  -0.1926
    -0.1818  -0.1483  -0.1315  -0.0928  -0.0732   0.0503   0.0827   0.1260
     0.1532   0.2210   0.3313   0.3577   0.4305   0.4740   0.4865   0.5646
     0.7016   0.8151   0.8275   0.8788   0.9276   1.0214   1.1084   1.1219
     1.2624   1.8621   1.9164   2.0285   2.1589   3.7223   3.8931   3.9079
     3.9356   3.9796   4.0372   4.1111   4.1160   4.1826   4.2525   4.3321

          k =-0.0760-0.0839 0.0000 ( 17948 PWs)   bands (ev):

   -55.3685 -55.3594 -55.3200 -55.3194 -55.2540 -55.2493 -55.2446 -55.1954
   -55.1922 -55.1900 -55.1831 -55.1515 -55.1499 -55.0341 -54.3530 -54.3528
   -31.7545 -31.7454 -31.6863 -31.6623 -31.6455 -31.6450 -31.6270 -31.6109
   -31.6106 -31.5943 -31.5862 -31.5780 -31.5626 -31.5307 -31.5284 -31.5241
   -31.5236 -31.5225 -31.5110 -31.5067 -31.4775 -31.4655 -31.4613 -31.4515
   -31.4457 -31.4424 -31.4397 -31.4392 -31.4365 -31.4278 -31.4251 -31.4081
   -31.4069 -31.4046 -31.3849 -31.3835 -31.3833 -31.3732 -31.3321 -31.3303
   -31.2961 -31.2487 -30.6755 -30.6754 -30.5921 -30.5919 -30.5525 -30.5524
   -18.8934 -15.7663 -15.5974 -15.5784 -15.4342 -15.3980 -15.3550 -15.3440
   -15.2500 -15.2150 -15.1888 -15.1579 -15.1368 -15.1012 -15.0877 -15.0709
   -15.0137 -14.9913 -14.9857 -14.9658 -14.9067 -14.9023 -14.8947 -14.8918
   -14.8370 -14.8338 -14.8256 -14.7432 -14.7403 -14.6292 -14.2457 -12.8566
   -12.8566  -9.8229  -7.4175  -6.2628  -5.0908  -3.9625  -3.6021  -2.8548
    -2.8485  -2.8351  -2.6502  -2.5672  -2.5446  -2.5391  -2.4492  -2.4118
    -2.3666  -2.3641  -2.3109  -2.3045  -2.2773  -2.2366  -2.2252  -2.2052
    -2.1865  -2.1776  -2.1420  -2.1187  -2.1089  -2.0789  -2.0479  -2.0317
    -2.0241  -2.0025  -1.9718  -1.9524  -1.9401  -1.8870  -1.7752  -1.7599
    -1.6646  -1.5979  -1.5936  -1.5202  -1.4961  -1.4539  -1.4461  -1.4214
    -1.3763  -1.1974  -1.1658  -1.1348  -1.1271  -1.0416  -0.9891  -0.9175
    -0.9120  -0.8862  -0.8510  -0.7577  -0.7212  -0.7020  -0.6267  -0.6030
    -0.5364  -0.4947  -0.4290  -0.3984  -0.3442  -0.3423  -0.3074  -0.2937
    -0.2732  -0.2046  -0.1584  -0.1240  -0.1117  -0.0799   0.1174   0.1267
     0.1423   0.2511   0.2958   0.4431   0.4579   0.5208   0.6267   0.6528
     0.7229   0.7478   0.9042   0.9160   0.9310   0.9845   0.9926   1.0624
     1.0717   2.0087   2.0092   2.0976   2.0979   3.6780   3.8961   3.9673
     3.9825   4.0152   4.1402   4.2087   4.2269   4.2953   4.2981   4.3278

     the Fermi energy is     3.7752 ev

!    total energy              =   -2941.51056556 Ry
     estimated scf accuracy    <       0.00000006 Ry
     smearing contrib. (-TS)   =      -0.04440784 Ry
     internal energy E=F+TS    =   -2941.46615771 Ry

     The total energy is F=E-TS. E is the sum of the following terms:
     one-electron contribution =  -23633.66413732 Ry
     hartree contribution      =   11909.12300570 Ry
     xc contribution           =    -486.88159921 Ry
     ewald contribution        =    9269.95383635 Ry
     electric field correction =       0.00273676 Ry

     convergence has been achieved in  71 iterations

     Forces acting on atoms (cartesian axes, Ry/au):

     atom    1 type  1   force =     0.00013233   -0.00018394    0.09303898
     atom    2 type  1   force =    -0.00008561   -0.00046039   -0.17841104
     atom    3 type  2   force =     0.00004608   -0.00036435   -0.02006857
     atom    4 type  2   force =    -0.00000810   -0.00201476    0.05931692
     atom    5 type  2   force =    -0.01031495   -0.00098964    0.00817555
     atom    6 type  2   force =     0.01174720   -0.00038766    0.00731696
     atom    7 type  1   force =    -0.00038161    0.00240162   -0.01418666
     atom    8 type  1   force =     0.00023356   -0.00125005   -0.00620024
     atom    9 type  2   force =    -0.00023179    0.00021066    0.00011633
     atom   10 type  2   force =    -0.00162569    0.00148740    0.00161780
     atom   11 type  2   force =    -0.00006542   -0.00015603    0.00009827
     atom   12 type  2   force =    -0.00015938   -0.00015580   -0.00000998
     atom   13 type  1   force =     0.00007213   -0.00027954    0.00005383
     atom   14 type  1   force =     0.00018139    0.00020630    0.00028604
     atom   15 type  2   force =    -0.00006766    0.00022929   -0.00027744
     atom   16 type  2   force =     0.00017292   -0.00022089    0.00012907
     atom   17 type  2   force =    -0.00000160    0.00000749    0.00046844
     atom   18 type  2   force =    -0.00025693   -0.00002497   -0.00013153
     atom   19 type  1   force =    -0.00010162   -0.00008819    0.00017401
     atom   20 type  1   force =    -0.00013991   -0.00005407    0.00007877
     atom   21 type  2   force =     0.00006076   -0.00008323    0.10399395
     atom   22 type  2   force =     0.00008412   -0.00013686   -0.00029988
     atom   23 type  2   force =    -0.07032493   -0.00017864   -0.02687560
     atom   24 type  2   force =     0.07021411    0.00026925   -0.02690079
     atom   25 type  1   force =    -0.00001562   -0.00014645    0.09259657
     atom   26 type  1   force =    -0.00005873   -0.00038686   -0.17856840
     atom   27 type  2   force =     0.00009504   -0.00030538   -0.01914722
     atom   28 type  2   force =     0.00003996   -0.00178825    0.05866165
     atom   29 type  2   force =    -0.01080975   -0.00126676    0.00872318
     atom   30 type  2   force =     0.01216404   -0.00086382    0.00782462
     atom   31 type  1   force =    -0.00028980    0.00613182   -0.01442828
     atom   32 type  1   force =     0.00028793    0.00071757   -0.00651711
     atom   33 type  2   force =    -0.00022640   -0.00024386   -0.00002539
     atom   34 type  2   force =    -0.00093577   -0.00223316   -0.00016891
     atom   35 type  2   force =    -0.00041462    0.00022836    0.00014979
     atom   36 type  2   force =     0.00012386    0.00018937   -0.00027415
     atom   37 type  1   force =     0.00017350   -0.00000750    0.00005462
     atom   38 type  1   force =     0.00032693    0.00019260    0.00009698
     atom   39 type  2   force =    -0.00026215    0.00009432   -0.00022505
     atom   40 type  2   force =    -0.00009111   -0.00015324   -0.00005836
     atom   41 type  2   force =    -0.00003972    0.00029627    0.00004045
     atom   42 type  2   force =    -0.00023411    0.00008301    0.00005493
     atom   43 type  1   force =     0.00042521   -0.00001279    0.00019212
     atom   44 type  1   force =     0.00009173   -0.00010802   -0.00018040
     atom   45 type  2   force =     0.00004496   -0.00009059    0.10397318
     atom   46 type  2   force =    -0.07030195   -0.00009953   -0.02683030
     atom   47 type  2   force =     0.07017874    0.00031835   -0.02686662
     atom   48 type  3   force =     0.00194683   -0.00110598    0.00053657
     atom   49 type  3   force =     0.00061225    0.00011321   -0.00044343
     atom   50 type  4   force =     0.00536155   -0.00460052    0.00105022
     atom   51 type  5   force =     0.00022363   -0.00078450    0.00004650
     atom   52 type  5   force =    -0.00652310    0.00583897   -0.00229344
     atom   53 type  5   force =    -0.00043411    0.00143051    0.00020940
     atom   54 type  5   force =    -0.00009683    0.00114962    0.00033634
     atom   55 type  5   force =    -0.00054179   -0.00036975   -0.00002321

     Total force =     0.366615     Total SCF correction =     0.000704
  @ DRIVER MODE: Message from server: STATUS
  @ DRIVER MODE: Message from server: GETFORCE
  @ DRIVER MODE: Returning v,forces,stress,ensemble 

     Writing output data file ./calc.save/
  @ DRIVER MODE: Message from server: EXIT
  @ DRIVE MODE: Exiting  
 
     init_run     :     10.91s CPU     11.22s WALL (       1 calls)
     electrons    :   1150.12s CPU   1166.96s WALL (       1 calls)
     forces       :      2.49s CPU      2.57s WALL (       1 calls)

     Called by init_run:
     wfcinit      :      4.87s CPU      4.97s WALL (       1 calls)
     potinit      :      5.38s CPU      5.46s WALL (       1 calls)
     hinit0       :      0.29s CPU      0.33s WALL (       1 calls)

     Called by electrons:
     c_bands      :    977.81s CPU    984.76s WALL (      71 calls)
     sum_band     :    115.92s CPU    119.89s WALL (      71 calls)
     v_of_rho     :     42.03s CPU     44.09s WALL (      72 calls)
     newd         :     17.16s CPU     20.90s WALL (      72 calls)
     mix_rho      :      1.57s CPU      1.65s WALL (      71 calls)
     vdW_kernel   :      4.54s CPU      4.55s WALL (       1 calls)

     Called by c_bands:
     init_us_2    :      8.07s CPU      8.13s WALL (    1440 calls)
     cegterg      :    957.42s CPU    963.95s WALL (     720 calls)

     Called by *egterg:
     cdiaghg      :    160.64s CPU    161.46s WALL (    7910 calls)
     h_psi        :    502.80s CPU    507.16s WALL (    7920 calls)
     s_psi        :     70.97s CPU     71.19s WALL (    7920 calls)
     g_psi        :      1.90s CPU      1.91s WALL (    7190 calls)

     Called by h_psi:
     h_psi:calbec :     67.65s CPU     67.97s WALL (    7920 calls)
     vloc_psi     :    358.64s CPU    362.02s WALL (    7920 calls)
     add_vuspsi   :     72.59s CPU     72.99s WALL (    7920 calls)

     General routines
     calbec       :     88.86s CPU     89.25s WALL (    8670 calls)
     fft          :     21.69s CPU     21.86s WALL (    4536 calls)
     ffts         :      0.13s CPU      0.14s WALL (     143 calls)
     fftw         :    402.71s CPU    406.49s WALL (  959558 calls)
     interpolate  :      0.45s CPU      0.46s WALL (      72 calls)
     davcio       :      0.00s CPU      1.86s WALL (      10 calls)
 
     Parallel routines
 
     PWSCF        :  19m24.04s CPU  19m47.59s WALL

 
   This run was terminated on:   3:42:24  11Sep2021            

=------------------------------------------------------------------------------=
   JOB DONE.
=------------------------------------------------------------------------------=
