
     Program PWSCF v.6.7GPU starts on 15Sep2021 at 20:43:48 

     This program is part of the open-source Quantum ESPRESSO suite
     for quantum simulation of materials; please cite
         "P. Giannozzi et al., J. Phys.:Condens. Matter 21 395502 (2009);
         "P. Giannozzi et al., J. Phys.:Condens. Matter 29 465901 (2017);
         "P. Giannozzi et al., J. Chem. Phys. 152 154105 (2020);
          URL http://www.quantum-espresso.org", 
     in publications or presentations arising from this work. More details at
     http://www.quantum-espresso.org/quote

     Parallel version (MPI), running on    10 processors

     MPI processes distributed on     1 nodes
     R & G space division:  proc/nbgrp/npool/nimage =      10
     Reading input from /storage/home/hcoda1/3/ntian30/research/carbon/CxH_vib/H2O_calc/ads_slab/CH3NHNH2H2O_a/out_0015/pw.inp
Warning: card &CELL ignored
Warning: card   CELL_DYNAMICS='IPI', ignored
Warning: card / ignored

     Current dimensions of program PWSCF are:
     Max number of different atomic species (ntypx) = 10
     Max number of k-points (npk) =  40000
     Max angular momentum in pseudopotentials (lmaxx) =  3
     Presently no symmetry can be used with electric field

     Message from routine cell_base_init:
     DEPRECATED: use true lattice parameter, not A to a.u. conversion factor

     **************************************************************************
     Initializing libbeef V0.1.2 with the BEEF-vdW functional.
     Citation: Wellendorff et al., PRB 85, 235149 (2012).
     **************************************************************************


     IMPORTANT: XC functional enforced from input :
     Exchange-correlation= BEEF-VDW
                           (   1   4  43  14   2   0   0)
     Any further DFT definition will be discarded
     Please, verify this is what you really want


     Subspace diagonalization in iterative solution of the eigenvalue problem:
     one sub-group per band group will be used
     scalapack distributed-memory algorithm (size of sub-group:  3*  3 procs)

  @ DRIVER MODE: Connecting to 
 qe_1139763_2852619.sched-torque.pace.gatech.eduqva3uqja_scratch
  using UNIX socket
  @ DRIVER MODE: Message from server: STATUS
  @ DRIVER MODE: Message from server: INIT
  @ DRIVER MODE: Receiving replica           0          -1
  @ DRIVER MODE: Receiving encoded integer          25
  @ DRIVER MODE:  SCF:  T  FORCE:  T  STRESS:  F  VC:  F  ENSEMBLE:  F
  @ DRIVER MODE:  SCF:  T  FORCE:  T  STRESS:  F  VC:  F  ENSEMBLE:  F
 
     Parallelization info
     --------------------
     sticks:   dense  smooth     PW     G-vecs:    dense   smooth      PW
     Min         327     131     37                56683    14340    2191
     Max         328     133     38                56694    14346    2206
     Sum        3275    1317    379               566857   143421   21985
 
     Using Slab Decomposition
 


     bravais-lattice index     =            0
     lattice parameter (alat)  =       1.8897  a.u.
     unit-cell volume          =    6658.9804 (a.u.)^3
     number of atoms/cell      =           59
     number of atomic types    =            5
     number of electrons       =       406.00
     number of Kohn-Sham states=          213
     kinetic-energy cutoff     =      29.3995  Ry
     charge density cutoff     =     293.9946  Ry
     scf convergence threshold =      7.3E-08
     mixing beta               =       0.0500
     number of iterations used =            8  plain     mixing
     Exchange-correlation= BEEF-VDW
                           (   1   4  43  14   2   0   0)

     celldm(1)=   1.889726  celldm(2)=   0.000000  celldm(3)=   0.000000
     celldm(4)=   0.000000  celldm(5)=   0.000000  celldm(6)=   0.000000

     crystal axes: (cart. coord. in units of alat)
               a(1) = (   6.579727   0.000000   0.000000 )  
               a(2) = (  -0.000775   5.961596   0.000000 )  
               a(3) = (   0.000000   0.000000  25.155947 )  

     reciprocal axes: (cart. coord. in units 2 pi/alat)
               b(1) = (  0.151982  0.000020  0.000000 )  
               b(2) = (  0.000000  0.167740  0.000000 )  
               b(3) = (  0.000000  0.000000  0.039752 )  


     PseudoPot. # 1 for Ti read from file:
     /storage/coda1/p-amedford6/0/shared/rich_project_chbe-medford/medford-share/data/pseudos_module/espresso/nninc/pbe/van/Ti.UPF
     MD5 check sum: 8e4df49b7f0d34bbd5052bf3f5ea0213
     Pseudo is Ultrasoft, Zval = 12.0
     Generated by new atomic code, or converted to UPF format
     Using radial grid of  851 points,  6 beta functions with: 
                l(1) =   0
                l(2) =   0
                l(3) =   1
                l(4) =   1
                l(5) =   2
                l(6) =   2
     Q(r) pseudized with  8 coefficients,  rinner =    1.000   1.000   1.000
                                                       1.000   1.000

     PseudoPot. # 2 for O  read from file:
     /storage/coda1/p-amedford6/0/shared/rich_project_chbe-medford/medford-share/data/pseudos_module/espresso/nninc/pbe/van/O.UPF
     MD5 check sum: 78c19812648e8988a0fe644b0f25305e
     Pseudo is Ultrasoft, Zval =  6.0
     Generated by new atomic code, or converted to UPF format
     Using radial grid of  737 points,  4 beta functions with: 
                l(1) =   0
                l(2) =   0
                l(3) =   1
                l(4) =   1
     Q(r) pseudized with  8 coefficients,  rinner =    0.800   0.800   0.800


     PseudoPot. # 3 for N  read from file:
     /storage/coda1/p-amedford6/0/shared/rich_project_chbe-medford/medford-share/data/pseudos_module/espresso/nninc/pbe/van/N.UPF
     MD5 check sum: 90d10febe142ad51ac9d5be1deb811c4
     Pseudo is Ultrasoft, Zval =  5.0
     Generated by new atomic code, or converted to UPF format
     Using radial grid of  729 points,  4 beta functions with: 
                l(1) =   0
                l(2) =   0
                l(3) =   1
                l(4) =   1
     Q(r) pseudized with  8 coefficients,  rinner =    0.800   0.800   0.800


     PseudoPot. # 4 for C  read from file:
     /storage/coda1/p-amedford6/0/shared/rich_project_chbe-medford/medford-share/data/pseudos_module/espresso/nninc/pbe/van/C.UPF
     MD5 check sum: 1a69bf6b8db32088f5b2163dbdb77a27
     Pseudo is Ultrasoft, Zval =  4.0
     Generated by new atomic code, or converted to UPF format
     Using radial grid of  721 points,  4 beta functions with: 
                l(1) =   0
                l(2) =   0
                l(3) =   1
                l(4) =   1
     Q(r) pseudized with  8 coefficients,  rinner =    0.800   0.800   0.800


     PseudoPot. # 5 for H  read from file:
     /storage/coda1/p-amedford6/0/shared/rich_project_chbe-medford/medford-share/data/pseudos_module/espresso/nninc/pbe/van/H.UPF
     MD5 check sum: b5ee9d7bfd3a09ee7748110bda690ff7
     Pseudo is Ultrasoft, Zval =  1.0
     Generated by new atomic code, or converted to UPF format
     Using radial grid of  615 points,  1 beta functions with: 
                l(1) =   0
     Q(r) pseudized with  8 coefficients,  rinner =    0.800

     atomic species   valence    mass     pseudopotential
        Ti1           12.00    47.86700     Ti( 1.00)
        O1             6.00    15.99900     O ( 1.00)
        N1             5.00    14.00700     N ( 1.00)
        C1             4.00    12.01100     C ( 1.00)
        H1             1.00     1.00800     H ( 1.00)

     No symmetry found



   Cartesian axes

     site n.     atom                  positions (alat units)
         1           Ti1 tau(   1) = (   0.0004258   2.9801865   6.0000000  )
         2           Ti1 tau(   2) = (   3.2906075   1.4906267   6.0002472  )
         3           O1  tau(   3) = (   0.0006271   0.0005054   7.9858123  )
         4           O1  tau(   4) = (   3.2906025   0.0005020   7.3038282  )
         5           O1  tau(   5) = (   4.5942328   1.4918067   9.2879030  )
         6           O1  tau(   6) = (   1.9868534   1.4903216   9.2879459  )
         7           Ti1 tau(   7) = (   3.2907910   2.8959150   9.1758416  )
         8           Ti1 tau(   8) = (   0.0015273   1.4827037   9.2680791  )
         9           O1  tau(   9) = (   3.2683845   0.0132936  11.3796717  )
        10           O1  tau(  10) = (   0.0116148   5.9584955  10.6183126  )
        11           O1  tau(  11) = (   1.2681313   1.5011218  12.7194972  )
        12           O1  tau(  12) = (   5.2787963   1.4993765  12.6897032  )
        13           Ti1 tau(  13) = (   6.5560253   2.9823375  12.4990790  )
        14           Ti1 tau(  14) = (   3.2673924   1.4925278  12.5394213  )
        15           O1  tau(  15) = (   6.5345332   5.8735037  14.6996474  )
        16           O1  tau(  16) = (   3.2898196   5.9462848  13.9939205  )
        17           O1  tau(  17) = (   4.4957945   1.5291507  16.1605787  )
        18           O1  tau(  18) = (   1.9883785   1.5110281  16.0762771  )
        19           Ti1 tau(  19) = (   3.2526948   3.0056396  15.7740191  )
        20           Ti1 tau(  20) = (   0.0000763   1.3299063  15.8143521  )
        21           O1  tau(  21) = (   3.2904802   0.0005063   4.7018136  )
        22           O1  tau(  22) = (   6.5205728   0.2065101  17.2442985  )
        23           O1  tau(  23) = (   1.3043587   1.4918075   6.0039043  )
        24           O1  tau(  24) = (   5.2767064   1.4903225   6.0039473  )
        25           Ti1 tau(  25) = (   0.0000382   5.9609847   6.0000000  )
        26           Ti1 tau(  26) = (   3.2902200   4.4714249   6.0002472  )
        27           O1  tau(  27) = (   0.0002396   2.9813036   7.9858123  )
        28           O1  tau(  28) = (   3.2902150   2.9813002   7.3038282  )
        29           O1  tau(  29) = (   4.5938453   4.4726049   9.2879030  )
        30           O1  tau(  30) = (   1.9864658   4.4711199   9.2879459  )
        31           Ti1 tau(  31) = (   3.2891106   5.8743827   9.1763621  )
        32           Ti1 tau(  32) = (   0.0006254   4.4649316   9.2693709  )
        33           O1  tau(  33) = (   3.2688559   2.9716192  11.3757022  )
        34           O1  tau(  34) = (   0.0092240   2.9805883  10.6323155  )
        35           O1  tau(  35) = (   1.2711362   4.4646907  12.6658965  )
        36           O1  tau(  36) = (   5.2748280   4.4660984  12.6332574  )
        37           Ti1 tau(  37) = (   6.5627654   5.9477838  12.5072267  )
        38           Ti1 tau(  38) = (   3.2667511   4.4702655  12.5260729  )
        39           O1  tau(  39) = (   6.5087961   3.0586107  15.0099536  )
        40           O1  tau(  40) = (   3.2849776   3.0149387  13.9815115  )
        41           O1  tau(  41) = (   4.4906635   4.4862850  16.2792570  )
        42           O1  tau(  42) = (   1.9756856   4.4939852  16.2100911  )
        43           Ti1 tau(  43) = (   3.2747729   0.0241646  15.7895078  )
        44           Ti1 tau(  44) = (   6.5697470   4.5456975  16.1185117  )
        45           O1  tau(  45) = (   3.2900926   2.9813045   4.7018136  )
        46           O1  tau(  46) = (   1.3039711   4.4726057   6.0039043  )
        47           O1  tau(  47) = (   5.2763189   4.4711207   6.0039473  )
        48           N1  tau(  48) = (   0.9980056   3.0961469  19.0053282  )
        49           N1  tau(  49) = (   6.4063515   3.4839273  18.2229180  )
        50           C1  tau(  50) = (   1.6570833   4.2584698  19.5811903  )
        51           H1  tau(  51) = (   0.9936588   4.8902639  20.1979557  )
        52           H1  tau(  52) = (   2.4789334   3.9063689  20.1993048  )
        53           H1  tau(  53) = (   2.0598354   4.8861676  18.7819781  )
        54           H1  tau(  54) = (   0.6510520   2.5058952  19.7602174  )
        55           H1  tau(  55) = (   5.8507131   4.1735594  18.7414995  )
        56           H1  tau(  56) = (   5.8147758   2.6545292  18.1916272  )
        57           O1  tau(  57) = (   5.1718451   0.7889162  19.5681371  )
        58           H1  tau(  58) = (   5.5516362   0.5215711  18.6954158  )
        59           H1  tau(  59) = (   4.2099197   0.7512590  19.4668632  )

     number of k points=    10  Fermi-Dirac smearing, width (Ry)=  0.0073
                       cart. coord. in units 2pi/alat
        k(    1) = (   0.0000000   0.0000000   0.0000000), wk =   0.1250000
        k(    2) = (   0.0000000   0.0419351   0.0000000), wk =   0.2500000
        k(    3) = (   0.0000000  -0.0838702   0.0000000), wk =   0.1250000
        k(    4) = (   0.0379955   0.0000049   0.0000000), wk =   0.2500000
        k(    5) = (   0.0379955   0.0419400   0.0000000), wk =   0.2500000
        k(    6) = (   0.0379955  -0.0838652   0.0000000), wk =   0.2500000
        k(    7) = (   0.0379955  -0.0419301   0.0000000), wk =   0.2500000
        k(    8) = (  -0.0759910  -0.0000099   0.0000000), wk =   0.1250000
        k(    9) = (  -0.0759910   0.0419252   0.0000000), wk =   0.2500000
        k(   10) = (  -0.0759910  -0.0838800   0.0000000), wk =   0.1250000

     Dense  grid:   566857 G-vectors     FFT dimensions: (  72,  64, 270)

     Smooth grid:   143421 G-vectors     FFT dimensions: (  45,  40, 180)

     Estimated max dynamical RAM per process >     368.16 MB

     Estimated total dynamical RAM >       3.60 GB
     Cannot read rho : file not found

     Initial potential from superposition of free atoms

     starting charge  389.99912, renormalised to  406.00000

     negative rho (up, down):  1.389E-02 0.000E+00


     %%%%%%%%%%%%%%%%%%%%%%%%%%%%%%%%%%%%%%%%%%%%%%%%%%%%%%%%%%%%%%%%%%%%%%%%
     %                                                                      %
     % You are using vdW-DF, which was implemented by the Thonhauser group. %
     % Please cite the following two papers that made this development      %
     % possible and the two reviews that describe the various versions:     %
     %                                                                      %
     %   T. Thonhauser et al., PRL 115, 136402 (2015).                      %
     %   T. Thonhauser et al., PRB 76, 125112 (2007).                       %
     %   K. Berland et al., Rep. Prog. Phys. 78, 066501 (2015).             %
     %   D.C. Langreth et al., J. Phys.: Condens. Matter 21, 084203 (2009). %
     %                                                                      %
     %                                                                      %
     % If you are calculating the stress with vdW-DF, please also cite:     %
     %                                                                      %
     %   R. Sabatini et al., J. Phys.: Condens. Matter 24, 424209 (2012).   %
     %                                                                      %
     %%%%%%%%%%%%%%%%%%%%%%%%%%%%%%%%%%%%%%%%%%%%%%%%%%%%%%%%%%%%%%%%%%%%%%%%


 
     Adding external electric field

     Computed dipole along edir(3) : 
        Dipole              -16.7176 Ry au,        -42.4920 Debye
        Dipole field         -0.0315 Ry au, 
 
        Potential amp.        2.9245 Ry
        Total length         46.3494 bohr
 
     Starting wfcs are  308 atomic wfcs
  @ DRIVER MODE: Message from server: STATUS
  @ DRIVER MODE: Message from server: POSDATA
  @ DRIVER MODE: Reading and sharing cell 
  @ DRIVER MODE: Reading and sharing positions 
  @ DRIVER MODE: Received positions 

     total cpu time spent up to now is       11.5 secs

     Self-consistent Calculation

     iteration #  1     ecut=    29.40 Ry     beta= 0.05
     Davidson diagonalization with overlap
     c_bands:  2 eigenvalues not converged
     c_bands:  3 eigenvalues not converged
     c_bands:  2 eigenvalues not converged
     c_bands:  4 eigenvalues not converged
     c_bands:  1 eigenvalues not converged
     c_bands:  4 eigenvalues not converged
     c_bands:  3 eigenvalues not converged
     c_bands:  5 eigenvalues not converged
     c_bands:  3 eigenvalues not converged
     ethr =  1.00E-05,  avg # of iterations = 24.9

     negative rho (up, down):  7.398E-03 0.000E+00
 
     Adding external electric field

     Computed dipole along edir(3) : 
        Dipole               63.5339 Ry au,        161.4871 Debye
        Dipole field          0.1199 Ry au, 
 
        Potential amp.      -11.1143 Ry
        Total length         46.3494 bohr
 

     total cpu time spent up to now is       60.3 secs

     total energy              =   -2136.64050665 Ry
     estimated scf accuracy    <    9692.93482384 Ry

     iteration #  2     ecut=    29.40 Ry     beta= 0.05
     Davidson diagonalization with overlap
     ethr =  1.00E-02,  avg # of iterations = 32.2

     negative rho (up, down):  2.208E-04 0.000E+00
 
     Adding external electric field

     Computed dipole along edir(3) : 
        Dipole                0.5670 Ry au,          1.4412 Debye
        Dipole field          0.0011 Ry au, 
 
        Potential amp.       -0.0992 Ry
        Total length         46.3494 bohr
 

     total cpu time spent up to now is      160.4 secs

     total energy              =   -2439.04928005 Ry
     estimated scf accuracy    <   80130.27964091 Ry

     iteration #  3     ecut=    29.40 Ry     beta= 0.05
     Davidson diagonalization with overlap
     ethr =  1.00E-02,  avg # of iterations = 16.7

     negative rho (up, down):  2.577E-04 0.000E+00
 
     Adding external electric field

     Computed dipole along edir(3) : 
        Dipole               -3.0171 Ry au,         -7.6686 Debye
        Dipole field         -0.0057 Ry au, 
 
        Potential amp.        0.5278 Ry
        Total length         46.3494 bohr
 

     total cpu time spent up to now is      211.2 secs

     total energy              =   -2971.00716645 Ry
     estimated scf accuracy    <    8183.25281479 Ry

     iteration #  4     ecut=    29.40 Ry     beta= 0.05
     Davidson diagonalization with overlap
     ethr =  1.00E-02,  avg # of iterations = 10.5

     negative rho (up, down):  2.735E-04 0.000E+00
 
     Adding external electric field

     Computed dipole along edir(3) : 
        Dipole               -4.8593 Ry au,        -12.3512 Debye
        Dipole field         -0.0092 Ry au, 
 
        Potential amp.        0.8501 Ry
        Total length         46.3494 bohr
 

     total cpu time spent up to now is      234.6 secs

     total energy              =   -2970.64043869 Ry
     estimated scf accuracy    <    2735.85359231 Ry

     iteration #  5     ecut=    29.40 Ry     beta= 0.05
     Davidson diagonalization with overlap
     c_bands:  2 eigenvalues not converged
     c_bands:  3 eigenvalues not converged
     c_bands:  1 eigenvalues not converged
     ethr =  1.00E-02,  avg # of iterations = 10.8

     negative rho (up, down):  3.062E-04 0.000E+00
 
     Adding external electric field

     Computed dipole along edir(3) : 
        Dipole               -6.7925 Ry au,        -17.2648 Debye
        Dipole field         -0.0128 Ry au, 
 
        Potential amp.        1.1882 Ry
        Total length         46.3494 bohr
 

     total cpu time spent up to now is      250.3 secs

     total energy              =   -2958.72855024 Ry
     estimated scf accuracy    <    1492.75336380 Ry

     iteration #  6     ecut=    29.40 Ry     beta= 0.05
     Davidson diagonalization with overlap
     ethr =  1.00E-02,  avg # of iterations = 11.1

     negative rho (up, down):  3.060E-04 0.000E+00
 
     Adding external electric field

     Computed dipole along edir(3) : 
        Dipole               -6.0161 Ry au,        -15.2913 Debye
        Dipole field         -0.0114 Ry au, 
 
        Potential amp.        1.0524 Ry
        Total length         46.3494 bohr
 

     total cpu time spent up to now is      271.6 secs

     total energy              =   -2981.31067628 Ry
     estimated scf accuracy    <      45.45686595 Ry

     iteration #  7     ecut=    29.40 Ry     beta= 0.05
     Davidson diagonalization with overlap
     ethr =  1.00E-02,  avg # of iterations =  1.2

     negative rho (up, down):  3.059E-04 0.000E+00
 
     Adding external electric field

     Computed dipole along edir(3) : 
        Dipole               -5.2359 Ry au,        -13.3083 Debye
        Dipole field         -0.0099 Ry au, 
 
        Potential amp.        0.9159 Ry
        Total length         46.3494 bohr
 

     total cpu time spent up to now is      282.0 secs

     total energy              =   -2981.32119800 Ry
     estimated scf accuracy    <      32.16161177 Ry

     iteration #  8     ecut=    29.40 Ry     beta= 0.05
     Davidson diagonalization with overlap
     ethr =  7.92E-03,  avg # of iterations =  1.0

     negative rho (up, down):  3.121E-04 0.000E+00
 
     Adding external electric field

     Computed dipole along edir(3) : 
        Dipole               -3.2562 Ry au,         -8.2765 Debye
        Dipole field         -0.0061 Ry au, 
 
        Potential amp.        0.5696 Ry
        Total length         46.3494 bohr
 

     total cpu time spent up to now is      292.1 secs

     total energy              =   -2980.71885399 Ry
     estimated scf accuracy    <      30.85199974 Ry

     iteration #  9     ecut=    29.40 Ry     beta= 0.05
     Davidson diagonalization with overlap
     ethr =  7.60E-03,  avg # of iterations =  1.1

     negative rho (up, down):  3.356E-04 0.000E+00
 
     Adding external electric field

     Computed dipole along edir(3) : 
        Dipole                0.3332 Ry au,          0.8469 Debye
        Dipole field          0.0006 Ry au, 
 
        Potential amp.       -0.0583 Ry
        Total length         46.3494 bohr
 

     total cpu time spent up to now is      302.3 secs

     total energy              =   -2983.30978434 Ry
     estimated scf accuracy    <      89.23954560 Ry

     iteration # 10     ecut=    29.40 Ry     beta= 0.05
     Davidson diagonalization with overlap
     c_bands:  3 eigenvalues not converged
     c_bands:  5 eigenvalues not converged
     c_bands:  1 eigenvalues not converged
     c_bands:  2 eigenvalues not converged
     ethr =  7.60E-03,  avg # of iterations = 17.8

     negative rho (up, down):  4.627E-04 0.000E+00
 
     Adding external electric field

     Computed dipole along edir(3) : 
        Dipole                3.9920 Ry au,         10.1466 Debye
        Dipole field          0.0075 Ry au, 
 
        Potential amp.       -0.6983 Ry
        Total length         46.3494 bohr
 

     total cpu time spent up to now is      323.0 secs

     total energy              =   -3013.78176251 Ry
     estimated scf accuracy    <    2397.02360450 Ry

     iteration # 11     ecut=    29.40 Ry     beta= 0.05
     Davidson diagonalization with overlap
     ethr =  7.60E-03,  avg # of iterations =  6.6

     negative rho (up, down):  4.798E-04 0.000E+00
 
     Adding external electric field

     Computed dipole along edir(3) : 
        Dipole                3.4132 Ry au,          8.6756 Debye
        Dipole field          0.0064 Ry au, 
 
        Potential amp.       -0.5971 Ry
        Total length         46.3494 bohr
 

     total cpu time spent up to now is      336.0 secs

     total energy              =   -3009.28843373 Ry
     estimated scf accuracy    <    3424.61549081 Ry

     iteration # 12     ecut=    29.40 Ry     beta= 0.05
     Davidson diagonalization with overlap
     ethr =  7.60E-03,  avg # of iterations =  1.5

     negative rho (up, down):  5.022E-04 0.000E+00
 
     Adding external electric field

     Computed dipole along edir(3) : 
        Dipole                3.0481 Ry au,          7.7475 Debye
        Dipole field          0.0058 Ry au, 
 
        Potential amp.       -0.5332 Ry
        Total length         46.3494 bohr
 

     total cpu time spent up to now is      346.6 secs

     total energy              =   -3005.91770153 Ry
     estimated scf accuracy    <    3247.35506520 Ry

     iteration # 13     ecut=    29.40 Ry     beta= 0.05
     Davidson diagonalization with overlap
     ethr =  7.60E-03,  avg # of iterations =  1.0

     negative rho (up, down):  5.483E-04 0.000E+00
 
     Adding external electric field

     Computed dipole along edir(3) : 
        Dipole               -1.6213 Ry au,         -4.1209 Debye
        Dipole field         -0.0031 Ry au, 
 
        Potential amp.        0.2836 Ry
        Total length         46.3494 bohr
 

     total cpu time spent up to now is      356.7 secs

     total energy              =   -2961.76985880 Ry
     estimated scf accuracy    <    3184.77027822 Ry

     iteration # 14     ecut=    29.40 Ry     beta= 0.05
     Davidson diagonalization with overlap
     c_bands:  1 eigenvalues not converged
     ethr =  7.60E-03,  avg # of iterations = 16.1

     negative rho (up, down):  5.955E-04 0.000E+00
 
     Adding external electric field

     Computed dipole along edir(3) : 
        Dipole               -1.6535 Ry au,         -4.2029 Debye
        Dipole field         -0.0031 Ry au, 
 
        Potential amp.        0.2893 Ry
        Total length         46.3494 bohr
 

     total cpu time spent up to now is      377.5 secs

     total energy              =   -2976.59860871 Ry
     estimated scf accuracy    <      34.48956339 Ry

     iteration # 15     ecut=    29.40 Ry     beta= 0.05
     Davidson diagonalization with overlap
     ethr =  7.60E-03,  avg # of iterations =  2.8

     negative rho (up, down):  6.447E-04 0.000E+00
 
     Adding external electric field

     Computed dipole along edir(3) : 
        Dipole               -3.3840 Ry au,         -8.6013 Debye
        Dipole field         -0.0064 Ry au, 
 
        Potential amp.        0.5920 Ry
        Total length         46.3494 bohr
 

     total cpu time spent up to now is      388.3 secs

     total energy              =   -2975.60993785 Ry
     estimated scf accuracy    <      18.32817626 Ry

     iteration # 16     ecut=    29.40 Ry     beta= 0.05
     Davidson diagonalization with overlap
     ethr =  4.51E-03,  avg # of iterations = 11.8

     negative rho (up, down):  6.518E-04 0.000E+00
 
     Adding external electric field

     Computed dipole along edir(3) : 
        Dipole               -2.5964 Ry au,         -6.5993 Debye
        Dipole field         -0.0049 Ry au, 
 
        Potential amp.        0.4542 Ry
        Total length         46.3494 bohr
 

     total cpu time spent up to now is      406.9 secs

     total energy              =   -2979.64206675 Ry
     estimated scf accuracy    <     287.58285903 Ry

     iteration # 17     ecut=    29.40 Ry     beta= 0.05
     Davidson diagonalization with overlap
     ethr =  4.51E-03,  avg # of iterations =  2.0

     negative rho (up, down):  6.749E-04 0.000E+00
 
     Adding external electric field

     Computed dipole along edir(3) : 
        Dipole               -2.2437 Ry au,         -5.7029 Debye
        Dipole field         -0.0042 Ry au, 
 
        Potential amp.        0.3925 Ry
        Total length         46.3494 bohr
 

     total cpu time spent up to now is      417.7 secs

     total energy              =   -2979.67000272 Ry
     estimated scf accuracy    <     137.89189745 Ry

     iteration # 18     ecut=    29.40 Ry     beta= 0.05
     Davidson diagonalization with overlap
     ethr =  4.51E-03,  avg # of iterations =  1.0

     negative rho (up, down):  7.234E-04 0.000E+00
 
     Adding external electric field

     Computed dipole along edir(3) : 
        Dipole               -1.9609 Ry au,         -4.9842 Debye
        Dipole field         -0.0037 Ry au, 
 
        Potential amp.        0.3430 Ry
        Total length         46.3494 bohr
 

     total cpu time spent up to now is      427.8 secs

     total energy              =   -2979.30520585 Ry
     estimated scf accuracy    <     110.12055318 Ry

     iteration # 19     ecut=    29.40 Ry     beta= 0.05
     Davidson diagonalization with overlap
     ethr =  4.51E-03,  avg # of iterations =  1.0

     negative rho (up, down):  9.307E-04 0.000E+00
 
     Adding external electric field

     Computed dipole along edir(3) : 
        Dipole               -1.7242 Ry au,         -4.3826 Debye
        Dipole field         -0.0033 Ry au, 
 
        Potential amp.        0.3016 Ry
        Total length         46.3494 bohr
 

     total cpu time spent up to now is      438.0 secs

     total energy              =   -2978.65939103 Ry
     estimated scf accuracy    <      78.98102579 Ry

     iteration # 20     ecut=    29.40 Ry     beta= 0.05
     Davidson diagonalization with overlap
     ethr =  4.51E-03,  avg # of iterations =  1.1

     negative rho (up, down):  1.134E-03 0.000E+00
 
     Adding external electric field

     Computed dipole along edir(3) : 
        Dipole               -1.0297 Ry au,         -2.6172 Debye
        Dipole field         -0.0019 Ry au, 
 
        Potential amp.        0.1801 Ry
        Total length         46.3494 bohr
 

     total cpu time spent up to now is      448.2 secs

     total energy              =   -2977.52327568 Ry
     estimated scf accuracy    <      56.35258493 Ry

     iteration # 21     ecut=    29.40 Ry     beta= 0.05
     Davidson diagonalization with overlap
     ethr =  4.51E-03,  avg # of iterations =  1.6

     negative rho (up, down):  1.130E-03 0.000E+00
 
     Adding external electric field

     Computed dipole along edir(3) : 
        Dipole               -0.9228 Ry au,         -2.3455 Debye
        Dipole field         -0.0017 Ry au, 
 
        Potential amp.        0.1614 Ry
        Total length         46.3494 bohr
 

     total cpu time spent up to now is      458.6 secs

     total energy              =   -2978.05061378 Ry
     estimated scf accuracy    <       8.67736078 Ry

     iteration # 22     ecut=    29.40 Ry     beta= 0.05
     Davidson diagonalization with overlap
     ethr =  2.14E-03,  avg # of iterations =  1.2

     negative rho (up, down):  1.099E-03 0.000E+00
 
     Adding external electric field

     Computed dipole along edir(3) : 
        Dipole               -0.8391 Ry au,         -2.1327 Debye
        Dipole field         -0.0016 Ry au, 
 
        Potential amp.        0.1468 Ry
        Total length         46.3494 bohr
 

     total cpu time spent up to now is      468.9 secs

     total energy              =   -2977.97740297 Ry
     estimated scf accuracy    <       7.69989897 Ry

     iteration # 23     ecut=    29.40 Ry     beta= 0.05
     Davidson diagonalization with overlap
     ethr =  1.90E-03,  avg # of iterations =  1.0

     negative rho (up, down):  9.691E-04 0.000E+00
 
     Adding external electric field

     Computed dipole along edir(3) : 
        Dipole               -0.8365 Ry au,         -2.1263 Debye
        Dipole field         -0.0016 Ry au, 
 
        Potential amp.        0.1463 Ry
        Total length         46.3494 bohr
 

     total cpu time spent up to now is      479.0 secs

     total energy              =   -2977.83515483 Ry
     estimated scf accuracy    <       6.34794077 Ry

     iteration # 24     ecut=    29.40 Ry     beta= 0.05
     Davidson diagonalization with overlap
     ethr =  1.56E-03,  avg # of iterations =  2.0

     negative rho (up, down):  1.183E-03 0.000E+00
 
     Adding external electric field

     Computed dipole along edir(3) : 
        Dipole               -0.1364 Ry au,         -0.3467 Debye
        Dipole field         -0.0003 Ry au, 
 
        Potential amp.        0.0239 Ry
        Total length         46.3494 bohr
 

     total cpu time spent up to now is      489.7 secs

     total energy              =   -2977.79383318 Ry
     estimated scf accuracy    <       4.23605032 Ry

     iteration # 25     ecut=    29.40 Ry     beta= 0.05
     Davidson diagonalization with overlap
     c_bands:  3 eigenvalues not converged
     ethr =  1.04E-03,  avg # of iterations =  8.8

     negative rho (up, down):  1.197E-03 0.000E+00
 
     Adding external electric field

     Computed dipole along edir(3) : 
        Dipole               -0.0613 Ry au,         -0.1557 Debye
        Dipole field         -0.0001 Ry au, 
 
        Potential amp.        0.0107 Ry
        Total length         46.3494 bohr
 

     total cpu time spent up to now is      504.4 secs

     total energy              =   -2978.05869116 Ry
     estimated scf accuracy    <       4.29575828 Ry

     iteration # 26     ecut=    29.40 Ry     beta= 0.05
     Davidson diagonalization with overlap
     ethr =  1.04E-03,  avg # of iterations =  1.6

     negative rho (up, down):  1.364E-03 0.000E+00
 
     Adding external electric field

     Computed dipole along edir(3) : 
        Dipole                0.2763 Ry au,          0.7022 Debye
        Dipole field          0.0005 Ry au, 
 
        Potential amp.       -0.0483 Ry
        Total length         46.3494 bohr
 

     total cpu time spent up to now is      514.8 secs

     total energy              =   -2978.13263318 Ry
     estimated scf accuracy    <       4.45036425 Ry

     iteration # 27     ecut=    29.40 Ry     beta= 0.05
     Davidson diagonalization with overlap
     c_bands:  1 eigenvalues not converged
     c_bands:  3 eigenvalues not converged
     ethr =  1.04E-03,  avg # of iterations =  4.9

     negative rho (up, down):  1.262E-03 0.000E+00
 
     Adding external electric field

     Computed dipole along edir(3) : 
        Dipole                0.2540 Ry au,          0.6455 Debye
        Dipole field          0.0005 Ry au, 
 
        Potential amp.       -0.0444 Ry
        Total length         46.3494 bohr
 

     total cpu time spent up to now is      526.3 secs

     total energy              =   -2978.12979542 Ry
     estimated scf accuracy    <       8.98920701 Ry

     iteration # 28     ecut=    29.40 Ry     beta= 0.05
     Davidson diagonalization with overlap
     ethr =  1.04E-03,  avg # of iterations =  1.5

     negative rho (up, down):  1.310E-03 0.000E+00
 
     Adding external electric field

     Computed dipole along edir(3) : 
        Dipole                0.2881 Ry au,          0.7322 Debye
        Dipole field          0.0005 Ry au, 
 
        Potential amp.       -0.0504 Ry
        Total length         46.3494 bohr
 

     total cpu time spent up to now is      536.6 secs

     total energy              =   -2978.21252771 Ry
     estimated scf accuracy    <       7.39558419 Ry

     iteration # 29     ecut=    29.40 Ry     beta= 0.05
     Davidson diagonalization with overlap
     ethr =  1.04E-03,  avg # of iterations =  3.9

     negative rho (up, down):  1.133E-03 0.000E+00
 
     Adding external electric field

     Computed dipole along edir(3) : 
        Dipole                0.4670 Ry au,          1.1870 Debye
        Dipole field          0.0009 Ry au, 
 
        Potential amp.       -0.0817 Ry
        Total length         46.3494 bohr
 

     total cpu time spent up to now is      548.7 secs

     total energy              =   -2977.88554295 Ry
     estimated scf accuracy    <      12.65890030 Ry

     iteration # 30     ecut=    29.40 Ry     beta= 0.05
     Davidson diagonalization with overlap
     ethr =  1.04E-03,  avg # of iterations =  1.7

     negative rho (up, down):  1.331E-03 0.000E+00
 
     Adding external electric field

     Computed dipole along edir(3) : 
        Dipole                0.3663 Ry au,          0.9311 Debye
        Dipole field          0.0007 Ry au, 
 
        Potential amp.       -0.0641 Ry
        Total length         46.3494 bohr
 

     total cpu time spent up to now is      559.4 secs

     total energy              =   -2977.78260909 Ry
     estimated scf accuracy    <       6.96502485 Ry

     iteration # 31     ecut=    29.40 Ry     beta= 0.05
     Davidson diagonalization with overlap
     ethr =  1.04E-03,  avg # of iterations =  1.9

     negative rho (up, down):  1.320E-03 0.000E+00
 
     Adding external electric field

     Computed dipole along edir(3) : 
        Dipole                0.2814 Ry au,          0.7153 Debye
        Dipole field          0.0005 Ry au, 
 
        Potential amp.       -0.0492 Ry
        Total length         46.3494 bohr
 

     total cpu time spent up to now is      570.5 secs

     total energy              =   -2977.80352045 Ry
     estimated scf accuracy    <       3.87675509 Ry

     iteration # 32     ecut=    29.40 Ry     beta= 0.05
     Davidson diagonalization with overlap
     ethr =  9.55E-04,  avg # of iterations =  1.0

     negative rho (up, down):  1.328E-03 0.000E+00
 
     Adding external electric field

     Computed dipole along edir(3) : 
        Dipole               -0.1587 Ry au,         -0.4034 Debye
        Dipole field         -0.0003 Ry au, 
 
        Potential amp.        0.0278 Ry
        Total length         46.3494 bohr
 

     total cpu time spent up to now is      580.6 secs

     total energy              =   -2977.52304578 Ry
     estimated scf accuracy    <       3.52555332 Ry

     iteration # 33     ecut=    29.40 Ry     beta= 0.05
     Davidson diagonalization with overlap
     c_bands:  4 eigenvalues not converged
     c_bands:  2 eigenvalues not converged
     ethr =  8.68E-04,  avg # of iterations =  5.9

     negative rho (up, down):  1.400E-03 0.000E+00
 
     Adding external electric field

     Computed dipole along edir(3) : 
        Dipole               -0.0705 Ry au,         -0.1791 Debye
        Dipole field         -0.0001 Ry au, 
 
        Potential amp.        0.0123 Ry
        Total length         46.3494 bohr
 

     total cpu time spent up to now is      592.8 secs

     total energy              =   -2977.69963916 Ry
     estimated scf accuracy    <       1.17979202 Ry

     iteration # 34     ecut=    29.40 Ry     beta= 0.05
     Davidson diagonalization with overlap
     c_bands:  1 eigenvalues not converged
     c_bands:  1 eigenvalues not converged
     c_bands:  1 eigenvalues not converged
     c_bands:  2 eigenvalues not converged
     c_bands:  1 eigenvalues not converged
     c_bands:  2 eigenvalues not converged
     ethr =  2.91E-04,  avg # of iterations = 21.2

     negative rho (up, down):  1.434E-03 0.000E+00
 
     Adding external electric field

     Computed dipole along edir(3) : 
        Dipole               -0.2907 Ry au,         -0.7389 Debye
        Dipole field         -0.0005 Ry au, 
 
        Potential amp.        0.0509 Ry
        Total length         46.3494 bohr
 

     total cpu time spent up to now is      613.0 secs

     total energy              =   -2977.76401209 Ry
     estimated scf accuracy    <       1.14275214 Ry

     iteration # 35     ecut=    29.40 Ry     beta= 0.05
     Davidson diagonalization with overlap
     ethr =  2.81E-04,  avg # of iterations =  3.7

     negative rho (up, down):  1.722E-03 0.000E+00
 
     Adding external electric field

     Computed dipole along edir(3) : 
        Dipole               -0.7302 Ry au,         -1.8560 Debye
        Dipole field         -0.0014 Ry au, 
 
        Potential amp.        0.1277 Ry
        Total length         46.3494 bohr
 

     total cpu time spent up to now is      624.4 secs

     total energy              =   -2977.82280719 Ry
     estimated scf accuracy    <       1.25770048 Ry

     iteration # 36     ecut=    29.40 Ry     beta= 0.05
     Davidson diagonalization with overlap
     c_bands:  2 eigenvalues not converged
     c_bands:  1 eigenvalues not converged
     c_bands:  1 eigenvalues not converged
     ethr =  2.81E-04,  avg # of iterations = 14.5

     negative rho (up, down):  1.672E-03 0.000E+00
 
     Adding external electric field

     Computed dipole along edir(3) : 
        Dipole               -0.5840 Ry au,         -1.4844 Debye
        Dipole field         -0.0011 Ry au, 
 
        Potential amp.        0.1022 Ry
        Total length         46.3494 bohr
 

     total cpu time spent up to now is      640.6 secs

     total energy              =   -2977.87545122 Ry
     estimated scf accuracy    <      19.86221664 Ry

     iteration # 37     ecut=    29.40 Ry     beta= 0.05
     Davidson diagonalization with overlap
     ethr =  2.81E-04,  avg # of iterations =  2.1

     negative rho (up, down):  1.672E-03 0.000E+00
 
     Adding external electric field

     Computed dipole along edir(3) : 
        Dipole               -0.2969 Ry au,         -0.7547 Debye
        Dipole field         -0.0006 Ry au, 
 
        Potential amp.        0.0519 Ry
        Total length         46.3494 bohr
 

     total cpu time spent up to now is      651.3 secs

     total energy              =   -2977.72986938 Ry
     estimated scf accuracy    <      11.02679589 Ry

     iteration # 38     ecut=    29.40 Ry     beta= 0.05
     Davidson diagonalization with overlap
     ethr =  2.81E-04,  avg # of iterations =  3.6

     negative rho (up, down):  1.889E-03 0.000E+00
 
     Adding external electric field

     Computed dipole along edir(3) : 
        Dipole                0.5421 Ry au,          1.3778 Debye
        Dipole field          0.0010 Ry au, 
 
        Potential amp.       -0.0948 Ry
        Total length         46.3494 bohr
 

     total cpu time spent up to now is      662.6 secs

     total energy              =   -2977.56680394 Ry
     estimated scf accuracy    <       2.11533834 Ry

     iteration # 39     ecut=    29.40 Ry     beta= 0.05
     Davidson diagonalization with overlap
     c_bands:  3 eigenvalues not converged
     c_bands:  5 eigenvalues not converged
     c_bands:  3 eigenvalues not converged
     c_bands:  2 eigenvalues not converged
     c_bands:  5 eigenvalues not converged
     c_bands:  1 eigenvalues not converged
     ethr =  2.81E-04,  avg # of iterations = 18.3

     negative rho (up, down):  1.890E-03 0.000E+00
 
     Adding external electric field

     Computed dipole along edir(3) : 
        Dipole                0.3155 Ry au,          0.8019 Debye
        Dipole field          0.0006 Ry au, 
 
        Potential amp.       -0.0552 Ry
        Total length         46.3494 bohr
 

     total cpu time spent up to now is      683.0 secs

     total energy              =   -2977.67644528 Ry
     estimated scf accuracy    <       0.81302520 Ry

     iteration # 40     ecut=    29.40 Ry     beta= 0.05
     Davidson diagonalization with overlap
     ethr =  2.00E-04,  avg # of iterations =  4.0

     negative rho (up, down):  1.872E-03 0.000E+00
 
     Adding external electric field

     Computed dipole along edir(3) : 
        Dipole                0.2412 Ry au,          0.6131 Debye
        Dipole field          0.0005 Ry au, 
 
        Potential amp.       -0.0422 Ry
        Total length         46.3494 bohr
 

     total cpu time spent up to now is      694.7 secs

     total energy              =   -2977.69692838 Ry
     estimated scf accuracy    <       0.32445074 Ry

     iteration # 41     ecut=    29.40 Ry     beta= 0.05
     Davidson diagonalization with overlap
     c_bands:  1 eigenvalues not converged
     c_bands:  3 eigenvalues not converged
     c_bands:  1 eigenvalues not converged
     c_bands:  2 eigenvalues not converged
     ethr =  7.99E-05,  avg # of iterations = 14.2

     negative rho (up, down):  2.087E-03 0.000E+00
 
     Adding external electric field

     Computed dipole along edir(3) : 
        Dipole                0.7173 Ry au,          1.8232 Debye
        Dipole field          0.0014 Ry au, 
 
        Potential amp.       -0.1255 Ry
        Total length         46.3494 bohr
 

     total cpu time spent up to now is      710.2 secs

     total energy              =   -2977.68273821 Ry
     estimated scf accuracy    <       0.30473244 Ry

     iteration # 42     ecut=    29.40 Ry     beta= 0.05
     Davidson diagonalization with overlap
     c_bands:  4 eigenvalues not converged
     c_bands:  4 eigenvalues not converged
     c_bands:  3 eigenvalues not converged
     c_bands:  2 eigenvalues not converged
     c_bands:  1 eigenvalues not converged
     c_bands:  1 eigenvalues not converged
     c_bands:  1 eigenvalues not converged
     ethr =  7.51E-05,  avg # of iterations = 20.5

     negative rho (up, down):  2.350E-03 0.000E+00
 
     Adding external electric field

     Computed dipole along edir(3) : 
        Dipole                0.6837 Ry au,          1.7377 Debye
        Dipole field          0.0013 Ry au, 
 
        Potential amp.       -0.1196 Ry
        Total length         46.3494 bohr
 

     total cpu time spent up to now is      729.9 secs

     total energy              =   -2977.68590612 Ry
     estimated scf accuracy    <       0.99478538 Ry

     iteration # 43     ecut=    29.40 Ry     beta= 0.05
     Davidson diagonalization with overlap
     c_bands:  3 eigenvalues not converged
     ethr =  7.51E-05,  avg # of iterations = 13.6

     negative rho (up, down):  2.550E-03 0.000E+00
 
     Adding external electric field

     Computed dipole along edir(3) : 
        Dipole                0.7472 Ry au,          1.8993 Debye
        Dipole field          0.0014 Ry au, 
 
        Potential amp.       -0.1307 Ry
        Total length         46.3494 bohr
 

     total cpu time spent up to now is      744.9 secs

     total energy              =   -2977.72681204 Ry
     estimated scf accuracy    <       0.52657169 Ry

     iteration # 44     ecut=    29.40 Ry     beta= 0.05
     Davidson diagonalization with overlap
     ethr =  7.51E-05,  avg # of iterations =  2.3

     negative rho (up, down):  2.531E-03 0.000E+00
 
     Adding external electric field

     Computed dipole along edir(3) : 
        Dipole                0.7107 Ry au,          1.8064 Debye
        Dipole field          0.0013 Ry au, 
 
        Potential amp.       -0.1243 Ry
        Total length         46.3494 bohr
 

     total cpu time spent up to now is      755.9 secs

     total energy              =   -2977.72850464 Ry
     estimated scf accuracy    <       0.58305589 Ry

     iteration # 45     ecut=    29.40 Ry     beta= 0.05
     Davidson diagonalization with overlap
     ethr =  7.51E-05,  avg # of iterations =  1.0

     negative rho (up, down):  2.487E-03 0.000E+00
 
     Adding external electric field

     Computed dipole along edir(3) : 
        Dipole                0.7025 Ry au,          1.7856 Debye
        Dipole field          0.0013 Ry au, 
 
        Potential amp.       -0.1229 Ry
        Total length         46.3494 bohr
 

     total cpu time spent up to now is      766.1 secs

     total energy              =   -2977.73190506 Ry
     estimated scf accuracy    <       0.58710571 Ry

     iteration # 46     ecut=    29.40 Ry     beta= 0.05
     Davidson diagonalization with overlap
     ethr =  7.51E-05,  avg # of iterations =  1.1

     negative rho (up, down):  2.815E-03 0.000E+00
 
     Adding external electric field

     Computed dipole along edir(3) : 
        Dipole                0.8847 Ry au,          2.2488 Debye
        Dipole field          0.0017 Ry au, 
 
        Potential amp.       -0.1548 Ry
        Total length         46.3494 bohr
 

     total cpu time spent up to now is      776.3 secs

     total energy              =   -2977.73764836 Ry
     estimated scf accuracy    <       0.65466361 Ry

     iteration # 47     ecut=    29.40 Ry     beta= 0.05
     Davidson diagonalization with overlap
     c_bands:  2 eigenvalues not converged
     c_bands:  3 eigenvalues not converged
     c_bands:  1 eigenvalues not converged
     ethr =  7.51E-05,  avg # of iterations = 12.7

     negative rho (up, down):  2.886E-03 0.000E+00
 
     Adding external electric field

     Computed dipole along edir(3) : 
        Dipole                0.8803 Ry au,          2.2375 Debye
        Dipole field          0.0017 Ry au, 
 
        Potential amp.       -0.1540 Ry
        Total length         46.3494 bohr
 

     total cpu time spent up to now is      790.7 secs

     total energy              =   -2977.74254578 Ry
     estimated scf accuracy    <       0.61653524 Ry

     iteration # 48     ecut=    29.40 Ry     beta= 0.05
     Davidson diagonalization with overlap
     ethr =  7.51E-05,  avg # of iterations =  1.8

     negative rho (up, down):  2.881E-03 0.000E+00
 
     Adding external electric field

     Computed dipole along edir(3) : 
        Dipole                0.9334 Ry au,          2.3726 Debye
        Dipole field          0.0018 Ry au, 
 
        Potential amp.       -0.1633 Ry
        Total length         46.3494 bohr
 

     total cpu time spent up to now is      801.3 secs

     total energy              =   -2977.74682381 Ry
     estimated scf accuracy    <       0.75889269 Ry

     iteration # 49     ecut=    29.40 Ry     beta= 0.05
     Davidson diagonalization with overlap
     ethr =  7.51E-05,  avg # of iterations =  1.2

     negative rho (up, down):  2.346E-03 0.000E+00
 
     Adding external electric field

     Computed dipole along edir(3) : 
        Dipole                0.8811 Ry au,          2.2395 Debye
        Dipole field          0.0017 Ry au, 
 
        Potential amp.       -0.1541 Ry
        Total length         46.3494 bohr
 

     total cpu time spent up to now is      811.6 secs

     total energy              =   -2977.72065031 Ry
     estimated scf accuracy    <       0.77575821 Ry

     iteration # 50     ecut=    29.40 Ry     beta= 0.05
     Davidson diagonalization with overlap
     c_bands:  2 eigenvalues not converged
     c_bands:  1 eigenvalues not converged
     c_bands:  1 eigenvalues not converged
     ethr =  7.51E-05,  avg # of iterations = 12.0

     negative rho (up, down):  3.538E-03 0.000E+00
 
     Adding external electric field

     Computed dipole along edir(3) : 
        Dipole                0.4878 Ry au,          1.2398 Debye
        Dipole field          0.0009 Ry au, 
 
        Potential amp.       -0.0853 Ry
        Total length         46.3494 bohr
 

     total cpu time spent up to now is      826.1 secs

     total energy              =   -2977.70210303 Ry
     estimated scf accuracy    <       0.69940605 Ry

     iteration # 51     ecut=    29.40 Ry     beta= 0.05
     Davidson diagonalization with overlap
     c_bands:  2 eigenvalues not converged
     c_bands:  2 eigenvalues not converged
     c_bands:  1 eigenvalues not converged
     c_bands:  1 eigenvalues not converged
     ethr =  7.51E-05,  avg # of iterations = 19.1

     negative rho (up, down):  2.994E-03 0.000E+00
 
     Adding external electric field

     Computed dipole along edir(3) : 
        Dipole                0.1499 Ry au,          0.3809 Debye
        Dipole field          0.0003 Ry au, 
 
        Potential amp.       -0.0262 Ry
        Total length         46.3494 bohr
 

     total cpu time spent up to now is      844.4 secs

     total energy              =   -2977.73029883 Ry
     estimated scf accuracy    <       0.74501775 Ry

     iteration # 52     ecut=    29.40 Ry     beta= 0.05
     Davidson diagonalization with overlap
     c_bands:  1 eigenvalues not converged
     c_bands:  5 eigenvalues not converged
     c_bands:  1 eigenvalues not converged
     c_bands:  2 eigenvalues not converged
     c_bands:  1 eigenvalues not converged
     c_bands:  4 eigenvalues not converged
     ethr =  7.51E-05,  avg # of iterations = 19.8

     negative rho (up, down):  2.465E-03 0.000E+00
 
     Adding external electric field

     Computed dipole along edir(3) : 
        Dipole                0.7122 Ry au,          1.8103 Debye
        Dipole field          0.0013 Ry au, 
 
        Potential amp.       -0.1246 Ry
        Total length         46.3494 bohr
 

     total cpu time spent up to now is      865.0 secs

     total energy              =   -2977.61936868 Ry
     estimated scf accuracy    <       1.62493080 Ry

     iteration # 53     ecut=    29.40 Ry     beta= 0.05
     Davidson diagonalization with overlap
     c_bands:  1 eigenvalues not converged
     c_bands:  1 eigenvalues not converged
     c_bands:  2 eigenvalues not converged
     c_bands:  3 eigenvalues not converged
     c_bands:  3 eigenvalues not converged
     c_bands:  2 eigenvalues not converged
     c_bands:  1 eigenvalues not converged
     ethr =  7.51E-05,  avg # of iterations = 19.1

     negative rho (up, down):  2.356E-03 0.000E+00
 
     Adding external electric field

     Computed dipole along edir(3) : 
        Dipole                0.6097 Ry au,          1.5498 Debye
        Dipole field          0.0012 Ry au, 
 
        Potential amp.       -0.1067 Ry
        Total length         46.3494 bohr
 

     total cpu time spent up to now is      884.8 secs

     total energy              =   -2977.70620887 Ry
     estimated scf accuracy    <       0.44600661 Ry

     iteration # 54     ecut=    29.40 Ry     beta= 0.05
     Davidson diagonalization with overlap
     ethr =  7.51E-05,  avg # of iterations =  4.6

     negative rho (up, down):  2.835E-03 0.000E+00
 
     Adding external electric field

     Computed dipole along edir(3) : 
        Dipole                0.7936 Ry au,          2.0170 Debye
        Dipole field          0.0015 Ry au, 
 
        Potential amp.       -0.1388 Ry
        Total length         46.3494 bohr
 

     total cpu time spent up to now is      896.3 secs

     total energy              =   -2977.70992006 Ry
     estimated scf accuracy    <       0.43909516 Ry

     iteration # 55     ecut=    29.40 Ry     beta= 0.05
     Davidson diagonalization with overlap
     ethr =  7.51E-05,  avg # of iterations =  4.4

     negative rho (up, down):  3.159E-03 0.000E+00
 
     Adding external electric field

     Computed dipole along edir(3) : 
        Dipole                0.4295 Ry au,          1.0918 Debye
        Dipole field          0.0008 Ry au, 
 
        Potential amp.       -0.0751 Ry
        Total length         46.3494 bohr
 

     total cpu time spent up to now is      908.0 secs

     total energy              =   -2977.70916006 Ry
     estimated scf accuracy    <       0.42279901 Ry

     iteration # 56     ecut=    29.40 Ry     beta= 0.05
     Davidson diagonalization with overlap
     c_bands:  1 eigenvalues not converged
     c_bands:  1 eigenvalues not converged
     ethr =  7.51E-05,  avg # of iterations = 14.9

     negative rho (up, down):  3.169E-03 0.000E+00
 
     Adding external electric field

     Computed dipole along edir(3) : 
        Dipole                0.4395 Ry au,          1.1170 Debye
        Dipole field          0.0008 Ry au, 
 
        Potential amp.       -0.0769 Ry
        Total length         46.3494 bohr
 

     total cpu time spent up to now is      923.6 secs

     total energy              =   -2977.71859063 Ry
     estimated scf accuracy    <       0.39786701 Ry

     iteration # 57     ecut=    29.40 Ry     beta= 0.05
     Davidson diagonalization with overlap
     ethr =  7.51E-05,  avg # of iterations =  1.0

     negative rho (up, down):  2.972E-03 0.000E+00
 
     Adding external electric field

     Computed dipole along edir(3) : 
        Dipole                0.4738 Ry au,          1.2043 Debye
        Dipole field          0.0009 Ry au, 
 
        Potential amp.       -0.0829 Ry
        Total length         46.3494 bohr
 

     total cpu time spent up to now is      933.8 secs

     total energy              =   -2977.70937870 Ry
     estimated scf accuracy    <       0.39040704 Ry

     iteration # 58     ecut=    29.40 Ry     beta= 0.05
     Davidson diagonalization with overlap
     ethr =  7.51E-05,  avg # of iterations =  1.2

     negative rho (up, down):  2.810E-03 0.000E+00
 
     Adding external electric field

     Computed dipole along edir(3) : 
        Dipole                0.6294 Ry au,          1.5997 Debye
        Dipole field          0.0012 Ry au, 
 
        Potential amp.       -0.1101 Ry
        Total length         46.3494 bohr
 

     total cpu time spent up to now is      944.1 secs

     total energy              =   -2977.69854833 Ry
     estimated scf accuracy    <       0.34895009 Ry

     iteration # 59     ecut=    29.40 Ry     beta= 0.05
     Davidson diagonalization with overlap
     c_bands:  1 eigenvalues not converged
     c_bands:  2 eigenvalues not converged
     ethr =  7.51E-05,  avg # of iterations =  9.4

     negative rho (up, down):  2.701E-03 0.000E+00
 
     Adding external electric field

     Computed dipole along edir(3) : 
        Dipole                1.3992 Ry au,          3.5564 Debye
        Dipole field          0.0026 Ry au, 
 
        Potential amp.       -0.2448 Ry
        Total length         46.3494 bohr
 

     total cpu time spent up to now is      957.2 secs

     total energy              =   -2977.68734907 Ry
     estimated scf accuracy    <       0.36494981 Ry

     iteration # 60     ecut=    29.40 Ry     beta= 0.05
     Davidson diagonalization with overlap
     c_bands:  5 eigenvalues not converged
     c_bands:  4 eigenvalues not converged
     c_bands:  1 eigenvalues not converged
     c_bands:  3 eigenvalues not converged
     c_bands:  1 eigenvalues not converged
     c_bands:  2 eigenvalues not converged
     c_bands:  2 eigenvalues not converged
     ethr =  7.51E-05,  avg # of iterations = 19.8

     negative rho (up, down):  2.682E-03 0.000E+00
 
     Adding external electric field

     Computed dipole along edir(3) : 
        Dipole                0.7285 Ry au,          1.8517 Debye
        Dipole field          0.0014 Ry au, 
 
        Potential amp.       -0.1274 Ry
        Total length         46.3494 bohr
 

     total cpu time spent up to now is      980.2 secs

     total energy              =   -2977.44421494 Ry
     estimated scf accuracy    <      13.70368592 Ry

     iteration # 61     ecut=    29.40 Ry     beta= 0.05
     Davidson diagonalization with overlap
     c_bands:  1 eigenvalues not converged
     c_bands:  1 eigenvalues not converged
     c_bands:  1 eigenvalues not converged
     c_bands:  2 eigenvalues not converged
     ethr =  7.51E-05,  avg # of iterations = 17.9

     negative rho (up, down):  3.380E-03 0.000E+00
 
     Adding external electric field

     Computed dipole along edir(3) : 
        Dipole                0.9746 Ry au,          2.4772 Debye
        Dipole field          0.0018 Ry au, 
 
        Potential amp.       -0.1705 Ry
        Total length         46.3494 bohr
 

     total cpu time spent up to now is      998.4 secs

     total energy              =   -2977.67112168 Ry
     estimated scf accuracy    <       0.36866349 Ry

     iteration # 62     ecut=    29.40 Ry     beta= 0.05
     Davidson diagonalization with overlap
     c_bands:  1 eigenvalues not converged
     c_bands:  2 eigenvalues not converged
     c_bands:  1 eigenvalues not converged
     c_bands:  1 eigenvalues not converged
     ethr =  7.51E-05,  avg # of iterations = 18.3

     negative rho (up, down):  4.309E-03 0.000E+00
 
     Adding external electric field

     Computed dipole along edir(3) : 
        Dipole                0.3476 Ry au,          0.8835 Debye
        Dipole field          0.0007 Ry au, 
 
        Potential amp.       -0.0608 Ry
        Total length         46.3494 bohr
 

     total cpu time spent up to now is     1017.5 secs

     total energy              =   -2977.51959954 Ry
     estimated scf accuracy    <       2.72751944 Ry

     iteration # 63     ecut=    29.40 Ry     beta= 0.05
     Davidson diagonalization with overlap
     c_bands:  1 eigenvalues not converged
     c_bands:  5 eigenvalues not converged
     c_bands:  3 eigenvalues not converged
     c_bands:  1 eigenvalues not converged
     c_bands:  5 eigenvalues not converged
     c_bands:  3 eigenvalues not converged
     c_bands:  4 eigenvalues not converged
     c_bands:  2 eigenvalues not converged
     c_bands:  1 eigenvalues not converged
     ethr =  7.51E-05,  avg # of iterations = 20.2

     negative rho (up, down):  3.714E-03 0.000E+00
 
     Adding external electric field

     Computed dipole along edir(3) : 
        Dipole                0.6931 Ry au,          1.7617 Debye
        Dipole field          0.0013 Ry au, 
 
        Potential amp.       -0.1212 Ry
        Total length         46.3494 bohr
 

     total cpu time spent up to now is     1040.7 secs

     total energy              =   -2977.67304596 Ry
     estimated scf accuracy    <       0.61223710 Ry

     iteration # 64     ecut=    29.40 Ry     beta= 0.05
     Davidson diagonalization with overlap
     c_bands:  1 eigenvalues not converged
     c_bands:  1 eigenvalues not converged
     c_bands:  1 eigenvalues not converged
     c_bands:  1 eigenvalues not converged
     c_bands:  2 eigenvalues not converged
     c_bands:  3 eigenvalues not converged
     ethr =  7.51E-05,  avg # of iterations = 17.3

     negative rho (up, down):  5.926E-03 0.000E+00
 
     Adding external electric field

     Computed dipole along edir(3) : 
        Dipole                0.7336 Ry au,          1.8646 Debye
        Dipole field          0.0014 Ry au, 
 
        Potential amp.       -0.1283 Ry
        Total length         46.3494 bohr
 

     total cpu time spent up to now is     1056.7 secs

     total energy              =   -2977.67130252 Ry
     estimated scf accuracy    <       0.23464053 Ry

     iteration # 65     ecut=    29.40 Ry     beta= 0.05
     Davidson diagonalization with overlap
     c_bands:  1 eigenvalues not converged
     c_bands:  1 eigenvalues not converged
     c_bands:  2 eigenvalues not converged
     ethr =  5.78E-05,  avg # of iterations = 15.4

     negative rho (up, down):  6.198E-03 0.000E+00
 
     Adding external electric field

     Computed dipole along edir(3) : 
        Dipole                0.9607 Ry au,          2.4418 Debye
        Dipole field          0.0018 Ry au, 
 
        Potential amp.       -0.1681 Ry
        Total length         46.3494 bohr
 

     total cpu time spent up to now is     1072.6 secs

     total energy              =   -2977.66890826 Ry
     estimated scf accuracy    <       0.36661709 Ry

     iteration # 66     ecut=    29.40 Ry     beta= 0.05
     Davidson diagonalization with overlap
     c_bands:  3 eigenvalues not converged
     c_bands:  2 eigenvalues not converged
     c_bands:  2 eigenvalues not converged
     c_bands:  4 eigenvalues not converged
     c_bands:  2 eigenvalues not converged
     ethr =  5.78E-05,  avg # of iterations = 17.2

     negative rho (up, down):  7.587E-03 0.000E+00
 
     Adding external electric field

     Computed dipole along edir(3) : 
        Dipole                0.8690 Ry au,          2.2088 Debye
        Dipole field          0.0016 Ry au, 
 
        Potential amp.       -0.1520 Ry
        Total length         46.3494 bohr
 

     total cpu time spent up to now is     1089.5 secs

     total energy              =   -2977.66951128 Ry
     estimated scf accuracy    <       0.42580057 Ry

     iteration # 67     ecut=    29.40 Ry     beta= 0.05
     Davidson diagonalization with overlap
     ethr =  5.78E-05,  avg # of iterations =  6.4

     negative rho (up, down):  1.055E-02 0.000E+00
 
     Adding external electric field

     Computed dipole along edir(3) : 
        Dipole                0.8204 Ry au,          2.0853 Debye
        Dipole field          0.0015 Ry au, 
 
        Potential amp.       -0.1435 Ry
        Total length         46.3494 bohr
 

     total cpu time spent up to now is     1101.7 secs

     total energy              =   -2977.68954492 Ry
     estimated scf accuracy    <       0.11810377 Ry

     iteration # 68     ecut=    29.40 Ry     beta= 0.05
     Davidson diagonalization with overlap
     c_bands:  1 eigenvalues not converged
     c_bands:  2 eigenvalues not converged
     c_bands:  1 eigenvalues not converged
     c_bands:  1 eigenvalues not converged
     c_bands:  1 eigenvalues not converged
     c_bands:  1 eigenvalues not converged
     c_bands:  1 eigenvalues not converged
     ethr =  2.91E-05,  avg # of iterations = 17.7

     negative rho (up, down):  1.110E-02 0.000E+00
 
     Adding external electric field

     Computed dipole along edir(3) : 
        Dipole                0.9414 Ry au,          2.3928 Debye
        Dipole field          0.0018 Ry au, 
 
        Potential amp.       -0.1647 Ry
        Total length         46.3494 bohr
 

     total cpu time spent up to now is     1118.9 secs

     total energy              =   -2977.68399718 Ry
     estimated scf accuracy    <       0.32897116 Ry

     iteration # 69     ecut=    29.40 Ry     beta= 0.05
     Davidson diagonalization with overlap
     ethr =  2.91E-05,  avg # of iterations =  5.0

     negative rho (up, down):  1.443E-02 0.000E+00
 
     Adding external electric field

     Computed dipole along edir(3) : 
        Dipole                0.9800 Ry au,          2.4909 Debye
        Dipole field          0.0018 Ry au, 
 
        Potential amp.       -0.1714 Ry
        Total length         46.3494 bohr
 

     total cpu time spent up to now is     1130.5 secs

     total energy              =   -2977.68419179 Ry
     estimated scf accuracy    <       0.12104534 Ry

     iteration # 70     ecut=    29.40 Ry     beta= 0.05
     Davidson diagonalization with overlap
     c_bands:  1 eigenvalues not converged
     c_bands:  1 eigenvalues not converged
     ethr =  2.91E-05,  avg # of iterations = 13.2

     negative rho (up, down):  1.666E-02 0.000E+00
 
     Adding external electric field

     Computed dipole along edir(3) : 
        Dipole                1.0235 Ry au,          2.6014 Debye
        Dipole field          0.0019 Ry au, 
 
        Potential amp.       -0.1790 Ry
        Total length         46.3494 bohr
 

     total cpu time spent up to now is     1144.4 secs

     total energy              =   -2977.68426513 Ry
     estimated scf accuracy    <       0.10196853 Ry

     iteration # 71     ecut=    29.40 Ry     beta= 0.05
     Davidson diagonalization with overlap
     ethr =  2.51E-05,  avg # of iterations =  5.4

     negative rho (up, down):  1.531E-02 0.000E+00
 
     Adding external electric field

     Computed dipole along edir(3) : 
        Dipole                1.0540 Ry au,          2.6789 Debye
        Dipole field          0.0020 Ry au, 
 
        Potential amp.       -0.1844 Ry
        Total length         46.3494 bohr
 

     total cpu time spent up to now is     1156.4 secs

     total energy              =   -2977.68311166 Ry
     estimated scf accuracy    <       0.05920312 Ry

     iteration # 72     ecut=    29.40 Ry     beta= 0.05
     Davidson diagonalization with overlap
     c_bands:  5 eigenvalues not converged
     c_bands:  3 eigenvalues not converged
     c_bands:  2 eigenvalues not converged
     c_bands:  3 eigenvalues not converged
     c_bands:  1 eigenvalues not converged
     ethr =  1.46E-05,  avg # of iterations = 16.8

     negative rho (up, down):  1.509E-02 0.000E+00
 
     Adding external electric field

     Computed dipole along edir(3) : 
        Dipole                1.0122 Ry au,          2.5727 Debye
        Dipole field          0.0019 Ry au, 
 
        Potential amp.       -0.1771 Ry
        Total length         46.3494 bohr
 

     total cpu time spent up to now is     1172.7 secs

     total energy              =   -2977.68398652 Ry
     estimated scf accuracy    <       0.00961666 Ry

     iteration # 73     ecut=    29.40 Ry     beta= 0.05
     Davidson diagonalization with overlap
     c_bands:  2 eigenvalues not converged
     c_bands:  2 eigenvalues not converged
     c_bands:  1 eigenvalues not converged
     c_bands:  2 eigenvalues not converged
     c_bands:  2 eigenvalues not converged
     c_bands:  1 eigenvalues not converged
     ethr =  2.37E-06,  avg # of iterations = 18.8

     negative rho (up, down):  1.494E-02 0.000E+00
 
     Adding external electric field

     Computed dipole along edir(3) : 
        Dipole                1.0069 Ry au,          2.5593 Debye
        Dipole field          0.0019 Ry au, 
 
        Potential amp.       -0.1761 Ry
        Total length         46.3494 bohr
 

     total cpu time spent up to now is     1190.4 secs

     total energy              =   -2977.68422998 Ry
     estimated scf accuracy    <       0.02423153 Ry

     iteration # 74     ecut=    29.40 Ry     beta= 0.05
     Davidson diagonalization with overlap
     c_bands:  1 eigenvalues not converged
     c_bands:  2 eigenvalues not converged
     ethr =  2.37E-06,  avg # of iterations =  7.7

     negative rho (up, down):  1.511E-02 0.000E+00
 
     Adding external electric field

     Computed dipole along edir(3) : 
        Dipole                1.0118 Ry au,          2.5717 Debye
        Dipole field          0.0019 Ry au, 
 
        Potential amp.       -0.1770 Ry
        Total length         46.3494 bohr
 

     total cpu time spent up to now is     1202.5 secs

     total energy              =   -2977.68342073 Ry
     estimated scf accuracy    <       0.02049755 Ry

     iteration # 75     ecut=    29.40 Ry     beta= 0.05
     Davidson diagonalization with overlap
     c_bands:  2 eigenvalues not converged
     ethr =  2.37E-06,  avg # of iterations = 11.6

     negative rho (up, down):  1.590E-02 0.000E+00
 
     Adding external electric field

     Computed dipole along edir(3) : 
        Dipole                1.0366 Ry au,          2.6348 Debye
        Dipole field          0.0020 Ry au, 
 
        Potential amp.       -0.1813 Ry
        Total length         46.3494 bohr
 

     total cpu time spent up to now is     1216.8 secs

     total energy              =   -2977.68356741 Ry
     estimated scf accuracy    <       0.00311014 Ry

     iteration # 76     ecut=    29.40 Ry     beta= 0.05
     Davidson diagonalization with overlap
     c_bands:  1 eigenvalues not converged
     c_bands:  1 eigenvalues not converged
     c_bands:  2 eigenvalues not converged
     ethr =  7.66E-07,  avg # of iterations = 16.5

     negative rho (up, down):  1.577E-02 0.000E+00
 
     Adding external electric field

     Computed dipole along edir(3) : 
        Dipole                1.0373 Ry au,          2.6366 Debye
        Dipole field          0.0020 Ry au, 
 
        Potential amp.       -0.1815 Ry
        Total length         46.3494 bohr
 

     total cpu time spent up to now is     1233.7 secs

     total energy              =   -2977.68369842 Ry
     estimated scf accuracy    <       0.00071744 Ry

     iteration # 77     ecut=    29.40 Ry     beta= 0.05
     Davidson diagonalization with overlap
     c_bands:  2 eigenvalues not converged
     c_bands:  1 eigenvalues not converged
     ethr =  1.77E-07,  avg # of iterations = 15.4

     negative rho (up, down):  1.572E-02 0.000E+00
 
     Adding external electric field

     Computed dipole along edir(3) : 
        Dipole                1.0335 Ry au,          2.6270 Debye
        Dipole field          0.0020 Ry au, 
 
        Potential amp.       -0.1808 Ry
        Total length         46.3494 bohr
 

     total cpu time spent up to now is     1249.9 secs

     total energy              =   -2977.68370648 Ry
     estimated scf accuracy    <       0.00073999 Ry

     iteration # 78     ecut=    29.40 Ry     beta= 0.05
     Davidson diagonalization with overlap
     ethr =  1.77E-07,  avg # of iterations =  3.1

     negative rho (up, down):  1.485E-02 0.000E+00
 
     Adding external electric field

     Computed dipole along edir(3) : 
        Dipole                1.0210 Ry au,          2.5951 Debye
        Dipole field          0.0019 Ry au, 
 
        Potential amp.       -0.1786 Ry
        Total length         46.3494 bohr
 

     total cpu time spent up to now is     1261.2 secs

     total energy              =   -2977.68357375 Ry
     estimated scf accuracy    <       0.00048597 Ry

     iteration # 79     ecut=    29.40 Ry     beta= 0.05
     Davidson diagonalization with overlap
     c_bands:  2 eigenvalues not converged
     ethr =  1.20E-07,  avg # of iterations = 16.1

     negative rho (up, down):  1.555E-02 0.000E+00
 
     Adding external electric field

     Computed dipole along edir(3) : 
        Dipole                1.0301 Ry au,          2.6181 Debye
        Dipole field          0.0019 Ry au, 
 
        Potential amp.       -0.1802 Ry
        Total length         46.3494 bohr
 

     total cpu time spent up to now is     1282.5 secs

     total energy              =   -2977.68361083 Ry
     estimated scf accuracy    <       0.00092077 Ry

     iteration # 80     ecut=    29.40 Ry     beta= 0.05
     Davidson diagonalization with overlap
     ethr =  1.20E-07,  avg # of iterations = 11.4

     negative rho (up, down):  1.532E-02 0.000E+00
 
     Adding external electric field

     Computed dipole along edir(3) : 
        Dipole                1.0269 Ry au,          2.6101 Debye
        Dipole field          0.0019 Ry au, 
 
        Potential amp.       -0.1796 Ry
        Total length         46.3494 bohr
 

     total cpu time spent up to now is     1297.7 secs

     total energy              =   -2977.68366343 Ry
     estimated scf accuracy    <       0.00013883 Ry

     iteration # 81     ecut=    29.40 Ry     beta= 0.05
     Davidson diagonalization with overlap
     c_bands:  1 eigenvalues not converged
     c_bands:  1 eigenvalues not converged
     ethr =  3.42E-08,  avg # of iterations = 16.5

     negative rho (up, down):  1.466E-02 0.000E+00
 
     Adding external electric field

     Computed dipole along edir(3) : 
        Dipole                1.0228 Ry au,          2.5996 Debye
        Dipole field          0.0019 Ry au, 
 
        Potential amp.       -0.1789 Ry
        Total length         46.3494 bohr
 

     total cpu time spent up to now is     1318.9 secs

     total energy              =   -2977.68366927 Ry
     estimated scf accuracy    <       0.00025794 Ry

     iteration # 82     ecut=    29.40 Ry     beta= 0.05
     Davidson diagonalization with overlap
     ethr =  3.42E-08,  avg # of iterations = 10.1

     negative rho (up, down):  1.440E-02 0.000E+00
 
     Adding external electric field

     Computed dipole along edir(3) : 
        Dipole                1.0207 Ry au,          2.5943 Debye
        Dipole field          0.0019 Ry au, 
 
        Potential amp.       -0.1786 Ry
        Total length         46.3494 bohr
 

     total cpu time spent up to now is     1332.8 secs

     total energy              =   -2977.68366011 Ry
     estimated scf accuracy    <       0.00010931 Ry

     iteration # 83     ecut=    29.40 Ry     beta= 0.05
     Davidson diagonalization with overlap
     ethr =  2.69E-08,  avg # of iterations = 13.5

     negative rho (up, down):  1.443E-02 0.000E+00
 
     Adding external electric field

     Computed dipole along edir(3) : 
        Dipole                1.0194 Ry au,          2.5910 Debye
        Dipole field          0.0019 Ry au, 
 
        Potential amp.       -0.1783 Ry
        Total length         46.3494 bohr
 

     total cpu time spent up to now is     1350.6 secs

     total energy              =   -2977.68367113 Ry
     estimated scf accuracy    <       0.00004148 Ry

     iteration # 84     ecut=    29.40 Ry     beta= 0.05
     Davidson diagonalization with overlap
     ethr =  1.02E-08,  avg # of iterations = 12.6

     negative rho (up, down):  1.439E-02 0.000E+00
 
     Adding external electric field

     Computed dipole along edir(3) : 
        Dipole                1.0174 Ry au,          2.5859 Debye
        Dipole field          0.0019 Ry au, 
 
        Potential amp.       -0.1780 Ry
        Total length         46.3494 bohr
 

     total cpu time spent up to now is     1367.3 secs

     total energy              =   -2977.68367697 Ry
     estimated scf accuracy    <       0.00004092 Ry

     iteration # 85     ecut=    29.40 Ry     beta= 0.05
     Davidson diagonalization with overlap
     ethr =  1.01E-08,  avg # of iterations =  3.0

     negative rho (up, down):  1.431E-02 0.000E+00
 
     Adding external electric field

     Computed dipole along edir(3) : 
        Dipole                1.0155 Ry au,          2.5811 Debye
        Dipole field          0.0019 Ry au, 
 
        Potential amp.       -0.1776 Ry
        Total length         46.3494 bohr
 

     total cpu time spent up to now is     1378.6 secs

     total energy              =   -2977.68367520 Ry
     estimated scf accuracy    <       0.00002416 Ry

     iteration # 86     ecut=    29.40 Ry     beta= 0.05
     Davidson diagonalization with overlap
     c_bands:  1 eigenvalues not converged
     ethr =  5.95E-09,  avg # of iterations = 11.7

     negative rho (up, down):  1.430E-02 0.000E+00
 
     Adding external electric field

     Computed dipole along edir(3) : 
        Dipole                1.0158 Ry au,          2.5818 Debye
        Dipole field          0.0019 Ry au, 
 
        Potential amp.       -0.1777 Ry
        Total length         46.3494 bohr
 

     total cpu time spent up to now is     1396.5 secs

     total energy              =   -2977.68368053 Ry
     estimated scf accuracy    <       0.00001510 Ry

     iteration # 87     ecut=    29.40 Ry     beta= 0.05
     Davidson diagonalization with overlap
     ethr =  3.72E-09,  avg # of iterations =  2.0

     negative rho (up, down):  1.431E-02 0.000E+00
 
     Adding external electric field

     Computed dipole along edir(3) : 
        Dipole                1.0163 Ry au,          2.5833 Debye
        Dipole field          0.0019 Ry au, 
 
        Potential amp.       -0.1778 Ry
        Total length         46.3494 bohr
 

     total cpu time spent up to now is     1407.6 secs

     total energy              =   -2977.68368071 Ry
     estimated scf accuracy    <       0.00001276 Ry

     iteration # 88     ecut=    29.40 Ry     beta= 0.05
     Davidson diagonalization with overlap
     ethr =  3.14E-09,  avg # of iterations =  6.7

     negative rho (up, down):  1.443E-02 0.000E+00
 
     Adding external electric field

     Computed dipole along edir(3) : 
        Dipole                1.0184 Ry au,          2.5886 Debye
        Dipole field          0.0019 Ry au, 
 
        Potential amp.       -0.1782 Ry
        Total length         46.3494 bohr
 

     total cpu time spent up to now is     1420.3 secs

     total energy              =   -2977.68368170 Ry
     estimated scf accuracy    <       0.00000771 Ry

     iteration # 89     ecut=    29.40 Ry     beta= 0.05
     Davidson diagonalization with overlap
     ethr =  1.90E-09,  avg # of iterations = 11.5

     negative rho (up, down):  1.442E-02 0.000E+00
 
     Adding external electric field

     Computed dipole along edir(3) : 
        Dipole                1.0179 Ry au,          2.5872 Debye
        Dipole field          0.0019 Ry au, 
 
        Potential amp.       -0.1781 Ry
        Total length         46.3494 bohr
 

     total cpu time spent up to now is     1435.8 secs

     total energy              =   -2977.68368313 Ry
     estimated scf accuracy    <       0.00000468 Ry

     iteration # 90     ecut=    29.40 Ry     beta= 0.05
     Davidson diagonalization with overlap
     ethr =  1.15E-09,  avg # of iterations =  2.3

     negative rho (up, down):  1.430E-02 0.000E+00
 
     Adding external electric field

     Computed dipole along edir(3) : 
        Dipole                1.0166 Ry au,          2.5839 Debye
        Dipole field          0.0019 Ry au, 
 
        Potential amp.       -0.1778 Ry
        Total length         46.3494 bohr
 

     total cpu time spent up to now is     1446.9 secs

     total energy              =   -2977.68368336 Ry
     estimated scf accuracy    <       0.00000337 Ry

     iteration # 91     ecut=    29.40 Ry     beta= 0.05
     Davidson diagonalization with overlap
     ethr =  8.30E-10,  avg # of iterations = 11.2

     negative rho (up, down):  1.428E-02 0.000E+00
 
     Adding external electric field

     Computed dipole along edir(3) : 
        Dipole                1.0161 Ry au,          2.5828 Debye
        Dipole field          0.0019 Ry au, 
 
        Potential amp.       -0.1778 Ry
        Total length         46.3494 bohr
 

     total cpu time spent up to now is     1464.2 secs

[...]
   -31.8703 -31.7714 -31.7514 -31.6803 -31.6614 -31.6296 -31.6241 -31.6071
   -31.6055 -31.5952 -31.5919 -31.5530 -31.5529 -31.5451 -31.5356 -31.5322
   -31.5115 -31.5041 -31.4979 -31.4827 -31.4689 -31.4494 -31.4462 -31.4396
   -31.4289 -31.4097 -31.4030 -31.3965 -31.3900 -31.3821 -31.3798 -31.3741
   -31.3638 -31.3625 -31.3494 -31.3381 -31.3332 -31.3319 -31.3092 -31.2818
   -31.2651 -31.2321 -30.6983 -30.6578 -30.6384 -30.5566 -30.4952 -30.4286
   -17.9969 -17.6623 -15.9905 -15.7364 -15.6896 -15.5406 -15.4091 -15.3835
   -15.3517 -15.2862 -15.2388 -15.1777 -15.1468 -15.1165 -15.0765 -15.0422
   -15.0239 -15.0082 -14.9459 -14.9245 -14.8958 -14.8402 -14.8179 -14.7841
   -14.7768 -14.7405 -14.6881 -14.6543 -14.6464 -14.5890 -14.4552 -13.1935
   -12.8473 -12.7681  -9.3909  -6.3521  -5.9067  -5.6858  -4.2560  -3.2363
    -3.1016  -2.9879  -2.9771  -2.9059  -2.8559  -2.7952  -2.7698  -2.7377
    -2.6961  -2.6571  -2.6160  -2.5559  -2.4936  -2.4498  -2.4169  -2.3940
    -2.3639  -2.3207  -2.2832  -2.2397  -2.2109  -2.1795  -2.1649  -2.1385
    -2.1010  -2.0695  -2.0580  -1.9976  -1.9661  -1.9483  -1.8766  -1.8604
    -1.8118  -1.7624  -1.7462  -1.6519  -1.5794  -1.4589  -1.4159  -1.3694
    -1.3554  -1.2176  -1.1739  -1.1525  -1.0910  -0.9697  -0.9270  -0.8644
    -0.8447  -0.7997  -0.7647  -0.7150  -0.6919  -0.6576  -0.6216  -0.5488
    -0.5077  -0.4829  -0.4490  -0.3406  -0.3187  -0.3066  -0.2716  -0.2017
    -0.1671  -0.1396  -0.1026  -0.0789  -0.0577  -0.0255   0.0079   0.0205
     0.0500   0.1089   0.1832   0.2001   0.2417   0.2855   0.3522   0.3713
     0.4362   0.5087   0.5749   0.6109   0.6975   0.7361   0.7843   0.8524
     0.9048   1.0441   1.0576   1.2304   1.3647   1.4041   1.8734   1.9413
     2.1327   2.1960   3.9230   3.9349   3.9652   4.0739   4.0968   4.1420
     4.1697   4.2504   4.2753   4.3114   4.3325

          k = 0.0380-0.0839 0.0000 ( 17916 PWs)   bands (ev):

   -55.3471 -55.3371 -55.2947 -55.2941 -55.2927 -55.2344 -55.2295 -55.2171
   -55.1880 -55.1678 -55.1650 -55.1269 -55.1264 -55.0200 -54.3266 -54.3262
   -31.7349 -31.7270 -31.7251 -31.6405 -31.6207 -31.6190 -31.6186 -31.5857
   -31.5855 -31.5665 -31.5595 -31.5522 -31.5503 -31.5322 -31.5195 -31.5095
   -31.5076 -31.4999 -31.4994 -31.4954 -31.4928 -31.4904 -31.4585 -31.4392
   -31.4360 -31.4329 -31.4176 -31.4157 -31.4152 -31.4112 -31.4089 -31.4065
   -31.4004 -31.3981 -31.3974 -31.3743 -31.3379 -31.3353 -31.3079 -31.3075
   -31.3017 -31.2315 -30.6482 -30.6479 -30.5655 -30.5653 -30.5260 -30.5259
   -17.9910 -17.6672 -15.7455 -15.6502 -15.5373 -15.4628 -15.4523 -15.3337
   -15.3117 -15.2586 -15.2263 -15.2170 -15.1727 -15.1120 -15.0760 -14.9942
   -14.9899 -14.9843 -14.9657 -14.9479 -14.9271 -14.8722 -14.8425 -14.8013
   -14.7936 -14.7790 -14.7396 -14.7257 -14.7050 -14.7040 -14.6480 -13.1945
   -12.8302 -12.8302  -9.3979  -6.3554  -5.9244  -5.6427  -4.2505  -2.9602
    -2.8637  -2.8434  -2.8345  -2.6849  -2.6622  -2.6190  -2.6157  -2.5730
    -2.5584  -2.5434  -2.5213  -2.4928  -2.4759  -2.4461  -2.4387  -2.4206
    -2.4115  -2.3848  -2.3429  -2.3229  -2.2883  -2.2693  -2.2491  -2.1975
    -2.1691  -2.1160  -2.0940  -2.0797  -2.0316  -2.0077  -1.9525  -1.9108
    -1.8306  -1.7410  -1.6259  -1.5648  -1.5578  -1.4386  -1.3982  -1.3259
    -1.3010  -1.2869  -1.2281  -1.2085  -1.1305  -1.1028  -1.0502  -1.0421
    -1.0200  -0.9284  -0.8540  -0.8012  -0.7346  -0.7101  -0.6812  -0.6530
    -0.6025  -0.4470  -0.4109  -0.3874  -0.3307  -0.2963  -0.2196  -0.1969
    -0.1686  -0.1600  -0.1285  -0.1131  -0.0635  -0.0096  -0.0040   0.0206
     0.0568   0.1054   0.1103   0.1465   0.1654   0.2790   0.3558   0.3701
     0.3857   0.4976   0.5277   0.6945   0.6974   0.7199   0.7636   0.8536
     0.8745   0.9501   0.9553   1.1819   1.1906   1.3768   2.0179   2.0183
     2.1367   2.1374   3.9035   4.0005   4.0245   4.0512   4.1339   4.1699
     4.1949   4.2242   4.3202   4.3403   4.3853

          k = 0.0380-0.0419 0.0000 ( 17876 PWs)   bands (ev):

   -55.3556 -55.3284 -55.3064 -55.2933 -55.2823 -55.2373 -55.2369 -55.2097
   -55.1850 -55.1785 -55.1542 -55.1385 -55.1146 -55.0194 -54.3384 -54.3143
   -31.8702 -31.7714 -31.7514 -31.6803 -31.6614 -31.6298 -31.6241 -31.6071
   -31.6055 -31.5952 -31.5919 -31.5530 -31.5529 -31.5450 -31.5356 -31.5322
   -31.5110 -31.5041 -31.4979 -31.4827 -31.4690 -31.4493 -31.4462 -31.4399
   -31.4289 -31.4097 -31.4031 -31.3965 -31.3900 -31.3821 -31.3798 -31.3740
   -31.3643 -31.3627 -31.3491 -31.3379 -31.3333 -31.3318 -31.3092 -31.2818
   -31.2651 -31.2320 -30.6983 -30.6578 -30.6384 -30.5566 -30.4952 -30.4286
   -17.9971 -17.6620 -15.9904 -15.7360 -15.6893 -15.5404 -15.4099 -15.3831
   -15.3515 -15.2860 -15.2387 -15.1783 -15.1475 -15.1183 -15.0776 -15.0415
   -15.0244 -15.0086 -14.9427 -14.9243 -14.8959 -14.8401 -14.8179 -14.7842
   -14.7770 -14.7404 -14.6874 -14.6541 -14.6467 -14.5893 -14.4554 -13.1935
   -12.8473 -12.7681  -9.3923  -6.3407  -5.8983  -5.7042  -4.2562  -3.2361
    -3.1023  -2.9881  -2.9767  -2.8877  -2.8563  -2.7976  -2.7789  -2.7277
    -2.6935  -2.6467  -2.6306  -2.5558  -2.4969  -2.4507  -2.4072  -2.3997
    -2.3616  -2.3140  -2.2789  -2.2501  -2.2100  -2.1947  -2.1721  -2.1433
    -2.1109  -2.0669  -2.0577  -2.0073  -1.9627  -1.9444  -1.8722  -1.8403
    -1.7999  -1.7747  -1.7430  -1.6495  -1.5828  -1.4754  -1.4295  -1.3683
    -1.3492  -1.2181  -1.1672  -1.1471  -1.0882  -0.9833  -0.9363  -0.8516
    -0.8309  -0.7902  -0.7639  -0.7179  -0.7018  -0.6726  -0.6276  -0.5485
    -0.5161  -0.4704  -0.4429  -0.3405  -0.3247  -0.3079  -0.2725  -0.1993
    -0.1730  -0.1407  -0.0970  -0.0717  -0.0561  -0.0234   0.0092   0.0186
     0.0524   0.1055   0.1887   0.2031   0.2439   0.2827   0.3510   0.3682
     0.4398   0.5051   0.5811   0.6008   0.6937   0.7320   0.7836   0.8572
     0.9051   1.0446   1.0573   1.2305   1.3709   1.4047   1.8734   1.9413
     2.1325   2.1966   3.9257   3.9335   3.9647   4.0743   4.0992   4.1426
     4.1666   4.2478   4.2880   4.3082   4.3402

          k =-0.0760-0.0000 0.0000 ( 17886 PWs)   bands (ev):

   -55.3606 -55.3234 -55.3114 -55.2938 -55.2773 -55.2416 -55.2399 -55.2050
   -55.1833 -55.1824 -55.1493 -55.1436 -55.1097 -55.0188 -54.3433 -54.3093
   -31.9274 -31.8100 -31.8064 -31.7390 -31.6844 -31.6810 -31.6727 -31.6505
   -31.6000 -31.5959 -31.5729 -31.5565 -31.5407 -31.5277 -31.5276 -31.5148
   -31.5075 -31.4940 -31.4859 -31.4652 -31.4617 -31.4585 -31.4581 -31.4262
   -31.4256 -31.4143 -31.3937 -31.3863 -31.3861 -31.3695 -31.3686 -31.3546
   -31.3477 -31.3427 -31.3418 -31.3365 -31.2952 -31.2938 -31.2717 -31.2556
   -31.2359 -31.2296 -30.7520 -30.6655 -30.6331 -30.5691 -30.4824 -30.3714
   -18.0023 -17.6574 -15.9792 -15.8643 -15.6920 -15.5765 -15.4298 -15.4175
   -15.4045 -15.2774 -15.2680 -15.2253 -15.2045 -15.1777 -15.1433 -15.1134
   -15.0783 -15.0684 -14.9839 -14.8644 -14.8275 -14.7975 -14.7840 -14.7734
   -14.7715 -14.6961 -14.6545 -14.6067 -14.5313 -14.4938 -14.3393 -13.1943
   -12.8396 -12.7279  -9.3809  -6.3438  -5.8506  -5.7784  -4.2558  -3.3769
    -3.2373  -3.0090  -2.9851  -2.9317  -2.9122  -2.8693  -2.8610  -2.8521
    -2.7873  -2.7424  -2.6799  -2.6218  -2.6075  -2.5916  -2.4301  -2.3024
    -2.2990  -2.2093  -2.1681  -2.1276  -2.0874  -2.0105  -1.9684  -1.9479
    -1.9202  -1.9045  -1.8473  -1.8415  -1.8338  -1.7875  -1.7279  -1.7146
    -1.6982  -1.6796  -1.6648  -1.6530  -1.5833  -1.5646  -1.5323  -1.4351
    -1.3171  -1.1923  -1.1729  -1.0723  -1.0585  -1.0101  -1.0030  -0.9774
    -0.9694  -0.9260  -0.8951  -0.8730  -0.8013  -0.7757  -0.7126  -0.6847
    -0.6570  -0.6349  -0.5626  -0.3694  -0.2997  -0.2902  -0.2659  -0.2339
    -0.1496  -0.1168  -0.0819  -0.0600  -0.0232   0.0333   0.0558   0.0795
     0.1313   0.1370   0.1979   0.2166   0.2916   0.3205   0.3777   0.4233
     0.4344   0.4708   0.4781   0.4925   0.5604   0.6021   0.7584   0.8624
     0.8673   1.1167   1.1584   1.3272   1.3586   1.5936   1.7126   1.8063
     2.0127   2.1662   3.7519   3.7993   3.8818   4.0070   4.0807   4.1216
     4.1781   4.2003   4.2255   4.2471   4.3185

          k =-0.0760 0.0419 0.0000 ( 17914 PWs)   bands (ev):

   -55.3556 -55.3285 -55.3064 -55.2933 -55.2823 -55.2373 -55.2370 -55.2097
   -55.1851 -55.1784 -55.1542 -55.1387 -55.1147 -55.0194 -54.3384 -54.3144
   -31.8706 -31.7717 -31.7524 -31.6863 -31.6615 -31.6339 -31.6285 -31.6077
   -31.6056 -31.5952 -31.5919 -31.5532 -31.5527 -31.5366 -31.5323 -31.5268
   -31.5038 -31.4937 -31.4888 -31.4830 -31.4690 -31.4498 -31.4487 -31.4455
   -31.4143 -31.4105 -31.4032 -31.3958 -31.3932 -31.3900 -31.3827 -31.3819
   -31.3642 -31.3516 -31.3495 -31.3493 -31.3399 -31.3336 -31.3097 -31.2819
   -31.2651 -31.2351 -30.6980 -30.6608 -30.6377 -30.5566 -30.4952 -30.4286
   -17.9967 -17.6620 -15.8625 -15.7751 -15.6080 -15.4842 -15.3899 -15.3384
   -15.3233 -15.2803 -15.2368 -15.1771 -15.1658 -15.1555 -15.1334 -15.0936
   -15.0634 -15.0543 -14.9815 -14.9236 -14.9185 -14.8371 -14.8277 -14.8033
   -14.7909 -14.7537 -14.7438 -14.6509 -14.6189 -14.6009 -14.4548 -13.1955
   -12.8451 -12.7684  -9.3878  -6.3481  -5.8894  -5.7127  -4.2508  -3.2107
    -3.0820  -2.9644  -2.7951  -2.7771  -2.7129  -2.6947  -2.6691  -2.6202
    -2.5848  -2.5753  -2.5605  -2.5118  -2.4698  -2.3928  -2.3722  -2.3512
    -2.3251  -2.3089  -2.2563  -2.2246  -2.1823  -2.1604  -2.0838  -2.0776
    -2.0439  -2.0356  -1.9620  -1.9483  -1.9223  -1.9083  -1.8778  -1.8327
    -1.8134  -1.7827  -1.5980  -1.5778  -1.5363  -1.5189  -1.4393  -1.4157
    -1.3369  -1.1660  -1.1322  -1.1143  -1.1023  -1.0054  -0.9930  -0.9553
    -0.9333  -0.8635  -0.8026  -0.7757  -0.7634  -0.7281  -0.7013  -0.6571
    -0.6355  -0.6114  -0.5681  -0.5498  -0.5215  -0.4587  -0.4290  -0.3611
    -0.3463  -0.2548  -0.1731  -0.1608  -0.1411  -0.1234  -0.0935  -0.0665
    -0.0381   0.0823   0.0939   0.1753   0.1907   0.2554   0.3603   0.3880
     0.4566   0.5132   0.5287   0.5898   0.6964   0.7938   0.8534   0.9048
     0.9555   1.0471   1.1346   1.1481   1.2890   1.3632   1.8887   1.9434
     2.0548   2.1852   3.9114   3.9349   3.9587   3.9772   4.0524   4.0924
     4.1392   4.2000   4.2734   4.3247   4.3675

          k =-0.0760-0.0839 0.0000 ( 17948 PWs)   bands (ev):

   -55.3471 -55.3371 -55.2947 -55.2941 -55.2927 -55.2344 -55.2296 -55.2172
   -55.1880 -55.1677 -55.1649 -55.1270 -55.1265 -55.0200 -54.3266 -54.3262
   -31.7352 -31.7273 -31.7253 -31.6407 -31.6210 -31.6198 -31.6194 -31.5858
   -31.5855 -31.5743 -31.5602 -31.5590 -31.5523 -31.5324 -31.5206 -31.5072
   -31.5006 -31.4975 -31.4960 -31.4946 -31.4879 -31.4804 -31.4481 -31.4405
   -31.4375 -31.4372 -31.4233 -31.4186 -31.4143 -31.4137 -31.4083 -31.4005
   -31.3981 -31.3809 -31.3778 -31.3757 -31.3608 -31.3577 -31.3079 -31.3076
   -31.3014 -31.2350 -30.6492 -30.6490 -30.5655 -30.5652 -30.5260 -30.5259
   -17.9910 -17.6668 -15.6751 -15.5899 -15.5690 -15.4139 -15.3622 -15.3358
   -15.3248 -15.2095 -15.1671 -15.1476 -15.1333 -15.1115 -15.0732 -15.0636
   -15.0568 -14.9936 -14.9733 -14.9644 -14.9384 -14.8846 -14.8770 -14.8690
   -14.8613 -14.8114 -14.8075 -14.7680 -14.7168 -14.7133 -14.6375 -13.1966
   -12.8300 -12.8300  -9.3947  -6.3530  -5.9103  -5.6647  -4.2460  -2.9569
    -2.8483  -2.8360  -2.8303  -2.6648  -2.6270  -2.5511  -2.5295  -2.5064
    -2.4220  -2.4101  -2.3796  -2.3543  -2.3239  -2.2857  -2.2468  -2.2418
    -2.2052  -2.1968  -2.1809  -2.1644  -2.1426  -2.1274  -2.0936  -2.0828
    -2.0696  -2.0254  -1.9994  -1.9854  -1.9642  -1.9440  -1.9358  -1.9175
    -1.8422  -1.7522  -1.7278  -1.6420  -1.5727  -1.5714  -1.5650  -1.5036
    -1.4602  -1.4218  -1.3968  -1.3796  -1.2397  -1.1686  -1.1249  -1.1107
    -1.0960  -0.9652  -0.9588  -0.8829  -0.8603  -0.8539  -0.7597  -0.7159
    -0.6772  -0.6704  -0.5837  -0.5714  -0.4955  -0.3973  -0.3752  -0.3615
    -0.3165  -0.3147  -0.2771  -0.2642  -0.1678  -0.1323  -0.1085  -0.0985
    -0.0815  -0.0403   0.1108   0.1598   0.1663   0.2994   0.3311   0.4697
     0.4995   0.5638   0.6435   0.6924   0.7447   0.7775   0.8644   0.9388
     0.9419   1.0053   1.0210   1.0870   1.0992   1.3688   2.0355   2.0361
     2.1238   2.1242   3.8843   3.9994   4.0031   4.0323   4.1543   4.1777
     4.2541   4.2816   4.3240   4.3252   4.3822

     the Fermi energy is     3.8004 ev

!    total energy              =   -2977.68368951 Ry
     estimated scf accuracy    <       0.00000006 Ry
     smearing contrib. (-TS)   =      -0.03717515 Ry
     internal energy E=F+TS    =   -2977.64651435 Ry

     The total energy is F=E-TS. E is the sum of the following terms:
     one-electron contribution =  -22681.94549655 Ry
     hartree contribution      =   11438.32061795 Ry
     xc contribution           =    -496.61626078 Ry
     ewald contribution        =    8762.59266997 Ry
     electric field correction =       0.00195506 Ry

     convergence has been achieved in 102 iterations

     Forces acting on atoms (cartesian axes, Ry/au):

     atom    1 type  1   force =     0.00024552   -0.00038098    0.09322835
     atom    2 type  1   force =     0.00002254   -0.00038799   -0.17818333
     atom    3 type  2   force =     0.00005026   -0.00041404   -0.02002533
     atom    4 type  2   force =     0.00001143   -0.00190195    0.05912015
     atom    5 type  2   force =    -0.01034893   -0.00059420    0.00861451
     atom    6 type  2   force =     0.01130038    0.00009416    0.00628839
     atom    7 type  1   force =    -0.00096381    0.00197487   -0.01427370
     atom    8 type  1   force =     0.00097500   -0.00255551   -0.00597203
     atom    9 type  2   force =     0.00016584   -0.00001637    0.00010296
     atom   10 type  2   force =    -0.00230888    0.00309442    0.00263230
     atom   11 type  2   force =     0.00042629   -0.00043272   -0.00056266
     atom   12 type  2   force =     0.00002818   -0.00041116   -0.00056793
     atom   13 type  1   force =     0.00033265   -0.00027504   -0.00021360
     atom   14 type  1   force =     0.00005845   -0.00009225   -0.00006574
     atom   15 type  2   force =    -0.00000183    0.00059118   -0.00002122
     atom   16 type  2   force =     0.00030945    0.00027512   -0.00012056
     atom   17 type  2   force =     0.00040082    0.00025608    0.00036321
     atom   18 type  2   force =    -0.00051136    0.00022516   -0.00010484
     atom   19 type  1   force =    -0.00014144    0.00010883    0.00027548
     atom   20 type  1   force =    -0.00009625   -0.00015209    0.00058998
     atom   21 type  2   force =     0.00012115   -0.00011220    0.10400833
     atom   22 type  2   force =     0.00014992   -0.00026120    0.00047132
     atom   23 type  2   force =    -0.07028870   -0.00019309   -0.02685574
     atom   24 type  2   force =     0.07027136    0.00025153   -0.02685578
     atom   25 type  1   force =     0.00017304   -0.00029981    0.09242739
     atom   26 type  1   force =     0.00005992   -0.00055042   -0.17851095
     atom   27 type  2   force =     0.00008239   -0.00021558   -0.01909281
     atom   28 type  2   force =     0.00006122   -0.00173458    0.05853628
     atom   29 type  2   force =    -0.01101890   -0.00114261    0.00945416
     atom   30 type  2   force =     0.01187703   -0.00069905    0.00723535
     atom   31 type  1   force =    -0.00087428    0.00645533   -0.01493369
     atom   32 type  1   force =     0.00101897    0.00219647   -0.00637200
     atom   33 type  2   force =     0.00025968    0.00009471    0.00003446
     atom   34 type  2   force =    -0.00214359   -0.00243669   -0.00029227
     atom   35 type  2   force =     0.00028919    0.00012848   -0.00000164
     atom   36 type  2   force =     0.00024723    0.00003822    0.00051441
     atom   37 type  1   force =    -0.00010141    0.00002061   -0.00007442
     atom   38 type  1   force =     0.00015821   -0.00007606   -0.00000207
     atom   39 type  2   force =    -0.00010521   -0.00020667    0.00042547
     atom   40 type  2   force =    -0.00014152    0.00008732    0.00006065
     atom   41 type  2   force =    -0.00040675    0.00012081    0.00025269
     atom   42 type  2   force =     0.00024164   -0.00013445   -0.00025619
     atom   43 type  1   force =     0.00036321    0.00026775    0.00000105
     atom   44 type  1   force =     0.00002779   -0.00005636   -0.00007302
     atom   45 type  2   force =     0.00012835   -0.00010838    0.10394149
     atom   46 type  2   force =    -0.07025855   -0.00013266   -0.02679452
     atom   47 type  2   force =     0.07024337    0.00027733   -0.02685647
     atom   48 type  3   force =    -0.00308357   -0.00661194   -0.00113609
     atom   49 type  3   force =     0.00075951    0.00032035   -0.00066785
     atom   50 type  4   force =    -0.00152126    0.01868410   -0.00257987
     atom   51 type  5   force =     0.00214637   -0.00382546   -0.00197168
     atom   52 type  5   force =     0.00289561   -0.00304141    0.00221411
     atom   53 type  5   force =    -0.00180527   -0.00438516    0.00365501
     atom   54 type  5   force =    -0.00013764   -0.00101547   -0.00072079
     atom   55 type  5   force =     0.00041007    0.00052738   -0.00011134
     atom   56 type  5   force =    -0.00019592   -0.00086470    0.00065873
     atom   57 type  2   force =    -0.00104440   -0.00058896    0.00075254
     atom   58 type  5   force =     0.00008396   -0.00028777   -0.00014079
     atom   59 type  5   force =     0.00110344    0.00050476   -0.00144788

     Total force =     0.366957     Total SCF correction =     0.000770
  @ DRIVER MODE: Message from server: STATUS
  @ DRIVER MODE: Message from server: GETFORCE
  @ DRIVER MODE: Returning v,forces,stress,ensemble 

     Writing output data file ./calc.save/
  @ DRIVER MODE: Message from server: EXIT
  @ DRIVE MODE: Exiting  
 
     init_run     :     10.99s CPU     11.21s WALL (       1 calls)
     electrons    :   1587.46s CPU   1610.57s WALL (       1 calls)
     forces       :      2.47s CPU      2.57s WALL (       1 calls)

     Called by init_run:
     wfcinit      :      4.96s CPU      5.03s WALL (       1 calls)
     potinit      :      5.35s CPU      5.41s WALL (       1 calls)
     hinit0       :      0.30s CPU      0.31s WALL (       1 calls)

     Called by electrons:
     c_bands      :   1338.51s CPU   1347.80s WALL (     102 calls)
     sum_band     :    168.80s CPU    174.44s WALL (     102 calls)
     v_of_rho     :     57.59s CPU     60.43s WALL (     103 calls)
     newd         :     24.64s CPU     29.95s WALL (     103 calls)
     mix_rho      :      2.23s CPU      2.27s WALL (     102 calls)
     vdW_kernel   :      4.55s CPU      4.56s WALL (       1 calls)

     Called by c_bands:
     init_us_2    :     11.57s CPU     11.62s WALL (    2060 calls)
     cegterg      :   1308.80s CPU   1317.65s WALL (    1042 calls)

     Called by *egterg:
     cdiaghg      :    213.34s CPU    214.19s WALL (   10361 calls)
     h_psi        :    697.76s CPU    703.99s WALL (   10374 calls)
     s_psi        :     97.29s CPU     97.59s WALL (   10374 calls)
     g_psi        :      2.61s CPU      2.63s WALL (    9322 calls)

     Called by h_psi:
     h_psi:calbec :     90.80s CPU     91.23s WALL (   10374 calls)
     vloc_psi     :    502.94s CPU    507.85s WALL (   10374 calls)
     add_vuspsi   :     98.72s CPU     99.27s WALL (   10374 calls)

     General routines
     calbec       :    120.12s CPU    120.64s WALL (   11434 calls)
     fft          :     30.41s CPU     30.65s WALL (    6489 calls)
     ffts         :      0.19s CPU      0.19s WALL (     205 calls)
     fftw         :    567.83s CPU    573.45s WALL ( 1355988 calls)
     interpolate  :      0.63s CPU      0.63s WALL (     103 calls)
     davcio       :      0.00s CPU      0.21s WALL (      10 calls)
 
     Parallel routines
 
     PWSCF        :  26m41.17s CPU  27m 5.00s WALL

 
   This run was terminated on:  21:10:53  15Sep2021            

=------------------------------------------------------------------------------=
   JOB DONE.
=------------------------------------------------------------------------------=
