
     Program PWSCF v.6.7GPU starts on 15Jul2021 at 18:24:14 

     This program is part of the open-source Quantum ESPRESSO suite
     for quantum simulation of materials; please cite
         "P. Giannozzi et al., J. Phys.:Condens. Matter 21 395502 (2009);
         "P. Giannozzi et al., J. Phys.:Condens. Matter 29 465901 (2017);
         "P. Giannozzi et al., J. Chem. Phys. 152 154105 (2020);
          URL http://www.quantum-espresso.org", 
     in publications or presentations arising from this work. More details at
     http://www.quantum-espresso.org/quote

     Parallel version (MPI), running on    16 processors

     MPI processes distributed on     1 nodes
     R & G space division:  proc/nbgrp/npool/nimage =      16
     Reading input from /storage/home/hcoda1/3/ntian30/research/carbon/15Jul_vib/ads_slab/CH3NH2_a/out_0001/pw.inp
Warning: card &CELL ignored
Warning: card   CELL_DYNAMICS='IPI', ignored
Warning: card / ignored

     Current dimensions of program PWSCF are:
     Max number of different atomic species (ntypx) = 10
     Max number of k-points (npk) =  40000
     Max angular momentum in pseudopotentials (lmaxx) =  3
     Presently no symmetry can be used with electric field

     Message from routine cell_base_init:
     DEPRECATED: use true lattice parameter, not A to a.u. conversion factor

     **************************************************************************
     Initializing libbeef V0.1.2 with the BEEF-vdW functional.
     Citation: Wellendorff et al., PRB 85, 235149 (2012).
     **************************************************************************


     IMPORTANT: XC functional enforced from input :
     Exchange-correlation= BEEF-VDW
                           (   1   4  43  14   2   0   0)
     Any further DFT definition will be discarded
     Please, verify this is what you really want


     Subspace diagonalization in iterative solution of the eigenvalue problem:
     one sub-group per band group will be used
     scalapack distributed-memory algorithm (size of sub-group:  4*  4 procs)

  @ DRIVER MODE: Connecting to 
 qe_1139763_2351647.sched-torque.pace.gatech.edujqk7e1qg_scratch
  using UNIX socket
  @ DRIVER MODE: Message from server: STATUS
  @ DRIVER MODE: Message from server: INIT
  @ DRIVER MODE: Receiving replica           0          -1
  @ DRIVER MODE: Receiving encoded integer          25
  @ DRIVER MODE:  SCF:  T  FORCE:  T  STRESS:  F  VC:  F  ENSEMBLE:  F
  @ DRIVER MODE:  SCF:  T  FORCE:  T  STRESS:  F  VC:  F  ENSEMBLE:  F
 
     Parallelization info
     --------------------
     sticks:   dense  smooth     PW     G-vecs:    dense   smooth      PW
     Min         204      82     23                35422     8962    1367
     Max         205      84     24                35435     8968    1382
     Sum        3275    1317    379               566857   143421   21985
 
     Using Slab Decomposition
 


     bravais-lattice index     =            0
     lattice parameter (alat)  =       1.8897  a.u.
     unit-cell volume          =    6658.9804 (a.u.)^3
     number of atoms/cell      =           54
     number of atomic types    =            5
     number of electrons       =       392.00
     number of Kohn-Sham states=          206
     kinetic-energy cutoff     =      29.3995  Ry
     charge density cutoff     =     293.9946  Ry
     scf convergence threshold =      7.3E-08
     mixing beta               =       0.0500
     number of iterations used =            8  plain     mixing
     Exchange-correlation= BEEF-VDW
                           (   1   4  43  14   2   0   0)

     celldm(1)=   1.889726  celldm(2)=   0.000000  celldm(3)=   0.000000
     celldm(4)=   0.000000  celldm(5)=   0.000000  celldm(6)=   0.000000

     crystal axes: (cart. coord. in units of alat)
               a(1) = (   6.579727   0.000000   0.000000 )  
               a(2) = (  -0.000775   5.961596   0.000000 )  
               a(3) = (   0.000000   0.000000  25.155947 )  

     reciprocal axes: (cart. coord. in units 2 pi/alat)
               b(1) = (  0.151982  0.000020  0.000000 )  
               b(2) = (  0.000000  0.167740  0.000000 )  
               b(3) = (  0.000000  0.000000  0.039752 )  


     PseudoPot. # 1 for Ti read from file:
     /storage/coda1/p-amedford6/0/shared/rich_project_chbe-medford/medford-share/data/pseudos_module/espresso/nninc/pbe/van/Ti.UPF
     MD5 check sum: 8e4df49b7f0d34bbd5052bf3f5ea0213
     Pseudo is Ultrasoft, Zval = 12.0
     Generated by new atomic code, or converted to UPF format
     Using radial grid of  851 points,  6 beta functions with: 
                l(1) =   0
                l(2) =   0
                l(3) =   1
                l(4) =   1
                l(5) =   2
                l(6) =   2
     Q(r) pseudized with  8 coefficients,  rinner =    1.000   1.000   1.000
                                                       1.000   1.000

     PseudoPot. # 2 for O  read from file:
     /storage/coda1/p-amedford6/0/shared/rich_project_chbe-medford/medford-share/data/pseudos_module/espresso/nninc/pbe/van/O.UPF
     MD5 check sum: 78c19812648e8988a0fe644b0f25305e
     Pseudo is Ultrasoft, Zval =  6.0
     Generated by new atomic code, or converted to UPF format
     Using radial grid of  737 points,  4 beta functions with: 
                l(1) =   0
                l(2) =   0
                l(3) =   1
                l(4) =   1
     Q(r) pseudized with  8 coefficients,  rinner =    0.800   0.800   0.800


     PseudoPot. # 3 for H  read from file:
     /storage/coda1/p-amedford6/0/shared/rich_project_chbe-medford/medford-share/data/pseudos_module/espresso/nninc/pbe/van/H.UPF
     MD5 check sum: b5ee9d7bfd3a09ee7748110bda690ff7
     Pseudo is Ultrasoft, Zval =  1.0
     Generated by new atomic code, or converted to UPF format
     Using radial grid of  615 points,  1 beta functions with: 
                l(1) =   0
     Q(r) pseudized with  8 coefficients,  rinner =    0.800

     PseudoPot. # 4 for N  read from file:
     /storage/coda1/p-amedford6/0/shared/rich_project_chbe-medford/medford-share/data/pseudos_module/espresso/nninc/pbe/van/N.UPF
     MD5 check sum: 90d10febe142ad51ac9d5be1deb811c4
     Pseudo is Ultrasoft, Zval =  5.0
     Generated by new atomic code, or converted to UPF format
     Using radial grid of  729 points,  4 beta functions with: 
                l(1) =   0
                l(2) =   0
                l(3) =   1
                l(4) =   1
     Q(r) pseudized with  8 coefficients,  rinner =    0.800   0.800   0.800


     PseudoPot. # 5 for C  read from file:
     /storage/coda1/p-amedford6/0/shared/rich_project_chbe-medford/medford-share/data/pseudos_module/espresso/nninc/pbe/van/C.UPF
     MD5 check sum: 1a69bf6b8db32088f5b2163dbdb77a27
     Pseudo is Ultrasoft, Zval =  4.0
     Generated by new atomic code, or converted to UPF format
     Using radial grid of  721 points,  4 beta functions with: 
                l(1) =   0
                l(2) =   0
                l(3) =   1
                l(4) =   1
     Q(r) pseudized with  8 coefficients,  rinner =    0.800   0.800   0.800


     atomic species   valence    mass     pseudopotential
        Ti1           12.00    47.86700     Ti( 1.00)
        O1             6.00    15.99900     O ( 1.00)
        H1             1.00     1.00800     H ( 1.00)
        N1             5.00    14.00700     N ( 1.00)
        C1             4.00    12.01100     C ( 1.00)

     Starting magnetic structure 
     atomic species   magnetization
        Ti1          0.000
        O1           0.000
        H1           0.000
        N1           0.000
        C1           0.025

     No symmetry found



   Cartesian axes

     site n.     atom                  positions (alat units)
         1           Ti1 tau(   1) = (   0.0004258   2.9801865   6.0000000  )
         2           Ti1 tau(   2) = (   3.2906075   1.4906267   6.0002472  )
         3           O1  tau(   3) = (   0.0006271   0.0005054   7.9858123  )
         4           O1  tau(   4) = (   3.2906025   0.0005020   7.3038282  )
         5           O1  tau(   5) = (   4.5942328   1.4918067   9.2879030  )
         6           O1  tau(   6) = (   1.9868534   1.4903216   9.2879459  )
         7           Ti1 tau(   7) = (   3.2907910   2.8959150   9.1758416  )
         8           Ti1 tau(   8) = (   0.0015273   1.4827037   9.2680791  )
         9           O1  tau(   9) = (   3.2764298   0.0032354  11.3770789  )
        10           O1  tau(  10) = (   0.0116148   5.9584955  10.6183126  )
        11           O1  tau(  11) = (   1.2747638   1.4931710  12.6971893  )
        12           O1  tau(  12) = (   5.2817712   1.4903522  12.6806618  )
        13           Ti1 tau(  13) = (   6.5676529   2.9732189  12.5062122  )
        14           Ti1 tau(  14) = (   3.2766800   1.4809802  12.5336434  )
        15           O1  tau(  15) = (   6.5470194   5.8867849  14.7036171  )
        16           O1  tau(  16) = (   3.2776651   5.9556151  14.0032320  )
        17           O1  tau(  17) = (   4.5091997   1.5331545  16.1660716  )
        18           O1  tau(  18) = (   1.9944719   1.5276542  16.1393230  )
        19           Ti1 tau(  19) = (   3.2573122   3.0077756  15.7593658  )
        20           Ti1 tau(  20) = (   6.5589466   1.3143649  15.8680718  )
        21           O1  tau(  21) = (   3.2904802   0.0005063   4.7018136  )
        22           O1  tau(  22) = (   6.5386106   0.1512346  17.2501133  )
        23           O1  tau(  23) = (   1.3043587   1.4918075   6.0039043  )
        24           O1  tau(  24) = (   5.2767064   1.4903225   6.0039473  )
        25           Ti1 tau(  25) = (   0.0000382   5.9609847   6.0000000  )
        26           Ti1 tau(  26) = (   3.2902200   4.4714249   6.0002472  )
        27           O1  tau(  27) = (   0.0002396   2.9813036   7.9858123  )
        28           O1  tau(  28) = (   3.2902150   2.9813002   7.3038282  )
        29           O1  tau(  29) = (   4.5938453   4.4726049   9.2879030  )
        30           O1  tau(  30) = (   1.9864658   4.4711199   9.2879459  )
        31           Ti1 tau(  31) = (   3.2891106   5.8743827   9.1763621  )
        32           Ti1 tau(  32) = (   0.0006254   4.4649316   9.2693709  )
        33           O1  tau(  33) = (   3.2800745   2.9703478  11.3709363  )
        34           O1  tau(  34) = (   0.0092240   2.9805883  10.6323155  )
        35           O1  tau(  35) = (   1.2777299   4.4606407  12.6608526  )
        36           O1  tau(  36) = (   5.2778393   4.4632610  12.6460003  )
        37           Ti1 tau(  37) = (   6.5690533   5.9429793  12.5031582  )
        38           Ti1 tau(  38) = (   3.2786254   4.4589551  12.5214668  )
        39           O1  tau(  39) = (   6.5354733   3.0384833  14.9766919  )
        40           O1  tau(  40) = (   3.2791638   3.0036098  13.9700814  )
        41           O1  tau(  41) = (   4.4983502   4.4848413  16.2456934  )
        42           O1  tau(  42) = (   1.9866127   4.4820094  16.2221982  )
        43           Ti1 tau(  43) = (   3.2666378   0.0261420  15.7997788  )
        44           Ti1 tau(  44) = (   6.5668271   4.5279224  16.0664899  )
        45           O1  tau(  45) = (   3.2900926   2.9813045   4.7018136  )
        46           O1  tau(  46) = (   1.3039711   4.4726057   6.0039043  )
        47           O1  tau(  47) = (   5.2763189   4.4711207   6.0039473  )
        48           H1  tau(  48) = (   5.7154277   4.1132278  18.4743583  )
        49           H1  tau(  49) = (   5.8544422   2.5125186  18.2095680  )
        50           N1  tau(  50) = (   6.3703568   3.3906518  18.1617682  )
        51           C1  tau(  51) = (   0.9530889   3.3347298  19.0741625  )
        52           H1  tau(  52) = (   1.4659278   4.2935310  19.0402106  )
        53           H1  tau(  53) = (   0.6569204   3.1189037  20.1036144  )
        54           H1  tau(  54) = (   1.6325849   2.5561260  18.7331930  )

     number of k points=    10  Fermi-Dirac smearing, width (Ry)=  0.0073
                       cart. coord. in units 2pi/alat
        k(    1) = (   0.0000000   0.0000000   0.0000000), wk =   0.0625000
        k(    2) = (   0.0000000   0.0419351   0.0000000), wk =   0.1250000
        k(    3) = (   0.0000000  -0.0838702   0.0000000), wk =   0.0625000
        k(    4) = (   0.0379955   0.0000049   0.0000000), wk =   0.1250000
        k(    5) = (   0.0379955   0.0419400   0.0000000), wk =   0.1250000
        k(    6) = (   0.0379955  -0.0838652   0.0000000), wk =   0.1250000
        k(    7) = (   0.0379955  -0.0419301   0.0000000), wk =   0.1250000
        k(    8) = (  -0.0759910  -0.0000099   0.0000000), wk =   0.0625000
        k(    9) = (  -0.0759910   0.0419252   0.0000000), wk =   0.1250000
        k(   10) = (  -0.0759910  -0.0838800   0.0000000), wk =   0.0625000

     Dense  grid:   566857 G-vectors     FFT dimensions: (  72,  64, 270)

     Smooth grid:   143421 G-vectors     FFT dimensions: (  45,  40, 180)

     Estimated max dynamical RAM per process >     278.93 MB

     Estimated total dynamical RAM >       4.36 GB
     Generating pointlists ...
     new r_m :   0.7381 (alat units)  1.3949 (a.u.) for type    1
     new r_m :   0.7381 (alat units)  1.3949 (a.u.) for type    2
     new r_m :   0.4206 (alat units)  0.7948 (a.u.) for type    3
     new r_m :   0.4206 (alat units)  0.7948 (a.u.) for type    4
     new r_m :   0.4487 (alat units)  0.8480 (a.u.) for type    5
     Cannot read rho : file not found

     Initial potential from superposition of free atoms

     starting charge  375.99915, renormalised to  392.00000

     negative rho (up, down):  8.113E-03 8.119E-03


     %%%%%%%%%%%%%%%%%%%%%%%%%%%%%%%%%%%%%%%%%%%%%%%%%%%%%%%%%%%%%%%%%%%%%%%%
     %                                                                      %
     % You are using vdW-DF, which was implemented by the Thonhauser group. %
     % Please cite the following two papers that made this development      %
     % possible and the two reviews that describe the various versions:     %
     %                                                                      %
     %   T. Thonhauser et al., PRL 115, 136402 (2015).                      %
     %   T. Thonhauser et al., PRB 76, 125112 (2007).                       %
     %   K. Berland et al., Rep. Prog. Phys. 78, 066501 (2015).             %
     %   D.C. Langreth et al., J. Phys.: Condens. Matter 21, 084203 (2009). %
     %                                                                      %
     %                                                                      %
     % If you are calculating the stress with vdW-DF, please also cite:     %
     %                                                                      %
     %   R. Sabatini et al., J. Phys.: Condens. Matter 24, 424209 (2012).   %
     %                                                                      %
     %%%%%%%%%%%%%%%%%%%%%%%%%%%%%%%%%%%%%%%%%%%%%%%%%%%%%%%%%%%%%%%%%%%%%%%%


 
     Adding external electric field

     Computed dipole along edir(3) : 
        Dipole               -7.5680 Ry au,        -19.2360 Debye
        Dipole field         -0.0143 Ry au, 
 
        Potential amp.        1.3239 Ry
        Total length         46.3494 bohr
 
 
     Adding external electric field

     Computed dipole along edir(3) : 
        Dipole               -7.5680 Ry au,        -19.2360 Debye
        Dipole field         -0.0143 Ry au, 
 
        Potential amp.        1.3239 Ry
        Total length         46.3494 bohr
 
     Starting wfcs are  297 atomic wfcs
  @ DRIVER MODE: Message from server: STATUS
  @ DRIVER MODE: Message from server: POSDATA
  @ DRIVER MODE: Reading and sharing cell 
  @ DRIVER MODE: Reading and sharing positions 
  @ DRIVER MODE: Received positions 

     total cpu time spent up to now is       20.4 secs

     Self-consistent Calculation

     iteration #  1     ecut=    29.40 Ry     beta= 0.05
     Davidson diagonalization with overlap
     c_bands:  1 eigenvalues not converged
     c_bands:  2 eigenvalues not converged
     c_bands:  1 eigenvalues not converged
     c_bands:  1 eigenvalues not converged
     c_bands:  1 eigenvalues not converged
     c_bands:  1 eigenvalues not converged
     c_bands:  1 eigenvalues not converged
     c_bands:  2 eigenvalues not converged
     c_bands:  1 eigenvalues not converged
     c_bands:  1 eigenvalues not converged
     c_bands:  1 eigenvalues not converged
     c_bands:  1 eigenvalues not converged
     ethr =  1.00E-05,  avg # of iterations = 19.6

     negative rho (up, down):  7.735E-03 7.741E-03
 
     Adding external electric field

     Computed dipole along edir(3) : 
        Dipole               32.9344 Ry au,         83.7108 Debye
        Dipole field          0.0622 Ry au, 
 
        Potential amp.       -5.7614 Ry
        Total length         46.3494 bohr
 
 
     Adding external electric field

     Computed dipole along edir(3) : 
        Dipole               32.9344 Ry au,         83.7108 Debye
        Dipole field          0.0622 Ry au, 
 
        Potential amp.       -5.7614 Ry
        Total length         46.3494 bohr
 

     total cpu time spent up to now is      170.8 secs

     total energy              =   -2678.28570266 Ry
     estimated scf accuracy    <    2693.39332722 Ry

     total magnetization       =     0.00 Bohr mag/cell
     absolute magnetization    =     0.01 Bohr mag/cell

     iteration #  2     ecut=    29.40 Ry     beta= 0.05
     Davidson diagonalization with overlap
     c_bands:  1 eigenvalues not converged
     c_bands:  2 eigenvalues not converged
     c_bands:  2 eigenvalues not converged
     c_bands:  1 eigenvalues not converged
     c_bands:  2 eigenvalues not converged
     c_bands:  4 eigenvalues not converged
     c_bands:  2 eigenvalues not converged
     c_bands:  2 eigenvalues not converged
     c_bands:  4 eigenvalues not converged
     c_bands:  3 eigenvalues not converged
     ethr =  1.00E-02,  avg # of iterations = 20.4

     negative rho (up, down):  2.810E-03 2.807E-03
 
     Adding external electric field

     Computed dipole along edir(3) : 
        Dipole               -3.1815 Ry au,         -8.0866 Debye
        Dipole field         -0.0060 Ry au, 
 
        Potential amp.        0.5566 Ry
        Total length         46.3494 bohr
 
 
     Adding external electric field

     Computed dipole along edir(3) : 
        Dipole               -3.1815 Ry au,         -8.0866 Debye
        Dipole field         -0.0060 Ry au, 
 
        Potential amp.        0.5566 Ry
        Total length         46.3494 bohr
 

     total cpu time spent up to now is      569.1 secs

     total energy              =   -2503.07524165 Ry
     estimated scf accuracy    <   54878.05621527 Ry

     total magnetization       =    -0.18 Bohr mag/cell
     absolute magnetization    =     0.57 Bohr mag/cell

     iteration #  3     ecut=    29.40 Ry     beta= 0.05
     Davidson diagonalization with overlap
     ethr =  1.00E-02,  avg # of iterations = 15.0

     negative rho (up, down):  2.847E-03 2.845E-03
 
     Adding external electric field

     Computed dipole along edir(3) : 
        Dipole               -4.7978 Ry au,        -12.1949 Debye
        Dipole field         -0.0091 Ry au, 
 
        Potential amp.        0.8393 Ry
        Total length         46.3494 bohr
 
 
     Adding external electric field

     Computed dipole along edir(3) : 
        Dipole               -4.7978 Ry au,        -12.1949 Debye
        Dipole field         -0.0091 Ry au, 
 
        Potential amp.        0.8393 Ry
        Total length         46.3494 bohr
 

     total cpu time spent up to now is      915.8 secs

     total energy              =   -2901.07944307 Ry
     estimated scf accuracy    <    2900.11607776 Ry

     total magnetization       =    -0.11 Bohr mag/cell
     absolute magnetization    =     0.61 Bohr mag/cell

     iteration #  4     ecut=    29.40 Ry     beta= 0.05
     Davidson diagonalization with overlap
     c_bands:  5 eigenvalues not converged
     c_bands:  3 eigenvalues not converged
     c_bands:  2 eigenvalues not converged
     c_bands:  1 eigenvalues not converged
     ethr =  1.00E-02,  avg # of iterations = 17.2

     negative rho (up, down):  2.853E-03 2.853E-03
 
     Adding external electric field

     Computed dipole along edir(3) : 
        Dipole               -5.4016 Ry au,        -13.7296 Debye
        Dipole field         -0.0102 Ry au, 
 
        Potential amp.        0.9449 Ry
        Total length         46.3494 bohr
 
 
     Adding external electric field

     Computed dipole along edir(3) : 
        Dipole               -5.4016 Ry au,        -13.7296 Debye
        Dipole field         -0.0102 Ry au, 
 
        Potential amp.        0.9449 Ry
        Total length         46.3494 bohr
 

     total cpu time spent up to now is     1046.1 secs

     total energy              =   -2918.42706620 Ry
     estimated scf accuracy    <     243.08232778 Ry

     total magnetization       =     0.43 Bohr mag/cell
     absolute magnetization    =     0.89 Bohr mag/cell

     iteration #  5     ecut=    29.40 Ry     beta= 0.05
     Davidson diagonalization with overlap
     ethr =  1.00E-02,  avg # of iterations =  3.6

     negative rho (up, down):  2.850E-03 2.850E-03
 
     Adding external electric field

     Computed dipole along edir(3) : 
        Dipole               -5.7710 Ry au,        -14.6683 Debye
        Dipole field         -0.0109 Ry au, 
 
        Potential amp.        1.0095 Ry
        Total length         46.3494 bohr
 
 
     Adding external electric field

     Computed dipole along edir(3) : 
        Dipole               -5.7710 Ry au,        -14.6683 Debye
        Dipole field         -0.0109 Ry au, 
 
        Potential amp.        1.0095 Ry
        Total length         46.3494 bohr
 

     total cpu time spent up to now is     1222.8 secs

     total energy              =   -2917.98067705 Ry
     estimated scf accuracy    <     159.40768795 Ry

     total magnetization       =     0.80 Bohr mag/cell
     absolute magnetization    =     1.00 Bohr mag/cell

     iteration #  6     ecut=    29.40 Ry     beta= 0.05
     Davidson diagonalization with overlap
     ethr =  1.00E-02,  avg # of iterations =  3.0

     negative rho (up, down):  2.914E-03 2.917E-03
 
     Adding external electric field

     Computed dipole along edir(3) : 
        Dipole               -6.7548 Ry au,        -17.1689 Debye
        Dipole field         -0.0127 Ry au, 
 
        Potential amp.        1.1816 Ry
        Total length         46.3494 bohr
 
 
     Adding external electric field

     Computed dipole along edir(3) : 
        Dipole               -6.7548 Ry au,        -17.1689 Debye
        Dipole field         -0.0127 Ry au, 
 
        Potential amp.        1.1816 Ry
        Total length         46.3494 bohr
 

     total cpu time spent up to now is     1280.6 secs

     total energy              =   -2914.13855646 Ry
     estimated scf accuracy    <     135.61742260 Ry

     total magnetization       =     0.64 Bohr mag/cell
     absolute magnetization    =     1.11 Bohr mag/cell

     iteration #  7     ecut=    29.40 Ry     beta= 0.05
     Davidson diagonalization with overlap
     c_bands:  2 eigenvalues not converged
     c_bands:  1 eigenvalues not converged
     ethr =  1.00E-02,  avg # of iterations = 13.2

     negative rho (up, down):  2.579E-03 2.567E-03
 
     Adding external electric field

     Computed dipole along edir(3) : 
        Dipole               -6.1192 Ry au,        -15.5535 Debye
        Dipole field         -0.0115 Ry au, 
 
        Potential amp.        1.0705 Ry
        Total length         46.3494 bohr
 
 
     Adding external electric field

     Computed dipole along edir(3) : 
        Dipole               -6.1192 Ry au,        -15.5535 Debye
        Dipole field         -0.0115 Ry au, 
 
        Potential amp.        1.0705 Ry
        Total length         46.3494 bohr
 

     total cpu time spent up to now is     1384.4 secs

     total energy              =   -2923.80456362 Ry
     estimated scf accuracy    <      56.84833792 Ry

     total magnetization       =     0.27 Bohr mag/cell
     absolute magnetization    =     0.51 Bohr mag/cell

     iteration #  8     ecut=    29.40 Ry     beta= 0.05
     Davidson diagonalization with overlap
     ethr =  1.00E-02,  avg # of iterations =  1.1

     negative rho (up, down):  2.713E-03 2.678E-03
 
     Adding external electric field

     Computed dipole along edir(3) : 
        Dipole               -5.5391 Ry au,        -14.0791 Debye
        Dipole field         -0.0105 Ry au, 
 
        Potential amp.        0.9690 Ry
        Total length         46.3494 bohr
 
 
     Adding external electric field

     Computed dipole along edir(3) : 
        Dipole               -5.5391 Ry au,        -14.0791 Debye
        Dipole field         -0.0105 Ry au, 
 
        Potential amp.        0.9690 Ry
        Total length         46.3494 bohr
 

     total cpu time spent up to now is     1435.3 secs

     total energy              =   -2923.52558690 Ry
     estimated scf accuracy    <      28.38012338 Ry

     total magnetization       =     0.02 Bohr mag/cell
     absolute magnetization    =     0.32 Bohr mag/cell

     iteration #  9     ecut=    29.40 Ry     beta= 0.05
     Davidson diagonalization with overlap
     ethr =  7.24E-03,  avg # of iterations =  1.1

     negative rho (up, down):  2.940E-03 2.919E-03
 
     Adding external electric field

     Computed dipole along edir(3) : 
        Dipole               -5.3916 Ry au,        -13.7042 Debye
        Dipole field         -0.0102 Ry au, 
 
        Potential amp.        0.9432 Ry
        Total length         46.3494 bohr
 
 
     Adding external electric field

     Computed dipole along edir(3) : 
        Dipole               -5.3916 Ry au,        -13.7042 Debye
        Dipole field         -0.0102 Ry au, 
 
        Potential amp.        0.9432 Ry
        Total length         46.3494 bohr
 

     total cpu time spent up to now is     1463.1 secs

     total energy              =   -2923.54149034 Ry
     estimated scf accuracy    <      12.49137203 Ry

     total magnetization       =    -0.07 Bohr mag/cell
     absolute magnetization    =     0.17 Bohr mag/cell

     iteration # 10     ecut=    29.40 Ry     beta= 0.05
     Davidson diagonalization with overlap
     ethr =  3.19E-03,  avg # of iterations =  1.8

     negative rho (up, down):  1.102E-02 1.300E-02
 
     Adding external electric field

     Computed dipole along edir(3) : 
        Dipole               -3.7132 Ry au,         -9.4381 Debye
        Dipole field         -0.0070 Ry au, 
 
        Potential amp.        0.6496 Ry
        Total length         46.3494 bohr
 
 
     Adding external electric field

     Computed dipole along edir(3) : 
        Dipole               -3.7132 Ry au,         -9.4381 Debye
        Dipole field         -0.0070 Ry au, 
 
        Potential amp.        0.6496 Ry
        Total length         46.3494 bohr
 

     total cpu time spent up to now is     1506.1 secs

     total energy              =   -2921.51802070 Ry
     estimated scf accuracy    <      11.70729978 Ry

     total magnetization       =    -0.11 Bohr mag/cell
     absolute magnetization    =     0.20 Bohr mag/cell

     iteration # 11     ecut=    29.40 Ry     beta= 0.05
     Davidson diagonalization with overlap
     c_bands:  2 eigenvalues not converged
     c_bands:  1 eigenvalues not converged
     ethr =  2.99E-03,  avg # of iterations = 16.8

     negative rho (up, down):  9.626E-03 1.050E-02
 
     Adding external electric field

     Computed dipole along edir(3) : 
        Dipole               -3.4449 Ry au,         -8.7561 Debye
        Dipole field         -0.0065 Ry au, 
 
        Potential amp.        0.6026 Ry
        Total length         46.3494 bohr
 
 
     Adding external electric field

     Computed dipole along edir(3) : 
        Dipole               -3.4449 Ry au,         -8.7561 Debye
        Dipole field         -0.0065 Ry au, 
 
        Potential amp.        0.6026 Ry
        Total length         46.3494 bohr
 

     total cpu time spent up to now is     1612.3 secs

     total energy              =   -2922.89247748 Ry
     estimated scf accuracy    <     220.47462714 Ry

     total magnetization       =     0.42 Bohr mag/cell
     absolute magnetization    =     0.98 Bohr mag/cell

     iteration # 12     ecut=    29.40 Ry     beta= 0.05
     Davidson diagonalization with overlap
     ethr =  2.99E-03,  avg # of iterations =  1.6

     negative rho (up, down):  3.647E-03 3.412E-03
 
     Adding external electric field

     Computed dipole along edir(3) : 
        Dipole               -4.3671 Ry au,        -11.1000 Debye
        Dipole field         -0.0082 Ry au, 
 
        Potential amp.        0.7640 Ry
        Total length         46.3494 bohr
 
 
     Adding external electric field

     Computed dipole along edir(3) : 
        Dipole               -4.3671 Ry au,        -11.1000 Debye
        Dipole field         -0.0082 Ry au, 
 
        Potential amp.        0.7640 Ry
        Total length         46.3494 bohr
 

     total cpu time spent up to now is     1658.8 secs

     total energy              =   -2911.53712181 Ry
     estimated scf accuracy    <     142.24260712 Ry

     total magnetization       =    -0.49 Bohr mag/cell
     absolute magnetization    =     1.46 Bohr mag/cell

     iteration # 13     ecut=    29.40 Ry     beta= 0.05
     Davidson diagonalization with overlap
     ethr =  2.99E-03,  avg # of iterations = 11.1

     negative rho (up, down):  2.946E-03 2.769E-03
 
     Adding external electric field

     Computed dipole along edir(3) : 
        Dipole               -4.4272 Ry au,        -11.2528 Debye
        Dipole field         -0.0084 Ry au, 
 
        Potential amp.        0.7745 Ry
        Total length         46.3494 bohr
 
 
     Adding external electric field

     Computed dipole along edir(3) : 
        Dipole               -4.4272 Ry au,        -11.2528 Debye
        Dipole field         -0.0084 Ry au, 
 
        Potential amp.        0.7745 Ry
        Total length         46.3494 bohr
 

     total cpu time spent up to now is     1742.9 secs

     total energy              =   -2922.90604617 Ry
     estimated scf accuracy    <      95.14901055 Ry

     total magnetization       =    -0.08 Bohr mag/cell
     absolute magnetization    =     0.28 Bohr mag/cell

     iteration # 14     ecut=    29.40 Ry     beta= 0.05
     Davidson diagonalization with overlap
     ethr =  2.99E-03,  avg # of iterations =  1.4

     negative rho (up, down):  4.693E-03 4.368E-03
 
     Adding external electric field

     Computed dipole along edir(3) : 
        Dipole               -3.1895 Ry au,         -8.1070 Debye
        Dipole field         -0.0060 Ry au, 
 
        Potential amp.        0.5580 Ry
        Total length         46.3494 bohr
 
 
     Adding external electric field

     Computed dipole along edir(3) : 
        Dipole               -3.1895 Ry au,         -8.1070 Debye
        Dipole field         -0.0060 Ry au, 
 
        Potential amp.        0.5580 Ry
        Total length         46.3494 bohr
 

     total cpu time spent up to now is     1811.8 secs

     total energy              =   -2920.82851612 Ry
     estimated scf accuracy    <      33.24364031 Ry

     total magnetization       =    -0.02 Bohr mag/cell
     absolute magnetization    =     0.22 Bohr mag/cell

     iteration # 15     ecut=    29.40 Ry     beta= 0.05
     Davidson diagonalization with overlap
     ethr =  2.99E-03,  avg # of iterations =  4.8

     negative rho (up, down):  4.732E-03 4.360E-03
 
     Adding external electric field

     Computed dipole along edir(3) : 
        Dipole               -2.8132 Ry au,         -7.1505 Debye
        Dipole field         -0.0053 Ry au, 
 
        Potential amp.        0.4921 Ry
        Total length         46.3494 bohr
 
 
     Adding external electric field

     Computed dipole along edir(3) : 
        Dipole               -2.8132 Ry au,         -7.1505 Debye
        Dipole field         -0.0053 Ry au, 
 
        Potential amp.        0.4921 Ry
        Total length         46.3494 bohr
 

     total cpu time spent up to now is     1883.9 secs

     total energy              =   -2921.85322323 Ry
     estimated scf accuracy    <       3.81985025 Ry

     total magnetization       =    -0.06 Bohr mag/cell
     absolute magnetization    =     0.35 Bohr mag/cell

     iteration # 16     ecut=    29.40 Ry     beta= 0.05
     Davidson diagonalization with overlap
     ethr =  9.74E-04,  avg # of iterations =  2.8

     negative rho (up, down):  5.700E-03 5.108E-03
 
     Adding external electric field

     Computed dipole along edir(3) : 
        Dipole               -0.9935 Ry au,         -2.5251 Debye
        Dipole field         -0.0019 Ry au, 
 
        Potential amp.        0.1738 Ry
        Total length         46.3494 bohr
 
 
     Adding external electric field

     Computed dipole along edir(3) : 
        Dipole               -0.9935 Ry au,         -2.5251 Debye
        Dipole field         -0.0019 Ry au, 
 
        Potential amp.        0.1738 Ry
        Total length         46.3494 bohr
 

     total cpu time spent up to now is     1965.6 secs

     total energy              =   -2921.58968042 Ry
     estimated scf accuracy    <       3.79000461 Ry

     total magnetization       =    -0.01 Bohr mag/cell
     absolute magnetization    =     0.20 Bohr mag/cell

     iteration # 17     ecut=    29.40 Ry     beta= 0.05
     Davidson diagonalization with overlap
     ethr =  9.67E-04,  avg # of iterations =  3.5

     negative rho (up, down):  6.267E-03 5.667E-03
 
     Adding external electric field

     Computed dipole along edir(3) : 
        Dipole               -0.7187 Ry au,         -1.8267 Debye
        Dipole field         -0.0014 Ry au, 
 
        Potential amp.        0.1257 Ry
        Total length         46.3494 bohr
 
 
     Adding external electric field

     Computed dipole along edir(3) : 
        Dipole               -0.7187 Ry au,         -1.8267 Debye
        Dipole field         -0.0014 Ry au, 
 
        Potential amp.        0.1257 Ry
        Total length         46.3494 bohr
 

     total cpu time spent up to now is     2002.7 secs

     total energy              =   -2921.61176563 Ry
     estimated scf accuracy    <       3.24186887 Ry

     total magnetization       =    -0.02 Bohr mag/cell
     absolute magnetization    =     0.20 Bohr mag/cell

     iteration # 18     ecut=    29.40 Ry     beta= 0.05
     Davidson diagonalization with overlap
     c_bands:  1 eigenvalues not converged
     c_bands:  1 eigenvalues not converged
     ethr =  8.27E-04,  avg # of iterations =  7.5

     negative rho (up, down):  5.622E-03 5.072E-03
 
     Adding external electric field

     Computed dipole along edir(3) : 
        Dipole               -0.8605 Ry au,         -2.1873 Debye
        Dipole field         -0.0016 Ry au, 
 
        Potential amp.        0.1505 Ry
        Total length         46.3494 bohr
 
 
     Adding external electric field

     Computed dipole along edir(3) : 
        Dipole               -0.8605 Ry au,         -2.1873 Debye
        Dipole field         -0.0016 Ry au, 
 
        Potential amp.        0.1505 Ry
        Total length         46.3494 bohr
 

     total cpu time spent up to now is     2041.1 secs

     total energy              =   -2921.73009639 Ry
     estimated scf accuracy    <       1.50974370 Ry

     total magnetization       =     0.07 Bohr mag/cell
     absolute magnetization    =     0.27 Bohr mag/cell

     iteration # 19     ecut=    29.40 Ry     beta= 0.05
     Davidson diagonalization with overlap
     ethr =  3.85E-04,  avg # of iterations =  2.1

     negative rho (up, down):  5.518E-03 5.008E-03
 
     Adding external electric field

     Computed dipole along edir(3) : 
        Dipole               -1.0115 Ry au,         -2.5709 Debye
        Dipole field         -0.0019 Ry au, 
 
        Potential amp.        0.1769 Ry
        Total length         46.3494 bohr
 
 
     Adding external electric field

     Computed dipole along edir(3) : 
        Dipole               -1.0115 Ry au,         -2.5709 Debye
        Dipole field         -0.0019 Ry au, 
 
        Potential amp.        0.1769 Ry
        Total length         46.3494 bohr
 

     total cpu time spent up to now is     2078.0 secs

     total energy              =   -2921.70736554 Ry
     estimated scf accuracy    <       2.51277713 Ry

     total magnetization       =    -0.03 Bohr mag/cell
     absolute magnetization    =     0.18 Bohr mag/cell

     iteration # 20     ecut=    29.40 Ry     beta= 0.05
     Davidson diagonalization with overlap
     c_bands:  4 eigenvalues not converged
     c_bands:  2 eigenvalues not converged
     ethr =  3.85E-04,  avg # of iterations =  7.1

     negative rho (up, down):  5.403E-03 4.917E-03
 
     Adding external electric field

     Computed dipole along edir(3) : 
        Dipole               -0.9039 Ry au,         -2.2975 Debye
        Dipole field         -0.0017 Ry au, 
 
        Potential amp.        0.1581 Ry
        Total length         46.3494 bohr
 
 
     Adding external electric field

     Computed dipole along edir(3) : 
        Dipole               -0.9039 Ry au,         -2.2975 Debye
        Dipole field         -0.0017 Ry au, 
 
        Potential amp.        0.1581 Ry
        Total length         46.3494 bohr
 

     total cpu time spent up to now is     2136.8 secs

     total energy              =   -2921.71005653 Ry
     estimated scf accuracy    <       1.73640331 Ry

     total magnetization       =     0.08 Bohr mag/cell
     absolute magnetization    =     0.20 Bohr mag/cell

     iteration # 21     ecut=    29.40 Ry     beta= 0.05
     Davidson diagonalization with overlap
     c_bands:  3 eigenvalues not converged
     ethr =  3.85E-04,  avg # of iterations =  2.6

     negative rho (up, down):  6.041E-03 5.528E-03
 
     Adding external electric field

     Computed dipole along edir(3) : 
        Dipole                0.4096 Ry au,          1.0411 Debye
        Dipole field          0.0008 Ry au, 
 
        Potential amp.       -0.0717 Ry
        Total length         46.3494 bohr
 
 
     Adding external electric field

     Computed dipole along edir(3) : 
        Dipole                0.4096 Ry au,          1.0411 Debye
        Dipole field          0.0008 Ry au, 
 
        Potential amp.       -0.0717 Ry
        Total length         46.3494 bohr
 

     total cpu time spent up to now is     2248.1 secs

     total energy              =   -2921.68065909 Ry
     estimated scf accuracy    <       1.50231575 Ry

     total magnetization       =     0.10 Bohr mag/cell
     absolute magnetization    =     0.23 Bohr mag/cell

     iteration # 22     ecut=    29.40 Ry     beta= 0.05
     Davidson diagonalization with overlap
     c_bands:  3 eigenvalues not converged
     c_bands:  1 eigenvalues not converged
     c_bands:  4 eigenvalues not converged
     c_bands:  1 eigenvalues not converged
     c_bands:  2 eigenvalues not converged
     c_bands:  2 eigenvalues not converged
     c_bands:  2 eigenvalues not converged
     c_bands:  1 eigenvalues not converged
     c_bands:  2 eigenvalues not converged
     c_bands:  2 eigenvalues not converged
     c_bands:  3 eigenvalues not converged
     c_bands:  2 eigenvalues not converged
     c_bands:  3 eigenvalues not converged
     c_bands:  1 eigenvalues not converged
     c_bands:  3 eigenvalues not converged
     c_bands:  2 eigenvalues not converged
     ethr =  3.83E-04,  avg # of iterations = 21.1

     negative rho (up, down):  6.152E-03 5.629E-03
 
     Adding external electric field

     Computed dipole along edir(3) : 
        Dipole                0.9036 Ry au,          2.2967 Debye
        Dipole field          0.0017 Ry au, 
 
        Potential amp.       -0.1581 Ry
        Total length         46.3494 bohr
 
 
     Adding external electric field

     Computed dipole along edir(3) : 
        Dipole                0.9036 Ry au,          2.2967 Debye
        Dipole field          0.0017 Ry au, 
 
        Potential amp.       -0.1581 Ry
        Total length         46.3494 bohr
 

     total cpu time spent up to now is     2386.9 secs

     total energy              =   -2921.90554294 Ry
     estimated scf accuracy    <       2.36414828 Ry

     total magnetization       =    -0.12 Bohr mag/cell
     absolute magnetization    =     0.27 Bohr mag/cell

     iteration # 23     ecut=    29.40 Ry     beta= 0.05
     Davidson diagonalization with overlap
     c_bands:  4 eigenvalues not converged
     c_bands:  1 eigenvalues not converged
     c_bands:  1 eigenvalues not converged
     ethr =  3.83E-04,  avg # of iterations =  9.6

     negative rho (up, down):  5.346E-03 4.934E-03
 
     Adding external electric field

     Computed dipole along edir(3) : 
        Dipole                0.4886 Ry au,          1.2420 Debye
        Dipole field          0.0009 Ry au, 
 
        Potential amp.       -0.0855 Ry
        Total length         46.3494 bohr
 
 
     Adding external electric field

     Computed dipole along edir(3) : 
        Dipole                0.4886 Ry au,          1.2420 Debye
        Dipole field          0.0009 Ry au, 
 
        Potential amp.       -0.0855 Ry
        Total length         46.3494 bohr
 

     total cpu time spent up to now is     2455.8 secs

     total energy              =   -2921.80411612 Ry
     estimated scf accuracy    <       3.98362065 Ry

     total magnetization       =    -0.06 Bohr mag/cell
     absolute magnetization    =     0.20 Bohr mag/cell

     iteration # 24     ecut=    29.40 Ry     beta= 0.05
     Davidson diagonalization with overlap
     ethr =  3.83E-04,  avg # of iterations =  2.5

     negative rho (up, down):  4.637E-03 4.443E-03
 
     Adding external electric field

     Computed dipole along edir(3) : 
        Dipole               -0.0440 Ry au,         -0.1120 Debye
        Dipole field         -0.0001 Ry au, 
 
        Potential amp.        0.0077 Ry
        Total length         46.3494 bohr
 
 
     Adding external electric field

     Computed dipole along edir(3) : 
        Dipole               -0.0440 Ry au,         -0.1120 Debye
        Dipole field         -0.0001 Ry au, 
 
        Potential amp.        0.0077 Ry
        Total length         46.3494 bohr
 

     total cpu time spent up to now is     2488.6 secs

     total energy              =   -2921.61353500 Ry
     estimated scf accuracy    <       3.20826695 Ry

     total magnetization       =    -0.00 Bohr mag/cell
     absolute magnetization    =     0.15 Bohr mag/cell

     iteration # 25     ecut=    29.40 Ry     beta= 0.05
     Davidson diagonalization with overlap
     c_bands:  1 eigenvalues not converged
     c_bands:  1 eigenvalues not converged
     ethr =  3.83E-04,  avg # of iterations = 13.8

     negative rho (up, down):  6.407E-03 5.972E-03
 
     Adding external electric field

     Computed dipole along edir(3) : 
        Dipole                0.6733 Ry au,          1.7113 Debye
        Dipole field          0.0013 Ry au, 
 
        Potential amp.       -0.1178 Ry
        Total length         46.3494 bohr
 
 
     Adding external electric field

     Computed dipole along edir(3) : 
        Dipole                0.6733 Ry au,          1.7113 Debye
        Dipole field          0.0013 Ry au, 
 
        Potential amp.       -0.1178 Ry
        Total length         46.3494 bohr
 

     total cpu time spent up to now is     2582.9 secs

     total energy              =   -2921.71930702 Ry
     estimated scf accuracy    <       1.44086386 Ry

     total magnetization       =    -0.09 Bohr mag/cell
     absolute magnetization    =     0.20 Bohr mag/cell

     iteration # 26     ecut=    29.40 Ry     beta= 0.05
     Davidson diagonalization with overlap
     ethr =  3.68E-04,  avg # of iterations =  6.1

     negative rho (up, down):  6.856E-03 6.475E-03
 
     Adding external electric field

     Computed dipole along edir(3) : 
        Dipole                0.5950 Ry au,          1.5123 Debye
        Dipole field          0.0011 Ry au, 
 
        Potential amp.       -0.1041 Ry
        Total length         46.3494 bohr
 
 
     Adding external electric field

     Computed dipole along edir(3) : 
        Dipole                0.5950 Ry au,          1.5123 Debye
        Dipole field          0.0011 Ry au, 
 
        Potential amp.       -0.1041 Ry
        Total length         46.3494 bohr
 

     total cpu time spent up to now is     2665.8 secs

     total energy              =   -2921.77446645 Ry
     estimated scf accuracy    <       4.18677478 Ry

     total magnetization       =    -0.05 Bohr mag/cell
     absolute magnetization    =     0.14 Bohr mag/cell

     iteration # 27     ecut=    29.40 Ry     beta= 0.05
     Davidson diagonalization with overlap
     ethr =  3.68E-04,  avg # of iterations =  1.5

     negative rho (up, down):  6.921E-03 6.488E-03
 
     Adding external electric field

     Computed dipole along edir(3) : 
        Dipole                0.2546 Ry au,          0.6472 Debye
        Dipole field          0.0005 Ry au, 
 
        Potential amp.       -0.0445 Ry
        Total length         46.3494 bohr
 
 
     Adding external electric field

     Computed dipole along edir(3) : 
        Dipole                0.2546 Ry au,          0.6472 Debye
        Dipole field          0.0005 Ry au, 
 
        Potential amp.       -0.0445 Ry
        Total length         46.3494 bohr
 

     total cpu time spent up to now is     2709.8 secs

     total energy              =   -2921.72986600 Ry
     estimated scf accuracy    <       6.67074778 Ry

     total magnetization       =    -0.11 Bohr mag/cell
     absolute magnetization    =     0.19 Bohr mag/cell

     iteration # 28     ecut=    29.40 Ry     beta= 0.05
     Davidson diagonalization with overlap
     c_bands:  2 eigenvalues not converged
     ethr =  3.68E-04,  avg # of iterations =  4.8

     negative rho (up, down):  7.125E-03 6.692E-03
 
     Adding external electric field

     Computed dipole along edir(3) : 
        Dipole                0.2606 Ry au,          0.6623 Debye
        Dipole field          0.0005 Ry au, 
 
        Potential amp.       -0.0456 Ry
        Total length         46.3494 bohr
 
 
     Adding external electric field

     Computed dipole along edir(3) : 
        Dipole                0.2606 Ry au,          0.6623 Debye
        Dipole field          0.0005 Ry au, 
 
        Potential amp.       -0.0456 Ry
        Total length         46.3494 bohr
 

     total cpu time spent up to now is     2783.8 secs

     total energy              =   -2921.77701170 Ry
     estimated scf accuracy    <       3.60219710 Ry

     total magnetization       =    -0.06 Bohr mag/cell
     absolute magnetization    =     0.15 Bohr mag/cell

     iteration # 29     ecut=    29.40 Ry     beta= 0.05
     Davidson diagonalization with overlap
     ethr =  3.68E-04,  avg # of iterations =  1.1

     negative rho (up, down):  6.814E-03 6.502E-03
 
     Adding external electric field

     Computed dipole along edir(3) : 
        Dipole                0.3032 Ry au,          0.7706 Debye
        Dipole field          0.0006 Ry au, 
 
        Potential amp.       -0.0530 Ry
        Total length         46.3494 bohr
 
 
     Adding external electric field

     Computed dipole along edir(3) : 
        Dipole                0.3032 Ry au,          0.7706 Debye
        Dipole field          0.0006 Ry au, 
 
        Potential amp.       -0.0530 Ry
        Total length         46.3494 bohr
 

     total cpu time spent up to now is     2828.8 secs

     total energy              =   -2921.71811704 Ry
     estimated scf accuracy    <       4.83942753 Ry

     total magnetization       =    -0.08 Bohr mag/cell
     absolute magnetization    =     0.17 Bohr mag/cell

     iteration # 30     ecut=    29.40 Ry     beta= 0.05
     Davidson diagonalization with overlap
     ethr =  3.68E-04,  avg # of iterations =  4.5

     negative rho (up, down):  5.431E-03 5.064E-03
 
     Adding external electric field

     Computed dipole along edir(3) : 
        Dipole                0.1307 Ry au,          0.3323 Debye
        Dipole field          0.0002 Ry au, 
 
        Potential amp.       -0.0229 Ry
        Total length         46.3494 bohr
 
 
     Adding external electric field

     Computed dipole along edir(3) : 
        Dipole                0.1307 Ry au,          0.3323 Debye
        Dipole field          0.0002 Ry au, 
 
        Potential amp.       -0.0229 Ry
        Total length         46.3494 bohr
 

     total cpu time spent up to now is     2866.5 secs

     total energy              =   -2921.59093119 Ry
     estimated scf accuracy    <       3.30870185 Ry

     total magnetization       =    -0.02 Bohr mag/cell
     absolute magnetization    =     0.13 Bohr mag/cell

     iteration # 31     ecut=    29.40 Ry     beta= 0.05
     Davidson diagonalization with overlap
     ethr =  3.68E-04,  avg # of iterations =  2.0

     negative rho (up, down):  4.892E-03 4.575E-03
 
     Adding external electric field

     Computed dipole along edir(3) : 
        Dipole               -0.1866 Ry au,         -0.4742 Debye
        Dipole field         -0.0004 Ry au, 
 
        Potential amp.        0.0326 Ry
        Total length         46.3494 bohr
 
 
     Adding external electric field

     Computed dipole along edir(3) : 
        Dipole               -0.1866 Ry au,         -0.4742 Debye
        Dipole field         -0.0004 Ry au, 
 
        Potential amp.        0.0326 Ry
        Total length         46.3494 bohr
 

     total cpu time spent up to now is     2918.5 secs

     total energy              =   -2921.63572787 Ry
     estimated scf accuracy    <       1.58980188 Ry

     total magnetization       =    -0.04 Bohr mag/cell
     absolute magnetization    =     0.13 Bohr mag/cell

     iteration # 32     ecut=    29.40 Ry     beta= 0.05
     Davidson diagonalization with overlap
     ethr =  3.68E-04,  avg # of iterations =  6.8

     negative rho (up, down):  4.451E-03 4.275E-03
 
     Adding external electric field

     Computed dipole along edir(3) : 
        Dipole               -0.0962 Ry au,         -0.2445 Debye
        Dipole field         -0.0002 Ry au, 
 
        Potential amp.        0.0168 Ry
        Total length         46.3494 bohr
 
 
     Adding external electric field

     Computed dipole along edir(3) : 
        Dipole               -0.0962 Ry au,         -0.2445 Debye
        Dipole field         -0.0002 Ry au, 
 
        Potential amp.        0.0168 Ry
        Total length         46.3494 bohr
 

     total cpu time spent up to now is     3003.4 secs

     total energy              =   -2921.57118793 Ry
     estimated scf accuracy    <       0.47384591 Ry

     total magnetization       =    -0.04 Bohr mag/cell
     absolute magnetization    =     0.12 Bohr mag/cell

     iteration # 33     ecut=    29.40 Ry     beta= 0.05
     Davidson diagonalization with overlap
     c_bands:  1 eigenvalues not converged
     c_bands:  1 eigenvalues not converged
     c_bands:  2 eigenvalues not converged
     c_bands:  1 eigenvalues not converged
     c_bands:  1 eigenvalues not converged
     ethr =  1.21E-04,  avg # of iterations = 14.8

     negative rho (up, down):  4.475E-03 4.295E-03
 
     Adding external electric field

     Computed dipole along edir(3) : 
        Dipole               -0.1094 Ry au,         -0.2781 Debye
        Dipole field         -0.0002 Ry au, 
 
        Potential amp.        0.0191 Ry
        Total length         46.3494 bohr
 
 
     Adding external electric field

     Computed dipole along edir(3) : 
        Dipole               -0.1094 Ry au,         -0.2781 Debye
        Dipole field         -0.0002 Ry au, 
 
        Potential amp.        0.0191 Ry
        Total length         46.3494 bohr
 

     total cpu time spent up to now is     3112.6 secs

     total energy              =   -2921.64510870 Ry
     estimated scf accuracy    <       0.29371429 Ry

     total magnetization       =     0.02 Bohr mag/cell
     absolute magnetization    =     0.10 Bohr mag/cell

     iteration # 34     ecut=    29.40 Ry     beta= 0.05
     Davidson diagonalization with overlap
     c_bands:  1 eigenvalues not converged
     ethr =  7.49E-05,  avg # of iterations =  5.9

     negative rho (up, down):  4.732E-03 4.533E-03
 
     Adding external electric field

     Computed dipole along edir(3) : 
        Dipole                0.1311 Ry au,          0.3333 Debye
        Dipole field          0.0002 Ry au, 
 
        Potential amp.       -0.0229 Ry
        Total length         46.3494 bohr
 
 
     Adding external electric field

     Computed dipole along edir(3) : 
        Dipole                0.1311 Ry au,          0.3333 Debye
        Dipole field          0.0002 Ry au, 
 
        Potential amp.       -0.0229 Ry
        Total length         46.3494 bohr
 

     total cpu time spent up to now is     3186.1 secs

     total energy              =   -2921.62374673 Ry
     estimated scf accuracy    <       0.30789744 Ry

     total magnetization       =     0.02 Bohr mag/cell
     absolute magnetization    =     0.09 Bohr mag/cell

     iteration # 35     ecut=    29.40 Ry     beta= 0.05
     Davidson diagonalization with overlap
     ethr =  7.49E-05,  avg # of iterations = 10.8

     negative rho (up, down):  5.299E-03 5.186E-03
 
     Adding external electric field

     Computed dipole along edir(3) : 
        Dipole                0.8059 Ry au,          2.0485 Debye
        Dipole field          0.0015 Ry au, 
 
        Potential amp.       -0.1410 Ry
        Total length         46.3494 bohr
 
 
     Adding external electric field

     Computed dipole along edir(3) : 
        Dipole                0.8059 Ry au,          2.0485 Debye
        Dipole field          0.0015 Ry au, 
 
        Potential amp.       -0.1410 Ry
        Total length         46.3494 bohr
 

     total cpu time spent up to now is     3289.5 secs

     total energy              =   -2921.61477172 Ry
     estimated scf accuracy    <       0.12557155 Ry

     total magnetization       =     0.00 Bohr mag/cell
     absolute magnetization    =     0.08 Bohr mag/cell

     iteration # 36     ecut=    29.40 Ry     beta= 0.05
     Davidson diagonalization with overlap
     c_bands:  1 eigenvalues not converged
     c_bands:  4 eigenvalues not converged
     c_bands:  1 eigenvalues not converged
     c_bands:  1 eigenvalues not converged
     c_bands:  2 eigenvalues not converged
     c_bands:  2 eigenvalues not converged
     c_bands:  2 eigenvalues not converged
     c_bands:  1 eigenvalues not converged
     c_bands:  1 eigenvalues not converged
     c_bands:  1 eigenvalues not converged
     c_bands:  4 eigenvalues not converged
     c_bands:  1 eigenvalues not converged
     c_bands:  5 eigenvalues not converged
     c_bands:  3 eigenvalues not converged
     ethr =  3.20E-05,  avg # of iterations = 19.0

     negative rho (up, down):  4.642E-03 4.549E-03
 
     Adding external electric field

     Computed dipole along edir(3) : 
        Dipole                0.5666 Ry au,          1.4401 Debye
        Dipole field          0.0011 Ry au, 
 
        Potential amp.       -0.0991 Ry
        Total length         46.3494 bohr
 
 
     Adding external electric field

     Computed dipole along edir(3) : 
        Dipole                0.5666 Ry au,          1.4401 Debye
        Dipole field          0.0011 Ry au, 
 
        Potential amp.       -0.0991 Ry
        Total length         46.3494 bohr
 

     total cpu time spent up to now is     3452.5 secs

     total energy              =   -2921.62348576 Ry
     estimated scf accuracy    <       0.32204320 Ry

     total magnetization       =     0.08 Bohr mag/cell
     absolute magnetization    =     0.14 Bohr mag/cell

     iteration # 37     ecut=    29.40 Ry     beta= 0.05
     Davidson diagonalization with overlap
     c_bands:  2 eigenvalues not converged
     c_bands:  1 eigenvalues not converged
     ethr =  3.20E-05,  avg # of iterations = 13.8

     negative rho (up, down):  4.086E-03 4.024E-03
 
     Adding external electric field

     Computed dipole along edir(3) : 
        Dipole                0.6072 Ry au,          1.5432 Debye
        Dipole field          0.0011 Ry au, 
 
        Potential amp.       -0.1062 Ry
        Total length         46.3494 bohr
 
 
     Adding external electric field

     Computed dipole along edir(3) : 
        Dipole                0.6072 Ry au,          1.5432 Debye
        Dipole field          0.0011 Ry au, 
 
        Potential amp.       -0.1062 Ry
        Total length         46.3494 bohr
 

     total cpu time spent up to now is     3600.8 secs

     total energy              =   -2921.62676026 Ry
     estimated scf accuracy    <       0.19507084 Ry

     total magnetization       =     0.05 Bohr mag/cell
     absolute magnetization    =     0.11 Bohr mag/cell

     iteration # 38     ecut=    29.40 Ry     beta= 0.05
     Davidson diagonalization with overlap
     c_bands:  1 eigenvalues not converged
     c_bands:  1 eigenvalues not converged
     c_bands:  1 eigenvalues not converged
     c_bands:  5 eigenvalues not converged
     c_bands:  4 eigenvalues not converged
     c_bands:  1 eigenvalues not converged
     c_bands:  2 eigenvalues not converged
     c_bands:  2 eigenvalues not converged
     c_bands:  1 eigenvalues not converged
     c_bands:  1 eigenvalues not converged
     ethr =  3.20E-05,  avg # of iterations = 19.1

     negative rho (up, down):  4.838E-03 4.823E-03
 
     Adding external electric field

     Computed dipole along edir(3) : 
        Dipole                1.2541 Ry au,          3.1876 Debye
        Dipole field          0.0024 Ry au, 
 
        Potential amp.       -0.2194 Ry
        Total length         46.3494 bohr
 
 
     Adding external electric field

     Computed dipole along edir(3) : 
        Dipole                1.2541 Ry au,          3.1876 Debye
        Dipole field          0.0024 Ry au, 
 
        Potential amp.       -0.2194 Ry
        Total length         46.3494 bohr
 

     total cpu time spent up to now is     3761.5 secs

     total energy              =   -2921.61243966 Ry
     estimated scf accuracy    <       0.67699156 Ry

     total magnetization       =     0.00 Bohr mag/cell
     absolute magnetization    =     0.09 Bohr mag/cell

     iteration # 39     ecut=    29.40 Ry     beta= 0.05
     Davidson diagonalization with overlap
     c_bands:  1 eigenvalues not converged
     c_bands:  1 eigenvalues not converged
     c_bands:  1 eigenvalues not converged
     c_bands:  4 eigenvalues not converged
     c_bands:  1 eigenvalues not converged
     c_bands:  1 eigenvalues not converged
     c_bands:  1 eigenvalues not converged
     c_bands:  1 eigenvalues not converged
     c_bands:  1 eigenvalues not converged
     c_bands:  1 eigenvalues not converged
     ethr =  3.20E-05,  avg # of iterations = 16.4

     negative rho (up, down):  4.898E-03 4.884E-03
 
     Adding external electric field

     Computed dipole along edir(3) : 
        Dipole                1.2659 Ry au,          3.2177 Debye
        Dipole field          0.0024 Ry au, 
 
        Potential amp.       -0.2215 Ry
        Total length         46.3494 bohr
 
 
     Adding external electric field

     Computed dipole along edir(3) : 
        Dipole                1.2659 Ry au,          3.2177 Debye
        Dipole field          0.0024 Ry au, 
 
        Potential amp.       -0.2215 Ry
        Total length         46.3494 bohr
 

     total cpu time spent up to now is     3844.0 secs

     total energy              =   -2921.64101112 Ry
     estimated scf accuracy    <       0.52340441 Ry

     total magnetization       =     0.07 Bohr mag/cell
     absolute magnetization    =     0.12 Bohr mag/cell

     iteration # 40     ecut=    29.40 Ry     beta= 0.05
     Davidson diagonalization with overlap
     ethr =  3.20E-05,  avg # of iterations =  2.9

     negative rho (up, down):  4.994E-03 4.975E-03
 
     Adding external electric field

     Computed dipole along edir(3) : 
        Dipole                1.2866 Ry au,          3.2701 Debye
        Dipole field          0.0024 Ry au, 
 
        Potential amp.       -0.2251 Ry
        Total length         46.3494 bohr
 
 
     Adding external electric field

     Computed dipole along edir(3) : 
        Dipole                1.2866 Ry au,          3.2701 Debye
        Dipole field          0.0024 Ry au, 
 
        Potential amp.       -0.2251 Ry
        Total length         46.3494 bohr
 

     total cpu time spent up to now is     3924.7 secs

     total energy              =   -2921.63658342 Ry
     estimated scf accuracy    <       0.45683758 Ry

     total magnetization       =     0.07 Bohr mag/cell
     absolute magnetization    =     0.12 Bohr mag/cell

     iteration # 41     ecut=    29.40 Ry     beta= 0.05
     Davidson diagonalization with overlap
     c_bands:  1 eigenvalues not converged
     c_bands:  1 eigenvalues not converged
     c_bands:  3 eigenvalues not converged
     c_bands:  2 eigenvalues not converged
     c_bands:  1 eigenvalues not converged
     c_bands:  1 eigenvalues not converged
     ethr =  3.20E-05,  avg # of iterations =  9.2

     negative rho (up, down):  4.867E-03 4.822E-03
 
     Adding external electric field

     Computed dipole along edir(3) : 
        Dipole                1.2078 Ry au,          3.0700 Debye
        Dipole field          0.0023 Ry au, 
 
        Potential amp.       -0.2113 Ry
        Total length         46.3494 bohr
 
 
     Adding external electric field

     Computed dipole along edir(3) : 
        Dipole                1.2078 Ry au,          3.0700 Debye
        Dipole field          0.0023 Ry au, 
 
        Potential amp.       -0.2113 Ry
        Total length         46.3494 bohr
 

     total cpu time spent up to now is     4010.3 secs

     total energy              =   -2921.62185145 Ry
     estimated scf accuracy    <       0.37245552 Ry

     total magnetization       =     0.07 Bohr mag/cell
     absolute magnetization    =     0.11 Bohr mag/cell

     iteration # 42     ecut=    29.40 Ry     beta= 0.05
     Davidson diagonalization with overlap
     c_bands:  1 eigenvalues not converged
     c_bands:  1 eigenvalues not converged
     c_bands:  1 eigenvalues not converged
     c_bands:  1 eigenvalues not converged
     c_bands:  1 eigenvalues not converged
     c_bands:  1 eigenvalues not converged
     c_bands:  1 eigenvalues not converged
     c_bands:  1 eigenvalues not converged
     c_bands:  1 eigenvalues not converged
     c_bands:  1 eigenvalues not converged
     c_bands:  1 eigenvalues not converged
     c_bands:  1 eigenvalues not converged
     ethr =  3.20E-05,  avg # of iterations = 17.7

     negative rho (up, down):  5.085E-03 5.060E-03
 
     Adding external electric field

     Computed dipole along edir(3) : 
        Dipole                1.2304 Ry au,          3.1275 Debye
        Dipole field          0.0023 Ry au, 
 
        Potential amp.       -0.2152 Ry
        Total length         46.3494 bohr
 
 
     Adding external electric field

     Computed dipole along edir(3) : 
        Dipole                1.2304 Ry au,          3.1275 Debye
        Dipole field          0.0023 Ry au, 
 
        Potential amp.       -0.2152 Ry
        Total length         46.3494 bohr
 

     total cpu time spent up to now is     4148.0 secs

     total energy              =   -2921.62809282 Ry
     estimated scf accuracy    <       0.08678526 Ry

     total magnetization       =     0.05 Bohr mag/cell
     absolute magnetization    =     0.10 Bohr mag/cell

     iteration # 43     ecut=    29.40 Ry     beta= 0.05
     Davidson diagonalization with overlap
     c_bands:  1 eigenvalues not converged
     ethr =  2.21E-05,  avg # of iterations =  8.7

     negative rho (up, down):  6.258E-03 6.262E-03
 
     Adding external electric field

     Computed dipole along edir(3) : 
        Dipole                1.2216 Ry au,          3.1051 Debye
        Dipole field          0.0023 Ry au, 
 
        Potential amp.       -0.2137 Ry
        Total length         46.3494 bohr
 
 
     Adding external electric field

     Computed dipole along edir(3) : 
        Dipole                1.2216 Ry au,          3.1051 Debye
        Dipole field          0.0023 Ry au, 
 
        Potential amp.       -0.2137 Ry
        Total length         46.3494 bohr
 

     total cpu time spent up to now is     4232.2 secs

     total energy              =   -2921.62720141 Ry
     estimated scf accuracy    <       0.02156116 Ry

     total magnetization       =     0.05 Bohr mag/cell
     absolute magnetization    =     0.11 Bohr mag/cell

     iteration # 44     ecut=    29.40 Ry     beta= 0.05
     Davidson diagonalization with overlap
     c_bands:  4 eigenvalues not converged
     c_bands:  1 eigenvalues not converged
     c_bands:  4 eigenvalues not converged
     c_bands:  5 eigenvalues not converged
     c_bands:  2 eigenvalues not converged
     c_bands:  4 eigenvalues not converged
     c_bands:  4 eigenvalues not converged
     c_bands:  3 eigenvalues not converged
     c_bands:  5 eigenvalues not converged
     c_bands:  1 eigenvalues not converged
     c_bands:  5 eigenvalues not converged
     c_bands:  5 eigenvalues not converged
     c_bands:  5 eigenvalues not converged
     c_bands:  5 eigenvalues not converged
     c_bands:  3 eigenvalues not converged
     c_bands:  4 eigenvalues not converged
     c_bands:  3 eigenvalues not converged
     ethr =  5.50E-06,  avg # of iterations = 20.1

     negative rho (up, down):  6.667E-03 6.676E-03
 
     Adding external electric field

     Computed dipole along edir(3) : 
        Dipole                1.2874 Ry au,          3.2722 Debye
        Dipole field          0.0024 Ry au, 
 
        Potential amp.       -0.2252 Ry
        Total length         46.3494 bohr
 
 
     Adding external electric field

     Computed dipole along edir(3) : 
        Dipole                1.2874 Ry au,          3.2722 Debye
        Dipole field          0.0024 Ry au, 
 
        Potential amp.       -0.2252 Ry
        Total length         46.3494 bohr
 

     total cpu time spent up to now is     4428.2 secs

     total energy              =   -2921.63906065 Ry
     estimated scf accuracy    <       0.26862432 Ry

     total magnetization       =     0.05 Bohr mag/cell
     absolute magnetization    =     0.09 Bohr mag/cell

     iteration # 45     ecut=    29.40 Ry     beta= 0.05
     Davidson diagonalization with overlap
     c_bands:  2 eigenvalues not converged
     c_bands:  1 eigenvalues not converged
     c_bands:  2 eigenvalues not converged
     c_bands:  1 eigenvalues not converged
     ethr =  5.50E-06,  avg # of iterations = 11.5

     negative rho (up, down):  6.023E-03 6.018E-03
 
     Adding external electric field

     Computed dipole along edir(3) : 
        Dipole                1.2812 Ry au,          3.2566 Debye
        Dipole field          0.0024 Ry au, 
 
        Potential amp.       -0.2241 Ry
        Total length         46.3494 bohr
 
 
     Adding external electric field

     Computed dipole along edir(3) : 
        Dipole                1.2812 Ry au,          3.2566 Debye
        Dipole field          0.0024 Ry au, 
 
        Potential amp.       -0.2241 Ry
        Total length         46.3494 bohr
 

     total cpu time spent up to now is     4489.2 secs

     total energy              =   -2921.63066029 Ry
     estimated scf accuracy    <       0.13485790 Ry

     total magnetization       =     0.06 Bohr mag/cell
     absolute magnetization    =     0.10 Bohr mag/cell

     iteration # 46     ecut=    29.40 Ry     beta= 0.05
     Davidson diagonalization with overlap
     c_bands:  1 eigenvalues not converged
     c_bands:  2 eigenvalues not converged
     c_bands:  1 eigenvalues not converged
     c_bands:  1 eigenvalues not converged
     c_bands:  1 eigenvalues not converged
     c_bands:  2 eigenvalues not converged
     c_bands:  1 eigenvalues not converged
     ethr =  5.50E-06,  avg # of iterations = 16.9

     negative rho (up, down):  6.041E-03 6.036E-03
 
     Adding external electric field

     Computed dipole along edir(3) : 
        Dipole                1.2880 Ry au,          3.2739 Debye
        Dipole field          0.0024 Ry au, 
 
        Potential amp.       -0.2253 Ry
        Total length         46.3494 bohr
 
 
     Adding external electric field

     Computed dipole along edir(3) : 
        Dipole                1.2880 Ry au,          3.2739 Debye
        Dipole field          0.0024 Ry au, 
 
        Potential amp.       -0.2253 Ry
        Total length         46.3494 bohr
 

     total cpu time spent up to now is     4547.1 secs

     total energy              =   -2921.63381982 Ry
     estimated scf accuracy    <       0.02805593 Ry

     total magnetization       =     0.05 Bohr mag/cell
     absolute magnetization    =     0.10 Bohr mag/cell

     iteration # 47     ecut=    29.40 Ry     beta= 0.05
     Davidson diagonalization with overlap
     ethr =  5.50E-06,  avg # of iterations =  1.6

     negative rho (up, down):  5.620E-03 5.608E-03
 
     Adding external electric field

     Computed dipole along edir(3) : 
        Dipole                1.2444 Ry au,          3.1630 Debye
        Dipole field          0.0023 Ry au, 
 
        Potential amp.       -0.2177 Ry
        Total length         46.3494 bohr
 
 
     Adding external electric field

     Computed dipole along edir(3) : 
        Dipole                1.2444 Ry au,          3.1630 Debye
        Dipole field          0.0023 Ry au, 
 
        Potential amp.       -0.2177 Ry
        Total length         46.3494 bohr
 

     total cpu time spent up to now is     4621.1 secs

     total energy              =   -2921.63300503 Ry
     estimated scf accuracy    <       0.02499939 Ry

     total magnetization       =     0.06 Bohr mag/cell
     absolute magnetization    =     0.10 Bohr mag/cell

     iteration # 48     ecut=    29.40 Ry     beta= 0.05
     Davidson diagonalization with overlap
     ethr =  5.50E-06,  avg # of iterations =  1.0

     negative rho (up, down):  5.955E-03 5.949E-03
 
     Adding external electric field

     Computed dipole along edir(3) : 
        Dipole                1.2864 Ry au,          3.2698 Debye
        Dipole field          0.0024 Ry au, 
 
        Potential amp.       -0.2250 Ry
        Total length         46.3494 bohr
 
 
     Adding external electric field

     Computed dipole along edir(3) : 
        Dipole                1.2864 Ry au,          3.2698 Debye
        Dipole field          0.0024 Ry au, 
 
        Potential amp.       -0.2250 Ry
        Total length         46.3494 bohr
 

     total cpu time spent up to now is     4682.1 secs

     total energy              =   -2921.63454247 Ry
     estimated scf accuracy    <       0.02277795 Ry

     total magnetization       =     0.05 Bohr mag/cell
     absolute magnetization    =     0.10 Bohr mag/cell

     iteration # 49     ecut=    29.40 Ry     beta= 0.05
     Davidson diagonalization with overlap
     ethr =  5.50E-06,  avg # of iterations =  1.0

     negative rho (up, down):  5.886E-03 5.877E-03
 
     Adding external electric field

     Computed dipole along edir(3) : 
        Dipole                1.2932 Ry au,          3.2869 Debye
        Dipole field          0.0024 Ry au, 
 
        Potential amp.       -0.2262 Ry
        Total length         46.3494 bohr
 
 
     Adding external electric field

     Computed dipole along edir(3) : 
        Dipole                1.2932 Ry au,          3.2869 Debye
        Dipole field          0.0024 Ry au, 
 
        Potential amp.       -0.2262 Ry
        Total length         46.3494 bohr
 

     total cpu time spent up to now is     4724.1 secs

     total energy              =   -2921.63316861 Ry
     estimated scf accuracy    <       0.02758163 Ry

     total magnetization       =     0.06 Bohr mag/cell
     absolute magnetization    =     0.10 Bohr mag/cell

     iteration # 50     ecut=    29.40 Ry     beta= 0.05
     Davidson diagonalization with overlap
     ethr =  5.50E-06,  avg # of iterations =  1.1

     negative rho (up, down):  5.821E-03 5.809E-03
 
     Adding external electric field

     Computed dipole along edir(3) : 
        Dipole                1.2809 Ry au,          3.2558 Debye
        Dipole field          0.0024 Ry au, 
 
        Potential amp.       -0.2241 Ry
        Total length         46.3494 bohr
 
 
     Adding external electric field

     Computed dipole along edir(3) : 
        Dipole                1.2809 Ry au,          3.2558 Debye
        Dipole field          0.0024 Ry au, 
 
        Potential amp.       -0.2241 Ry
        Total length         46.3494 bohr
 

     total cpu time spent up to now is     4763.2 secs

     total energy              =   -2921.63201902 Ry
     estimated scf accuracy    <       0.01813506 Ry

     total magnetization       =     0.06 Bohr mag/cell
     absolute magnetization    =     0.10 Bohr mag/cell

     iteration # 51     ecut=    29.40 Ry     beta= 0.05
     Davidson diagonalization with overlap
     c_bands:  1 eigenvalues not converged
     c_bands:  4 eigenvalues not converged
     c_bands:  1 eigenvalues not converged
     c_bands:  4 eigenvalues not converged
     c_bands:  1 eigenvalues not converged
     ethr =  4.63E-06,  avg # of iterations = 14.4

     negative rho (up, down):  5.953E-03 5.946E-03
 
     Adding external electric field

     Computed dipole along edir(3) : 
        Dipole                1.2809 Ry au,          3.2556 Debye
        Dipole field          0.0024 Ry au, 
 
        Potential amp.       -0.2241 Ry
        Total length         46.3494 bohr
 
 
     Adding external electric field

     Computed dipole along edir(3) : 
        Dipole                1.2809 Ry au,          3.2556 Debye
        Dipole field          0.0024 Ry au, 
 
        Potential amp.       -0.2241 Ry
        Total length         46.3494 bohr
 

     total cpu time spent up to now is     4861.3 secs

     total energy              =   -2921.63325427 Ry
     estimated scf accuracy    <       0.00710228 Ry

     total magnetization       =     0.06 Bohr mag/cell
     absolute magnetization    =     0.10 Bohr mag/cell

     iteration # 52     ecut=    29.40 Ry     beta= 0.05
     Davidson diagonalization with overlap
     c_bands:  2 eigenvalues not converged
     c_bands:  1 eigenvalues not converged
     c_bands:  2 eigenvalues not converged
     c_bands:  2 eigenvalues not converged
     c_bands:  1 eigenvalues not converged
     c_bands:  1 eigenvalues not converged
     c_bands:  1 eigenvalues not converged
     c_bands:  1 eigenvalues not converged
     c_bands:  1 eigenvalues not converged
     c_bands:  2 eigenvalues not converged
     ethr =  1.81E-06,  avg # of iterations = 17.6

     negative rho (up, down):  5.808E-03 5.796E-03
 
     Adding external electric field

     Computed dipole along edir(3) : 
        Dipole                1.2605 Ry au,          3.2038 Debye
        Dipole field          0.0024 Ry au, 
 
        Potential amp.       -0.2205 Ry
        Total length         46.3494 bohr
 
 
     Adding external electric field

     Computed dipole along edir(3) : 
        Dipole                1.2605 Ry au,          3.2038 Debye
        Dipole field          0.0024 Ry au, 
 
        Potential amp.       -0.2205 Ry
        Total length         46.3494 bohr
 

     total cpu time spent up to now is     4948.1 secs

     total energy              =   -2921.63433516 Ry
     estimated scf accuracy    <       0.02267517 Ry

     total magnetization       =     0.06 Bohr mag/cell
     absolute magnetization    =     0.10 Bohr mag/cell

     iteration # 53     ecut=    29.40 Ry     beta= 0.05
     Davidson diagonalization with overlap
     c_bands:  1 eigenvalues not converged
     ethr =  1.81E-06,  avg # of iterations =  2.6

     negative rho (up, down):  5.838E-03 5.829E-03
 
     Adding external electric field

     Computed dipole along edir(3) : 
        Dipole                1.2577 Ry au,          3.1967 Debye
        Dipole field          0.0024 Ry au, 
 
        Potential amp.       -0.2200 Ry
        Total length         46.3494 bohr
 
 
     Adding external electric field

     Computed dipole along edir(3) : 
        Dipole                1.2577 Ry au,          3.1967 Debye
        Dipole field          0.0024 Ry au, 
 
        Potential amp.       -0.2200 Ry
        Total length         46.3494 bohr
 

     total cpu time spent up to now is     5006.9 secs

     total energy              =   -2921.63494875 Ry
     estimated scf accuracy    <       0.02148522 Ry

     total magnetization       =     0.06 Bohr mag/cell
     absolute magnetization    =     0.10 Bohr mag/cell

     iteration # 54     ecut=    29.40 Ry     beta= 0.05
     Davidson diagonalization with overlap
     ethr =  1.81E-06,  avg # of iterations =  2.1

     negative rho (up, down):  6.005E-03 5.999E-03
 
     Adding external electric field

     Computed dipole along edir(3) : 
        Dipole                1.2752 Ry au,          3.2412 Debye
        Dipole field          0.0024 Ry au, 
 
        Potential amp.       -0.2231 Ry
        Total length         46.3494 bohr
 
 
     Adding external electric field

     Computed dipole along edir(3) : 
        Dipole                1.2752 Ry au,          3.2412 Debye
        Dipole field          0.0024 Ry au, 
 
        Potential amp.       -0.2231 Ry
        Total length         46.3494 bohr
 

     total cpu time spent up to now is     5038.8 secs

     total energy              =   -2921.63526902 Ry
     estimated scf accuracy    <       0.02696534 Ry

     total magnetization       =     0.06 Bohr mag/cell
     absolute magnetization    =     0.10 Bohr mag/cell

     iteration # 55     ecut=    29.40 Ry     beta= 0.05
     Davidson diagonalization with overlap
     ethr =  1.81E-06,  avg # of iterations =  3.2

     negative rho (up, down):  6.485E-03 6.487E-03
 
     Adding external electric field

     Computed dipole along edir(3) : 
        Dipole                1.3368 Ry au,          3.3977 Debye
        Dipole field          0.0025 Ry au, 
 
        Potential amp.       -0.2338 Ry
        Total length         46.3494 bohr
 
 
     Adding external electric field

     Computed dipole along edir(3) : 
        Dipole                1.3368 Ry au,          3.3977 Debye
        Dipole field          0.0025 Ry au, 
 
        Potential amp.       -0.2338 Ry
        Total length         46.3494 bohr
 

     total cpu time spent up to now is     5101.7 secs

     total energy              =   -2921.63459245 Ry
     estimated scf accuracy    <       0.03013742 Ry

     total magnetization       =     0.06 Bohr mag/cell
     absolute magnetization    =     0.11 Bohr mag/cell

     iteration # 56     ecut=    29.40 Ry     beta= 0.05
     Davidson diagonalization with overlap
     ethr =  1.81E-06,  avg # of iterations =  5.0

     negative rho (up, down):  6.867E-03 6.871E-03
 
     Adding external electric field

     Computed dipole along edir(3) : 
        Dipole                1.3825 Ry au,          3.5139 Debye
        Dipole field          0.0026 Ry au, 
 
        Potential amp.       -0.2418 Ry
        Total length         46.3494 bohr
 
 
     Adding external electric field

     Computed dipole along edir(3) : 
[...]
    -0.3122  -0.2832  -0.2604  -0.1214  -0.1172  -0.0584  -0.0355   0.0004
     0.0641   0.1024   0.1122   0.1852   0.2198   0.2641   0.3017   0.3089
     0.3367   0.3898   0.4270   0.5064   0.5151   0.5414   0.5807   0.5941
     0.6784   0.7625   0.8547   0.9910   1.2352   1.3699   1.5243   1.6256
     1.7659   2.0773   2.1554   3.6878   3.7751   3.9420   3.9728   3.9992
     4.0632   4.1120   4.1280   4.1612   4.1735   4.1879

          k = 0.0380 0.0419 0.0000 ( 17878 PWs)   bands (ev):

   -55.4207 -55.3934 -55.3735 -55.3494 -55.3460 -55.3005 -55.2947 -55.2762
   -55.2427 -55.2218 -55.2183 -55.2032 -55.1793 -55.0975 -54.4041 -54.3801
   -31.9376 -31.8397 -31.8180 -31.7450 -31.7242 -31.6884 -31.6771 -31.6721
   -31.6692 -31.6620 -31.6538 -31.6188 -31.6158 -31.6102 -31.6013 -31.5959
   -31.5665 -31.5631 -31.5623 -31.5492 -31.5307 -31.5156 -31.5114 -31.4927
   -31.4911 -31.4781 -31.4742 -31.4628 -31.4543 -31.4492 -31.4453 -31.4385
   -31.4269 -31.4026 -31.4006 -31.3974 -31.3961 -31.3928 -31.3734 -31.3462
   -31.3246 -31.3037 -30.7638 -30.7235 -30.7041 -30.6220 -30.5607 -30.4942
   -16.1416 -16.0419 -15.7916 -15.7628 -15.6033 -15.4769 -15.4568 -15.4167
   -15.3525 -15.3104 -15.2379 -15.2095 -15.1779 -15.1198 -15.1044 -15.0825
   -15.0734 -15.0215 -14.9855 -14.9595 -14.9045 -14.8802 -14.8500 -14.8414
   -14.8054 -14.7531 -14.7196 -14.7111 -14.6550 -14.3883 -12.9129 -12.8337
   -10.2209  -6.2298  -4.8334  -3.9201  -3.3080  -3.1610  -3.0486  -2.9650
    -2.9237  -2.8832  -2.8577  -2.8225  -2.7833  -2.7332  -2.6859  -2.6214
    -2.5440  -2.5172  -2.4715  -2.4491  -2.4209  -2.3744  -2.3330  -2.2951
    -2.2568  -2.2345  -2.2125  -2.1883  -2.1326  -2.1250  -2.0682  -2.0347
    -2.0111  -1.9388  -1.8856  -1.8662  -1.8270  -1.7875  -1.7227  -1.6394
    -1.4982  -1.4439  -1.4307  -1.3717  -1.2528  -1.2191  -1.1513  -1.0722
    -1.0103  -0.9674  -0.9169  -0.8636  -0.8541  -0.8037  -0.7817  -0.7414
    -0.6996  -0.6667  -0.6040  -0.5512  -0.5194  -0.5109  -0.3996  -0.3780
    -0.3692  -0.3249  -0.2591  -0.2107  -0.1913  -0.1435  -0.1245  -0.0853
    -0.0630  -0.0464  -0.0138   0.0425   0.1253   0.1387   0.1809   0.2214
     0.2915   0.3132   0.3770   0.4611   0.5167   0.5596   0.6327   0.6735
     0.7223   0.8111   0.8515   0.9823   0.9920   1.1655   1.3413   1.8079
     1.8762   2.0670   2.1302   3.8590   3.8738   3.9023   4.0124   4.0438
     4.0773   4.1050   4.1821   4.2256   4.2501   4.2802

          k = 0.0380-0.0839 0.0000 ( 17916 PWs)   bands (ev):

   -55.4122 -55.4019 -55.3617 -55.3612 -55.3454 -55.2928 -55.2892 -55.2875
   -55.2326 -55.2285 -55.2238 -55.1917 -55.1909 -55.0982 -54.3923 -54.3920
   -31.8018 -31.7949 -31.7943 -31.7040 -31.6856 -31.6852 -31.6816 -31.6525
   -31.6523 -31.6275 -31.6221 -31.6206 -31.6125 -31.5911 -31.5726 -31.5724
   -31.5701 -31.5649 -31.5601 -31.5571 -31.5544 -31.5494 -31.5045 -31.5005
   -31.4985 -31.4931 -31.4847 -31.4828 -31.4823 -31.4740 -31.4709 -31.4696
   -31.4675 -31.4657 -31.4616 -31.4099 -31.4025 -31.3997 -31.3720 -31.3717
   -31.3649 -31.3029 -30.7139 -30.7136 -30.6311 -30.6308 -30.5915 -30.5913
   -16.1122 -15.8206 -15.7301 -15.6114 -15.5316 -15.5113 -15.3968 -15.3781
   -15.3169 -15.2954 -15.2914 -15.2423 -15.1731 -15.1406 -15.0569 -15.0526
   -15.0455 -15.0236 -15.0155 -14.9982 -14.9301 -14.9117 -14.8655 -14.8588
   -14.8211 -14.8033 -14.7911 -14.7707 -14.7697 -14.5686 -12.8960 -12.8957
   -10.2203  -6.2185  -4.8301  -3.9182  -2.9501  -2.9118  -2.8889  -2.8831
    -2.7246  -2.6911  -2.6898  -2.6426  -2.6215  -2.5963  -2.5645  -2.5457
    -2.5297  -2.5076  -2.5041  -2.4805  -2.4729  -2.4097  -2.4050  -2.3656
    -2.3410  -2.3144  -2.2729  -2.2635  -2.1995  -2.1626  -2.1262  -2.1024
    -2.0834  -2.0503  -1.9997  -1.9288  -1.7101  -1.6598  -1.6162  -1.5754
    -1.4883  -1.4337  -1.3933  -1.3625  -1.3184  -1.2918  -1.2032  -1.1720
    -1.1504  -1.1114  -1.1076  -1.0289  -0.9925  -0.8961  -0.8460  -0.7826
    -0.7648  -0.7304  -0.6898  -0.5168  -0.5077  -0.4705  -0.4373  -0.3939
    -0.3665  -0.2879  -0.2571  -0.2376  -0.2252  -0.1920  -0.1376  -0.0729
    -0.0658  -0.0406   0.0013   0.0409   0.0565   0.0759   0.0961   0.2738
     0.2924   0.3147   0.3386   0.4386   0.4652   0.6314   0.6344   0.6562
     0.7097   0.7907   0.8127   0.8907   0.8952   1.1197   1.1264   1.9525
     1.9531   2.0709   2.0717   3.8575   3.9238   3.9656   3.9869   4.0782
     4.1287   4.1479   4.1550   4.2579   4.2797   4.3235

          k = 0.0380-0.0419 0.0000 ( 17876 PWs)   bands (ev):

   -55.4207 -55.3933 -55.3735 -55.3494 -55.3460 -55.3005 -55.2947 -55.2762
   -55.2427 -55.2218 -55.2183 -55.2032 -55.1793 -55.0975 -54.4041 -54.3801
   -31.9375 -31.8397 -31.8179 -31.7450 -31.7242 -31.6884 -31.6772 -31.6721
   -31.6692 -31.6620 -31.6538 -31.6188 -31.6158 -31.6101 -31.6013 -31.5959
   -31.5664 -31.5632 -31.5622 -31.5492 -31.5307 -31.5156 -31.5113 -31.4928
   -31.4909 -31.4783 -31.4742 -31.4627 -31.4543 -31.4492 -31.4453 -31.4385
   -31.4271 -31.4024 -31.4011 -31.3975 -31.3961 -31.3924 -31.3734 -31.3462
   -31.3246 -31.3036 -30.7638 -30.7235 -30.7041 -30.6220 -30.5607 -30.4942
   -16.1422 -16.0412 -15.7908 -15.7627 -15.6035 -15.4779 -15.4566 -15.4165
   -15.3523 -15.3099 -15.2387 -15.2086 -15.1791 -15.1197 -15.1048 -15.0853
   -15.0740 -15.0193 -14.9855 -14.9595 -14.9043 -14.8800 -14.8497 -14.8408
   -14.8050 -14.7524 -14.7194 -14.7114 -14.6553 -14.3885 -12.9129 -12.8337
   -10.2209  -6.2303  -4.8331  -3.9186  -3.3079  -3.1613  -3.0487  -2.9722
    -2.9217  -2.8835  -2.8578  -2.8101  -2.7783  -2.7345  -2.6857  -2.6249
    -2.5488  -2.5171  -2.4709  -2.4531  -2.4201  -2.3732  -2.3319  -2.2978
    -2.2576  -2.2314  -2.2199  -2.1885  -2.1324  -2.1253  -2.0681  -2.0365
    -2.0117  -1.9399  -1.8834  -1.8623  -1.8307  -1.7828  -1.7201  -1.6390
    -1.4992  -1.4442  -1.4279  -1.3710  -1.2513  -1.2198  -1.1512  -1.0857
    -1.0039  -0.9710  -0.9176  -0.8664  -0.8499  -0.8114  -0.7817  -0.7367
    -0.7029  -0.6690  -0.6038  -0.5384  -0.5274  -0.5072  -0.4011  -0.3786
    -0.3698  -0.3299  -0.2500  -0.2200  -0.1876  -0.1404  -0.1228  -0.0820
    -0.0552  -0.0474  -0.0155   0.0419   0.1247   0.1382   0.1795   0.2210
     0.2916   0.3119   0.3804   0.4591   0.5207   0.5576   0.6274   0.6721
     0.7224   0.8140   0.8535   0.9816   0.9917   1.1657   1.3415   1.8080
     1.8762   2.0668   2.1309   3.8608   3.8731   3.9017   4.0135   4.0428
     4.0776   4.1023   4.1868   4.2271   4.2501   4.2831

          k =-0.0760-0.0000 0.0000 ( 17886 PWs)   bands (ev):

   -55.4256 -55.3884 -55.3785 -55.3466 -55.3444 -55.3055 -55.2967 -55.2711
   -55.2475 -55.2199 -55.2133 -55.2083 -55.1744 -55.0969 -54.4091 -54.3751
   -31.9948 -31.8778 -31.8730 -31.8038 -31.7453 -31.7367 -31.7280 -31.7150
   -31.6668 -31.6605 -31.6304 -31.6230 -31.6089 -31.5935 -31.5931 -31.5811
   -31.5702 -31.5510 -31.5456 -31.5268 -31.5257 -31.5252 -31.5081 -31.4922
   -31.4901 -31.4788 -31.4688 -31.4511 -31.4505 -31.4358 -31.4345 -31.4126
   -31.4080 -31.4067 -31.4005 -31.3917 -31.3594 -31.3379 -31.3355 -31.3205
   -31.3082 -31.2869 -30.8175 -30.7312 -30.6987 -30.6345 -30.5478 -30.4370
   -16.1406 -16.0526 -15.9135 -15.7448 -15.6438 -15.5069 -15.4796 -15.4637
   -15.3342 -15.3106 -15.2890 -15.2661 -15.2322 -15.2076 -15.1797 -15.1485
   -15.1406 -15.0570 -14.9226 -14.9097 -14.8626 -14.8466 -14.8397 -14.8367
   -14.7605 -14.7142 -14.6724 -14.5958 -14.5600 -14.2686 -12.9052 -12.7936
   -10.2244  -6.2423  -4.8395  -3.8971  -3.4499  -3.2973  -3.0740  -3.0012
    -2.9525  -2.9306  -2.9179  -2.9007  -2.8522  -2.8339  -2.7812  -2.7428
    -2.6736  -2.6578  -2.4951  -2.3689  -2.3375  -2.2732  -2.1698  -2.1645
    -2.0720  -2.0408  -2.0087  -1.9875  -1.9778  -1.9405  -1.9085  -1.8766
    -1.8233  -1.7832  -1.7783  -1.7614  -1.7482  -1.7319  -1.7177  -1.6309
    -1.5577  -1.5200  -1.4249  -1.3841  -1.2500  -1.1605  -1.1270  -1.0809
    -1.0726  -1.0434  -1.0393  -0.9998  -0.9922  -0.9642  -0.9294  -0.8683
    -0.8175  -0.7790  -0.7274  -0.7040  -0.6291  -0.6034  -0.4186  -0.3887
    -0.3417  -0.3235  -0.2869  -0.2020  -0.1443  -0.1331  -0.0917  -0.0328
     0.0004   0.0518   0.0661   0.0810   0.1490   0.1658   0.2270   0.2557
     0.3119   0.3390   0.3708   0.3937   0.4158   0.4673   0.5135   0.5695
     0.6941   0.8041   0.8183   1.0545   1.0954   1.2616   1.5290   1.6470
     1.7409   1.9471   2.1004   3.6879   3.7321   3.8164   3.9438   3.9986
     4.0555   4.1174   4.1596   4.1609   4.1876   4.2480

          k =-0.0760 0.0419 0.0000 ( 17914 PWs)   bands (ev):

   -55.4207 -55.3934 -55.3735 -55.3494 -55.3460 -55.3005 -55.2948 -55.2762
   -55.2426 -55.2218 -55.2183 -55.2033 -55.1794 -55.0975 -54.4041 -54.3801
   -31.9379 -31.8399 -31.8190 -31.7511 -31.7244 -31.6928 -31.6810 -31.6727
   -31.6697 -31.6621 -31.6539 -31.6189 -31.6155 -31.6021 -31.5960 -31.5923
   -31.5661 -31.5538 -31.5495 -31.5451 -31.5308 -31.5128 -31.5122 -31.5007
   -31.4784 -31.4781 -31.4750 -31.4621 -31.4579 -31.4545 -31.4490 -31.4480
   -31.4164 -31.4134 -31.4043 -31.4005 -31.3978 -31.3930 -31.3740 -31.3462
   -31.3245 -31.3073 -30.7636 -30.7265 -30.7034 -30.6220 -30.5607 -30.4942
   -16.1233 -15.9364 -15.8375 -15.6715 -15.5532 -15.4643 -15.4030 -15.3888
   -15.3522 -15.2745 -15.2350 -15.2274 -15.2204 -15.1828 -15.1604 -15.1326
   -15.1235 -15.0496 -15.0040 -14.9805 -14.9003 -14.8938 -14.8601 -14.8560
   -14.8109 -14.8081 -14.7165 -14.6835 -14.6671 -14.3873 -12.9107 -12.8340
   -10.2235  -6.2286  -4.8341  -3.9046  -3.2839  -3.1413  -2.9165  -2.8412
    -2.8111  -2.7562  -2.7266  -2.6868  -2.6442  -2.6392  -2.6285  -2.5772
    -2.5279  -2.4578  -2.4437  -2.3997  -2.3811  -2.3707  -2.3137  -2.2485
    -2.2338  -2.1521  -2.1451  -2.1100  -2.0588  -2.0302  -2.0080  -1.9862
    -1.9815  -1.9537  -1.9213  -1.8885  -1.8208  -1.6559  -1.6332  -1.6006
    -1.5781  -1.5044  -1.4079  -1.2858  -1.2030  -1.1894  -1.1750  -1.0983
    -1.0641  -1.0212  -1.0010  -0.9596  -0.9325  -0.8473  -0.8374  -0.8149
    -0.7769  -0.7579  -0.7060  -0.6824  -0.6352  -0.6329  -0.6085  -0.5428
    -0.5237  -0.4834  -0.4124  -0.3955  -0.3382  -0.2329  -0.2277  -0.1909
    -0.1704  -0.1283  -0.1075   0.0150   0.0504   0.1101   0.1236   0.2286
     0.2962   0.3202   0.3912   0.4496   0.4717   0.5282   0.6587   0.7702
     0.7879   0.8402   0.8989   0.9835   1.0691   1.0838   1.2249   1.8233
     1.8784   1.9891   2.1194   3.8491   3.8730   3.8944   3.9114   3.9885
     4.0366   4.0735   4.1360   4.2011   4.2868   4.3151

          k =-0.0760-0.0839 0.0000 ( 17948 PWs)   bands (ev):

   -55.4122 -55.4019 -55.3617 -55.3612 -55.3453 -55.2928 -55.2893 -55.2875
   -55.2325 -55.2284 -55.2239 -55.1918 -55.1910 -55.0982 -54.3923 -54.3920
   -31.8021 -31.7951 -31.7946 -31.7042 -31.6864 -31.6860 -31.6819 -31.6526
   -31.6523 -31.6354 -31.6284 -31.6221 -31.6140 -31.5911 -31.5742 -31.5681
   -31.5650 -31.5608 -31.5580 -31.5508 -31.5485 -31.5441 -31.5056 -31.5018
   -31.4942 -31.4913 -31.4887 -31.4821 -31.4814 -31.4809 -31.4784 -31.4657
   -31.4617 -31.4453 -31.4413 -31.4256 -31.4226 -31.4106 -31.3720 -31.3717
   -31.3642 -31.3074 -30.7149 -30.7147 -30.6310 -30.6308 -30.5915 -30.5913
   -16.1089 -15.7630 -15.6766 -15.6289 -15.4650 -15.4322 -15.4115 -15.3943
   -15.2636 -15.2373 -15.2130 -15.1953 -15.1731 -15.1365 -15.1309 -15.1257
   -15.0496 -15.0335 -15.0288 -15.0106 -14.9479 -14.9383 -14.9352 -14.9281
   -14.8772 -14.8735 -14.8081 -14.7814 -14.7783 -14.5609 -12.8958 -12.8955
   -10.2226  -6.2166  -4.8289  -3.9109  -2.9462  -2.9148  -2.8815  -2.8782
    -2.6802  -2.6298  -2.5964  -2.5693  -2.4803  -2.4455  -2.4210  -2.4181
    -2.3467  -2.3283  -2.3114  -2.2702  -2.2635  -2.2490  -2.2265  -2.1898
    -2.1633  -2.1544  -2.1478  -2.1246  -2.0807  -2.0674  -2.0503  -2.0261
    -2.0223  -2.0117  -1.9841  -1.9360  -1.8099  -1.8008  -1.7256  -1.6361
    -1.6312  -1.5550  -1.5388  -1.4914  -1.4743  -1.4608  -1.4188  -1.2349
    -1.1974  -1.1755  -1.1654  -1.0975  -1.0371  -1.0216  -0.9482  -0.9323
    -0.9158  -0.8074  -0.7601  -0.7490  -0.6570  -0.6467  -0.5686  -0.5086
    -0.4548  -0.4344  -0.3929  -0.3838  -0.3807  -0.3354  -0.3280  -0.2424
    -0.1982  -0.1625  -0.1489  -0.1152   0.0860   0.0914   0.1142   0.2575
     0.2898   0.4133   0.4459   0.4987   0.5744   0.6077   0.6832   0.7180
     0.8514   0.8781   0.8790   0.9507   0.9600   1.0240   1.0336   1.9701
     1.9708   2.0580   2.0585   3.8381   3.9190   3.9358   3.9751   4.0911
     4.1649   4.1873   4.2094   4.2549   4.2581   4.3202

     the Fermi energy is     3.7333 ev

!    total energy              =   -2921.63343499 Ry
     estimated scf accuracy    <       0.00000006 Ry
     smearing contrib. (-TS)   =      -0.03703062 Ry
     internal energy E=F+TS    =   -2921.59640438 Ry

     The total energy is F=E-TS. E is the sum of the following terms:
     one-electron contribution =  -23999.82846999 Ry
     hartree contribution      =   12089.06722812 Ry
     xc contribution           =    -481.73112052 Ry
     ewald contribution        =    9470.89273301 Ry
     electric field correction =       0.00322500 Ry

     total magnetization       =     0.07 Bohr mag/cell
     absolute magnetization    =     0.09 Bohr mag/cell

     convergence has been achieved in  83 iterations

     Forces acting on atoms (cartesian axes, Ry/au):

     atom    1 type  1   force =     0.00019504   -0.00022251    0.09322794
     atom    2 type  1   force =    -0.00003638   -0.00042300   -0.17832596
     atom    3 type  2   force =     0.00007979   -0.00040273   -0.02017325
     atom    4 type  2   force =     0.00001495   -0.00194847    0.05891074
     atom    5 type  2   force =    -0.01033127   -0.00094777    0.00824341
     atom    6 type  2   force =     0.01151733   -0.00018225    0.00657894
     atom    7 type  1   force =    -0.00063218    0.00207597   -0.01451948
     atom    8 type  1   force =     0.00067791   -0.00094116   -0.00514722
     atom    9 type  2   force =     0.00014061    0.00031822    0.00007620
     atom   10 type  2   force =    -0.00249334    0.00189120    0.00100393
     atom   11 type  2   force =    -0.00016049    0.00004052    0.00029013
     atom   12 type  2   force =     0.00001848    0.00030414    0.00017967
     atom   13 type  1   force =    -0.00002270    0.00006762    0.00007418
     atom   14 type  1   force =     0.00005988   -0.00002898    0.00014127
     atom   15 type  2   force =     0.00006879   -0.00019611   -0.00005624
     atom   16 type  2   force =     0.00034596    0.00000309   -0.00005374
     atom   17 type  2   force =     0.00007975   -0.00036220    0.00008354
     atom   18 type  2   force =     0.00006840    0.00000472    0.00000557
     atom   19 type  1   force =     0.00042907   -0.00004772    0.00044915
     atom   20 type  1   force =     0.00030346    0.00041652    0.00040344
     atom   21 type  2   force =     0.00014221   -0.00008999    0.10395159
     atom   22 type  2   force =     0.00013980    0.00068320    0.00043322
     atom   23 type  2   force =    -0.07031977   -0.00019278   -0.02691442
     atom   24 type  2   force =     0.07033270    0.00026803   -0.02694541
     atom   25 type  1   force =     0.00013896   -0.00018565    0.09281344
     atom   26 type  1   force =    -0.00005485   -0.00052872   -0.17835426
     atom   27 type  2   force =     0.00011663   -0.00026012   -0.01924266
     atom   28 type  2   force =     0.00008585   -0.00171119    0.05822464
     atom   29 type  2   force =    -0.01083062   -0.00099251    0.00881818
     atom   30 type  2   force =     0.01193633   -0.00068468    0.00713585
     atom   31 type  1   force =    -0.00065510    0.00611534   -0.01534096
     atom   32 type  1   force =     0.00081619    0.00035498   -0.00554496
     atom   33 type  2   force =    -0.00037757   -0.00032987    0.00016726
     atom   34 type  2   force =    -0.00223954   -0.00204080   -0.00002734
     atom   35 type  2   force =    -0.00073740    0.00026060    0.00034456
     atom   36 type  2   force =     0.00076534   -0.00010447   -0.00017722
     atom   37 type  1   force =     0.00003998    0.00021479    0.00003919
     atom   38 type  1   force =    -0.00029230    0.00023142    0.00051388
     atom   39 type  2   force =    -0.00037940   -0.00006085   -0.00005069
     atom   40 type  2   force =    -0.00006229   -0.00009053    0.00031732
     atom   41 type  2   force =    -0.00028271    0.00006135   -0.00007180
     atom   42 type  2   force =     0.00042909   -0.00018568   -0.00011549
     atom   43 type  1   force =    -0.00030166    0.00002737    0.00005301
     atom   44 type  1   force =     0.00046650   -0.00007059    0.00023867
     atom   45 type  2   force =     0.00012550   -0.00010999    0.10391712
     atom   46 type  2   force =    -0.07030396   -0.00011819   -0.02686426
     atom   47 type  2   force =     0.07029961    0.00029614   -0.02690028
     atom   48 type  3   force =     0.00765793   -0.00642957   -0.00224839
     atom   49 type  3   force =     0.00108303    0.00012355   -0.00116163
     atom   50 type  4   force =    -0.00771298    0.00548247    0.00201275
     atom   51 type  5   force =     0.00028416    0.00110994   -0.00030400
     atom   52 type  3   force =    -0.00002932   -0.00044526   -0.00002320
     atom   53 type  3   force =     0.00003745    0.00003045   -0.00008659
     atom   54 type  3   force =    -0.00064083   -0.00004732    0.00000066

     Total force =     0.366547     Total SCF correction =     0.000421
  @ DRIVER MODE: Message from server: STATUS
  @ DRIVER MODE: Message from server: GETFORCE
  @ DRIVER MODE: Returning v,forces,stress,ensemble 

     Writing output data file ./calc.save/
  @ DRIVER MODE: Message from server: EXIT
  @ DRIVE MODE: Exiting  
 
     init_run     :     18.58s CPU     20.02s WALL (       1 calls)
     electrons    :   7000.78s CPU   7637.52s WALL (       1 calls)
     forces       :      2.92s CPU      2.99s WALL (       1 calls)

     Called by init_run:
     wfcinit      :     12.68s CPU     13.69s WALL (       1 calls)
     potinit      :      5.22s CPU      5.51s WALL (       1 calls)
     hinit0       :      0.31s CPU      0.32s WALL (       1 calls)

     Called by electrons:
     c_bands      :   6528.74s CPU   7126.73s WALL (      83 calls)
     sum_band     :    393.66s CPU    423.89s WALL (      83 calls)
     v_of_rho     :     53.08s CPU     56.20s WALL (      84 calls)
     newd         :     15.61s CPU     18.76s WALL (      84 calls)
     mix_rho      :     11.10s CPU     12.83s WALL (      83 calls)
     vdW_kernel   :      3.57s CPU      3.77s WALL (       1 calls)

     Called by c_bands:
     init_us_2    :     12.03s CPU     12.46s WALL (    3360 calls)
     cegterg      :   6493.76s CPU   7088.67s WALL (    1668 calls)

     Called by *egterg:
     cdiaghg      :   3685.53s CPU   4094.84s WALL (   16333 calls)
     h_psi        :   1934.30s CPU   2065.60s WALL (   16353 calls)
     s_psi        :     96.22s CPU     97.30s WALL (   16353 calls)
     g_psi        :      2.34s CPU      2.36s WALL (   14665 calls)

     Called by h_psi:
     h_psi:calbec :    135.25s CPU    140.47s WALL (   16353 calls)
     vloc_psi     :   1696.23s CPU   1820.83s WALL (   16353 calls)
     add_vuspsi   :     98.05s CPU     99.09s WALL (   16353 calls)

     General routines
     calbec       :    175.99s CPU    182.28s WALL (   18093 calls)
     fft          :     35.61s CPU     36.34s WALL (    7473 calls)
     ffts         :      0.75s CPU      0.80s WALL (     334 calls)
     fftw         :   1976.67s CPU   2126.62s WALL ( 2109248 calls)
     interpolate  :      1.40s CPU      1.52s WALL (     168 calls)
     davcio       :      0.00s CPU      0.22s WALL (      20 calls)
 
     Parallel routines
 
     PWSCF        :      1h57m CPU      2h 7m WALL

 
   This run was terminated on:  20:31:56  15Jul2021            

=------------------------------------------------------------------------------=
   JOB DONE.
=------------------------------------------------------------------------------=
