
     Program PWSCF v.6.7GPU starts on 19Jul2021 at 17:13:12 

     This program is part of the open-source Quantum ESPRESSO suite
     for quantum simulation of materials; please cite
         "P. Giannozzi et al., J. Phys.:Condens. Matter 21 395502 (2009);
         "P. Giannozzi et al., J. Phys.:Condens. Matter 29 465901 (2017);
         "P. Giannozzi et al., J. Chem. Phys. 152 154105 (2020);
          URL http://www.quantum-espresso.org", 
     in publications or presentations arising from this work. More details at
     http://www.quantum-espresso.org/quote

     Parallel version (MPI), running on    16 processors

     MPI processes distributed on     1 nodes
     R & G space division:  proc/nbgrp/npool/nimage =      16
     Reading input from /storage/home/hcoda1/3/ntian30/research/carbon/15Jul_vib/reference/NH3/out_0024/pw.inp
Warning: card &CELL ignored
Warning: card   CELL_DYNAMICS='IPI', ignored
Warning: card / ignored

     Current dimensions of program PWSCF are:
     Max number of different atomic species (ntypx) = 10
     Max number of k-points (npk) =  40000
     Max angular momentum in pseudopotentials (lmaxx) =  3
     Presently no symmetry can be used with electric field

     Message from routine cell_base_init:
     DEPRECATED: use true lattice parameter, not A to a.u. conversion factor

     **************************************************************************
     Initializing libbeef V0.1.2 with the BEEF-vdW functional.
     Citation: Wellendorff et al., PRB 85, 235149 (2012).
     **************************************************************************


     IMPORTANT: XC functional enforced from input :
     Exchange-correlation= BEEF-VDW
                           (   1   4  43  14   2   0   0)
     Any further DFT definition will be discarded
     Please, verify this is what you really want


     Subspace diagonalization in iterative solution of the eigenvalue problem:
     one sub-group per band group will be used
     scalapack distributed-memory algorithm (size of sub-group:  4*  4 procs)

  @ DRIVER MODE: Connecting to 
 qe_1139763_2380962.sched-torque.pace.gatech.edul7te95vv_scratch
  using UNIX socket
  @ DRIVER MODE: Message from server: STATUS
  @ DRIVER MODE: Message from server: INIT
  @ DRIVER MODE: Receiving replica           0          -1
  @ DRIVER MODE: Receiving encoded integer          25
  @ DRIVER MODE:  SCF:  T  FORCE:  T  STRESS:  F  VC:  F  ENSEMBLE:  F
  @ DRIVER MODE:  SCF:  T  FORCE:  T  STRESS:  F  VC:  F  ENSEMBLE:  F
 
     Parallelization info
     --------------------
     sticks:   dense  smooth     PW     G-vecs:    dense   smooth      PW
     Min         617     247     66                42965    10863    1526
     Max         618     248     68                42968    10866    1527
     Sum        9883    3961   1073               687459   173821   24427
 
     Using Slab Decomposition
 


     bravais-lattice index     =            0
     lattice parameter (alat)  =       1.8897  a.u.
     unit-cell volume          =    8076.3036 (a.u.)^3
     number of atoms/cell      =            4
     number of atomic types    =            2
     number of electrons       =         8.00
     number of Kohn-Sham states=           14
     kinetic-energy cutoff     =      29.3995  Ry
     charge density cutoff     =     293.9946  Ry
     scf convergence threshold =      7.3E-08
     mixing beta               =       0.0500
     number of iterations used =            8  plain     mixing
     Exchange-correlation= BEEF-VDW
                           (   1   4  43  14   2   0   0)

     celldm(1)=   1.889726  celldm(2)=   0.000000  celldm(3)=   0.000000
     celldm(4)=   0.000000  celldm(5)=   0.000000  celldm(6)=   0.000000

     crystal axes: (cart. coord. in units of alat)
               a(1) = (  10.813831   0.000000   0.000000 )  
               a(2) = (   0.000000  10.939731   0.000000 )  
               a(3) = (   0.000000   0.000000  10.116489 )  

     reciprocal axes: (cart. coord. in units 2 pi/alat)
               b(1) = (  0.092474  0.000000  0.000000 )  
               b(2) = (  0.000000  0.091410  0.000000 )  
               b(3) = (  0.000000  0.000000  0.098849 )  


     PseudoPot. # 1 for N  read from file:
     /storage/coda1/p-amedford6/0/shared/rich_project_chbe-medford/medford-share/data/pseudos_module/espresso/nninc/pbe/van/N.UPF
     MD5 check sum: 90d10febe142ad51ac9d5be1deb811c4
     Pseudo is Ultrasoft, Zval =  5.0
     Generated by new atomic code, or converted to UPF format
     Using radial grid of  729 points,  4 beta functions with: 
                l(1) =   0
                l(2) =   0
                l(3) =   1
                l(4) =   1
     Q(r) pseudized with  8 coefficients,  rinner =    0.800   0.800   0.800


     PseudoPot. # 2 for H  read from file:
     /storage/coda1/p-amedford6/0/shared/rich_project_chbe-medford/medford-share/data/pseudos_module/espresso/nninc/pbe/van/H.UPF
     MD5 check sum: b5ee9d7bfd3a09ee7748110bda690ff7
     Pseudo is Ultrasoft, Zval =  1.0
     Generated by new atomic code, or converted to UPF format
     Using radial grid of  615 points,  1 beta functions with: 
                l(1) =   0
     Q(r) pseudized with  8 coefficients,  rinner =    0.800

     atomic species   valence    mass     pseudopotential
        N1             5.00    14.00700     N ( 1.00)
        H1             1.00     1.00800     H ( 1.00)

     Starting magnetic structure 
     atomic species   magnetization
        N1           0.000
        H1           0.000

     No symmetry found



   Cartesian axes

     site n.     atom                  positions (alat units)
         1           N1  tau(   1) = (   5.4069155   5.2349107   5.2493376  )
         2           H1  tau(   2) = (   5.4069155   6.1733360   4.8651141  )
         3           H1  tau(   3) = (   6.2195905   4.7657421   4.8651146  )
         4           H1  tau(   4) = (   4.5942405   4.7657421   4.8751146  )

     number of k points=    10  Fermi-Dirac smearing, width (Ry)=  0.0073
                       cart. coord. in units 2pi/alat
        k(    1) = (   0.0000000   0.0000000   0.0000000), wk =   0.0625000
        k(    2) = (   0.0000000   0.0228525   0.0000000), wk =   0.1250000
        k(    3) = (   0.0000000  -0.0457050   0.0000000), wk =   0.0625000
        k(    4) = (   0.0231185   0.0000000   0.0000000), wk =   0.1250000
        k(    5) = (   0.0231185   0.0228525   0.0000000), wk =   0.1250000
        k(    6) = (   0.0231185  -0.0457050   0.0000000), wk =   0.1250000
        k(    7) = (   0.0231185  -0.0228525   0.0000000), wk =   0.1250000
        k(    8) = (  -0.0462371   0.0000000   0.0000000), wk =   0.0625000
        k(    9) = (  -0.0462371   0.0228525   0.0000000), wk =   0.1250000
        k(   10) = (  -0.0462371  -0.0457050   0.0000000), wk =   0.0625000

     Dense  grid:   687459 G-vectors     FFT dimensions: ( 120, 120, 108)

     Smooth grid:   173821 G-vectors     FFT dimensions: (  72,  72,  72)

     Estimated max dynamical RAM per process >      83.36 MB

     Estimated total dynamical RAM >       1.30 GB
     Generating pointlists ...
     new r_m :   0.4167 (alat units)  0.7875 (a.u.) for type    1
     new r_m :   0.4167 (alat units)  0.7875 (a.u.) for type    2
     Cannot read rho : file not found

     Initial potential from superposition of free atoms

     starting charge    7.99996, renormalised to    8.00000

     negative rho (up, down):  2.349E-03 2.349E-03


     %%%%%%%%%%%%%%%%%%%%%%%%%%%%%%%%%%%%%%%%%%%%%%%%%%%%%%%%%%%%%%%%%%%%%%%%
     %                                                                      %
     % You are using vdW-DF, which was implemented by the Thonhauser group. %
     % Please cite the following two papers that made this development      %
     % possible and the two reviews that describe the various versions:     %
     %                                                                      %
     %   T. Thonhauser et al., PRL 115, 136402 (2015).                      %
     %   T. Thonhauser et al., PRB 76, 125112 (2007).                       %
     %   K. Berland et al., Rep. Prog. Phys. 78, 066501 (2015).             %
     %   D.C. Langreth et al., J. Phys.: Condens. Matter 21, 084203 (2009). %
     %                                                                      %
     %                                                                      %
     % If you are calculating the stress with vdW-DF, please also cite:     %
     %                                                                      %
     %   R. Sabatini et al., J. Phys.: Condens. Matter 24, 424209 (2012).   %
     %                                                                      %
     %%%%%%%%%%%%%%%%%%%%%%%%%%%%%%%%%%%%%%%%%%%%%%%%%%%%%%%%%%%%%%%%%%%%%%%%


 
     Adding external electric field

     Computed dipole along edir(3) : 
        Dipole               -0.0000 Ry au,         -0.0001 Debye
        Dipole field         -0.0000 Ry au, 
 
        Potential amp.        0.0000 Ry
        Total length         18.6395 bohr
 
 
     Adding external electric field

     Computed dipole along edir(3) : 
        Dipole               -0.0000 Ry au,         -0.0001 Debye
        Dipole field         -0.0000 Ry au, 
 
        Potential amp.        0.0000 Ry
        Total length         18.6395 bohr
 
     Starting wfcs are    7 atomic +    7 random wfcs
  @ DRIVER MODE: Message from server: STATUS
  @ DRIVER MODE: Message from server: POSDATA
  @ DRIVER MODE: Reading and sharing cell 
  @ DRIVER MODE: Reading and sharing positions 
  @ DRIVER MODE: Received positions 

     total cpu time spent up to now is        9.9 secs

     Self-consistent Calculation

     iteration #  1     ecut=    29.40 Ry     beta= 0.05
     Davidson diagonalization with overlap
     c_bands:  5 eigenvalues not converged
     c_bands:  1 eigenvalues not converged
     c_bands:  1 eigenvalues not converged
     c_bands:  1 eigenvalues not converged
     c_bands:  1 eigenvalues not converged
     c_bands:  1 eigenvalues not converged
     c_bands:  1 eigenvalues not converged
     c_bands:  1 eigenvalues not converged
     c_bands:  5 eigenvalues not converged
     c_bands:  1 eigenvalues not converged
     c_bands:  1 eigenvalues not converged
     c_bands:  1 eigenvalues not converged
     c_bands:  1 eigenvalues not converged
     c_bands:  1 eigenvalues not converged
     c_bands:  1 eigenvalues not converged
     ethr =  1.00E-05,  avg # of iterations = 37.0

     negative rho (up, down):  1.910E-03 1.910E-03
 
     Adding external electric field

     Computed dipole along edir(3) : 
        Dipole               -0.0482 Ry au,         -0.1224 Debye
        Dipole field         -0.0001 Ry au, 
 
        Potential amp.        0.0028 Ry
        Total length         18.6395 bohr
 
 
     Adding external electric field

     Computed dipole along edir(3) : 
        Dipole               -0.0482 Ry au,         -0.1224 Debye
        Dipole field         -0.0001 Ry au, 
 
        Potential amp.        0.0028 Ry
        Total length         18.6395 bohr
 

     total cpu time spent up to now is       17.2 secs

     total energy              =     -23.95960706 Ry
     estimated scf accuracy    <       0.73983793 Ry

     total magnetization       =    -0.00 Bohr mag/cell
     absolute magnetization    =     0.00 Bohr mag/cell

     iteration #  2     ecut=    29.40 Ry     beta= 0.05
     Davidson diagonalization with overlap
     ethr =  9.25E-03,  avg # of iterations =  1.0

     negative rho (up, down):  3.007E-03 3.007E-03
 
     Adding external electric field

     Computed dipole along edir(3) : 
        Dipole               -0.4069 Ry au,         -1.0341 Debye
        Dipole field         -0.0006 Ry au, 
 
        Potential amp.        0.0236 Ry
        Total length         18.6395 bohr
 
 
     Adding external electric field

     Computed dipole along edir(3) : 
        Dipole               -0.4069 Ry au,         -1.0341 Debye
        Dipole field         -0.0006 Ry au, 
 
        Potential amp.        0.0236 Ry
        Total length         18.6395 bohr
 

     total cpu time spent up to now is       18.5 secs

     total energy              =     -23.66425223 Ry
     estimated scf accuracy    <       0.58213193 Ry

     total magnetization       =     0.00 Bohr mag/cell
     absolute magnetization    =     0.00 Bohr mag/cell

     iteration #  3     ecut=    29.40 Ry     beta= 0.05
     Davidson diagonalization with overlap
     ethr =  7.28E-03,  avg # of iterations =  2.0

     negative rho (up, down):  2.496E-03 2.496E-03
 
     Adding external electric field

     Computed dipole along edir(3) : 
        Dipole               -0.3525 Ry au,         -0.8958 Debye
        Dipole field         -0.0005 Ry au, 
 
        Potential amp.        0.0204 Ry
        Total length         18.6395 bohr
 
 
     Adding external electric field

     Computed dipole along edir(3) : 
        Dipole               -0.3525 Ry au,         -0.8958 Debye
        Dipole field         -0.0005 Ry au, 
 
        Potential amp.        0.0204 Ry
        Total length         18.6395 bohr
 

     total cpu time spent up to now is       20.0 secs

     total energy              =     -23.77750230 Ry
     estimated scf accuracy    <       0.03810058 Ry

     total magnetization       =     0.00 Bohr mag/cell
     absolute magnetization    =     0.00 Bohr mag/cell

     iteration #  4     ecut=    29.40 Ry     beta= 0.05
     Davidson diagonalization with overlap
     ethr =  4.76E-04,  avg # of iterations =  2.0

     negative rho (up, down):  7.179E-03 7.178E-03
 
     Adding external electric field

     Computed dipole along edir(3) : 
        Dipole               -0.5799 Ry au,         -1.4739 Debye
        Dipole field         -0.0009 Ry au, 
 
        Potential amp.        0.0336 Ry
        Total length         18.6395 bohr
 
 
     Adding external electric field

     Computed dipole along edir(3) : 
        Dipole               -0.5799 Ry au,         -1.4739 Debye
        Dipole field         -0.0009 Ry au, 
 
        Potential amp.        0.0336 Ry
        Total length         18.6395 bohr
 

     total cpu time spent up to now is       21.4 secs

     total energy              =     -23.76671654 Ry
     estimated scf accuracy    <       0.04802734 Ry

     total magnetization       =     0.00 Bohr mag/cell
     absolute magnetization    =     0.00 Bohr mag/cell

     iteration #  5     ecut=    29.40 Ry     beta= 0.05
     Davidson diagonalization with overlap
     ethr =  4.76E-04,  avg # of iterations =  4.0

     negative rho (up, down):  5.687E-03 5.687E-03
 
     Adding external electric field

     Computed dipole along edir(3) : 
        Dipole               -0.5613 Ry au,         -1.4268 Debye
        Dipole field         -0.0009 Ry au, 
 
        Potential amp.        0.0326 Ry
        Total length         18.6395 bohr
 
 
     Adding external electric field

     Computed dipole along edir(3) : 
        Dipole               -0.5613 Ry au,         -1.4268 Debye
        Dipole field         -0.0009 Ry au, 
 
        Potential amp.        0.0326 Ry
        Total length         18.6395 bohr
 

     total cpu time spent up to now is       23.0 secs

     total energy              =     -23.76772748 Ry
     estimated scf accuracy    <       0.00968069 Ry

     total magnetization       =    -0.00 Bohr mag/cell
     absolute magnetization    =     0.00 Bohr mag/cell

     iteration #  6     ecut=    29.40 Ry     beta= 0.05
     Davidson diagonalization with overlap
     ethr =  1.21E-04,  avg # of iterations =  3.8

     negative rho (up, down):  5.328E-03 5.328E-03
 
     Adding external electric field

     Computed dipole along edir(3) : 
        Dipole               -0.5608 Ry au,         -1.4254 Debye
        Dipole field         -0.0009 Ry au, 
 
        Potential amp.        0.0325 Ry
        Total length         18.6395 bohr
 
 
     Adding external electric field

     Computed dipole along edir(3) : 
        Dipole               -0.5608 Ry au,         -1.4254 Debye
        Dipole field         -0.0009 Ry au, 
 
        Potential amp.        0.0325 Ry
        Total length         18.6395 bohr
 

     total cpu time spent up to now is       24.6 secs

     total energy              =     -23.76848542 Ry
     estimated scf accuracy    <       0.00081853 Ry

     total magnetization       =    -0.00 Bohr mag/cell
     absolute magnetization    =     0.00 Bohr mag/cell

     iteration #  7     ecut=    29.40 Ry     beta= 0.05
     Davidson diagonalization with overlap
     ethr =  1.02E-05,  avg # of iterations = 11.7

     negative rho (up, down):  5.084E-03 5.083E-03
 
     Adding external electric field

     Computed dipole along edir(3) : 
        Dipole               -0.5639 Ry au,         -1.4333 Debye
        Dipole field         -0.0009 Ry au, 
 
        Potential amp.        0.0327 Ry
        Total length         18.6395 bohr
 
 
     Adding external electric field

     Computed dipole along edir(3) : 
        Dipole               -0.5639 Ry au,         -1.4333 Debye
        Dipole field         -0.0009 Ry au, 
 
        Potential amp.        0.0327 Ry
        Total length         18.6395 bohr
 

     total cpu time spent up to now is       53.1 secs

     total energy              =     -23.76846065 Ry
     estimated scf accuracy    <       0.00071446 Ry

     total magnetization       =    -0.00 Bohr mag/cell
     absolute magnetization    =     0.00 Bohr mag/cell

     iteration #  8     ecut=    29.40 Ry     beta= 0.05
     Davidson diagonalization with overlap
     ethr =  8.93E-06,  avg # of iterations =  1.0

     negative rho (up, down):  4.858E-03 4.857E-03
 
     Adding external electric field

     Computed dipole along edir(3) : 
        Dipole               -0.5708 Ry au,         -1.4507 Debye
        Dipole field         -0.0009 Ry au, 
 
        Potential amp.        0.0331 Ry
        Total length         18.6395 bohr
 
 
     Adding external electric field

     Computed dipole along edir(3) : 
        Dipole               -0.5708 Ry au,         -1.4507 Debye
        Dipole field         -0.0009 Ry au, 
 
        Potential amp.        0.0331 Ry
        Total length         18.6395 bohr
 

     total cpu time spent up to now is       63.8 secs

     total energy              =     -23.76815839 Ry
     estimated scf accuracy    <       0.00065630 Ry

     total magnetization       =    -0.00 Bohr mag/cell
     absolute magnetization    =     0.00 Bohr mag/cell

     iteration #  9     ecut=    29.40 Ry     beta= 0.05
     Davidson diagonalization with overlap
     ethr =  8.20E-06,  avg # of iterations =  1.0

     negative rho (up, down):  4.610E-03 4.610E-03
 
     Adding external electric field

     Computed dipole along edir(3) : 
        Dipole               -0.5725 Ry au,         -1.4550 Debye
        Dipole field         -0.0009 Ry au, 
 
        Potential amp.        0.0332 Ry
        Total length         18.6395 bohr
 
 
     Adding external electric field

     Computed dipole along edir(3) : 
        Dipole               -0.5725 Ry au,         -1.4550 Debye
        Dipole field         -0.0009 Ry au, 
 
        Potential amp.        0.0332 Ry
        Total length         18.6395 bohr
 

     total cpu time spent up to now is       65.6 secs

     total energy              =     -23.76811362 Ry
     estimated scf accuracy    <       0.00011741 Ry

     total magnetization       =     0.00 Bohr mag/cell
     absolute magnetization    =     0.00 Bohr mag/cell

     iteration # 10     ecut=    29.40 Ry     beta= 0.05
     Davidson diagonalization with overlap
     c_bands:  1 eigenvalues not converged
     ethr =  1.47E-06,  avg # of iterations =  6.2

     negative rho (up, down):  4.385E-03 4.385E-03
 
     Adding external electric field

     Computed dipole along edir(3) : 
        Dipole               -0.5721 Ry au,         -1.4542 Debye
        Dipole field         -0.0009 Ry au, 
 
        Potential amp.        0.0332 Ry
        Total length         18.6395 bohr
 
 
     Adding external electric field

     Computed dipole along edir(3) : 
        Dipole               -0.5721 Ry au,         -1.4542 Debye
        Dipole field         -0.0009 Ry au, 
 
        Potential amp.        0.0332 Ry
        Total length         18.6395 bohr
 

     total cpu time spent up to now is       67.3 secs

     total energy              =     -23.76809795 Ry
     estimated scf accuracy    <       0.00001822 Ry

     total magnetization       =     0.00 Bohr mag/cell
     absolute magnetization    =     0.00 Bohr mag/cell

     iteration # 11     ecut=    29.40 Ry     beta= 0.05
     Davidson diagonalization with overlap
     ethr =  2.28E-07,  avg # of iterations =  1.1

     negative rho (up, down):  4.216E-03 4.216E-03
 
     Adding external electric field

     Computed dipole along edir(3) : 
        Dipole               -0.5711 Ry au,         -1.4516 Debye
        Dipole field         -0.0009 Ry au, 
 
        Potential amp.        0.0331 Ry
        Total length         18.6395 bohr
 
 
     Adding external electric field

     Computed dipole along edir(3) : 
        Dipole               -0.5711 Ry au,         -1.4516 Debye
        Dipole field         -0.0009 Ry au, 
 
        Potential amp.        0.0331 Ry
        Total length         18.6395 bohr
 

     total cpu time spent up to now is       68.7 secs

     total energy              =     -23.76808190 Ry
     estimated scf accuracy    <       0.00000685 Ry

     total magnetization       =     0.00 Bohr mag/cell
     absolute magnetization    =     0.00 Bohr mag/cell

     iteration # 12     ecut=    29.40 Ry     beta= 0.05
     Davidson diagonalization with overlap
     ethr =  8.56E-08,  avg # of iterations =  1.1

     negative rho (up, down):  4.051E-03 4.051E-03
 
     Adding external electric field

     Computed dipole along edir(3) : 
        Dipole               -0.5701 Ry au,         -1.4492 Debye
        Dipole field         -0.0009 Ry au, 
 
        Potential amp.        0.0331 Ry
        Total length         18.6395 bohr
 
 
     Adding external electric field

     Computed dipole along edir(3) : 
        Dipole               -0.5701 Ry au,         -1.4492 Debye
        Dipole field         -0.0009 Ry au, 
 
        Potential amp.        0.0331 Ry
        Total length         18.6395 bohr
 

     total cpu time spent up to now is       70.0 secs

     total energy              =     -23.76806329 Ry
     estimated scf accuracy    <       0.00000405 Ry

     total magnetization       =     0.00 Bohr mag/cell
     absolute magnetization    =     0.00 Bohr mag/cell

     iteration # 13     ecut=    29.40 Ry     beta= 0.05
     Davidson diagonalization with overlap
     ethr =  5.07E-08,  avg # of iterations =  2.0

     negative rho (up, down):  3.916E-03 3.916E-03
 
     Adding external electric field

     Computed dipole along edir(3) : 
        Dipole               -0.5694 Ry au,         -1.4472 Debye
        Dipole field         -0.0009 Ry au, 
 
        Potential amp.        0.0330 Ry
        Total length         18.6395 bohr
 
 
     Adding external electric field

     Computed dipole along edir(3) : 
        Dipole               -0.5694 Ry au,         -1.4472 Debye
        Dipole field         -0.0009 Ry au, 
 
        Potential amp.        0.0330 Ry
        Total length         18.6395 bohr
 

     total cpu time spent up to now is       71.5 secs

     total energy              =     -23.76804734 Ry
     estimated scf accuracy    <       0.00000674 Ry

     total magnetization       =     0.00 Bohr mag/cell
     absolute magnetization    =     0.00 Bohr mag/cell

     iteration # 14     ecut=    29.40 Ry     beta= 0.05
     Davidson diagonalization with overlap
     ethr =  5.07E-08,  avg # of iterations =  1.0

     negative rho (up, down):  3.801E-03 3.801E-03
 
     Adding external electric field

     Computed dipole along edir(3) : 
        Dipole               -0.5709 Ry au,         -1.4512 Debye
        Dipole field         -0.0009 Ry au, 
 
        Potential amp.        0.0331 Ry
        Total length         18.6395 bohr
 
 
     Adding external electric field

     Computed dipole along edir(3) : 
        Dipole               -0.5709 Ry au,         -1.4512 Debye
        Dipole field         -0.0009 Ry au, 
 
        Potential amp.        0.0331 Ry
        Total length         18.6395 bohr
 

     total cpu time spent up to now is       72.8 secs

     total energy              =     -23.76802373 Ry
     estimated scf accuracy    <       0.00001216 Ry

     total magnetization       =     0.00 Bohr mag/cell
     absolute magnetization    =     0.00 Bohr mag/cell

     iteration # 15     ecut=    29.40 Ry     beta= 0.05
     Davidson diagonalization with overlap
     ethr =  5.07E-08,  avg # of iterations =  2.0

     negative rho (up, down):  3.716E-03 3.716E-03
 
     Adding external electric field

     Computed dipole along edir(3) : 
        Dipole               -0.5719 Ry au,         -1.4536 Debye
        Dipole field         -0.0009 Ry au, 
 
        Potential amp.        0.0332 Ry
        Total length         18.6395 bohr
 
 
     Adding external electric field

     Computed dipole along edir(3) : 
        Dipole               -0.5719 Ry au,         -1.4536 Debye
        Dipole field         -0.0009 Ry au, 
 
        Potential amp.        0.0332 Ry
        Total length         18.6395 bohr
 

     total cpu time spent up to now is       74.3 secs

     total energy              =     -23.76801068 Ry
     estimated scf accuracy    <       0.00000056 Ry

     total magnetization       =     0.00 Bohr mag/cell
     absolute magnetization    =     0.00 Bohr mag/cell

     iteration # 16     ecut=    29.40 Ry     beta= 0.05
     Davidson diagonalization with overlap
     ethr =  6.98E-09,  avg # of iterations =  3.0

     negative rho (up, down):  3.657E-03 3.657E-03
 
     Adding external electric field

     Computed dipole along edir(3) : 
        Dipole               -0.5718 Ry au,         -1.4533 Debye
        Dipole field         -0.0009 Ry au, 
 
        Potential amp.        0.0332 Ry
        Total length         18.6395 bohr
 
 
     Adding external electric field

     Computed dipole along edir(3) : 
        Dipole               -0.5718 Ry au,         -1.4533 Debye
        Dipole field         -0.0009 Ry au, 
 
        Potential amp.        0.0332 Ry
        Total length         18.6395 bohr
 

     total cpu time spent up to now is       75.8 secs

     total energy              =     -23.76800097 Ry
     estimated scf accuracy    <       0.00000114 Ry

     total magnetization       =     0.00 Bohr mag/cell
     absolute magnetization    =     0.00 Bohr mag/cell

     iteration # 17     ecut=    29.40 Ry     beta= 0.05
     Davidson diagonalization with overlap
     ethr =  6.98E-09,  avg # of iterations =  1.0

     negative rho (up, down):  3.617E-03 3.617E-03
 
     Adding external electric field

     Computed dipole along edir(3) : 
        Dipole               -0.5713 Ry au,         -1.4521 Debye
        Dipole field         -0.0009 Ry au, 
 
        Potential amp.        0.0331 Ry
        Total length         18.6395 bohr
 
 
     Adding external electric field

     Computed dipole along edir(3) : 
        Dipole               -0.5713 Ry au,         -1.4521 Debye
        Dipole field         -0.0009 Ry au, 
 
        Potential amp.        0.0331 Ry
        Total length         18.6395 bohr
 

     total cpu time spent up to now is       77.1 secs

     total energy              =     -23.76799435 Ry
     estimated scf accuracy    <       0.00000064 Ry

     total magnetization       =     0.00 Bohr mag/cell
     absolute magnetization    =     0.00 Bohr mag/cell

     iteration # 18     ecut=    29.40 Ry     beta= 0.05
     Davidson diagonalization with overlap
     ethr =  6.98E-09,  avg # of iterations =  2.0

     negative rho (up, down):  5.734E-03 5.734E-03
 
     Adding external electric field

     Computed dipole along edir(3) : 
        Dipole               -0.5711 Ry au,         -1.4516 Debye
        Dipole field         -0.0009 Ry au, 
 
        Potential amp.        0.0331 Ry
        Total length         18.6395 bohr
 
 
     Adding external electric field

     Computed dipole along edir(3) : 
        Dipole               -0.5711 Ry au,         -1.4516 Debye
        Dipole field         -0.0009 Ry au, 
 
        Potential amp.        0.0331 Ry
        Total length         18.6395 bohr
 
 
     Magnetic moment per site  (integrated on atomic sphere of radius R)
     atom   1 (R=0.417)  charge=  1.3199  magn=  0.0000
     atom   2 (R=0.417)  charge=  0.4500  magn= -0.0000
     atom   3 (R=0.417)  charge=  0.4500  magn= -0.0000
     atom   4 (R=0.417)  charge=  0.4529  magn= -0.0000

     total cpu time spent up to now is       78.6 secs

     End of self-consistent calculation

 ------ SPIN UP ------------


          k = 0.0000 0.0000 0.0000 ( 21729 PWs)   bands (ev):

   -21.5051 -11.5751 -11.5392  -6.3637  -1.2281   0.0692   0.2956   0.3220
     0.5951   0.6577   0.8533   1.4298   1.5171   1.6360

          k = 0.0000 0.0229 0.0000 ( 21780 PWs)   bands (ev):

   -21.5051 -11.5752 -11.5393  -6.3637  -1.1922  -0.1894   0.3602   0.3691
     0.7196   0.8566   0.9732   1.1176   1.2416   1.4023

          k = 0.0000-0.0457 0.0000 ( 21776 PWs)   bands (ev):

   -21.5051 -11.5753 -11.5393  -6.3637  -1.1489  -0.3597   0.4347   0.4690
     0.8011   0.8345   0.9256   1.0459   1.1393   1.2080

          k = 0.0231 0.0000 0.0000 ( 21745 PWs)   bands (ev):

   -21.5051 -11.5752 -11.5392  -6.3637  -1.1903  -0.1807   0.3232   0.3804
     0.7207   0.8574   0.9544   1.1379   1.2524   1.4179

          k = 0.0231 0.0229 0.0000 ( 21760 PWs)   bands (ev):

   -21.5051 -11.5752 -11.5392  -6.3637  -1.1566  -0.1769  -0.0025   0.5932
     0.6875   0.8195   1.0959   1.1926   1.4383   1.4561

          k = 0.0231-0.0457 0.0000 ( 21760 PWs)   bands (ev):

   -21.5051 -11.5752 -11.5392  -6.3637  -1.1166  -0.2880   0.0316   0.3643
     0.8124   0.9397   1.1238   1.2141   1.2688   1.5882

          k = 0.0231-0.0229 0.0000 ( 21760 PWs)   bands (ev):

   -21.5051 -11.5752 -11.5392  -6.3637  -1.1566  -0.1771  -0.0023   0.5932
     0.6875   0.8192   1.0972   1.1927   1.4374   1.4553

          k =-0.0462 0.0000 0.0000 ( 21724 PWs)   bands (ev):

   -21.5051 -11.5751 -11.5392  -6.3637  -1.1443  -0.3555   0.4091   0.4779
     0.7699   0.8400   0.9152   1.0499   1.1442   1.2096

          k =-0.0462 0.0229 0.0000 ( 21744 PWs)   bands (ev):

   -21.5051 -11.5752 -11.5392  -6.3637  -1.1140  -0.2860   0.0295   0.3555
     0.8105   0.9400   1.1329   1.2210   1.2440   1.6070

          k =-0.0462-0.0457 0.0000 ( 21720 PWs)   bands (ev):

   -21.5051 -11.5751 -11.5392  -6.3637  -1.0790  -0.1491  -0.1431   0.0740
     0.9466   1.0898   1.2424   1.2512   1.3802   1.3820

 ------ SPIN DOWN ----------


          k = 0.0000 0.0000 0.0000 ( 21729 PWs)   bands (ev):

   -21.5050 -11.5751 -11.5392  -6.3637  -1.2281   0.0692   0.2957   0.3220
     0.5951   0.6577   0.8533   1.4298   1.5171   1.6361

          k = 0.0000 0.0229 0.0000 ( 21780 PWs)   bands (ev):

   -21.5051 -11.5752 -11.5393  -6.3637  -1.1922  -0.1894   0.3602   0.3691
     0.7196   0.8566   0.9732   1.1176   1.2416   1.4023

          k = 0.0000-0.0457 0.0000 ( 21776 PWs)   bands (ev):

   -21.5051 -11.5752 -11.5393  -6.3636  -1.1489  -0.3597   0.4348   0.4690
     0.8011   0.8346   0.9256   1.0459   1.1392   1.2079

          k = 0.0231 0.0000 0.0000 ( 21745 PWs)   bands (ev):

   -21.5050 -11.5752 -11.5392  -6.3637  -1.1903  -0.1806   0.3232   0.3804
     0.7207   0.8574   0.9544   1.1379   1.2524   1.4177

          k = 0.0231 0.0229 0.0000 ( 21760 PWs)   bands (ev):

   -21.5051 -11.5752 -11.5392  -6.3637  -1.1566  -0.1769  -0.0025   0.5932
     0.6875   0.8195   1.0960   1.1926   1.4381   1.4558

          k = 0.0231-0.0457 0.0000 ( 21760 PWs)   bands (ev):

   -21.5051 -11.5752 -11.5392  -6.3637  -1.1166  -0.2880   0.0316   0.3643
     0.8124   0.9397   1.1237   1.2141   1.2688   1.5876

          k = 0.0231-0.0229 0.0000 ( 21760 PWs)   bands (ev):

   -21.5051 -11.5752 -11.5392  -6.3637  -1.1566  -0.1771  -0.0023   0.5932
     0.6875   0.8192   1.0972   1.1928   1.4378   1.4560

          k =-0.0462 0.0000 0.0000 ( 21724 PWs)   bands (ev):

   -21.5050 -11.5751 -11.5392  -6.3636  -1.1443  -0.3555   0.4091   0.4779
     0.7699   0.8400   0.9152   1.0499   1.1443   1.2096

          k =-0.0462 0.0229 0.0000 ( 21744 PWs)   bands (ev):

   -21.5051 -11.5751 -11.5392  -6.3637  -1.1140  -0.2859   0.0296   0.3555
     0.8106   0.9400   1.1328   1.2211   1.2439   1.6127

          k =-0.0462-0.0457 0.0000 ( 21720 PWs)   bands (ev):

   -21.5051 -11.5750 -11.5392  -6.3636  -1.0790  -0.1491  -0.1431   0.0740
     0.9466   1.0898   1.2424   1.2511   1.3805   1.3820

     the Fermi energy is    -3.6492 ev

!    total energy              =     -23.76790613 Ry
     estimated scf accuracy    <       0.00000002 Ry
     smearing contrib. (-TS)   =      -0.00000000 Ry
     internal energy E=F+TS    =     -23.76790613 Ry

     The total energy is F=E-TS. E is the sum of the following terms:
     one-electron contribution =     -51.91101136 Ry
     hartree contribution      =      27.07733775 Ry
     xc contribution           =      -7.56905321 Ry
     ewald contribution        =       8.63431319 Ry
     electric field correction =       0.00050750 Ry

     total magnetization       =     0.00 Bohr mag/cell
     absolute magnetization    =     0.00 Bohr mag/cell

     convergence has been achieved in  18 iterations

     Forces acting on atoms (cartesian axes, Ry/au):

     atom    1 type  1   force =     0.00559416    0.00328378    0.00128782
     atom    2 type  2   force =    -0.00051971    0.00064700    0.00044967
     atom    3 type  2   force =     0.00034275   -0.00080012    0.00041908
     atom    4 type  2   force =    -0.00541720   -0.00313066   -0.00215658

     Total force =     0.009453     Total SCF correction =     0.000389
  @ DRIVER MODE: Message from server: STATUS
  @ DRIVER MODE: Message from server: GETFORCE
  @ DRIVER MODE: Returning v,forces,stress,ensemble 

     Writing output data file ./calc.save/
  @ DRIVER MODE: Message from server: EXIT
  @ DRIVE MODE: Exiting  
 
     init_run     :      6.07s CPU      6.15s WALL (       1 calls)
     electrons    :     62.91s CPU     68.65s WALL (       1 calls)
     forces       :      0.20s CPU      0.20s WALL (       1 calls)

     Called by init_run:
     wfcinit      :      0.26s CPU      0.26s WALL (       1 calls)
     potinit      :      5.51s CPU      5.57s WALL (       1 calls)
     hinit0       :      0.08s CPU      0.09s WALL (       1 calls)

     Called by electrons:
     c_bands      :     38.45s CPU     38.96s WALL (      18 calls)
     sum_band     :      9.48s CPU     12.01s WALL (      18 calls)
     v_of_rho     :     16.65s CPU     18.01s WALL (      19 calls)
     newd         :      0.73s CPU      0.90s WALL (      19 calls)
     mix_rho      :      2.34s CPU      3.38s WALL (      18 calls)
     vdW_kernel   :      4.56s CPU      4.57s WALL (       1 calls)

     Called by c_bands:
     init_us_2    :      0.14s CPU      0.15s WALL (     760 calls)
     cegterg      :     38.19s CPU     38.61s WALL (     378 calls)

     Called by *egterg:
     cdiaghg      :     11.67s CPU     11.72s WALL (    2018 calls)
     h_psi        :     15.32s CPU     15.66s WALL (    2056 calls)
     s_psi        :      0.07s CPU      0.08s WALL (    2056 calls)
     g_psi        :      0.06s CPU      0.07s WALL (    1658 calls)

     Called by h_psi:
     h_psi:calbec :      0.72s CPU      0.74s WALL (    2056 calls)
     vloc_psi     :     14.45s CPU     14.76s WALL (    2056 calls)
     add_vuspsi   :      0.09s CPU      0.09s WALL (    2056 calls)

     General routines
     calbec       :      2.11s CPU      2.66s WALL (    2496 calls)
     fft          :      7.63s CPU      8.30s WALL (    1688 calls)
     ffts         :      0.10s CPU      0.12s WALL (      74 calls)
     fftw         :     20.49s CPU     22.70s WALL (   39954 calls)
     interpolate  :      0.24s CPU      0.27s WALL (      38 calls)
     davcio       :      0.00s CPU      0.02s WALL (      20 calls)
 
     Parallel routines
 
     PWSCF        :   1m12.98s CPU   1m18.91s WALL

 
   This run was terminated on:  17:14:31  19Jul2021            

=------------------------------------------------------------------------------=
   JOB DONE.
=------------------------------------------------------------------------------=
