
     Program PWSCF v.6.7GPU starts on 18Oct2021 at 15:34:51 

     This program is part of the open-source Quantum ESPRESSO suite
     for quantum simulation of materials; please cite
         "P. Giannozzi et al., J. Phys.:Condens. Matter 21 395502 (2009);
         "P. Giannozzi et al., J. Phys.:Condens. Matter 29 465901 (2017);
         "P. Giannozzi et al., J. Chem. Phys. 152 154105 (2020);
          URL http://www.quantum-espresso.org", 
     in publications or presentations arising from this work. More details at
     http://www.quantum-espresso.org/quote

     Parallel version (MPI), running on     8 processors

     MPI processes distributed on     1 nodes
     R & G space division:  proc/nbgrp/npool/nimage =       8
     Reading input from /storage/home/hcoda1/3/ntian30/research/carbon/CxH_vib/Thiel_calc/ads_slab/NH2NH3H_perslab/out_0009/pw.inp
Warning: card &CELL ignored
Warning: card   CELL_DYNAMICS='IPI', ignored
Warning: card / ignored

     Current dimensions of program PWSCF are:
     Max number of different atomic species (ntypx) = 10
     Max number of k-points (npk) =  40000
     Max angular momentum in pseudopotentials (lmaxx) =  3
     Presently no symmetry can be used with electric field

     Message from routine cell_base_init:
     DEPRECATED: use true lattice parameter, not A to a.u. conversion factor

     **************************************************************************
     Initializing libbeef V0.1.2 with the BEEF-vdW functional.
     Citation: Wellendorff et al., PRB 85, 235149 (2012).
     **************************************************************************


     IMPORTANT: XC functional enforced from input :
     Exchange-correlation= BEEF-VDW
                           (   1   4  43  14   2   0   0)
     Any further DFT definition will be discarded
     Please, verify this is what you really want


     Subspace diagonalization in iterative solution of the eigenvalue problem:
     one sub-group per band group will be used
     scalapack distributed-memory algorithm (size of sub-group:  2*  2 procs)

  @ DRIVER MODE: Connecting to 
 qe_1139763_3255138.sched-torque.pace.gatech.edufulhbyo4_scratch
  using UNIX socket
  @ DRIVER MODE: Message from server: STATUS
  @ DRIVER MODE: Message from server: INIT
  @ DRIVER MODE: Receiving replica           0          -1
  @ DRIVER MODE: Receiving encoded integer          25
  @ DRIVER MODE:  SCF:  T  FORCE:  T  STRESS:  F  VC:  F  ENSEMBLE:  F
  @ DRIVER MODE:  SCF:  T  FORCE:  T  STRESS:  F  VC:  F  ENSEMBLE:  F
 
     Parallelization info
     --------------------
     sticks:   dense  smooth     PW     G-vecs:    dense   smooth      PW
     Min         614     246     69               106272    26887    3981
     Max         615     248     70               106275    26893    3990
     Sum        4915    1977    553               850181   215109   31863
 
     Using Slab Decomposition
 


     bravais-lattice index     =            0
     lattice parameter (alat)  =       1.8897  a.u.
     unit-cell volume          =    9988.4706 (a.u.)^3
     number of atoms/cell      =           61
     number of atomic types    =            4
     number of electrons       =       442.00
     number of Kohn-Sham states=          231
     kinetic-energy cutoff     =      29.3995  Ry
     charge density cutoff     =     293.9946  Ry
     scf convergence threshold =      7.3E-08
     mixing beta               =       0.0500
     number of iterations used =            8  plain     mixing
     Exchange-correlation= BEEF-VDW
                           (   1   4  43  14   2   0   0)

     celldm(1)=   1.889726  celldm(2)=   0.000000  celldm(3)=   0.000000
     celldm(4)=   0.000000  celldm(5)=   0.000000  celldm(6)=   0.000000

     crystal axes: (cart. coord. in units of alat)
               a(1) = (   6.579727   0.000000   0.000000 )  
               a(2) = (  -0.001163   8.942395   0.000000 )  
               a(3) = (   0.000000   0.000000  25.155947 )  

     reciprocal axes: (cart. coord. in units 2 pi/alat)
               b(1) = (  0.151982  0.000020  0.000000 )  
               b(2) = (  0.000000  0.111827  0.000000 )  
               b(3) = (  0.000000  0.000000  0.039752 )  


     PseudoPot. # 1 for O  read from file:
     /storage/coda1/p-amedford6/0/shared/rich_project_chbe-medford/medford-share/data/pseudos_module/espresso/nninc/pbe/van/O.UPF
     MD5 check sum: 78c19812648e8988a0fe644b0f25305e
     Pseudo is Ultrasoft, Zval =  6.0
     Generated by new atomic code, or converted to UPF format
     Using radial grid of  737 points,  4 beta functions with: 
                l(1) =   0
                l(2) =   0
                l(3) =   1
                l(4) =   1
     Q(r) pseudized with  8 coefficients,  rinner =    0.800   0.800   0.800


     PseudoPot. # 2 for Ti read from file:
     /storage/coda1/p-amedford6/0/shared/rich_project_chbe-medford/medford-share/data/pseudos_module/espresso/nninc/pbe/van/Ti.UPF
     MD5 check sum: 8e4df49b7f0d34bbd5052bf3f5ea0213
     Pseudo is Ultrasoft, Zval = 12.0
     Generated by new atomic code, or converted to UPF format
     Using radial grid of  851 points,  6 beta functions with: 
                l(1) =   0
                l(2) =   0
                l(3) =   1
                l(4) =   1
                l(5) =   2
                l(6) =   2
     Q(r) pseudized with  8 coefficients,  rinner =    1.000   1.000   1.000
                                                       1.000   1.000

     PseudoPot. # 3 for N  read from file:
     /storage/coda1/p-amedford6/0/shared/rich_project_chbe-medford/medford-share/data/pseudos_module/espresso/nninc/pbe/van/N.UPF
     MD5 check sum: 90d10febe142ad51ac9d5be1deb811c4
     Pseudo is Ultrasoft, Zval =  5.0
     Generated by new atomic code, or converted to UPF format
     Using radial grid of  729 points,  4 beta functions with: 
                l(1) =   0
                l(2) =   0
                l(3) =   1
                l(4) =   1
     Q(r) pseudized with  8 coefficients,  rinner =    0.800   0.800   0.800


     PseudoPot. # 4 for H  read from file:
     /storage/coda1/p-amedford6/0/shared/rich_project_chbe-medford/medford-share/data/pseudos_module/espresso/nninc/pbe/van/H.UPF
     MD5 check sum: b5ee9d7bfd3a09ee7748110bda690ff7
     Pseudo is Ultrasoft, Zval =  1.0
     Generated by new atomic code, or converted to UPF format
     Using radial grid of  615 points,  1 beta functions with: 
                l(1) =   0
     Q(r) pseudized with  8 coefficients,  rinner =    0.800

     atomic species   valence    mass     pseudopotential
        O1             6.00    15.99900     O ( 1.00)
        Ti1           12.00    47.86700     Ti( 1.00)
        N1             5.00    14.00700     N ( 1.00)
        H1             1.00     1.00800     H ( 1.00)

     No symmetry found



   Cartesian axes

     site n.     atom                  positions (alat units)
         1           O1  tau(   1) = (   0.0007354   0.0005023  10.5931620  )
         2           O1  tau(   2) = (   3.2893251   8.9324977  13.8850595  )
         3           O1  tau(   3) = (   0.0000810   0.0519898  17.3357851  )
         4           O1  tau(   4) = (   0.0006271   0.0005054   7.9858123  )
         5           O1  tau(   5) = (   3.2891750   8.9291278  11.1853435  )
         6           O1  tau(   6) = (   0.0004222   0.0485762  14.6167438  )
         7           O1  tau(   7) = (   1.9868534   1.4903216   9.2879459  )
         8           O1  tau(   8) = (   5.2393499   1.5905449  12.5682489  )
         9           O1  tau(   9) = (   1.9991366   1.5492019  16.1124644  )
        10           Ti1 tau(  10) = (   0.0007404   1.4906270   9.2895810  )
        11           Ti1 tau(  11) = (   3.2902999   1.3249318  12.4520864  )
        12           Ti1 tau(  12) = (   0.0005939   1.3452645  15.7597600  )
        13           O1  tau(  13) = (   4.5942328   1.4918067   9.2879030  )
        14           O1  tau(  14) = (   1.3411764   1.5910169  12.5684512  )
        15           O1  tau(  15) = (   4.5798538   1.5480364  16.1129854  )
        16           Ti1 tau(  16) = (   3.2902859   2.9801868   9.2893338  )
        17           Ti1 tau(  17) = (   0.0006295   2.8174385  12.4372122  )
        18           Ti1 tau(  18) = (   3.2897038   2.9127836  15.6935398  )
        19           O1  tau(  19) = (   0.0003479   2.9813005  10.5931620  )
        20           O1  tau(  20) = (   3.2904107   2.9319293  13.8952334  )
        21           O1  tau(  21) = (   0.0002396   2.9813036   7.9858123  )
        22           O1  tau(  22) = (   3.2903884   2.9732875  11.2024877  )
        23           O1  tau(  23) = (   6.5791771   2.9400465  14.7470945  )
        24           O1  tau(  24) = (   1.9864658   4.4711199   9.2879459  )
        25           O1  tau(  25) = (   5.2507180   4.5586503  12.6053682  )
        26           O1  tau(  26) = (   1.9989508   4.4013585  16.0758979  )
        27           Ti1 tau(  27) = (   0.0003529   4.4714252   9.2895810  )
        28           Ti1 tau(  28) = (   3.2908498   4.3294621  12.5515864  )
        29           Ti1 tau(  29) = (   0.0012874   4.5361023  15.7587160  )
        30           O1  tau(  30) = (   4.5938453   4.4726049   9.2879030  )
        31           O1  tau(  31) = (   1.3295807   4.5581274  12.6051842  )
        32           O1  tau(  32) = (   4.5807093   4.4011557  16.0767203  )
        33           Ti1 tau(  33) = (   3.2898983   5.9609850   9.2893338  )
        34           Ti1 tau(  34) = (   0.0011720   5.8030845  12.4395124  )
        35           Ti1 tau(  35) = (   3.2913837   5.8399099  16.1904745  )
        36           O1  tau(  36) = (  -0.0000397   5.9620987  10.5931620  )
        37           O1  tau(  37) = (   3.2897076   5.9457256  13.9643012  )
        38           O1  tau(  38) = (   0.0001823   5.8979554  17.1998916  )
        39           O1  tau(  39) = (  -0.0001480   5.9621018   7.9858123  )
        40           O1  tau(  40) = (   3.2897623   5.9362706  11.2341171  )
        41           O1  tau(  41) = (   0.0004469   5.9800359  14.6665197  )
        42           O1  tau(  42) = (   1.9860782   7.4519181   9.2879459  )
        43           O1  tau(  43) = (   5.2507221   7.5245448  12.5933772  )
        44           O1  tau(  44) = (   1.9799843   7.5745874  16.0532815  )
        45           Ti1 tau(  45) = (  -0.0000347   7.4522234   9.2895810  )
        46           Ti1 tau(  46) = (   3.2894177   7.1911746  12.6495270  )
        47           Ti1 tau(  47) = (   0.0007314   7.2822180  16.1322395  )
        48           O1  tau(  48) = (   4.5934577   7.4534031   9.2879030  )
        49           O1  tau(  49) = (   1.3275845   7.5244469  12.5935105  )
        50           O1  tau(  50) = (   4.5990354   7.5728923  16.0522427  )
        51           Ti1 tau(  51) = (   3.2895107   8.9417832   9.2893338  )
        52           Ti1 tau(  52) = (  -0.0007012   8.7603021  12.4499776  )
        53           Ti1 tau(  53) = (   3.2901857   8.8509785  15.6953962  )
        54           N1  tau(  54) = (   3.2899770   5.9827455  18.1265562  )
        55           H1  tau(  55) = (   3.2886311   5.1971789  18.7771882  )
        56           H1  tau(  56) = (   3.2869209   6.8541504  18.6418389  )
        57           H1  tau(  57) = (   6.5771076   8.8877891  18.2917622  )
        58           N1  tau(  58) = (   6.5788838   3.2021548  17.9140464  )
        59           H1  tau(  59) = (   6.5785461   2.2502248  18.2648563  )
        60           H1  tau(  60) = (   5.7591345   3.6762813  18.2792932  )
        61           H1  tau(  61) = (   0.8178175   3.6764091  18.2810048  )

     number of k points=    10  Fermi-Dirac smearing, width (Ry)=  0.0073
                       cart. coord. in units 2pi/alat
        k(    1) = (   0.0000000   0.0000000   0.0000000), wk =   0.1250000
        k(    2) = (   0.0000000   0.0279567   0.0000000), wk =   0.2500000
        k(    3) = (   0.0000000  -0.0559134   0.0000000), wk =   0.1250000
        k(    4) = (   0.0379955   0.0000049   0.0000000), wk =   0.2500000
        k(    5) = (   0.0379955   0.0279617   0.0000000), wk =   0.2500000
        k(    6) = (   0.0379955  -0.0559085   0.0000000), wk =   0.2500000
        k(    7) = (   0.0379955  -0.0279518   0.0000000), wk =   0.2500000
        k(    8) = (  -0.0759910  -0.0000099   0.0000000), wk =   0.1250000
        k(    9) = (  -0.0759910   0.0279468   0.0000000), wk =   0.2500000
        k(   10) = (  -0.0759910  -0.0559233   0.0000000), wk =   0.1250000

     Dense  grid:   850181 G-vectors     FFT dimensions: (  72,  96, 270)

     Smooth grid:   215109 G-vectors     FFT dimensions: (  45,  60, 180)

     Estimated max dynamical RAM per process >     706.97 MB

     Estimated total dynamical RAM >       5.52 GB
     Cannot read rho : file not found

     Initial potential from superposition of free atoms

     starting charge  423.99908, renormalised to  442.00000

     negative rho (up, down):  3.661E-02 0.000E+00


     %%%%%%%%%%%%%%%%%%%%%%%%%%%%%%%%%%%%%%%%%%%%%%%%%%%%%%%%%%%%%%%%%%%%%%%%
     %                                                                      %
     % You are using vdW-DF, which was implemented by the Thonhauser group. %
     % Please cite the following two papers that made this development      %
     % possible and the two reviews that describe the various versions:     %
     %                                                                      %
     %   T. Thonhauser et al., PRL 115, 136402 (2015).                      %
     %   T. Thonhauser et al., PRB 76, 125112 (2007).                       %
     %   K. Berland et al., Rep. Prog. Phys. 78, 066501 (2015).             %
     %   D.C. Langreth et al., J. Phys.: Condens. Matter 21, 084203 (2009). %
     %                                                                      %
     %                                                                      %
     % If you are calculating the stress with vdW-DF, please also cite:     %
     %                                                                      %
     %   R. Sabatini et al., J. Phys.: Condens. Matter 24, 424209 (2012).   %
     %                                                                      %
     %%%%%%%%%%%%%%%%%%%%%%%%%%%%%%%%%%%%%%%%%%%%%%%%%%%%%%%%%%%%%%%%%%%%%%%%


 
     Adding external electric field

     Computed dipole along edir(3) : 
        Dipole               -6.2843 Ry au,        -15.9732 Debye
        Dipole field         -0.0079 Ry au, 
 
        Potential amp.        0.7329 Ry
        Total length         46.3494 bohr
 
     Starting wfcs are  334 atomic wfcs
  @ DRIVER MODE: Message from server: STATUS
  @ DRIVER MODE: Message from server: POSDATA
  @ DRIVER MODE: Reading and sharing cell 
  @ DRIVER MODE: Reading and sharing positions 
  @ DRIVER MODE: Received positions 

     total cpu time spent up to now is       19.0 secs

     Self-consistent Calculation

     iteration #  1     ecut=    29.40 Ry     beta= 0.05
     Davidson diagonalization with overlap
     c_bands:  2 eigenvalues not converged
     c_bands:  4 eigenvalues not converged
     c_bands:  3 eigenvalues not converged
     c_bands:  3 eigenvalues not converged
     c_bands:  4 eigenvalues not converged
     c_bands:  4 eigenvalues not converged
     c_bands:  2 eigenvalues not converged
     c_bands:  2 eigenvalues not converged
     ethr =  1.00E-05,  avg # of iterations = 21.4

     negative rho (up, down):  3.609E-02 0.000E+00
 
     Adding external electric field

     Computed dipole along edir(3) : 
        Dipole                6.8203 Ry au,         17.3354 Debye
        Dipole field          0.0086 Ry au, 
 
        Potential amp.       -0.7954 Ry
        Total length         46.3494 bohr
 

     total cpu time spent up to now is      103.5 secs

     total energy              =   -3275.71201967 Ry
     estimated scf accuracy    <     264.39134743 Ry

     iteration #  2     ecut=    29.40 Ry     beta= 0.05
     Davidson diagonalization with overlap
     ethr =  1.00E-02,  avg # of iterations = 15.3

     negative rho (up, down):  3.458E-02 0.000E+00
 
     Adding external electric field

     Computed dipole along edir(3) : 
        Dipole               -1.8933 Ry au,         -4.8123 Debye
        Dipole field         -0.0024 Ry au, 
 
        Potential amp.        0.2208 Ry
        Total length         46.3494 bohr
 

     total cpu time spent up to now is      149.0 secs

     total energy              =   -3271.87247849 Ry
     estimated scf accuracy    <    1237.98680395 Ry

     iteration #  3     ecut=    29.40 Ry     beta= 0.05
     Davidson diagonalization with overlap
     c_bands:  3 eigenvalues not converged
     ethr =  1.00E-02,  avg # of iterations = 13.1

     negative rho (up, down):  3.424E-02 0.000E+00
 
     Adding external electric field

     Computed dipole along edir(3) : 
        Dipole               -1.8835 Ry au,         -4.7874 Debye
        Dipole field         -0.0024 Ry au, 
 
        Potential amp.        0.2197 Ry
        Total length         46.3494 bohr
 

     total cpu time spent up to now is      182.3 secs

     total energy              =   -3296.89282556 Ry
     estimated scf accuracy    <      11.63519274 Ry

     iteration #  4     ecut=    29.40 Ry     beta= 0.05
     Davidson diagonalization with overlap
     ethr =  2.63E-03,  avg # of iterations =  4.4

     negative rho (up, down):  3.400E-02 0.000E+00
 
     Adding external electric field

     Computed dipole along edir(3) : 
        Dipole               -1.4681 Ry au,         -3.7315 Debye
        Dipole field         -0.0018 Ry au, 
 
        Potential amp.        0.1712 Ry
        Total length         46.3494 bohr
 

     total cpu time spent up to now is      207.4 secs

     total energy              =   -3296.67692038 Ry
     estimated scf accuracy    <      10.19116501 Ry

     iteration #  5     ecut=    29.40 Ry     beta= 0.05
     Davidson diagonalization with overlap
     ethr =  2.31E-03,  avg # of iterations =  1.2

     negative rho (up, down):  3.495E-02 0.000E+00
 
     Adding external electric field

     Computed dipole along edir(3) : 
        Dipole                0.3053 Ry au,          0.7759 Debye
        Dipole field          0.0004 Ry au, 
 
        Potential amp.       -0.0356 Ry
        Total length         46.3494 bohr
 

     total cpu time spent up to now is      228.4 secs

     total energy              =   -3293.94530171 Ry
     estimated scf accuracy    <       7.10711260 Ry

     iteration #  6     ecut=    29.40 Ry     beta= 0.05
     Davidson diagonalization with overlap
     c_bands:  1 eigenvalues not converged
     c_bands:  1 eigenvalues not converged
     c_bands:  1 eigenvalues not converged
     ethr =  1.61E-03,  avg # of iterations = 16.1

     negative rho (up, down):  3.440E-02 0.000E+00
 
     Adding external electric field

     Computed dipole along edir(3) : 
        Dipole                0.2661 Ry au,          0.6764 Debye
        Dipole field          0.0003 Ry au, 
 
        Potential amp.       -0.0310 Ry
        Total length         46.3494 bohr
 

     total cpu time spent up to now is      269.6 secs

     total energy              =   -3295.96690090 Ry
     estimated scf accuracy    <       6.98616235 Ry

     iteration #  7     ecut=    29.40 Ry     beta= 0.05
     Davidson diagonalization with overlap
     ethr =  1.58E-03,  avg # of iterations =  1.1

     negative rho (up, down):  3.394E-02 0.000E+00
 
     Adding external electric field

     Computed dipole along edir(3) : 
        Dipole                0.1773 Ry au,          0.4506 Debye
        Dipole field          0.0002 Ry au, 
 
        Potential amp.       -0.0207 Ry
        Total length         46.3494 bohr
 

     total cpu time spent up to now is      290.4 secs

     total energy              =   -3295.87198962 Ry
     estimated scf accuracy    <       3.79032989 Ry

     iteration #  8     ecut=    29.40 Ry     beta= 0.05
     Davidson diagonalization with overlap
     ethr =  8.58E-04,  avg # of iterations =  1.7

     negative rho (up, down):  3.381E-02 0.000E+00
 
     Adding external electric field

     Computed dipole along edir(3) : 
        Dipole                0.4925 Ry au,          1.2519 Debye
        Dipole field          0.0006 Ry au, 
 
        Potential amp.       -0.0574 Ry
        Total length         46.3494 bohr
 

     total cpu time spent up to now is      312.2 secs

     total energy              =   -3295.54341753 Ry
     estimated scf accuracy    <       2.63042495 Ry

     iteration #  9     ecut=    29.40 Ry     beta= 0.05
     Davidson diagonalization with overlap
     ethr =  5.95E-04,  avg # of iterations =  9.5

     negative rho (up, down):  3.378E-02 0.000E+00
 
     Adding external electric field

     Computed dipole along edir(3) : 
        Dipole                0.7911 Ry au,          2.0108 Debye
        Dipole field          0.0010 Ry au, 
 
        Potential amp.       -0.0923 Ry
        Total length         46.3494 bohr
 

     total cpu time spent up to now is      339.8 secs

     total energy              =   -3295.79330174 Ry
     estimated scf accuracy    <       0.68963754 Ry

     iteration # 10     ecut=    29.40 Ry     beta= 0.05
     Davidson diagonalization with overlap
     c_bands:  1 eigenvalues not converged
     ethr =  1.56E-04,  avg # of iterations = 12.4

     negative rho (up, down):  3.443E-02 0.000E+00
 
     Adding external electric field

     Computed dipole along edir(3) : 
        Dipole                1.5408 Ry au,          3.9163 Debye
        Dipole field          0.0019 Ry au, 
 
        Potential amp.       -0.1797 Ry
        Total length         46.3494 bohr
 

     total cpu time spent up to now is      370.3 secs

     total energy              =   -3295.79102973 Ry
     estimated scf accuracy    <       0.64373407 Ry

     iteration # 11     ecut=    29.40 Ry     beta= 0.05
     Davidson diagonalization with overlap
     c_bands:  5 eigenvalues not converged
     c_bands:  1 eigenvalues not converged
     c_bands:  5 eigenvalues not converged
     c_bands:  2 eigenvalues not converged
     c_bands:  3 eigenvalues not converged
     ethr =  1.46E-04,  avg # of iterations = 17.6

     negative rho (up, down):  3.414E-02 0.000E+00
 
     Adding external electric field

     Computed dipole along edir(3) : 
        Dipole                1.4905 Ry au,          3.7885 Debye
        Dipole field          0.0019 Ry au, 
 
        Potential amp.       -0.1738 Ry
        Total length         46.3494 bohr
 

     total cpu time spent up to now is      404.6 secs

     total energy              =   -3295.80995255 Ry
     estimated scf accuracy    <       0.68896592 Ry

     iteration # 12     ecut=    29.40 Ry     beta= 0.05
     Davidson diagonalization with overlap
     ethr =  1.46E-04,  avg # of iterations =  4.1

     negative rho (up, down):  3.502E-02 0.000E+00
 
     Adding external electric field

     Computed dipole along edir(3) : 
        Dipole                1.6693 Ry au,          4.2430 Debye
        Dipole field          0.0021 Ry au, 
 
        Potential amp.       -0.1947 Ry
        Total length         46.3494 bohr
 

     total cpu time spent up to now is      427.4 secs

     total energy              =   -3295.75344859 Ry
     estimated scf accuracy    <       0.46778300 Ry

     iteration # 13     ecut=    29.40 Ry     beta= 0.05
     Davidson diagonalization with overlap
     c_bands:  1 eigenvalues not converged
     c_bands:  1 eigenvalues not converged
     c_bands:  2 eigenvalues not converged
     ethr =  1.06E-04,  avg # of iterations = 15.0

     negative rho (up, down):  3.646E-02 0.000E+00
 
     Adding external electric field

     Computed dipole along edir(3) : 
        Dipole                2.2091 Ry au,          5.6149 Debye
        Dipole field          0.0028 Ry au, 
 
        Potential amp.       -0.2576 Ry
        Total length         46.3494 bohr
 

     total cpu time spent up to now is      459.5 secs

     total energy              =   -3295.78153084 Ry
     estimated scf accuracy    <       0.22793574 Ry

     iteration # 14     ecut=    29.40 Ry     beta= 0.05
     Davidson diagonalization with overlap
     c_bands:  1 eigenvalues not converged
     c_bands:  1 eigenvalues not converged
     c_bands:  1 eigenvalues not converged
     c_bands:  1 eigenvalues not converged
     c_bands:  1 eigenvalues not converged
     c_bands:  2 eigenvalues not converged
     ethr =  5.16E-05,  avg # of iterations = 18.0

     negative rho (up, down):  3.648E-02 0.000E+00
 
     Adding external electric field

     Computed dipole along edir(3) : 
        Dipole                2.1534 Ry au,          5.4734 Debye
        Dipole field          0.0027 Ry au, 
 
        Potential amp.       -0.2511 Ry
        Total length         46.3494 bohr
 

     total cpu time spent up to now is      496.7 secs

     total energy              =   -3295.82474048 Ry
     estimated scf accuracy    <       0.19854644 Ry

     iteration # 15     ecut=    29.40 Ry     beta= 0.05
     Davidson diagonalization with overlap
     c_bands:  1 eigenvalues not converged
     ethr =  4.49E-05,  avg # of iterations =  5.0

     negative rho (up, down):  3.694E-02 0.000E+00
 
     Adding external electric field

     Computed dipole along edir(3) : 
        Dipole                1.8594 Ry au,          4.7260 Debye
        Dipole field          0.0023 Ry au, 
 
        Potential amp.       -0.2168 Ry
        Total length         46.3494 bohr
 

     total cpu time spent up to now is      520.3 secs

     total energy              =   -3295.80833437 Ry
     estimated scf accuracy    <       0.18279790 Ry

     iteration # 16     ecut=    29.40 Ry     beta= 0.05
     Davidson diagonalization with overlap
     c_bands:  1 eigenvalues not converged
     c_bands:  2 eigenvalues not converged
     ethr =  4.14E-05,  avg # of iterations = 16.5

     negative rho (up, down):  3.684E-02 0.000E+00
 
     Adding external electric field

     Computed dipole along edir(3) : 
        Dipole                1.9574 Ry au,          4.9752 Debye
        Dipole field          0.0025 Ry au, 
 
        Potential amp.       -0.2283 Ry
        Total length         46.3494 bohr
 

     total cpu time spent up to now is      552.9 secs

     total energy              =   -3295.81681912 Ry
     estimated scf accuracy    <       0.05090696 Ry

     iteration # 17     ecut=    29.40 Ry     beta= 0.05
     Davidson diagonalization with overlap
     c_bands:  2 eigenvalues not converged
     c_bands:  1 eigenvalues not converged
     c_bands:  1 eigenvalues not converged
     c_bands:  1 eigenvalues not converged
     c_bands:  1 eigenvalues not converged
     ethr =  1.15E-05,  avg # of iterations = 14.9

     negative rho (up, down):  3.680E-02 0.000E+00
 
     Adding external electric field

     Computed dipole along edir(3) : 
        Dipole                2.0755 Ry au,          5.2753 Debye
        Dipole field          0.0026 Ry au, 
 
        Potential amp.       -0.2420 Ry
        Total length         46.3494 bohr
 

     total cpu time spent up to now is      582.8 secs

     total energy              =   -3295.81428772 Ry
     estimated scf accuracy    <       0.03328023 Ry

     iteration # 18     ecut=    29.40 Ry     beta= 0.05
     Davidson diagonalization with overlap
     ethr =  7.53E-06,  avg # of iterations = 11.4

     negative rho (up, down):  3.701E-02 0.000E+00
 
     Adding external electric field

     Computed dipole along edir(3) : 
        Dipole                1.9833 Ry au,          5.0409 Debye
        Dipole field          0.0025 Ry au, 
 
        Potential amp.       -0.2313 Ry
        Total length         46.3494 bohr
 

     total cpu time spent up to now is      618.5 secs

     total energy              =   -3295.81956610 Ry
     estimated scf accuracy    <       0.03224894 Ry

     iteration # 19     ecut=    29.40 Ry     beta= 0.05
     Davidson diagonalization with overlap
     ethr =  7.30E-06,  avg # of iterations =  7.3

     negative rho (up, down):  3.733E-02 0.000E+00
 
     Adding external electric field

     Computed dipole along edir(3) : 
        Dipole                1.8718 Ry au,          4.7576 Debye
        Dipole field          0.0024 Ry au, 
 
        Potential amp.       -0.2183 Ry
        Total length         46.3494 bohr
 

     total cpu time spent up to now is      643.1 secs

     total energy              =   -3295.81927983 Ry
     estimated scf accuracy    <       0.01274495 Ry

     iteration # 20     ecut=    29.40 Ry     beta= 0.05
     Davidson diagonalization with overlap
     c_bands:  3 eigenvalues not converged
     c_bands:  1 eigenvalues not converged
     c_bands:  1 eigenvalues not converged
     c_bands:  3 eigenvalues not converged
     c_bands:  1 eigenvalues not converged
     ethr =  2.88E-06,  avg # of iterations = 18.1

     negative rho (up, down):  3.705E-02 0.000E+00
 
     Adding external electric field

     Computed dipole along edir(3) : 
        Dipole                1.9361 Ry au,          4.9210 Debye
        Dipole field          0.0024 Ry au, 
 
        Potential amp.       -0.2258 Ry
        Total length         46.3494 bohr
 

     total cpu time spent up to now is      685.9 secs

     total energy              =   -3295.82150393 Ry
     estimated scf accuracy    <       0.01019457 Ry

     iteration # 21     ecut=    29.40 Ry     beta= 0.05
     Davidson diagonalization with overlap
     c_bands:  1 eigenvalues not converged
     c_bands:  1 eigenvalues not converged
     ethr =  2.31E-06,  avg # of iterations = 11.9

     negative rho (up, down):  3.680E-02 0.000E+00
 
     Adding external electric field

     Computed dipole along edir(3) : 
        Dipole                1.9449 Ry au,          4.9434 Debye
        Dipole field          0.0024 Ry au, 
 
        Potential amp.       -0.2268 Ry
        Total length         46.3494 bohr
 

     total cpu time spent up to now is      713.9 secs

     total energy              =   -3295.82164999 Ry
     estimated scf accuracy    <       0.00407253 Ry

     iteration # 22     ecut=    29.40 Ry     beta= 0.05
     Davidson diagonalization with overlap
     ethr =  9.21E-07,  avg # of iterations = 11.4

     negative rho (up, down):  3.673E-02 0.000E+00
 
     Adding external electric field

     Computed dipole along edir(3) : 
        Dipole                1.9231 Ry au,          4.8880 Debye
        Dipole field          0.0024 Ry au, 
 
        Potential amp.       -0.2243 Ry
        Total length         46.3494 bohr
 

     total cpu time spent up to now is      742.4 secs

     total energy              =   -3295.82225154 Ry
     estimated scf accuracy    <       0.00167557 Ry

     iteration # 23     ecut=    29.40 Ry     beta= 0.05
     Davidson diagonalization with overlap
     c_bands:  2 eigenvalues not converged
     c_bands:  2 eigenvalues not converged
     ethr =  3.79E-07,  avg # of iterations = 15.4

     negative rho (up, down):  3.664E-02 0.000E+00
 
     Adding external electric field

     Computed dipole along edir(3) : 
        Dipole                1.9555 Ry au,          4.9704 Debye
        Dipole field          0.0025 Ry au, 
 
        Potential amp.       -0.2281 Ry
        Total length         46.3494 bohr
 

     total cpu time spent up to now is      779.7 secs

     total energy              =   -3295.82246337 Ry
     estimated scf accuracy    <       0.00385408 Ry

     iteration # 24     ecut=    29.40 Ry     beta= 0.05
     Davidson diagonalization with overlap
     c_bands:  4 eigenvalues not converged
     c_bands:  3 eigenvalues not converged
     ethr =  3.79E-07,  avg # of iterations = 16.9

     negative rho (up, down):  3.653E-02 0.000E+00
 
     Adding external electric field

     Computed dipole along edir(3) : 
        Dipole                1.9486 Ry au,          4.9530 Debye
        Dipole field          0.0025 Ry au, 
 
        Potential amp.       -0.2273 Ry
        Total length         46.3494 bohr
 

     total cpu time spent up to now is      816.9 secs

     total energy              =   -3295.82299347 Ry
     estimated scf accuracy    <       0.00132804 Ry

     iteration # 25     ecut=    29.40 Ry     beta= 0.05
     Davidson diagonalization with overlap
     c_bands:  1 eigenvalues not converged
     ethr =  3.00E-07,  avg # of iterations =  5.3

     negative rho (up, down):  3.646E-02 0.000E+00
 
     Adding external electric field

     Computed dipole along edir(3) : 
        Dipole                1.9380 Ry au,          4.9258 Debye
        Dipole field          0.0024 Ry au, 
 
        Potential amp.       -0.2260 Ry
        Total length         46.3494 bohr
 

     total cpu time spent up to now is      840.0 secs

     total energy              =   -3295.82307829 Ry
     estimated scf accuracy    <       0.00085799 Ry

     iteration # 26     ecut=    29.40 Ry     beta= 0.05
     Davidson diagonalization with overlap
     c_bands:  2 eigenvalues not converged
     ethr =  1.94E-07,  avg # of iterations = 15.3

     negative rho (up, down):  3.628E-02 0.000E+00
 
     Adding external electric field

     Computed dipole along edir(3) : 
        Dipole                1.9612 Ry au,          4.9849 Debye
        Dipole field          0.0025 Ry au, 
 
        Potential amp.       -0.2287 Ry
        Total length         46.3494 bohr
 

     total cpu time spent up to now is      875.1 secs

     total energy              =   -3295.82319748 Ry
     estimated scf accuracy    <       0.00051385 Ry

     iteration # 27     ecut=    29.40 Ry     beta= 0.05
     Davidson diagonalization with overlap
     c_bands:  2 eigenvalues not converged
     ethr =  1.16E-07,  avg # of iterations = 15.7

     negative rho (up, down):  3.615E-02 0.000E+00
 
     Adding external electric field

     Computed dipole along edir(3) : 
        Dipole                1.9564 Ry au,          4.9727 Debye
        Dipole field          0.0025 Ry au, 
 
        Potential amp.       -0.2282 Ry
        Total length         46.3494 bohr
 

     total cpu time spent up to now is      916.1 secs

     total energy              =   -3295.82352866 Ry
     estimated scf accuracy    <       0.00106031 Ry

     iteration # 28     ecut=    29.40 Ry     beta= 0.05
     Davidson diagonalization with overlap
     c_bands:  2 eigenvalues not converged
     ethr =  1.16E-07,  avg # of iterations =  3.7

     negative rho (up, down):  3.603E-02 0.000E+00
 
     Adding external electric field

     Computed dipole along edir(3) : 
        Dipole                1.9287 Ry au,          4.9022 Debye
        Dipole field          0.0024 Ry au, 
 
        Potential amp.       -0.2249 Ry
        Total length         46.3494 bohr
 

     total cpu time spent up to now is      939.2 secs

     total energy              =   -3295.82341661 Ry
     estimated scf accuracy    <       0.00126563 Ry

     iteration # 29     ecut=    29.40 Ry     beta= 0.05
     Davidson diagonalization with overlap
     c_bands:  2 eigenvalues not converged
     ethr =  1.16E-07,  avg # of iterations = 15.0

     negative rho (up, down):  3.593E-02 0.000E+00
 
     Adding external electric field

     Computed dipole along edir(3) : 
        Dipole                1.9299 Ry au,          4.9053 Debye
        Dipole field          0.0024 Ry au, 
 
        Potential amp.       -0.2251 Ry
        Total length         46.3494 bohr
 

     total cpu time spent up to now is      974.7 secs

     total energy              =   -3295.82359602 Ry
     estimated scf accuracy    <       0.00024625 Ry

     iteration # 30     ecut=    29.40 Ry     beta= 0.05
     Davidson diagonalization with overlap
     ethr =  5.57E-08,  avg # of iterations =  2.6

     negative rho (up, down):  3.586E-02 0.000E+00
 
     Adding external electric field

     Computed dipole along edir(3) : 
        Dipole                1.9305 Ry au,          4.9068 Debye
        Dipole field          0.0024 Ry au, 
 
        Potential amp.       -0.2251 Ry
        Total length         46.3494 bohr
 

     total cpu time spent up to now is      997.2 secs

     total energy              =   -3295.82368230 Ry
     estimated scf accuracy    <       0.00021431 Ry

     iteration # 31     ecut=    29.40 Ry     beta= 0.05
     Davidson diagonalization with overlap
     ethr =  4.85E-08,  avg # of iterations =  1.7

     negative rho (up, down):  3.577E-02 0.000E+00
 
     Adding external electric field

     Computed dipole along edir(3) : 
        Dipole                1.9308 Ry au,          4.9075 Debye
        Dipole field          0.0024 Ry au, 
 
        Potential amp.       -0.2252 Ry
        Total length         46.3494 bohr
 

     total cpu time spent up to now is     1019.0 secs

     total energy              =   -3295.82375833 Ry
     estimated scf accuracy    <       0.00018146 Ry

     iteration # 32     ecut=    29.40 Ry     beta= 0.05
     Davidson diagonalization with overlap
     ethr =  4.11E-08,  avg # of iterations =  1.8

     negative rho (up, down):  3.569E-02 0.000E+00
 
     Adding external electric field

     Computed dipole along edir(3) : 
        Dipole                1.9320 Ry au,          4.9108 Debye
        Dipole field          0.0024 Ry au, 
 
        Potential amp.       -0.2253 Ry
        Total length         46.3494 bohr
 

     total cpu time spent up to now is     1041.0 secs

     total energy              =   -3295.82382737 Ry
     estimated scf accuracy    <       0.00018047 Ry

     iteration # 33     ecut=    29.40 Ry     beta= 0.05
     Davidson diagonalization with overlap
     ethr =  4.08E-08,  avg # of iterations =  2.4

     negative rho (up, down):  3.564E-02 0.000E+00
 
     Adding external electric field

     Computed dipole along edir(3) : 
        Dipole                1.9327 Ry au,          4.9124 Debye
        Dipole field          0.0024 Ry au, 
 
        Potential amp.       -0.2254 Ry
        Total length         46.3494 bohr
 

     total cpu time spent up to now is     1063.6 secs

     total energy              =   -3295.82388842 Ry
     estimated scf accuracy    <       0.00018721 Ry

     iteration # 34     ecut=    29.40 Ry     beta= 0.05
     Davidson diagonalization with overlap
     ethr =  4.08E-08,  avg # of iterations =  1.8

     negative rho (up, down):  3.560E-02 0.000E+00
 
     Adding external electric field

     Computed dipole along edir(3) : 
        Dipole                1.9324 Ry au,          4.9116 Debye
        Dipole field          0.0024 Ry au, 
 
        Potential amp.       -0.2254 Ry
        Total length         46.3494 bohr
 

     total cpu time spent up to now is     1085.2 secs

     total energy              =   -3295.82394809 Ry
     estimated scf accuracy    <       0.00016928 Ry

     iteration # 35     ecut=    29.40 Ry     beta= 0.05
     Davidson diagonalization with overlap
     ethr =  3.83E-08,  avg # of iterations =  3.6

     negative rho (up, down):  3.556E-02 0.000E+00
 
     Adding external electric field

     Computed dipole along edir(3) : 
        Dipole                1.9361 Ry au,          4.9211 Debye
        Dipole field          0.0024 Ry au, 
 
        Potential amp.       -0.2258 Ry
        Total length         46.3494 bohr
 

     total cpu time spent up to now is     1107.6 secs

     total energy              =   -3295.82397692 Ry
     estimated scf accuracy    <       0.00017126 Ry

     iteration # 36     ecut=    29.40 Ry     beta= 0.05
     Davidson diagonalization with overlap
     c_bands:  2 eigenvalues not converged
     ethr =  3.83E-08,  avg # of iterations = 13.0

     negative rho (up, down):  3.549E-02 0.000E+00
 
     Adding external electric field

     Computed dipole along edir(3) : 
        Dipole                1.9259 Ry au,          4.8952 Debye
        Dipole field          0.0024 Ry au, 
 
        Potential amp.       -0.2246 Ry
        Total length         46.3494 bohr
 

     total cpu time spent up to now is     1138.9 secs

     total energy              =   -3295.82402577 Ry
     estimated scf accuracy    <       0.00006201 Ry

     iteration # 37     ecut=    29.40 Ry     beta= 0.05
     Davidson diagonalization with overlap
     ethr =  1.40E-08,  avg # of iterations = 13.3

     negative rho (up, down):  3.544E-02 0.000E+00
 
     Adding external electric field

     Computed dipole along edir(3) : 
        Dipole                1.9229 Ry au,          4.8875 Debye
        Dipole field          0.0024 Ry au, 
 
        Potential amp.       -0.2243 Ry
        Total length         46.3494 bohr
 

     total cpu time spent up to now is     1176.1 secs

     total energy              =   -3295.82406625 Ry
     estimated scf accuracy    <       0.00011990 Ry

     iteration # 38     ecut=    29.40 Ry     beta= 0.05
     Davidson diagonalization with overlap
     ethr =  1.40E-08,  avg # of iterations =  5.4

     negative rho (up, down):  3.541E-02 0.000E+00
 
     Adding external electric field

     Computed dipole along edir(3) : 
        Dipole                1.9262 Ry au,          4.8958 Debye
        Dipole field          0.0024 Ry au, 
 
        Potential amp.       -0.2246 Ry
        Total length         46.3494 bohr
 

     total cpu time spent up to now is     1200.0 secs

     total energy              =   -3295.82410398 Ry
     estimated scf accuracy    <       0.00012146 Ry

     iteration # 39     ecut=    29.40 Ry     beta= 0.05
     Davidson diagonalization with overlap
     ethr =  1.40E-08,  avg # of iterations =  1.0

     negative rho (up, down):  3.540E-02 0.000E+00
 
     Adding external electric field

     Computed dipole along edir(3) : 
        Dipole                1.9340 Ry au,          4.9156 Debye
        Dipole field          0.0024 Ry au, 
 
        Potential amp.       -0.2255 Ry
        Total length         46.3494 bohr
 

     total cpu time spent up to now is     1220.6 secs

     total energy              =   -3295.82411835 Ry
     estimated scf accuracy    <       0.00011306 Ry

     iteration # 40     ecut=    29.40 Ry     beta= 0.05
     Davidson diagonalization with overlap
     ethr =  1.40E-08,  avg # of iterations = 13.4

     negative rho (up, down):  3.538E-02 0.000E+00
 
     Adding external electric field

     Computed dipole along edir(3) : 
        Dipole                1.9314 Ry au,          4.9092 Debye
        Dipole field          0.0024 Ry au, 
 
        Potential amp.       -0.2253 Ry
        Total length         46.3494 bohr
 

     total cpu time spent up to now is     1256.3 secs

     total energy              =   -3295.82416077 Ry
     estimated scf accuracy    <       0.00004718 Ry

     iteration # 41     ecut=    29.40 Ry     beta= 0.05
     Davidson diagonalization with overlap
     ethr =  1.07E-08,  avg # of iterations =  2.4

     negative rho (up, down):  3.537E-02 0.000E+00
 
     Adding external electric field

     Computed dipole along edir(3) : 
        Dipole                1.9305 Ry au,          4.9069 Debye
        Dipole field          0.0024 Ry au, 
 
        Potential amp.       -0.2251 Ry
        Total length         46.3494 bohr
 

     total cpu time spent up to now is     1278.8 secs

     total energy              =   -3295.82419264 Ry
     estimated scf accuracy    <       0.00003782 Ry

     iteration # 42     ecut=    29.40 Ry     beta= 0.05
     Davidson diagonalization with overlap
     ethr =  8.56E-09,  avg # of iterations = 14.6

     negative rho (up, down):  3.534E-02 0.000E+00
 
     Adding external electric field

     Computed dipole along edir(3) : 
        Dipole                1.9288 Ry au,          4.9026 Debye
        Dipole field          0.0024 Ry au, 
 
        Potential amp.       -0.2249 Ry
        Total length         46.3494 bohr
 

     total cpu time spent up to now is     1314.1 secs

     total energy              =   -3295.82421391 Ry
     estimated scf accuracy    <       0.00005510 Ry

     iteration # 43     ecut=    29.40 Ry     beta= 0.05
     Davidson diagonalization with overlap
     ethr =  8.56E-09,  avg # of iterations =  5.7

     negative rho (up, down):  3.533E-02 0.000E+00
 
     Adding external electric field

     Computed dipole along edir(3) : 
        Dipole                1.9334 Ry au,          4.9142 Debye
        Dipole field          0.0024 Ry au, 
 
        Potential amp.       -0.2255 Ry
        Total length         46.3494 bohr
 

     total cpu time spent up to now is     1339.2 secs

     total energy              =   -3295.82423487 Ry
     estimated scf accuracy    <       0.00001638 Ry

     iteration # 44     ecut=    29.40 Ry     beta= 0.05
     Davidson diagonalization with overlap
     ethr =  3.71E-09,  avg # of iterations = 13.6

     negative rho (up, down):  3.531E-02 0.000E+00
 
     Adding external electric field

     Computed dipole along edir(3) : 
        Dipole                1.9315 Ry au,          4.9094 Debye
        Dipole field          0.0024 Ry au, 
 
        Potential amp.       -0.2253 Ry
        Total length         46.3494 bohr
 

     total cpu time spent up to now is     1377.9 secs

     total energy              =   -3295.82425711 Ry
     estimated scf accuracy    <       0.00001269 Ry

     iteration # 45     ecut=    29.40 Ry     beta= 0.05
     Davidson diagonalization with overlap
     ethr =  2.87E-09,  avg # of iterations = 10.1

     negative rho (up, down):  3.530E-02 0.000E+00
 
     Adding external electric field

     Computed dipole along edir(3) : 
        Dipole                1.9306 Ry au,          4.9072 Debye
        Dipole field          0.0024 Ry au, 
 
        Potential amp.       -0.2252 Ry
        Total length         46.3494 bohr
 

     total cpu time spent up to now is     1410.1 secs

     total energy              =   -3295.82427644 Ry
     estimated scf accuracy    <       0.00000703 Ry

     iteration # 46     ecut=    29.40 Ry     beta= 0.05
     Davidson diagonalization with overlap
     c_bands:  1 eigenvalues not converged
     ethr =  1.59E-09,  avg # of iterations = 11.7

     negative rho (up, down):  3.529E-02 0.000E+00
 
     Adding external electric field

     Computed dipole along edir(3) : 
        Dipole                1.9331 Ry au,          4.9133 Debye
        Dipole field          0.0024 Ry au, 
 
        Potential amp.       -0.2254 Ry
        Total length         46.3494 bohr
 

     total cpu time spent up to now is     1438.1 secs

     total energy              =   -3295.82429211 Ry
     estimated scf accuracy    <       0.00000490 Ry

     iteration # 47     ecut=    29.40 Ry     beta= 0.05
     Davidson diagonalization with overlap
     ethr =  1.11E-09,  avg # of iterations = 11.3

     negative rho (up, down):  3.529E-02 0.000E+00
 
     Adding external electric field

     Computed dipole along edir(3) : 
        Dipole                1.9323 Ry au,          4.9113 Debye
        Dipole field          0.0024 Ry au, 
 
        Potential amp.       -0.2253 Ry
        Total length         46.3494 bohr
 

     total cpu time spent up to now is     1474.4 secs

     total energy              =   -3295.82430828 Ry
     estimated scf accuracy    <       0.00000321 Ry

     iteration # 48     ecut=    29.40 Ry     beta= 0.05
     Davidson diagonalization with overlap
     ethr =  7.26E-10,  avg # of iterations =  2.4

     negative rho (up, down):  3.529E-02 0.000E+00
 
     Adding external electric field

     Computed dipole along edir(3) : 
        Dipole                1.9320 Ry au,          4.9106 Debye
        Dipole field          0.0024 Ry au, 
 
        Potential amp.       -0.2253 Ry
        Total length         46.3494 bohr
 

     total cpu time spent up to now is     1496.9 secs

     total energy              =   -3295.82432206 Ry
     estimated scf accuracy    <       0.00000217 Ry

     iteration # 49     ecut=    29.40 Ry     beta= 0.05
     Davidson diagonalization with overlap
     ethr =  4.91E-10,  avg # of iterations = 11.4

     negative rho (up, down):  3.528E-02 0.000E+00
 
     Adding external electric field

     Computed dipole along edir(3) : 
        Dipole                1.9320 Ry au,          4.9105 Debye
        Dipole field          0.0024 Ry au, 
 
        Potential amp.       -0.2253 Ry
        Total length         46.3494 bohr
 

     total cpu time spent up to now is     1534.8 secs

     total energy              =   -3295.82433439 Ry
     estimated scf accuracy    <       0.00000322 Ry

     iteration # 50     ecut=    29.40 Ry     beta= 0.05
     Davidson diagonalization with overlap
     ethr =  4.91E-10,  avg # of iterations =  6.4

     negative rho (up, down):  3.529E-02 0.000E+00
 
     Adding external electric field

     Computed dipole along edir(3) : 
        Dipole                1.9315 Ry au,          4.9093 Debye
        Dipole field          0.0024 Ry au, 
 
        Potential amp.       -0.2253 Ry
        Total length         46.3494 bohr
 

     total cpu time spent up to now is     1560.8 secs

     total energy              =   -3295.82434583 Ry
     estimated scf accuracy    <       0.00000100 Ry

     iteration # 51     ecut=    29.40 Ry     beta= 0.05
     Davidson diagonalization with overlap
     c_bands:  2 eigenvalues not converged
     ethr =  2.26E-10,  avg # of iterations = 11.8

     negative rho (up, down):  3.529E-02 0.000E+00
 
     Adding external electric field

     Computed dipole along edir(3) : 
        Dipole                1.9314 Ry au,          4.9092 Debye
        Dipole field          0.0024 Ry au, 
 
        Potential amp.       -0.2252 Ry
        Total length         46.3494 bohr
 

     total cpu time spent up to now is     1590.4 secs

     total energy              =   -3295.82435571 Ry
     estimated scf accuracy    <       0.00000060 Ry

     iteration # 52     ecut=    29.40 Ry     beta= 0.05
     Davidson diagonalization with overlap
     ethr =  1.36E-10,  avg # of iterations =  3.8

     negative rho (up, down):  3.529E-02 0.000E+00
 
     Adding external electric field

     Computed dipole along edir(3) : 
        Dipole                1.9315 Ry au,          4.9095 Debye
        Dipole field          0.0024 Ry au, 
 
        Potential amp.       -0.2253 Ry
        Total length         46.3494 bohr
 

     total cpu time spent up to now is     1613.7 secs

     total energy              =   -3295.82436457 Ry
     estimated scf accuracy    <       0.00000051 Ry

     iteration # 53     ecut=    29.40 Ry     beta= 0.05
     Davidson diagonalization with overlap
     ethr =  1.16E-10,  avg # of iterations = 11.6

     negative rho (up, down):  3.529E-02 0.000E+00
 
     Adding external electric field

     Computed dipole along edir(3) : 
        Dipole                1.9316 Ry au,          4.9095 Debye
        Dipole field          0.0024 Ry au, 
 
        Potential amp.       -0.2253 Ry
        Total length         46.3494 bohr
 

     total cpu time spent up to now is     1648.1 secs

     total energy              =   -3295.82437245 Ry
     estimated scf accuracy    <       0.00000017 Ry

     iteration # 54     ecut=    29.40 Ry     beta= 0.05
     Davidson diagonalization with overlap
     ethr =  3.95E-11,  avg # of iterations =  7.3

     negative rho (up, down):  3.529E-02 0.000E+00
 
     Adding external electric field

     Computed dipole along edir(3) : 
        Dipole                1.9316 Ry au,          4.9097 Debye
        Dipole field          0.0024 Ry au, 
 
        Potential amp.       -0.2253 Ry
        Total length         46.3494 bohr
 

     total cpu time spent up to now is     1673.9 secs

     total energy              =   -3295.82437950 Ry
     estimated scf accuracy    <       0.00000012 Ry

     iteration # 55     ecut=    29.40 Ry     beta= 0.05
     Davidson diagonalization with overlap
     c_bands:  1 eigenvalues not converged
     ethr =  2.77E-11,  avg # of iterations = 12.5

     negative rho (up, down):  3.544E-02 0.000E+00
 
     Adding external electric field

     Computed dipole along edir(3) : 
        Dipole                1.9320 Ry au,          4.9107 Debye
        Dipole field          0.0024 Ry au, 
 
        Potential amp.       -0.2253 Ry
        Total length         46.3494 bohr
 

     total cpu time spent up to now is     1708.0 secs

     End of self-consistent calculation

          k = 0.0000 0.0000 0.0000 ( 26871 PWs)   bands (ev):

   -57.4689 -57.4337 -57.4209 -57.3813 -57.3722 -57.3645 -57.3533 -57.3422
   -57.3216 -57.2832 -57.2767 -57.2399 -57.2185 -57.2018 -57.1822 -56.5425
   -56.5182 -56.5122 -33.9394 -33.8529 -33.8526 -33.8299 -33.8097 -33.7924
   -33.7747 -33.7707 -33.7669 -33.7537 -33.7284 -33.7073 -33.7026 -33.6876
   -33.6858 -33.6813 -33.6606 -33.6517 -33.6303 -33.6248 -33.5933 -33.5786
   -33.5611 -33.5567 -33.5492 -33.5483 -33.5447 -33.5371 -33.5250 -33.5218
   -33.5152 -33.5009 -33.4926 -33.4912 -33.4844 -33.4831 -33.4744 -33.4723
   -33.4644 -33.4535 -33.4417 -33.4248 -33.4091 -33.4026 -33.3880 -32.8612
   -32.8530 -32.8520 -32.8353 -32.8299 -32.7705 -32.7092 -32.7019 -32.5704
   -19.3436 -18.2730 -17.9737 -17.7761 -17.7262 -17.6927 -17.5774 -17.5486
   -17.4959 -17.4424 -17.4058 -17.3627 -17.2880 -17.2476 -17.2459 -17.2220
   -17.1677 -17.1438 -17.1358 -17.1256 -17.1237 -17.0990 -17.0498 -17.0463
   -16.9892 -16.9478 -16.9163 -16.9059 -16.8973 -16.8651 -16.8570 -16.8039
   -16.6055 -15.0085 -14.9926 -14.9495 -14.9461  -7.8655  -7.6279  -7.3904
    -6.4553  -5.5815  -5.4300  -5.3987  -5.2348  -4.9636  -4.9117  -4.8685
    -4.8221  -4.7846  -4.7461  -4.7231  -4.6943  -4.6627  -4.6109  -4.5801
    -4.5638  -4.5304  -4.5104  -4.4794  -4.4492  -4.4443  -4.4144  -4.3259
    -4.3166  -4.2927  -4.2751  -4.2391  -4.2212  -4.2186  -4.1691  -4.1581
    -4.0692  -3.9797  -3.8965  -3.8445  -3.8172  -3.7946  -3.7472  -3.7097
    -3.6777  -3.6362  -3.6158  -3.5462  -3.5191  -3.5091  -3.4329  -3.3982
    -3.3025  -3.2643  -3.2531  -3.2322  -3.1899  -3.1782  -3.0944  -3.0831
    -2.9735  -2.9548  -2.8645  -2.7914  -2.7420  -2.7139  -2.6761  -2.6145
    -2.5948  -2.5493  -2.5214  -2.4610  -2.4467  -2.3209  -2.2533  -2.2498
    -2.2298  -2.1913  -2.1618  -2.1478  -2.1253  -2.1225  -2.0437  -2.0351
    -1.9853  -1.9102  -1.8844  -1.8477  -1.8350  -1.7997  -1.7575  -1.6926
    -1.6872  -1.6516  -1.5640  -1.5028  -1.5019  -1.3557  -1.3497  -1.3162
    -1.2679  -1.2141  -1.1835  -0.7811  -0.6053  -0.4354  -0.3098  -0.2491
    -0.2478   0.0270   0.0320   0.1644   1.6134   1.7644   1.8250   1.9588
     1.9772   2.0364   2.1180   2.1400   2.2077   2.2347   2.2430

          k = 0.0000 0.0280 0.0000 ( 26907 PWs)   bands (ev):

   -57.4681 -57.4362 -57.4193 -57.3804 -57.3709 -57.3653 -57.3569 -57.3402
   -57.3215 -57.2831 -57.2770 -57.2383 -57.2217 -57.2003 -57.1822 -56.5405
   -56.5239 -56.5086 -33.9659 -33.9095 -33.8394 -33.8223 -33.8064 -33.7859
   -33.7746 -33.7657 -33.7596 -33.7479 -33.7395 -33.7118 -33.6972 -33.6779
   -33.6727 -33.6464 -33.6250 -33.6207 -33.6162 -33.6051 -33.6015 -33.5849
   -33.5773 -33.5772 -33.5529 -33.5419 -33.5415 -33.5360 -33.5342 -33.5249
   -33.5132 -33.5062 -33.4981 -33.4924 -33.4905 -33.4841 -33.4760 -33.4741
   -33.4672 -33.4501 -33.4476 -33.4413 -33.4168 -33.4033 -33.3971 -32.9251
   -32.8508 -32.8382 -32.8283 -32.7659 -32.7623 -32.7271 -32.6897 -32.5962
   -19.3417 -18.2229 -17.9506 -17.8559 -17.7248 -17.6722 -17.6030 -17.5735
   -17.5080 -17.4545 -17.3840 -17.3569 -17.3125 -17.2705 -17.2549 -17.2232
   -17.1659 -17.1629 -17.1462 -17.1253 -17.0912 -17.0477 -17.0449 -17.0200
   -16.9952 -16.9856 -16.9267 -16.9136 -16.8784 -16.8388 -16.8092 -16.8063
   -16.6327 -15.0100 -14.9927 -14.9877 -14.9052  -7.8704  -7.6279  -7.3893
    -6.4555  -5.5094  -5.3739  -5.3188  -5.1881  -5.0277  -4.9733  -4.9314
    -4.8757  -4.8129  -4.8058  -4.7744  -4.7462  -4.7213  -4.6687  -4.6182
    -4.5849  -4.5464  -4.5089  -4.5086  -4.4253  -4.4246  -4.3743  -4.3469
    -4.3429  -4.2937  -4.2820  -4.2579  -4.2390  -4.1623  -4.0765  -4.0515
    -4.0338  -3.9928  -3.9794  -3.9195  -3.8753  -3.8628  -3.8107  -3.7740
    -3.6786  -3.6688  -3.6169  -3.5211  -3.4346  -3.4210  -3.3802  -3.3374
    -3.3272  -3.2552  -3.1926  -3.1621  -3.1196  -3.0575  -3.0379  -2.9314
    -2.9112  -2.8822  -2.8089  -2.7354  -2.7341  -2.6838  -2.6822  -2.6436
    -2.5838  -2.5170  -2.4988  -2.4978  -2.4491  -2.3526  -2.3517  -2.3205
    -2.2569  -2.1769  -2.1678  -2.1380  -2.1332  -2.0740  -2.0507  -2.0331
    -2.0009  -1.9132  -1.8898  -1.8561  -1.8227  -1.7769  -1.7654  -1.7263
    -1.7169  -1.6809  -1.6724  -1.5957  -1.5569  -1.3895  -1.3460  -1.3196
    -1.2709  -1.1089  -1.1064  -0.8377  -0.7391  -0.4257  -0.3965  -0.2853
    -0.1669  -0.0059   0.0901   0.1184   1.6923   1.8176   1.8495   1.8795
     2.0255   2.0807   2.0893   2.1025   2.1568   2.1949   2.2311

          k = 0.0000-0.0559 0.0000 ( 26942 PWs)   bands (ev):

   -57.4673 -57.4384 -57.4180 -57.3793 -57.3695 -57.3652 -57.3612 -57.3388
   -57.3213 -57.2829 -57.2773 -57.2361 -57.2252 -57.1991 -57.1821 -56.5373
   -56.5292 -56.5065 -33.9838 -33.9337 -33.8579 -33.8194 -33.8031 -33.7845
   -33.7820 -33.7759 -33.7654 -33.7444 -33.7148 -33.6967 -33.6590 -33.6575
   -33.6375 -33.6372 -33.6206 -33.6165 -33.6138 -33.6138 -33.5937 -33.5908
   -33.5847 -33.5693 -33.5514 -33.5442 -33.5356 -33.5282 -33.5247 -33.5241
   -33.5205 -33.5143 -33.5114 -33.4943 -33.4921 -33.4900 -33.4839 -33.4778
   -33.4747 -33.4692 -33.4473 -33.4416 -33.4369 -33.4040 -33.4001 -32.9495
   -32.8494 -32.8409 -32.8272 -32.7533 -32.7447 -32.6843 -32.6712 -32.6635
   -19.3397 -18.1162 -18.0392 -17.8771 -17.6950 -17.6625 -17.6032 -17.5774
   -17.5341 -17.5170 -17.4420 -17.3268 -17.2940 -17.2628 -17.2591 -17.2349
   -17.1852 -17.1595 -17.1165 -17.1037 -17.0922 -17.0671 -17.0140 -17.0129
   -17.0082 -16.9643 -16.9558 -16.8954 -16.8920 -16.8268 -16.8088 -16.7122
   -16.7026 -15.0096 -15.0053 -14.9927 -14.8868  -7.8752  -7.6280  -7.3884
    -6.4556  -5.3379  -5.3055  -5.2661  -5.1112  -5.0983  -5.0894  -5.0231
    -4.9741  -4.9189  -4.8719  -4.8423  -4.7104  -4.6978  -4.6597  -4.6442
    -4.6102  -4.5617  -4.5285  -4.4842  -4.4688  -4.4333  -4.3874  -4.3421
    -4.3187  -4.2990  -4.2944  -4.2541  -4.2206  -4.1797  -4.1254  -4.1063
    -4.0325  -3.9702  -3.9537  -3.9534  -3.8943  -3.8434  -3.8083  -3.7678
    -3.7022  -3.6137  -3.5697  -3.5024  -3.4933  -3.4539  -3.4000  -3.3342
    -3.3037  -3.2465  -3.1370  -3.0833  -2.9767  -2.9249  -2.8945  -2.8910
    -2.8487  -2.8178  -2.7954  -2.7711  -2.6891  -2.6774  -2.5722  -2.5478
    -2.5256  -2.5067  -2.4762  -2.4141  -2.3871  -2.3815  -2.3492  -2.3453
    -2.3289  -2.2175  -2.2159  -2.2044  -2.1827  -2.1551  -2.1116  -2.0768
    -2.0276  -1.9952  -1.9290  -1.9231  -1.8730  -1.8296  -1.7912  -1.7704
    -1.6985  -1.6717  -1.5901  -1.5588  -1.5510  -1.4642  -1.3723  -1.3302
    -1.0757  -1.0685  -1.0261  -0.9626  -0.9608  -0.4911  -0.4158  -0.2066
    -0.1893   0.0292   0.0395   0.1143   1.7521   1.8028   1.8903   1.9567
     2.0186   2.0375   2.1148   2.1295   2.1362   2.1639   2.1926

          k = 0.0380 0.0000 0.0000 ( 26897 PWs)   bands (ev):

   -57.4688 -57.4337 -57.4210 -57.3809 -57.3724 -57.3645 -57.3534 -57.3422
   -57.3216 -57.2832 -57.2767 -57.2399 -57.2186 -57.2019 -57.1823 -56.5424
   -56.5183 -56.5122 -33.9397 -33.8541 -33.8530 -33.8312 -33.8116 -33.7930
   -33.7753 -33.7711 -33.7685 -33.7556 -33.7295 -33.7122 -33.7040 -33.6910
   -33.6888 -33.6832 -33.6626 -33.6342 -33.6261 -33.6055 -33.5834 -33.5631
   -33.5600 -33.5566 -33.5481 -33.5441 -33.5426 -33.5366 -33.5347 -33.5219
   -33.5135 -33.5037 -33.5008 -33.4901 -33.4851 -33.4832 -33.4800 -33.4724
   -33.4721 -33.4601 -33.4418 -33.4244 -33.4111 -33.4095 -33.3882 -32.8613
   -32.8553 -32.8530 -32.8354 -32.8296 -32.7702 -32.7093 -32.7020 -32.5701
   -19.3419 -18.1933 -17.8957 -17.7725 -17.6834 -17.6610 -17.5859 -17.5373
   -17.4840 -17.4581 -17.4055 -17.3863 -17.3381 -17.2804 -17.2459 -17.2237
   -17.2070 -17.2028 -17.1793 -17.1443 -17.1153 -17.0613 -17.0435 -17.0176
   -16.9959 -16.9646 -16.9611 -16.9232 -16.8599 -16.8563 -16.8527 -16.7965
   -16.6925 -15.0049 -14.9928 -14.9500 -14.9465  -7.8641  -7.6369  -7.3866
    -6.4511  -5.4533  -5.2221  -5.1696  -5.1264  -4.9896  -4.9187  -4.8819
    -4.8326  -4.7882  -4.7185  -4.6783  -4.6390  -4.6215  -4.6068  -4.5682
    -4.5354  -4.5306  -4.4904  -4.4373  -4.4156  -4.3715  -4.3533  -4.3346
    -4.3207  -4.3016  -4.2566  -4.2319  -4.1712  -4.1640  -4.0911  -4.0814
    -4.0453  -3.9772  -3.9305  -3.8826  -3.8574  -3.8215  -3.7990  -3.7549
    -3.7402  -3.6616  -3.6341  -3.6293  -3.5730  -3.5072  -3.4424  -3.3697
    -3.2969  -3.2869  -3.2635  -3.2364  -3.2087  -3.1379  -3.0667  -3.0130
    -2.9821  -2.9363  -2.8617  -2.8345  -2.7774  -2.7270  -2.6963  -2.6122
    -2.5892  -2.5673  -2.5272  -2.4724  -2.4247  -2.4056  -2.3808  -2.3566
    -2.3146  -2.2894  -2.2091  -2.2049  -2.1546  -2.1207  -2.0675  -2.0408
    -2.0184  -1.9853  -1.9610  -1.9215  -1.8838  -1.8045  -1.7603  -1.6886
    -1.6342  -1.5970  -1.5869  -1.5482  -1.5141  -1.4223  -1.3995  -1.3870
    -1.3405  -1.1620  -1.1499  -0.9254  -0.5986  -0.4238  -0.3401  -0.2369
    -0.2351  -0.0200  -0.0172   0.0739   1.6276   1.7720   1.8644   1.9047
     1.9365   1.9728   2.0069   2.0559   2.1187   2.1509   2.1990

          k = 0.0380 0.0280 0.0000 ( 26880 PWs)   bands (ev):

   -57.4681 -57.4362 -57.4192 -57.3800 -57.3709 -57.3654 -57.3571 -57.3402
   -57.3214 -57.2831 -57.2769 -57.2383 -57.2217 -57.2002 -57.1822 -56.5405
   -56.5239 -56.5085 -33.9662 -33.9104 -33.8420 -33.8226 -33.8066 -33.7860
   -33.7748 -33.7663 -33.7644 -33.7484 -33.7402 -33.7127 -33.6975 -33.6797
   -33.6749 -33.6295 -33.6233 -33.6207 -33.6122 -33.5987 -33.5922 -33.5775
   -33.5763 -33.5622 -33.5532 -33.5465 -33.5386 -33.5358 -33.5338 -33.5288
   -33.5119 -33.5070 -33.5019 -33.4979 -33.4904 -33.4841 -33.4809 -33.4800
   -33.4737 -33.4535 -33.4462 -33.4411 -33.4176 -33.4118 -33.3969 -32.9246
   -32.8538 -32.8394 -32.8269 -32.7659 -32.7622 -32.7271 -32.6896 -32.5964
   -19.3401 -18.1470 -17.8854 -17.8054 -17.7134 -17.6303 -17.5805 -17.5645
   -17.5049 -17.4432 -17.3920 -17.3791 -17.3498 -17.3139 -17.2943 -17.2470
   -17.2259 -17.1812 -17.1557 -17.1352 -17.1110 -17.0700 -17.0357 -17.0145
   -16.9863 -16.9756 -16.9612 -16.9308 -16.8674 -16.8385 -16.8014 -16.7663
   -16.7172 -15.0070 -14.9929 -14.9874 -14.9052  -7.8693  -7.6370  -7.3852
    -6.4510  -5.3889  -5.1742  -5.1185  -5.0470  -5.0121  -4.9716  -4.9489
    -4.9131  -4.8427  -4.8163  -4.7445  -4.6982  -4.6711  -4.6215  -4.5710
    -4.5527  -4.5163  -4.4948  -4.4707  -4.4280  -4.4029  -4.3644  -4.3262
    -4.2898  -4.2749  -4.2414  -4.2114  -4.1948  -4.1618  -4.1115  -4.0740
    -4.0174  -3.9789  -3.9551  -3.8793  -3.8586  -3.8140  -3.8040  -3.7452
    -3.6748  -3.6561  -3.5692  -3.5337  -3.4984  -3.4770  -3.3892  -3.3550
    -3.2963  -3.2753  -3.2153  -3.1783  -3.1677  -3.0984  -3.0429  -3.0176
    -2.9767  -2.8965  -2.8775  -2.8044  -2.7643  -2.7107  -2.6847  -2.6487
    -2.6078  -2.5842  -2.5350  -2.4752  -2.4339  -2.4055  -2.3605  -2.3442
    -2.3218  -2.2661  -2.2276  -2.2059  -2.1573  -2.1163  -2.0776  -2.0261
    -2.0146  -1.9815  -1.9606  -1.9305  -1.8703  -1.8465  -1.7994  -1.7761
    -1.7482  -1.6946  -1.6193  -1.5396  -1.5246  -1.4454  -1.4115  -1.3975
    -1.3002  -1.1180  -1.0253  -0.9530  -0.7475  -0.4183  -0.3858  -0.2867
    -0.1531  -0.0094  -0.0071   0.0680   1.6958   1.7900   1.8123   1.8938
     1.9645   2.0200   2.0511   2.0780   2.1059   2.1270   2.1610

          k = 0.0380-0.0559 0.0000 ( 26850 PWs)   bands (ev):

   -57.4672 -57.4383 -57.4179 -57.3790 -57.3690 -57.3657 -57.3614 -57.3387
   -57.3212 -57.2829 -57.2772 -57.2361 -57.2252 -57.1989 -57.1821 -56.5373
   -56.5292 -56.5064 -33.9840 -33.9346 -33.8607 -33.8193 -33.8032 -33.7866
   -33.7845 -33.7762 -33.7658 -33.7445 -33.7152 -33.6970 -33.6594 -33.6579
   -33.6376 -33.6281 -33.6147 -33.6120 -33.6058 -33.6006 -33.5904 -33.5861
   -33.5802 -33.5688 -33.5512 -33.5440 -33.5416 -33.5281 -33.5249 -33.5223
   -33.5205 -33.5148 -33.5086 -33.5006 -33.4937 -33.4907 -33.4855 -33.4825
   -33.4809 -33.4736 -33.4482 -33.4415 -33.4367 -33.4126 -33.3998 -32.9490
   -32.8515 -32.8432 -32.8253 -32.7533 -32.7446 -32.6842 -32.6711 -32.6634
   -19.3383 -18.0533 -17.9711 -17.8153 -17.6734 -17.6192 -17.5976 -17.5515
   -17.5321 -17.4593 -17.4177 -17.3682 -17.3611 -17.3445 -17.2994 -17.2592
   -17.2233 -17.1898 -17.1766 -17.1023 -17.0923 -17.0692 -17.0320 -17.0243
   -17.0059 -16.9801 -16.9407 -16.9382 -16.8269 -16.8090 -16.7868 -16.7764
   -16.7279 -15.0079 -15.0036 -14.9929 -14.8865  -7.8743  -7.6370  -7.3839
    -6.4509  -5.2645  -5.1643  -5.0838  -5.0603  -5.0147  -5.0044  -4.9348
    -4.8845  -4.8767  -4.8383  -4.8234  -4.8170  -4.7998  -4.6665  -4.6193
    -4.6070  -4.5040  -4.4839  -4.4616  -4.4278  -4.3910  -4.3556  -4.3236
    -4.2777  -4.2708  -4.2530  -4.2241  -4.1862  -4.1558  -4.1365  -4.1221
    -4.0118  -3.9818  -3.9605  -3.8951  -3.8827  -3.8475  -3.7539  -3.6991
    -3.6232  -3.5571  -3.5494  -3.4754  -3.4389  -3.4136  -3.3815  -3.3133
    -3.2481  -3.2085  -3.1708  -3.1189  -3.0985  -3.0917  -3.0264  -2.9902
    -2.9452  -2.9148  -2.8605  -2.8241  -2.7898  -2.7362  -2.7025  -2.6487
    -2.5840  -2.5545  -2.5085  -2.4676  -2.4375  -2.3960  -2.3544  -2.3431
    -2.3227  -2.2919  -2.2140  -2.1780  -2.1574  -2.1400  -2.1302  -2.1117
    -2.0526  -2.0094  -1.9920  -1.9260  -1.9076  -1.8765  -1.8441  -1.7783
    -1.7650  -1.7207  -1.6401  -1.5575  -1.5410  -1.4807  -1.4570  -1.3819
    -1.1276  -1.1199  -1.0053  -0.9548  -0.9055  -0.4788  -0.4117  -0.1963
    -0.1799  -0.0011   0.0289   0.0338   1.7425   1.7966   1.8475   1.9015
     1.9571   2.0004   2.0370   2.0509   2.0708   2.1196   2.2053

          k = 0.0380-0.0280 0.0000 ( 26873 PWs)   bands (ev):

   -57.4681 -57.4362 -57.4192 -57.3800 -57.3709 -57.3654 -57.3571 -57.3402
   -57.3214 -57.2831 -57.2769 -57.2383 -57.2217 -57.2002 -57.1822 -56.5405
   -56.5239 -56.5085 -33.9662 -33.9104 -33.8420 -33.8226 -33.8066 -33.7859
   -33.7748 -33.7663 -33.7644 -33.7484 -33.7402 -33.7127 -33.6975 -33.6798
   -33.6748 -33.6294 -33.6234 -33.6207 -33.6121 -33.5987 -33.5921 -33.5775
   -33.5763 -33.5621 -33.5532 -33.5467 -33.5385 -33.5356 -33.5338 -33.5289
   -33.5119 -33.5069 -33.5019 -33.4979 -33.4904 -33.4841 -33.4809 -33.4800
   -33.4737 -33.4536 -33.4461 -33.4411 -33.4176 -33.4118 -33.3969 -32.9246
   -32.8538 -32.8394 -32.8269 -32.7659 -32.7622 -32.7271 -32.6896 -32.5964
   -19.3401 -18.1471 -17.8854 -17.8054 -17.7134 -17.6302 -17.5804 -17.5647
   -17.5049 -17.4430 -17.3920 -17.3792 -17.3501 -17.3139 -17.2943 -17.2471
   -17.2258 -17.1810 -17.1556 -17.1352 -17.1111 -17.0703 -17.0359 -17.0146
   -16.9864 -16.9758 -16.9611 -16.9306 -16.8664 -16.8385 -16.8013 -16.7666
   -16.7174 -15.0070 -14.9929 -14.9874 -14.9052  -7.8693  -7.6370  -7.3852
    -6.4510  -5.3889  -5.1743  -5.1185  -5.0467  -5.0123  -4.9712  -4.9486
    -4.9129  -4.8424  -4.8164  -4.7448  -4.6981  -4.6712  -4.6218  -4.5711
    -4.5527  -4.5167  -4.4954  -4.4710  -4.4283  -4.4029  -4.3646  -4.3262
    -4.2900  -4.2746  -4.2413  -4.2116  -4.1949  -4.1618  -4.1118  -4.0739
    -4.0172  -3.9792  -3.9548  -3.8795  -3.8582  -3.8139  -3.8038  -3.7453
    -3.6746  -3.6554  -3.5697  -3.5342  -3.4978  -3.4767  -3.3891  -3.3551
    -3.2959  -3.2748  -3.2152  -3.1776  -3.1676  -3.0987  -3.0428  -3.0178
    -2.9769  -2.8969  -2.8775  -2.8049  -2.7645  -2.7110  -2.6846  -2.6488
    -2.6074  -2.5846  -2.5349  -2.4756  -2.4335  -2.4057  -2.3610  -2.3447
    -2.3218  -2.2656  -2.2273  -2.2053  -2.1568  -2.1164  -2.0771  -2.0259
    -2.0143  -1.9810  -1.9606  -1.9307  -1.8701  -1.8469  -1.7999  -1.7764
    -1.7485  -1.6953  -1.6191  -1.5393  -1.5247  -1.4454  -1.4119  -1.3976
    -1.3002  -1.1183  -1.0252  -0.9528  -0.7475  -0.4183  -0.3858  -0.2867
    -0.1530  -0.0098  -0.0073   0.0685   1.6958   1.7899   1.8126   1.8943
     1.9649   2.0201   2.0511   2.0780   2.1063   2.1272   2.1606

          k =-0.0760-0.0000 0.0000 ( 26902 PWs)   bands (ev):

   -57.4688 -57.4337 -57.4210 -57.3804 -57.3727 -57.3645 -57.3536 -57.3423
   -57.3215 -57.2832 -57.2766 -57.2399 -57.2186 -57.2018 -57.1824 -56.5424
   -56.5183 -56.5123 -33.9399 -33.8552 -33.8533 -33.8322 -33.8136 -33.7935
   -33.7761 -33.7715 -33.7699 -33.7570 -33.7304 -33.7171 -33.7059 -33.6945
   -33.6904 -33.6839 -33.6640 -33.6229 -33.6059 -33.5767 -33.5730 -33.5600
   -33.5575 -33.5565 -33.5480 -33.5458 -33.5432 -33.5365 -33.5337 -33.5262
   -33.5197 -33.5192 -33.5006 -33.4886 -33.4879 -33.4861 -33.4833 -33.4730
   -33.4720 -33.4639 -33.4421 -33.4295 -33.4176 -33.4101 -33.3886 -32.8610
   -32.8586 -32.8528 -32.8353 -32.8293 -32.7702 -32.7094 -32.7020 -32.5702
   -19.3403 -18.0728 -17.8772 -17.6948 -17.6787 -17.6614 -17.5440 -17.5121
   -17.4819 -17.4530 -17.4340 -17.4195 -17.3150 -17.3049 -17.3041 -17.2544
   -17.2307 -17.2281 -17.1946 -17.1698 -17.1530 -17.0652 -17.0410 -17.0272
   -17.0121 -16.9718 -16.9653 -16.9514 -16.8545 -16.8244 -16.8231 -16.7907
   -16.7803 -15.0017 -14.9931 -14.9504 -14.9469  -7.8628  -7.6457  -7.3831
    -6.4471  -5.3793  -5.0576  -4.9299  -4.9081  -4.8895  -4.8404  -4.8163
    -4.7967  -4.7584  -4.7112  -4.6672  -4.6414  -4.6096  -4.5928  -4.5774
    -4.5301  -4.5142  -4.4180  -4.4163  -4.3897  -4.3848  -4.3708  -4.3316
    -4.3067  -4.2719  -4.2532  -4.2328  -4.1966  -4.1306  -4.1201  -4.0987
    -4.0676  -4.0257  -3.9914  -3.8938  -3.8415  -3.7749  -3.7320  -3.7154
    -3.7131  -3.6829  -3.6470  -3.6151  -3.4906  -3.4729  -3.4679  -3.4208
    -3.3275  -3.2757  -3.2534  -3.2410  -3.1894  -3.1491  -3.0829  -3.0514
    -3.0214  -3.0157  -2.9510  -2.8792  -2.8284  -2.7854  -2.6687  -2.6511
    -2.6469  -2.5849  -2.5675  -2.5369  -2.4782  -2.4749  -2.4523  -2.4144
    -2.3912  -2.2532  -2.2486  -2.2206  -2.2060  -2.1926  -2.1474  -2.1316
    -2.0718  -2.0197  -1.9443  -1.9257  -1.9073  -1.8147  -1.7096  -1.7026
    -1.6876  -1.6849  -1.6529  -1.6110  -1.5639  -1.4513  -1.3635  -1.3264
    -1.2015  -1.1640  -1.1249  -1.1187  -0.5942  -0.4120  -0.3627  -0.2195
    -0.2171  -0.0666  -0.0615   0.0113   1.6280   1.6947   1.7525   1.8668
     1.8983   1.9531   1.9908   2.0753   2.0899   2.1145   2.1232

          k =-0.0760 0.0279 0.0000 ( 26908 PWs)   bands (ev):

   -57.4681 -57.4362 -57.4193 -57.3797 -57.3710 -57.3654 -57.3573 -57.3402
   -57.3214 -57.2831 -57.2768 -57.2384 -57.2217 -57.2002 -57.1823 -56.5405
   -56.5239 -56.5085 -33.9665 -33.9115 -33.8448 -33.8228 -33.8068 -33.7859
   -33.7749 -33.7700 -33.7663 -33.7491 -33.7409 -33.7138 -33.6978 -33.6816
   -33.6761 -33.6269 -33.6181 -33.6139 -33.6021 -33.5783 -33.5774 -33.5751
   -33.5714 -33.5660 -33.5526 -33.5427 -33.5406 -33.5375 -33.5338 -33.5287
   -33.5213 -33.5160 -33.5056 -33.4975 -33.4924 -33.4897 -33.4848 -33.4842
   -33.4735 -33.4526 -33.4475 -33.4410 -33.4228 -33.4175 -33.3970 -32.9243
   -32.8569 -32.8406 -32.8259 -32.7659 -32.7622 -32.7272 -32.6896 -32.5964
   -19.3386 -18.0343 -17.8541 -17.7423 -17.6702 -17.6512 -17.5456 -17.5377
   -17.4758 -17.4454 -17.4393 -17.4065 -17.3275 -17.3235 -17.2876 -17.2633
   -17.2556 -17.2439 -17.2000 -17.1716 -17.1520 -17.0918 -17.0471 -17.0355
   -16.9820 -16.9809 -16.9664 -16.9399 -16.8951 -16.8389 -16.8023 -16.7952
   -16.6886 -15.0043 -14.9931 -14.9872 -14.9053  -7.8682  -7.6459  -7.3813
    -6.4467  -5.3192  -5.0867  -5.0291  -5.0236  -4.9518  -4.8737  -4.8298
    -4.7874  -4.7624  -4.6737  -4.6725  -4.6662  -4.6335  -4.5863  -4.5540
    -4.5347  -4.4981  -4.4679  -4.4317  -4.4181  -4.4100  -4.3936  -4.2878
    -4.2566  -4.2338  -4.2156  -4.1717  -4.1393  -4.1271  -4.0870  -4.0461
    -4.0432  -3.9833  -3.9640  -3.9045  -3.8909  -3.8360  -3.8279  -3.7410
    -3.7062  -3.6733  -3.6027  -3.5782  -3.5224  -3.4160  -3.4154  -3.3646
    -3.2706  -3.2555  -3.2093  -3.1855  -3.1368  -3.1248  -3.0906  -3.0359
    -2.9753  -2.9566  -2.8793  -2.8405  -2.8333  -2.8035  -2.7297  -2.7114
    -2.6391  -2.5953  -2.5685  -2.5278  -2.4982  -2.4790  -2.4426  -2.4245
    -2.3781  -2.3430  -2.3018  -2.2641  -2.2228  -2.1971  -2.1730  -2.0925
    -2.0918  -2.0488  -2.0278  -1.9596  -1.9434  -1.8712  -1.8183  -1.7482
    -1.7156  -1.6988  -1.6016  -1.5413  -1.5200  -1.4827  -1.3229  -1.2476
    -1.2284  -1.1853  -1.1587  -0.9477  -0.7684  -0.4094  -0.3702  -0.2875
    -0.1374  -0.1119  -0.0105   0.0348   1.6815   1.7177   1.7507   1.8107
     1.9433   1.9446   1.9923   2.0074   2.0487   2.1238   2.1614

          k =-0.0760-0.0559 0.0000 ( 26868 PWs)   bands (ev):

   -57.4672 -57.4383 -57.4179 -57.3787 -57.3681 -57.3665 -57.3616 -57.3387
   -57.3212 -57.2829 -57.2771 -57.2362 -57.2252 -57.1989 -57.1822 -56.5373
   -56.5292 -56.5064 -33.9843 -33.9357 -33.8635 -33.8193 -33.8036 -33.7910
   -33.7844 -33.7765 -33.7660 -33.7446 -33.7156 -33.6972 -33.6598 -33.6579
   -33.6381 -33.6245 -33.6099 -33.5963 -33.5950 -33.5906 -33.5862 -33.5764
   -33.5727 -33.5658 -33.5638 -33.5510 -33.5430 -33.5284 -33.5227 -33.5205
   -33.5161 -33.5155 -33.5115 -33.5087 -33.5064 -33.4947 -33.4887 -33.4848
   -33.4819 -33.4747 -33.4473 -33.4413 -33.4358 -33.4238 -33.3998 -32.9486
   -32.8538 -32.8457 -32.8240 -32.7532 -32.7446 -32.6841 -32.6711 -32.6634
   -19.3370 -17.9702 -17.8315 -17.8259 -17.6486 -17.6035 -17.6005 -17.5307
   -17.4852 -17.4393 -17.4349 -17.4038 -17.3552 -17.3308 -17.3012 -17.2754
   -17.2598 -17.2245 -17.1832 -17.1823 -17.1486 -17.1155 -17.0887 -17.0466
   -17.0400 -16.9859 -16.9221 -16.8844 -16.8596 -16.8575 -16.8209 -16.7955
   -16.6387 -15.0063 -15.0020 -14.9932 -14.8862  -7.8735  -7.6459  -7.3796
    -6.4464  -5.2159  -5.1783  -5.1328  -5.0397  -5.0020  -4.9702  -4.8343
    -4.7741  -4.7322  -4.6871  -4.6446  -4.6369  -4.6225  -4.5668  -4.5496
    -4.5340  -4.4876  -4.4470  -4.4270  -4.4040  -4.4025  -4.3989  -4.3958
    -4.2629  -4.2517  -4.1994  -4.1789  -4.1567  -4.1337  -4.1309  -4.0770
    -4.0350  -3.9914  -3.9818  -3.9561  -3.8892  -3.8369  -3.7564  -3.6579
    -3.6475  -3.5906  -3.5802  -3.4877  -3.4818  -3.3894  -3.3254  -3.2815
    -3.2509  -3.2277  -3.1513  -3.1461  -3.1371  -3.0867  -3.0529  -3.0245
    -2.9762  -2.9659  -2.9210  -2.8184  -2.7830  -2.7247  -2.6971  -2.6940
    -2.6369  -2.6330  -2.5957  -2.5941  -2.5875  -2.5425  -2.4878  -2.4538
    -2.4369  -2.4052  -2.3164  -2.2918  -2.2394  -2.2315  -2.1657  -2.1497
    -2.1372  -2.0735  -2.0219  -1.9907  -1.9824  -1.9087  -1.8053  -1.7469
    -1.7252  -1.7036  -1.5979  -1.5490  -1.4937  -1.4507  -1.2685  -1.2562
    -1.1836  -1.1440  -1.0912  -1.0425  -0.8556  -0.4570  -0.4048  -0.1875
    -0.1722  -0.1347   0.0317   0.0374   1.7061   1.7176   1.8151   1.8565
     1.9184   1.9290   1.9734   1.9906   2.0005   2.0464   2.0522

     the Fermi energy is     1.6449 ev

!    total energy              =   -3295.82444437 Ry
     estimated scf accuracy    <       0.00000006 Ry
     smearing contrib. (-TS)   =      -0.03670860 Ry
     internal energy E=F+TS    =   -3295.78773577 Ry

     The total energy is F=E-TS. E is the sum of the following terms:
     one-electron contribution =  -34289.82725391 Ry
     hartree contribution      =   17213.90190244 Ry
     xc contribution           =    -543.76728262 Ry
     ewald contribution        =   14323.90020222 Ry
     electric field correction =       0.00469610 Ry

     convergence has been achieved in  55 iterations

     Forces acting on atoms (cartesian axes, Ry/au):

     atom    1 type  1   force =     0.00001397    0.00239478    0.05210920
     atom    2 type  1   force =    -0.00004454   -0.00061606   -0.00558290
     atom    3 type  1   force =     0.00003173   -0.00288280   -0.00287693
     atom    4 type  1   force =     0.00005435   -0.00037075    0.10761959
     atom    5 type  1   force =    -0.00002187    0.00170347    0.00529054
     atom    6 type  1   force =     0.00000910   -0.00050033    0.00056189
     atom    7 type  1   force =     0.06435168    0.00076941   -0.03001645
     atom    8 type  1   force =     0.00532098   -0.02658613    0.00244847
     atom    9 type  1   force =     0.00843758   -0.01289561   -0.00075275
     atom   10 type  2   force =    -0.00006422   -0.00537207   -0.18726581
     atom   11 type  2   force =     0.00012543    0.02016512   -0.00480026
     atom   12 type  2   force =    -0.00010817    0.01849475   -0.00058175
     atom   13 type  1   force =    -0.06445595    0.00029515   -0.02997531
     atom   14 type  1   force =    -0.00513929   -0.02679430    0.00247641
     atom   15 type  1   force =    -0.00838349   -0.01280198   -0.00073672
     atom   16 type  2   force =     0.00009633   -0.00105248    0.07212644
     atom   17 type  2   force =    -0.00026496    0.03302507    0.00617274
     atom   18 type  2   force =     0.00002363    0.00460025   -0.00761486
     atom   19 type  1   force =     0.00001509    0.00395574    0.05308080
     atom   20 type  1   force =    -0.00003983   -0.00055559   -0.00170802
     atom   21 type  1   force =     0.00005435    0.00130320    0.10846608
     atom   22 type  1   force =    -0.00002577   -0.00119103    0.00629501
     atom   23 type  1   force =     0.00002979   -0.00517798    0.00193303
     atom   24 type  1   force =     0.06587124    0.00140124   -0.02847789
     atom   25 type  1   force =     0.00547489   -0.02923806    0.00262971
     atom   26 type  1   force =     0.00972686   -0.00198231   -0.00021683
     atom   27 type  2   force =    -0.00006962   -0.00075921   -0.19122454
     atom   28 type  2   force =     0.00014877    0.02481008   -0.00469426
     atom   29 type  2   force =    -0.00009560   -0.00424045    0.00932448
     atom   30 type  1   force =    -0.06597485    0.00096339   -0.02844902
     atom   31 type  1   force =    -0.00532633   -0.02935970    0.00266824
     atom   32 type  1   force =    -0.00964056   -0.00198502   -0.00021461
     atom   33 type  2   force =     0.00013570    0.00069742    0.08051318
     atom   34 type  2   force =    -0.00028989    0.03537789    0.00620824
     atom   35 type  2   force =     0.00005032    0.01549028    0.00193620
     atom   36 type  1   force =     0.00006523    0.00027539    0.05320442
     atom   37 type  1   force =    -0.00003312    0.00177848   -0.00894558
     atom   38 type  1   force =     0.00001162    0.00136822   -0.00013268
     atom   39 type  1   force =     0.00005443   -0.00116820    0.10819362
     atom   40 type  1   force =    -0.00003385   -0.00137814    0.00603272
     atom   41 type  1   force =     0.00001806    0.00390549    0.00141530
     atom   42 type  1   force =     0.06613040   -0.00349533   -0.02907144
     atom   43 type  1   force =     0.00366222   -0.02410573    0.00085486
     atom   44 type  1   force =     0.01422672   -0.01861784    0.00314078
     atom   45 type  2   force =    -0.00009481    0.00311212   -0.18715748
     atom   46 type  2   force =     0.00013776    0.01623163    0.00222828
     atom   47 type  2   force =    -0.00007558    0.01859186   -0.00292596
     atom   48 type  1   force =    -0.06622969   -0.00393062   -0.02902877
     atom   49 type  1   force =    -0.00341310   -0.02429699    0.00086887
     atom   50 type  1   force =    -0.01422057   -0.01856338    0.00314353
     atom   51 type  2   force =     0.00012880   -0.00294624    0.07344128
     atom   52 type  2   force =    -0.00027735    0.03103414    0.00785413
     atom   53 type  2   force =     0.00000695    0.02031910    0.00046256
     atom   54 type  3   force =    -0.00000617   -0.01058569    0.00330239
     atom   55 type  4   force =     0.00001438    0.01025396   -0.00642540
     atom   56 type  4   force =    -0.00003960   -0.00049279    0.00069915
     atom   57 type  4   force =    -0.00005600   -0.00019496   -0.00003716
     atom   58 type  3   force =    -0.00026317    0.00026717    0.00006581
     atom   59 type  4   force =     0.00000816    0.00025362    0.00047107
     atom   60 type  4   force =     0.00011726    0.00058429    0.00076893
     atom   61 type  4   force =     0.00013417    0.00071509    0.00090543

     Total force =     0.459636     Total SCF correction =     0.000583
  @ DRIVER MODE: Message from server: STATUS
  @ DRIVER MODE: Message from server: GETFORCE
  @ DRIVER MODE: Returning v,forces,stress,ensemble 

     Writing output data file ./calc.save/
  @ DRIVER MODE: Message from server: EXIT
  @ DRIVE MODE: Exiting  
 
     init_run     :     18.25s CPU     18.67s WALL (       1 calls)
     electrons    :   1652.67s CPU   1689.01s WALL (       1 calls)
     forces       :      4.55s CPU      4.77s WALL (       1 calls)

     Called by init_run:
     wfcinit      :      9.84s CPU      9.97s WALL (       1 calls)
     potinit      :      7.36s CPU      7.47s WALL (       1 calls)
     hinit0       :      0.43s CPU      0.46s WALL (       1 calls)

     Called by electrons:
     c_bands      :   1383.90s CPU   1403.29s WALL (      55 calls)
     sum_band     :    185.77s CPU    193.51s WALL (      55 calls)
     v_of_rho     :     63.67s CPU     66.34s WALL (      56 calls)
     newd         :     23.12s CPU     29.11s WALL (      56 calls)
     mix_rho      :      2.49s CPU      2.84s WALL (      55 calls)
     vdW_kernel   :      5.84s CPU      5.86s WALL (       1 calls)

     Called by c_bands:
     init_us_2    :     10.86s CPU     11.02s WALL (    1120 calls)
     cegterg      :   1353.19s CPU   1371.84s WALL (     553 calls)

     Called by *egterg:
     cdiaghg      :    197.13s CPU    199.18s WALL (    5864 calls)
     h_psi        :    749.92s CPU    760.32s WALL (    5876 calls)
     s_psi        :    105.47s CPU    105.79s WALL (    5876 calls)
     g_psi        :      2.52s CPU      2.53s WALL (    5313 calls)

     Called by h_psi:
     h_psi:calbec :     97.02s CPU     98.03s WALL (    5876 calls)
     vloc_psi     :    542.77s CPU    547.77s WALL (    5876 calls)
     add_vuspsi   :    106.10s CPU    107.69s WALL (    5876 calls)

     General routines
     calbec       :    130.72s CPU    131.82s WALL (    6466 calls)
     fft          :     36.23s CPU     36.48s WALL (    3528 calls)
     ffts         :      0.19s CPU      0.20s WALL (     111 calls)
     fftw         :    608.94s CPU    614.51s WALL (  764910 calls)
     interpolate  :      0.69s CPU      0.71s WALL (      56 calls)
     davcio       :      0.00s CPU      0.39s WALL (      10 calls)
 
     Parallel routines
 
     PWSCF        :  27m55.74s CPU  28m33.42s WALL

 
   This run was terminated on:  16: 3:24  18Oct2021            

=------------------------------------------------------------------------------=
   JOB DONE.
=------------------------------------------------------------------------------=
