
     Program PWSCF v.6.7GPU starts on 23Sep2021 at  7:24: 1 

     This program is part of the open-source Quantum ESPRESSO suite
     for quantum simulation of materials; please cite
         "P. Giannozzi et al., J. Phys.:Condens. Matter 21 395502 (2009);
         "P. Giannozzi et al., J. Phys.:Condens. Matter 29 465901 (2017);
         "P. Giannozzi et al., J. Chem. Phys. 152 154105 (2020);
          URL http://www.quantum-espresso.org", 
     in publications or presentations arising from this work. More details at
     http://www.quantum-espresso.org/quote

     Parallel version (MPI), running on     8 processors

     MPI processes distributed on     1 nodes
     R & G space division:  proc/nbgrp/npool/nimage =       8
     Reading input from /storage/home/hcoda1/3/ntian30/research/carbon/CxH_vib/H2O_calc/ads_slab/CH2NHHO_a/out_0023/pw.inp
Warning: card &CELL ignored
Warning: card   CELL_DYNAMICS='IPI', ignored
Warning: card / ignored

     Current dimensions of program PWSCF are:
     Max number of different atomic species (ntypx) = 10
     Max number of k-points (npk) =  40000
     Max angular momentum in pseudopotentials (lmaxx) =  3
     Presently no symmetry can be used with electric field

     Message from routine cell_base_init:
     DEPRECATED: use true lattice parameter, not A to a.u. conversion factor

     **************************************************************************
     Initializing libbeef V0.1.2 with the BEEF-vdW functional.
     Citation: Wellendorff et al., PRB 85, 235149 (2012).
     **************************************************************************


     IMPORTANT: XC functional enforced from input :
     Exchange-correlation= BEEF-VDW
                           (   1   4  43  14   2   0   0)
     Any further DFT definition will be discarded
     Please, verify this is what you really want


     Subspace diagonalization in iterative solution of the eigenvalue problem:
     one sub-group per band group will be used
     scalapack distributed-memory algorithm (size of sub-group:  2*  2 procs)

  @ DRIVER MODE: Connecting to 
 qe_1139763_2941012.sched-torque.pace.gatech.eduvel5gdf9_scratch
  using UNIX socket
  @ DRIVER MODE: Message from server: STATUS
  @ DRIVER MODE: Message from server: INIT
  @ DRIVER MODE: Receiving replica           0          -1
  @ DRIVER MODE: Receiving encoded integer          25
  @ DRIVER MODE:  SCF:  T  FORCE:  T  STRESS:  F  VC:  F  ENSEMBLE:  F
  @ DRIVER MODE:  SCF:  T  FORCE:  T  STRESS:  F  VC:  F  ENSEMBLE:  F
 
     Parallelization info
     --------------------
     sticks:   dense  smooth     PW     G-vecs:    dense   smooth      PW
     Min         409     164     47                70857    17926    2743
     Max         411     165     48                70858    17931    2751
     Sum        3275    1317    379               566857   143421   21985
 
     Using Slab Decomposition
 


     bravais-lattice index     =            0
     lattice parameter (alat)  =       1.8897  a.u.
     unit-cell volume          =    6658.9804 (a.u.)^3
     number of atoms/cell      =           54
     number of atomic types    =            5
     number of electrons       =       397.00
     number of Kohn-Sham states=          208
     kinetic-energy cutoff     =      29.3995  Ry
     charge density cutoff     =     293.9946  Ry
     scf convergence threshold =      7.3E-08
     mixing beta               =       0.0500
     number of iterations used =            8  plain     mixing
     Exchange-correlation= BEEF-VDW
                           (   1   4  43  14   2   0   0)

     celldm(1)=   1.889726  celldm(2)=   0.000000  celldm(3)=   0.000000
     celldm(4)=   0.000000  celldm(5)=   0.000000  celldm(6)=   0.000000

     crystal axes: (cart. coord. in units of alat)
               a(1) = (   6.579727   0.000000   0.000000 )  
               a(2) = (  -0.000775   5.961596   0.000000 )  
               a(3) = (   0.000000   0.000000  25.155947 )  

     reciprocal axes: (cart. coord. in units 2 pi/alat)
               b(1) = (  0.151982  0.000020  0.000000 )  
               b(2) = (  0.000000  0.167740  0.000000 )  
               b(3) = (  0.000000  0.000000  0.039752 )  


     PseudoPot. # 1 for Ti read from file:
     /storage/coda1/p-amedford6/0/shared/rich_project_chbe-medford/medford-share/data/pseudos_module/espresso/nninc/pbe/van/Ti.UPF
     MD5 check sum: 8e4df49b7f0d34bbd5052bf3f5ea0213
     Pseudo is Ultrasoft, Zval = 12.0
     Generated by new atomic code, or converted to UPF format
     Using radial grid of  851 points,  6 beta functions with: 
                l(1) =   0
                l(2) =   0
                l(3) =   1
                l(4) =   1
                l(5) =   2
                l(6) =   2
     Q(r) pseudized with  8 coefficients,  rinner =    1.000   1.000   1.000
                                                       1.000   1.000

     PseudoPot. # 2 for O  read from file:
     /storage/coda1/p-amedford6/0/shared/rich_project_chbe-medford/medford-share/data/pseudos_module/espresso/nninc/pbe/van/O.UPF
     MD5 check sum: 78c19812648e8988a0fe644b0f25305e
     Pseudo is Ultrasoft, Zval =  6.0
     Generated by new atomic code, or converted to UPF format
     Using radial grid of  737 points,  4 beta functions with: 
                l(1) =   0
                l(2) =   0
                l(3) =   1
                l(4) =   1
     Q(r) pseudized with  8 coefficients,  rinner =    0.800   0.800   0.800


     PseudoPot. # 3 for N  read from file:
     /storage/coda1/p-amedford6/0/shared/rich_project_chbe-medford/medford-share/data/pseudos_module/espresso/nninc/pbe/van/N.UPF
     MD5 check sum: 90d10febe142ad51ac9d5be1deb811c4
     Pseudo is Ultrasoft, Zval =  5.0
     Generated by new atomic code, or converted to UPF format
     Using radial grid of  729 points,  4 beta functions with: 
                l(1) =   0
                l(2) =   0
                l(3) =   1
                l(4) =   1
     Q(r) pseudized with  8 coefficients,  rinner =    0.800   0.800   0.800


     PseudoPot. # 4 for C  read from file:
     /storage/coda1/p-amedford6/0/shared/rich_project_chbe-medford/medford-share/data/pseudos_module/espresso/nninc/pbe/van/C.UPF
     MD5 check sum: 1a69bf6b8db32088f5b2163dbdb77a27
     Pseudo is Ultrasoft, Zval =  4.0
     Generated by new atomic code, or converted to UPF format
     Using radial grid of  721 points,  4 beta functions with: 
                l(1) =   0
                l(2) =   0
                l(3) =   1
                l(4) =   1
     Q(r) pseudized with  8 coefficients,  rinner =    0.800   0.800   0.800


     PseudoPot. # 5 for H  read from file:
     /storage/coda1/p-amedford6/0/shared/rich_project_chbe-medford/medford-share/data/pseudos_module/espresso/nninc/pbe/van/H.UPF
     MD5 check sum: b5ee9d7bfd3a09ee7748110bda690ff7
     Pseudo is Ultrasoft, Zval =  1.0
     Generated by new atomic code, or converted to UPF format
     Using radial grid of  615 points,  1 beta functions with: 
                l(1) =   0
     Q(r) pseudized with  8 coefficients,  rinner =    0.800

     atomic species   valence    mass     pseudopotential
        Ti1           12.00    47.86700     Ti( 1.00)
        O1             6.00    15.99900     O ( 1.00)
        N1             5.00    14.00700     N ( 1.00)
        C1             4.00    12.01100     C ( 1.00)
        H1             1.00     1.00800     H ( 1.00)

     No symmetry found



   Cartesian axes

     site n.     atom                  positions (alat units)
         1           Ti1 tau(   1) = (   0.0004258   2.9801865   6.0000000  )
         2           Ti1 tau(   2) = (   3.2906075   1.4906267   6.0002472  )
         3           O1  tau(   3) = (   0.0006271   0.0005054   7.9858123  )
         4           O1  tau(   4) = (   3.2906025   0.0005020   7.3038282  )
         5           O1  tau(   5) = (   4.5942328   1.4918067   9.2879030  )
         6           O1  tau(   6) = (   1.9868534   1.4903216   9.2879459  )
         7           Ti1 tau(   7) = (   3.2907910   2.8959150   9.1758416  )
         8           Ti1 tau(   8) = (   0.0015273   1.4827037   9.2680791  )
         9           O1  tau(   9) = (   3.2872377   5.9372537  11.3619719  )
        10           O1  tau(  10) = (   0.0116148   5.9584955  10.6183126  )
        11           O1  tau(  11) = (   1.2678424   1.4880610  12.6451974  )
        12           O1  tau(  12) = (   5.2928823   1.5036634  12.6399001  )
        13           Ti1 tau(  13) = (   6.5521701   2.9315368  12.5404127  )
        14           Ti1 tau(  14) = (   3.2895327   1.2997526  12.7137971  )
        15           O1  tau(  15) = (   6.5477037   0.0845492  14.6505624  )
        16           O1  tau(  16) = (   3.2827468   0.0880329  14.0175491  )
        17           O1  tau(  17) = (   4.5427558   1.5765460  16.1196870  )
        18           O1  tau(  18) = (   1.9971221   1.5491956  16.2097298  )
        19           Ti1 tau(  19) = (   3.2670693   3.0250103  15.6873951  )
        20           Ti1 tau(  20) = (   6.4806419   1.4532933  16.0069425  )
        21           O1  tau(  21) = (   3.2904802   0.0005063   4.7018136  )
        22           O1  tau(  22) = (   6.5100566   5.8635464  17.1664964  )
        23           O1  tau(  23) = (   1.3043587   1.4918075   6.0039043  )
        24           O1  tau(  24) = (   5.2767064   1.4903225   6.0039473  )
        25           Ti1 tau(  25) = (   0.0000382   5.9609847   6.0000000  )
        26           Ti1 tau(  26) = (   3.2902200   4.4714249   6.0002472  )
        27           O1  tau(  27) = (   0.0002396   2.9813036   7.9858123  )
        28           O1  tau(  28) = (   3.2902150   2.9813002   7.3038282  )
        29           O1  tau(  29) = (   4.5938453   4.4726049   9.2879030  )
        30           O1  tau(  30) = (   1.9864658   4.4711199   9.2879459  )
        31           Ti1 tau(  31) = (   3.2891106   5.8743827   9.1763621  )
        32           Ti1 tau(  32) = (   0.0006254   4.4649316   9.2693709  )
        33           O1  tau(  33) = (   3.2826969   3.0075535  11.3127327  )
        34           O1  tau(  34) = (   0.0092240   2.9805883  10.6323155  )
        35           O1  tau(  35) = (   1.2713698   4.4757098  12.6731835  )
        36           O1  tau(  36) = (   5.2977781   4.4601507  12.6712348  )
        37           Ti1 tau(  37) = (   0.0330522   5.9225719  12.5042524  )
        38           Ti1 tau(  38) = (   3.2990360   4.3766664  12.4405836  )
        39           O1  tau(  39) = (   0.0150134   2.9421642  14.8567636  )
        40           O1  tau(  40) = (   3.2596324   2.9836344  13.9148061  )
        41           O1  tau(  41) = (   4.5490916   4.3969069  16.0525170  )
        42           O1  tau(  42) = (   1.9960638   4.4622821  16.0939853  )
        43           Ti1 tau(  43) = (   3.1777156   0.0378257  16.2738330  )
        44           Ti1 tau(  44) = (   6.5243348   4.6462111  15.7996153  )
        45           O1  tau(  45) = (   3.2900926   2.9813045   4.7018136  )
        46           O1  tau(  46) = (   1.3039711   4.4726057   6.0039043  )
        47           O1  tau(  47) = (   5.2763189   4.4711207   6.0039473  )
        48           N1  tau(  48) = (   6.4646383   2.7559932  17.9272311  )
        49           C1  tau(  49) = (   0.7552072   2.7164238  18.8602713  )
        50           H1  tau(  50) = (   0.5916026   3.1878006  19.8266510  )
        51           H1  tau(  51) = (   1.6887153   2.1901376  18.6819226  )
        52           H1  tau(  52) = (   5.6107037   3.2511282  18.1874541  )
        53           O1  tau(  53) = (   3.4589997   5.9358250  18.1144358  )
        54           H1  tau(  54) = (   4.3999295   5.9567086  18.3589960  )

     number of k points=    10  Fermi-Dirac smearing, width (Ry)=  0.0073
                       cart. coord. in units 2pi/alat
        k(    1) = (   0.0000000   0.0000000   0.0000000), wk =   0.1250000
        k(    2) = (   0.0000000   0.0419351   0.0000000), wk =   0.2500000
        k(    3) = (   0.0000000  -0.0838702   0.0000000), wk =   0.1250000
        k(    4) = (   0.0379955   0.0000049   0.0000000), wk =   0.2500000
        k(    5) = (   0.0379955   0.0419400   0.0000000), wk =   0.2500000
        k(    6) = (   0.0379955  -0.0838652   0.0000000), wk =   0.2500000
        k(    7) = (   0.0379955  -0.0419301   0.0000000), wk =   0.2500000
        k(    8) = (  -0.0759910  -0.0000099   0.0000000), wk =   0.1250000
        k(    9) = (  -0.0759910   0.0419252   0.0000000), wk =   0.2500000
        k(   10) = (  -0.0759910  -0.0838800   0.0000000), wk =   0.1250000

     Dense  grid:   566857 G-vectors     FFT dimensions: (  72,  64, 270)

     Smooth grid:   143421 G-vectors     FFT dimensions: (  45,  40, 180)

     Estimated max dynamical RAM per process >     456.23 MB

     Estimated total dynamical RAM >       3.56 GB
     Cannot read rho : file not found

     Initial potential from superposition of free atoms

     starting charge  380.99916, renormalised to  397.00000

     negative rho (up, down):  1.654E-02 0.000E+00


     %%%%%%%%%%%%%%%%%%%%%%%%%%%%%%%%%%%%%%%%%%%%%%%%%%%%%%%%%%%%%%%%%%%%%%%%
     %                                                                      %
     % You are using vdW-DF, which was implemented by the Thonhauser group. %
     % Please cite the following two papers that made this development      %
     % possible and the two reviews that describe the various versions:     %
     %                                                                      %
     %   T. Thonhauser et al., PRL 115, 136402 (2015).                      %
     %   T. Thonhauser et al., PRB 76, 125112 (2007).                       %
     %   K. Berland et al., Rep. Prog. Phys. 78, 066501 (2015).             %
     %   D.C. Langreth et al., J. Phys.: Condens. Matter 21, 084203 (2009). %
     %                                                                      %
     %                                                                      %
     % If you are calculating the stress with vdW-DF, please also cite:     %
     %                                                                      %
     %   R. Sabatini et al., J. Phys.: Condens. Matter 24, 424209 (2012).   %
     %                                                                      %
     %%%%%%%%%%%%%%%%%%%%%%%%%%%%%%%%%%%%%%%%%%%%%%%%%%%%%%%%%%%%%%%%%%%%%%%%


 
     Adding external electric field

     Computed dipole along edir(3) : 
        Dipole               -9.2990 Ry au,        -23.6358 Debye
        Dipole field         -0.0175 Ry au, 
 
        Potential amp.        1.6267 Ry
        Total length         46.3494 bohr
 
     Starting wfcs are  300 atomic wfcs
  @ DRIVER MODE: Message from server: STATUS
  @ DRIVER MODE: Message from server: POSDATA
  @ DRIVER MODE: Reading and sharing cell 
  @ DRIVER MODE: Reading and sharing positions 
  @ DRIVER MODE: Received positions 

     total cpu time spent up to now is       16.1 secs

     Self-consistent Calculation

     iteration #  1     ecut=    29.40 Ry     beta= 0.05
     Davidson diagonalization with overlap
     c_bands:  1 eigenvalues not converged
     c_bands:  1 eigenvalues not converged
     c_bands:  2 eigenvalues not converged
     c_bands:  1 eigenvalues not converged
     c_bands:  1 eigenvalues not converged
     c_bands:  2 eigenvalues not converged
     c_bands:  1 eigenvalues not converged
     c_bands:  1 eigenvalues not converged
     c_bands:  3 eigenvalues not converged
     ethr =  1.00E-05,  avg # of iterations = 19.6

     negative rho (up, down):  1.283E-02 0.000E+00
 
     Adding external electric field

     Computed dipole along edir(3) : 
        Dipole               43.6875 Ry au,        111.0426 Debye
        Dipole field          0.0824 Ry au, 
 
        Potential amp.       -7.6425 Ry
        Total length         46.3494 bohr
 

     total cpu time spent up to now is       65.6 secs

     total energy              =   -2534.83549991 Ry
     estimated scf accuracy    <    4638.98155858 Ry

     iteration #  2     ecut=    29.40 Ry     beta= 0.05
     Davidson diagonalization with overlap
     ethr =  1.00E-02,  avg # of iterations = 24.6

     negative rho (up, down):  3.078E-03 0.000E+00
 
     Adding external electric field

     Computed dipole along edir(3) : 
        Dipole               -2.0501 Ry au,         -5.2108 Debye
        Dipole field         -0.0039 Ry au, 
 
        Potential amp.        0.3586 Ry
        Total length         46.3494 bohr
 

     total cpu time spent up to now is      154.8 secs

     total energy              =   -2482.23798441 Ry
     estimated scf accuracy    <   66445.23527482 Ry

     iteration #  3     ecut=    29.40 Ry     beta= 0.05
     Davidson diagonalization with overlap
     ethr =  1.00E-02,  avg # of iterations = 14.1

     negative rho (up, down):  3.157E-03 0.000E+00
 
     Adding external electric field

     Computed dipole along edir(3) : 
        Dipole               -4.4050 Ry au,        -11.1964 Debye
        Dipole field         -0.0083 Ry au, 
 
        Potential amp.        0.7706 Ry
        Total length         46.3494 bohr
 

     total cpu time spent up to now is      214.0 secs

     total energy              =   -2934.81655637 Ry
     estimated scf accuracy    <    4490.76308139 Ry

     iteration #  4     ecut=    29.40 Ry     beta= 0.05
     Davidson diagonalization with overlap
     c_bands:  1 eigenvalues not converged
     ethr =  1.00E-02,  avg # of iterations = 14.8

     negative rho (up, down):  3.207E-03 0.000E+00
 
     Adding external electric field

     Computed dipole along edir(3) : 
        Dipole               -5.8685 Ry au,        -14.9161 Debye
        Dipole field         -0.0111 Ry au, 
 
        Potential amp.        1.0266 Ry
        Total length         46.3494 bohr
 

     total cpu time spent up to now is      238.7 secs

     total energy              =   -2939.48277438 Ry
     estimated scf accuracy    <    1504.63526337 Ry

     iteration #  5     ecut=    29.40 Ry     beta= 0.05
     Davidson diagonalization with overlap
     c_bands:  1 eigenvalues not converged
     ethr =  1.00E-02,  avg # of iterations = 14.1

     negative rho (up, down):  3.237E-03 0.000E+00
 
     Adding external electric field

     Computed dipole along edir(3) : 
        Dipole               -5.8142 Ry au,        -14.7781 Debye
        Dipole field         -0.0110 Ry au, 
 
        Potential amp.        1.0171 Ry
        Total length         46.3494 bohr
 

     total cpu time spent up to now is      260.0 secs

     total energy              =   -2951.34738681 Ry
     estimated scf accuracy    <     146.85720603 Ry

     iteration #  6     ecut=    29.40 Ry     beta= 0.05
     Davidson diagonalization with overlap
     ethr =  1.00E-02,  avg # of iterations =  1.6

     negative rho (up, down):  3.307E-03 0.000E+00
 
     Adding external electric field

     Computed dipole along edir(3) : 
        Dipole               -5.5918 Ry au,        -14.2129 Debye
        Dipole field         -0.0106 Ry au, 
 
        Potential amp.        0.9782 Ry
        Total length         46.3494 bohr
 

     total cpu time spent up to now is      272.7 secs

     total energy              =   -2950.48206065 Ry
     estimated scf accuracy    <     146.17617575 Ry

     iteration #  7     ecut=    29.40 Ry     beta= 0.05
     Davidson diagonalization with overlap
     ethr =  1.00E-02,  avg # of iterations =  1.4

     negative rho (up, down):  3.454E-03 0.000E+00
 
     Adding external electric field

     Computed dipole along edir(3) : 
        Dipole               -5.4578 Ry au,        -13.8724 Debye
        Dipole field         -0.0103 Ry au, 
 
        Potential amp.        0.9548 Ry
        Total length         46.3494 bohr
 

     total cpu time spent up to now is      285.3 secs

     total energy              =   -2948.76601021 Ry
     estimated scf accuracy    <     116.02406538 Ry

     iteration #  8     ecut=    29.40 Ry     beta= 0.05
     Davidson diagonalization with overlap
     ethr =  1.00E-02,  avg # of iterations =  3.0

     negative rho (up, down):  3.758E-03 0.000E+00
 
     Adding external electric field

     Computed dipole along edir(3) : 
        Dipole               -5.2572 Ry au,        -13.3626 Debye
        Dipole field         -0.0099 Ry au, 
 
        Potential amp.        0.9197 Ry
        Total length         46.3494 bohr
 

     total cpu time spent up to now is      298.5 secs

     total energy              =   -2947.22635042 Ry
     estimated scf accuracy    <      88.82743942 Ry

     iteration #  9     ecut=    29.40 Ry     beta= 0.05
     Davidson diagonalization with overlap
     c_bands:  1 eigenvalues not converged
     ethr =  1.00E-02,  avg # of iterations =  5.1

     negative rho (up, down):  3.778E-03 0.000E+00
 
     Adding external electric field

     Computed dipole along edir(3) : 
        Dipole               -5.0061 Ry au,        -12.7244 Debye
        Dipole field         -0.0094 Ry au, 
 
        Potential amp.        0.8757 Ry
        Total length         46.3494 bohr
 

     total cpu time spent up to now is      313.7 secs

     total energy              =   -2951.41745519 Ry
     estimated scf accuracy    <       2.80126555 Ry

     iteration # 10     ecut=    29.40 Ry     beta= 0.05
     Davidson diagonalization with overlap
     c_bands:  2 eigenvalues not converged
     ethr =  7.06E-04,  avg # of iterations = 17.8

     negative rho (up, down):  3.916E-03 0.000E+00
 
     Adding external electric field

     Computed dipole along edir(3) : 
        Dipole               -4.8245 Ry au,        -12.2627 Debye
        Dipole field         -0.0091 Ry au, 
 
        Potential amp.        0.8440 Ry
        Total length         46.3494 bohr
 

     total cpu time spent up to now is      343.3 secs

     total energy              =   -2954.07890892 Ry
     estimated scf accuracy    <      66.01208208 Ry

     iteration # 11     ecut=    29.40 Ry     beta= 0.05
     Davidson diagonalization with overlap
     ethr =  7.06E-04,  avg # of iterations =  2.0

     negative rho (up, down):  3.930E-03 0.000E+00
 
     Adding external electric field

     Computed dipole along edir(3) : 
        Dipole               -4.8904 Ry au,        -12.4301 Debye
        Dipole field         -0.0092 Ry au, 
 
        Potential amp.        0.8555 Ry
        Total length         46.3494 bohr
 

     total cpu time spent up to now is      356.6 secs

     total energy              =   -2955.12197225 Ry
     estimated scf accuracy    <     371.32789609 Ry

     iteration # 12     ecut=    29.40 Ry     beta= 0.05
     Davidson diagonalization with overlap
     ethr =  7.06E-04,  avg # of iterations =  1.1

     negative rho (up, down):  3.845E-03 0.000E+00
 
     Adding external electric field

     Computed dipole along edir(3) : 
        Dipole               -5.0488 Ry au,        -12.8327 Debye
        Dipole field         -0.0095 Ry au, 
 
        Potential amp.        0.8832 Ry
        Total length         46.3494 bohr
 

     total cpu time spent up to now is      369.1 secs

     total energy              =   -2955.61728256 Ry
     estimated scf accuracy    <     455.95535565 Ry

     iteration # 13     ecut=    29.40 Ry     beta= 0.05
     Davidson diagonalization with overlap
     ethr =  7.06E-04,  avg # of iterations =  3.2

     negative rho (up, down):  3.981E-03 0.000E+00
 
     Adding external electric field

     Computed dipole along edir(3) : 
        Dipole               -4.9212 Ry au,        -12.5083 Debye
        Dipole field         -0.0093 Ry au, 
 
        Potential amp.        0.8609 Ry
        Total length         46.3494 bohr
 

     total cpu time spent up to now is      382.7 secs

     total energy              =   -2955.14886856 Ry
     estimated scf accuracy    <     487.87032637 Ry

     iteration # 14     ecut=    29.40 Ry     beta= 0.05
     Davidson diagonalization with overlap
     ethr =  7.06E-04,  avg # of iterations =  1.0

     negative rho (up, down):  4.051E-03 0.000E+00
 
     Adding external electric field

     Computed dipole along edir(3) : 
        Dipole               -4.9263 Ry au,        -12.5214 Debye
        Dipole field         -0.0093 Ry au, 
 
        Potential amp.        0.8618 Ry
        Total length         46.3494 bohr
 

     total cpu time spent up to now is      395.0 secs

     total energy              =   -2955.16962304 Ry
     estimated scf accuracy    <     451.13247609 Ry

     iteration # 15     ecut=    29.40 Ry     beta= 0.05
     Davidson diagonalization with overlap
     ethr =  7.06E-04,  avg # of iterations =  1.1

     negative rho (up, down):  4.268E-03 0.000E+00
 
     Adding external electric field

     Computed dipole along edir(3) : 
        Dipole               -4.8130 Ry au,        -12.2335 Debye
        Dipole field         -0.0091 Ry au, 
 
        Potential amp.        0.8420 Ry
        Total length         46.3494 bohr
 

     total cpu time spent up to now is      407.5 secs

     total energy              =   -2952.99742311 Ry
     estimated scf accuracy    <     451.83651897 Ry

     iteration # 16     ecut=    29.40 Ry     beta= 0.05
     Davidson diagonalization with overlap
     ethr =  7.06E-04,  avg # of iterations =  1.9

     negative rho (up, down):  4.316E-03 0.000E+00
 
     Adding external electric field

     Computed dipole along edir(3) : 
        Dipole               -4.7524 Ry au,        -12.0793 Debye
        Dipole field         -0.0090 Ry au, 
 
        Potential amp.        0.8314 Ry
        Total length         46.3494 bohr
 

     total cpu time spent up to now is      432.0 secs

     total energy              =   -2953.49976367 Ry
     estimated scf accuracy    <      66.57211556 Ry

     iteration # 17     ecut=    29.40 Ry     beta= 0.05
     Davidson diagonalization with overlap
     ethr =  7.06E-04,  avg # of iterations =  2.0

     negative rho (up, down):  4.590E-03 0.000E+00
 
     Adding external electric field

     Computed dipole along edir(3) : 
        Dipole               -4.5881 Ry au,        -11.6617 Debye
        Dipole field         -0.0087 Ry au, 
 
        Potential amp.        0.8026 Ry
        Total length         46.3494 bohr
 

     total cpu time spent up to now is      445.7 secs

     total energy              =   -2953.69376004 Ry
     estimated scf accuracy    <      33.22744692 Ry

     iteration # 18     ecut=    29.40 Ry     beta= 0.05
     Davidson diagonalization with overlap
     ethr =  7.06E-04,  avg # of iterations =  1.9

     negative rho (up, down):  1.861E-02 0.000E+00
 
     Adding external electric field

     Computed dipole along edir(3) : 
        Dipole               -2.8545 Ry au,         -7.2555 Debye
        Dipole field         -0.0054 Ry au, 
 
        Potential amp.        0.4994 Ry
        Total length         46.3494 bohr
 

     total cpu time spent up to now is      459.1 secs

     total energy              =   -2952.36025111 Ry
     estimated scf accuracy    <      47.92542653 Ry

     iteration # 19     ecut=    29.40 Ry     beta= 0.05
     Davidson diagonalization with overlap
     c_bands:  1 eigenvalues not converged
     c_bands:  3 eigenvalues not converged
     c_bands:  1 eigenvalues not converged
     ethr =  7.06E-04,  avg # of iterations = 15.2

     negative rho (up, down):  1.570E-02 0.000E+00
 
     Adding external electric field

     Computed dipole along edir(3) : 
        Dipole               -2.9553 Ry au,         -7.5115 Debye
        Dipole field         -0.0056 Ry au, 
 
        Potential amp.        0.5170 Ry
        Total length         46.3494 bohr
 

     total cpu time spent up to now is      488.4 secs

     total energy              =   -2954.12666703 Ry
     estimated scf accuracy    <       7.32234677 Ry

     iteration # 20     ecut=    29.40 Ry     beta= 0.05
     Davidson diagonalization with overlap
     ethr =  7.06E-04,  avg # of iterations =  1.0

     negative rho (up, down):  1.189E-02 0.000E+00
 
     Adding external electric field

     Computed dipole along edir(3) : 
        Dipole               -3.0727 Ry au,         -7.8100 Debye
        Dipole field         -0.0058 Ry au, 
 
        Potential amp.        0.5375 Ry
        Total length         46.3494 bohr
 

     total cpu time spent up to now is      500.8 secs

     total energy              =   -2953.63347646 Ry
     estimated scf accuracy    <       6.62336116 Ry

     iteration # 21     ecut=    29.40 Ry     beta= 0.05
     Davidson diagonalization with overlap
     ethr =  7.06E-04,  avg # of iterations =  1.4

     negative rho (up, down):  1.674E-02 0.000E+00
 
     Adding external electric field

     Computed dipole along edir(3) : 
        Dipole               -2.0632 Ry au,         -5.2442 Debye
        Dipole field         -0.0039 Ry au, 
 
        Potential amp.        0.3609 Ry
        Total length         46.3494 bohr
 

     total cpu time spent up to now is      513.7 secs

     total energy              =   -2954.01013286 Ry
     estimated scf accuracy    <       4.97784227 Ry

     iteration # 22     ecut=    29.40 Ry     beta= 0.05
     Davidson diagonalization with overlap
     ethr =  7.06E-04,  avg # of iterations =  1.1

     negative rho (up, down):  1.119E-02 0.000E+00
 
     Adding external electric field

     Computed dipole along edir(3) : 
        Dipole               -0.1879 Ry au,         -0.4775 Debye
        Dipole field         -0.0004 Ry au, 
 
        Potential amp.        0.0329 Ry
        Total length         46.3494 bohr
 

     total cpu time spent up to now is      526.2 secs

     total energy              =   -2953.40487452 Ry
     estimated scf accuracy    <       5.95673323 Ry

     iteration # 23     ecut=    29.40 Ry     beta= 0.05
     Davidson diagonalization with overlap
     c_bands:  2 eigenvalues not converged
     c_bands:  3 eigenvalues not converged
     c_bands:  4 eigenvalues not converged
     c_bands:  5 eigenvalues not converged
     c_bands:  4 eigenvalues not converged
     c_bands:  4 eigenvalues not converged
     c_bands:  2 eigenvalues not converged
     c_bands:  5 eigenvalues not converged
     c_bands:  2 eigenvalues not converged
     c_bands:  5 eigenvalues not converged
     ethr =  7.06E-04,  avg # of iterations = 20.0

     negative rho (up, down):  9.683E-03 0.000E+00
 
     Adding external electric field

     Computed dipole along edir(3) : 
        Dipole               -0.8974 Ry au,         -2.2809 Debye
        Dipole field         -0.0017 Ry au, 
 
        Potential amp.        0.1570 Ry
        Total length         46.3494 bohr
 

     total cpu time spent up to now is      551.4 secs

     total energy              =   -2953.19030872 Ry
     estimated scf accuracy    <      13.59240496 Ry

     iteration # 24     ecut=    29.40 Ry     beta= 0.05
     Davidson diagonalization with overlap
     ethr =  7.06E-04,  avg # of iterations =  2.9

     negative rho (up, down):  1.036E-02 0.000E+00
 
     Adding external electric field

     Computed dipole along edir(3) : 
        Dipole               -1.1097 Ry au,         -2.8205 Debye
        Dipole field         -0.0021 Ry au, 
 
        Potential amp.        0.1941 Ry
        Total length         46.3494 bohr
 

     total cpu time spent up to now is      565.1 secs

     total energy              =   -2953.65971852 Ry
     estimated scf accuracy    <       4.33618368 Ry

     iteration # 25     ecut=    29.40 Ry     beta= 0.05
     Davidson diagonalization with overlap
     ethr =  7.06E-04,  avg # of iterations =  1.0

     negative rho (up, down):  6.771E-03 0.000E+00
 
     Adding external electric field

     Computed dipole along edir(3) : 
        Dipole               -0.0079 Ry au,         -0.0202 Debye
        Dipole field         -0.0000 Ry au, 
 
        Potential amp.        0.0014 Ry
        Total length         46.3494 bohr
 

     total cpu time spent up to now is      577.5 secs

     total energy              =   -2951.84078296 Ry
     estimated scf accuracy    <       4.96152952 Ry

     iteration # 26     ecut=    29.40 Ry     beta= 0.05
     Davidson diagonalization with overlap
     ethr =  7.06E-04,  avg # of iterations = 12.9

     negative rho (up, down):  6.257E-03 0.000E+00
 
     Adding external electric field

     Computed dipole along edir(3) : 
        Dipole               -0.4088 Ry au,         -1.0392 Debye
        Dipole field         -0.0008 Ry au, 
 
        Potential amp.        0.0715 Ry
        Total length         46.3494 bohr
 

     total cpu time spent up to now is      606.4 secs

     total energy              =   -2953.22559053 Ry
     estimated scf accuracy    <     128.76719634 Ry

     iteration # 27     ecut=    29.40 Ry     beta= 0.05
     Davidson diagonalization with overlap
     ethr =  7.06E-04,  avg # of iterations =  1.7

     negative rho (up, down):  7.965E-03 0.000E+00
 
     Adding external electric field

     Computed dipole along edir(3) : 
        Dipole                0.0383 Ry au,          0.0973 Debye
        Dipole field          0.0001 Ry au, 
 
        Potential amp.       -0.0067 Ry
        Total length         46.3494 bohr
 

     total cpu time spent up to now is      619.5 secs

     total energy              =   -2953.44916654 Ry
     estimated scf accuracy    <      51.82414841 Ry

     iteration # 28     ecut=    29.40 Ry     beta= 0.05
     Davidson diagonalization with overlap
     ethr =  7.06E-04,  avg # of iterations =  1.4

     negative rho (up, down):  6.559E-03 0.000E+00
 
     Adding external electric field

     Computed dipole along edir(3) : 
        Dipole               -0.2226 Ry au,         -0.5658 Debye
        Dipole field         -0.0004 Ry au, 
 
        Potential amp.        0.0389 Ry
        Total length         46.3494 bohr
 

     total cpu time spent up to now is      632.3 secs

     total energy              =   -2953.75510642 Ry
     estimated scf accuracy    <     127.95339002 Ry

     iteration # 29     ecut=    29.40 Ry     beta= 0.05
     Davidson diagonalization with overlap
     ethr =  7.06E-04,  avg # of iterations =  1.6

     negative rho (up, down):  6.643E-03 0.000E+00
 
     Adding external electric field

     Computed dipole along edir(3) : 
        Dipole               -0.1848 Ry au,         -0.4697 Debye
        Dipole field         -0.0003 Ry au, 
 
        Potential amp.        0.0323 Ry
        Total length         46.3494 bohr
 

     total cpu time spent up to now is      645.9 secs

     total energy              =   -2953.89423531 Ry
     estimated scf accuracy    <     114.75996001 Ry

     iteration # 30     ecut=    29.40 Ry     beta= 0.05
     Davidson diagonalization with overlap
     ethr =  7.06E-04,  avg # of iterations =  1.0

     negative rho (up, down):  6.730E-03 0.000E+00
 
     Adding external electric field

     Computed dipole along edir(3) : 
        Dipole                0.1116 Ry au,          0.2837 Debye
        Dipole field          0.0002 Ry au, 
 
        Potential amp.       -0.0195 Ry
        Total length         46.3494 bohr
 

     total cpu time spent up to now is      658.4 secs

     total energy              =   -2954.29480443 Ry
     estimated scf accuracy    <     117.11129029 Ry

     iteration # 31     ecut=    29.40 Ry     beta= 0.05
     Davidson diagonalization with overlap
     ethr =  7.06E-04,  avg # of iterations =  2.0

     negative rho (up, down):  7.211E-03 0.000E+00
 
     Adding external electric field

     Computed dipole along edir(3) : 
        Dipole                0.1509 Ry au,          0.3836 Debye
        Dipole field          0.0003 Ry au, 
 
        Potential amp.       -0.0264 Ry
        Total length         46.3494 bohr
 

     total cpu time spent up to now is      671.4 secs

     total energy              =   -2953.69767241 Ry
     estimated scf accuracy    <     151.53571202 Ry

     iteration # 32     ecut=    29.40 Ry     beta= 0.05
     Davidson diagonalization with overlap
     ethr =  7.06E-04,  avg # of iterations =  1.1

     negative rho (up, down):  7.725E-03 0.000E+00
 
     Adding external electric field

     Computed dipole along edir(3) : 
        Dipole               -0.1151 Ry au,         -0.2926 Debye
        Dipole field         -0.0002 Ry au, 
 
        Potential amp.        0.0201 Ry
        Total length         46.3494 bohr
 

     total cpu time spent up to now is      683.9 secs

     total energy              =   -2952.48673453 Ry
     estimated scf accuracy    <     126.91652474 Ry

     iteration # 33     ecut=    29.40 Ry     beta= 0.05
     Davidson diagonalization with overlap
     ethr =  7.06E-04,  avg # of iterations =  3.4

     negative rho (up, down):  8.146E-03 0.000E+00
 
     Adding external electric field

     Computed dipole along edir(3) : 
        Dipole               -0.3282 Ry au,         -0.8342 Debye
        Dipole field         -0.0006 Ry au, 
 
        Potential amp.        0.0574 Ry
        Total length         46.3494 bohr
 

     total cpu time spent up to now is      698.0 secs

     total energy              =   -2952.18696580 Ry
     estimated scf accuracy    <      20.96191497 Ry

     iteration # 34     ecut=    29.40 Ry     beta= 0.05
     Davidson diagonalization with overlap
     ethr =  7.06E-04,  avg # of iterations =  6.7

     negative rho (up, down):  8.308E-03 0.000E+00
 
     Adding external electric field

     Computed dipole along edir(3) : 
        Dipole                0.0652 Ry au,          0.1656 Debye
        Dipole field          0.0001 Ry au, 
 
        Potential amp.       -0.0114 Ry
        Total length         46.3494 bohr
 

     total cpu time spent up to now is      717.2 secs

     total energy              =   -2952.86452173 Ry
     estimated scf accuracy    <       1.80504757 Ry

     iteration # 35     ecut=    29.40 Ry     beta= 0.05
     Davidson diagonalization with overlap
     ethr =  4.55E-04,  avg # of iterations =  1.1

     negative rho (up, down):  7.991E-03 0.000E+00
 
     Adding external electric field

     Computed dipole along edir(3) : 
        Dipole                1.0508 Ry au,          2.6709 Debye
        Dipole field          0.0020 Ry au, 
 
        Potential amp.       -0.1838 Ry
        Total length         46.3494 bohr
 

     total cpu time spent up to now is      738.8 secs

     total energy              =   -2952.61951757 Ry
     estimated scf accuracy    <       1.49290123 Ry

     iteration # 36     ecut=    29.40 Ry     beta= 0.05
     Davidson diagonalization with overlap
     c_bands:  1 eigenvalues not converged
     ethr =  3.76E-04,  avg # of iterations = 13.7

     negative rho (up, down):  7.144E-03 0.000E+00
 
     Adding external electric field

     Computed dipole along edir(3) : 
        Dipole                0.7496 Ry au,          1.9054 Debye
        Dipole field          0.0014 Ry au, 
 
        Potential amp.       -0.1311 Ry
        Total length         46.3494 bohr
 

     total cpu time spent up to now is      760.0 secs

     total energy              =   -2952.74958526 Ry
     estimated scf accuracy    <       2.69520662 Ry

     iteration # 37     ecut=    29.40 Ry     beta= 0.05
     Davidson diagonalization with overlap
     ethr =  3.76E-04,  avg # of iterations =  2.5

     negative rho (up, down):  7.191E-03 0.000E+00
 
     Adding external electric field

     Computed dipole along edir(3) : 
        Dipole                0.7661 Ry au,          1.9473 Debye
        Dipole field          0.0014 Ry au, 
 
        Potential amp.       -0.1340 Ry
        Total length         46.3494 bohr
 

     total cpu time spent up to now is      773.4 secs

     total energy              =   -2952.78123897 Ry
     estimated scf accuracy    <       1.70237731 Ry

     iteration # 38     ecut=    29.40 Ry     beta= 0.05
     Davidson diagonalization with overlap
     ethr =  3.76E-04,  avg # of iterations =  1.4

     negative rho (up, down):  7.926E-03 0.000E+00
 
     Adding external electric field

     Computed dipole along edir(3) : 
        Dipole                0.9318 Ry au,          2.3685 Debye
        Dipole field          0.0018 Ry au, 
 
        Potential amp.       -0.1630 Ry
        Total length         46.3494 bohr
 

     total cpu time spent up to now is      786.6 secs

     total energy              =   -2952.74768300 Ry
     estimated scf accuracy    <       1.40829075 Ry

     iteration # 39     ecut=    29.40 Ry     beta= 0.05
     Davidson diagonalization with overlap
     ethr =  3.55E-04,  avg # of iterations =  3.9

     negative rho (up, down):  7.922E-03 0.000E+00
 
     Adding external electric field

     Computed dipole along edir(3) : 
        Dipole                0.8647 Ry au,          2.1979 Debye
        Dipole field          0.0016 Ry au, 
 
        Potential amp.       -0.1513 Ry
        Total length         46.3494 bohr
 

     total cpu time spent up to now is      817.4 secs

     total energy              =   -2952.75474407 Ry
     estimated scf accuracy    <       0.46618428 Ry

     iteration # 40     ecut=    29.40 Ry     beta= 0.05
     Davidson diagonalization with overlap
     ethr =  1.17E-04,  avg # of iterations =  6.4

     negative rho (up, down):  8.033E-03 0.000E+00
 
     Adding external electric field

     Computed dipole along edir(3) : 
        Dipole                0.8431 Ry au,          2.1430 Debye
        Dipole field          0.0016 Ry au, 
 
        Potential amp.       -0.1475 Ry
        Total length         46.3494 bohr
 

     total cpu time spent up to now is      832.6 secs

     total energy              =   -2952.75692636 Ry
     estimated scf accuracy    <       0.34048983 Ry

     iteration # 41     ecut=    29.40 Ry     beta= 0.05
     Davidson diagonalization with overlap
     ethr =  8.58E-05,  avg # of iterations =  7.3

     negative rho (up, down):  7.803E-03 0.000E+00
 
     Adding external electric field

     Computed dipole along edir(3) : 
        Dipole                0.8491 Ry au,          2.1582 Debye
        Dipole field          0.0016 Ry au, 
 
        Potential amp.       -0.1485 Ry
        Total length         46.3494 bohr
 

     total cpu time spent up to now is      848.1 secs

     total energy              =   -2952.76060816 Ry
     estimated scf accuracy    <       0.31341655 Ry

     iteration # 42     ecut=    29.40 Ry     beta= 0.05
     Davidson diagonalization with overlap
     ethr =  7.89E-05,  avg # of iterations =  2.5

     negative rho (up, down):  7.832E-03 0.000E+00
 
     Adding external electric field

     Computed dipole along edir(3) : 
        Dipole                0.8245 Ry au,          2.0957 Debye
        Dipole field          0.0016 Ry au, 
 
        Potential amp.       -0.1442 Ry
        Total length         46.3494 bohr
 

     total cpu time spent up to now is      861.7 secs

     total energy              =   -2952.76466608 Ry
     estimated scf accuracy    <       0.22171734 Ry

     iteration # 43     ecut=    29.40 Ry     beta= 0.05
     Davidson diagonalization with overlap
     ethr =  5.58E-05,  avg # of iterations =  2.6

     negative rho (up, down):  7.643E-03 0.000E+00
 
     Adding external electric field

     Computed dipole along edir(3) : 
        Dipole                0.8026 Ry au,          2.0400 Debye
        Dipole field          0.0015 Ry au, 
 
        Potential amp.       -0.1404 Ry
        Total length         46.3494 bohr
 

     total cpu time spent up to now is      875.0 secs

     total energy              =   -2952.76415582 Ry
     estimated scf accuracy    <       0.18026477 Ry

     iteration # 44     ecut=    29.40 Ry     beta= 0.05
     Davidson diagonalization with overlap
     c_bands:  1 eigenvalues not converged
     ethr =  4.54E-05,  avg # of iterations =  7.1

     negative rho (up, down):  7.726E-03 0.000E+00
 
     Adding external electric field

     Computed dipole along edir(3) : 
        Dipole                0.8748 Ry au,          2.2236 Debye
        Dipole field          0.0017 Ry au, 
 
        Potential amp.       -0.1530 Ry
        Total length         46.3494 bohr
 

     total cpu time spent up to now is      890.1 secs

     total energy              =   -2952.76332239 Ry
     estimated scf accuracy    <       0.20042145 Ry

     iteration # 45     ecut=    29.40 Ry     beta= 0.05
     Davidson diagonalization with overlap
     c_bands:  3 eigenvalues not converged
     c_bands:  1 eigenvalues not converged
     c_bands:  3 eigenvalues not converged
     c_bands:  1 eigenvalues not converged
     c_bands:  4 eigenvalues not converged
     ethr =  4.54E-05,  avg # of iterations = 13.6

     negative rho (up, down):  7.533E-03 0.000E+00
 
     Adding external electric field

     Computed dipole along edir(3) : 
        Dipole                0.7734 Ry au,          1.9657 Debye
        Dipole field          0.0015 Ry au, 
 
        Potential amp.       -0.1353 Ry
        Total length         46.3494 bohr
 

     total cpu time spent up to now is      911.9 secs

     total energy              =   -2952.75642170 Ry
     estimated scf accuracy    <       0.15818796 Ry

     iteration # 46     ecut=    29.40 Ry     beta= 0.05
     Davidson diagonalization with overlap
     c_bands:  4 eigenvalues not converged
     c_bands:  3 eigenvalues not converged
     c_bands:  2 eigenvalues not converged
     c_bands:  2 eigenvalues not converged
     ethr =  3.98E-05,  avg # of iterations = 14.6

     negative rho (up, down):  7.430E-03 0.000E+00
 
     Adding external electric field

     Computed dipole along edir(3) : 
        Dipole                0.5779 Ry au,          1.4688 Debye
        Dipole field          0.0011 Ry au, 
 
        Potential amp.       -0.1011 Ry
        Total length         46.3494 bohr
 

     total cpu time spent up to now is      929.9 secs

     total energy              =   -2952.73278594 Ry
     estimated scf accuracy    <       0.13498764 Ry

     iteration # 47     ecut=    29.40 Ry     beta= 0.05
     Davidson diagonalization with overlap
     c_bands:  2 eigenvalues not converged
     c_bands:  1 eigenvalues not converged
     c_bands:  1 eigenvalues not converged
     c_bands:  3 eigenvalues not converged
     c_bands:  1 eigenvalues not converged
     ethr =  3.40E-05,  avg # of iterations = 16.2

     negative rho (up, down):  7.228E-03 0.000E+00
 
     Adding external electric field

     Computed dipole along edir(3) : 
        Dipole                0.6313 Ry au,          1.6046 Debye
        Dipole field          0.0012 Ry au, 
 
        Potential amp.       -0.1104 Ry
        Total length         46.3494 bohr
 

     total cpu time spent up to now is      951.6 secs

     total energy              =   -2952.74429739 Ry
     estimated scf accuracy    <       0.06348250 Ry

     iteration # 48     ecut=    29.40 Ry     beta= 0.05
     Davidson diagonalization with overlap
     c_bands:  1 eigenvalues not converged
     c_bands:  2 eigenvalues not converged
     ethr =  1.60E-05,  avg # of iterations = 14.3

     negative rho (up, down):  7.469E-03 0.000E+00
 
     Adding external electric field

     Computed dipole along edir(3) : 
        Dipole                0.8222 Ry au,          2.0897 Debye
        Dipole field          0.0016 Ry au, 
 
        Potential amp.       -0.1438 Ry
        Total length         46.3494 bohr
 

     total cpu time spent up to now is      975.5 secs

     total energy              =   -2952.74298978 Ry
     estimated scf accuracy    <       0.03679279 Ry

     iteration # 49     ecut=    29.40 Ry     beta= 0.05
     Davidson diagonalization with overlap
     c_bands:  3 eigenvalues not converged
     c_bands:  1 eigenvalues not converged
     c_bands:  1 eigenvalues not converged
     c_bands:  1 eigenvalues not converged
     c_bands:  3 eigenvalues not converged
     ethr =  9.27E-06,  avg # of iterations = 18.3

     negative rho (up, down):  7.856E-03 0.000E+00
 
     Adding external electric field

     Computed dipole along edir(3) : 
        Dipole                0.8687 Ry au,          2.2079 Debye
        Dipole field          0.0016 Ry au, 
 
        Potential amp.       -0.1520 Ry
        Total length         46.3494 bohr
 

     total cpu time spent up to now is     1017.1 secs

     total energy              =   -2952.74550125 Ry
     estimated scf accuracy    <       0.03390607 Ry

     iteration # 50     ecut=    29.40 Ry     beta= 0.05
     Davidson diagonalization with overlap
     ethr =  8.54E-06,  avg # of iterations =  8.8

     negative rho (up, down):  9.408E-03 0.000E+00
 
     Adding external electric field

     Computed dipole along edir(3) : 
        Dipole                0.9721 Ry au,          2.4707 Debye
        Dipole field          0.0018 Ry au, 
 
        Potential amp.       -0.1700 Ry
        Total length         46.3494 bohr
 

     total cpu time spent up to now is     1035.8 secs

     total energy              =   -2952.74460943 Ry
     estimated scf accuracy    <       0.01579976 Ry

     iteration # 51     ecut=    29.40 Ry     beta= 0.05
     Davidson diagonalization with overlap
     c_bands:  1 eigenvalues not converged
     c_bands:  3 eigenvalues not converged
     c_bands:  1 eigenvalues not converged
     c_bands:  2 eigenvalues not converged
     c_bands:  1 eigenvalues not converged
     ethr =  3.98E-06,  avg # of iterations = 18.5

     negative rho (up, down):  9.327E-03 0.000E+00
 
     Adding external electric field

     Computed dipole along edir(3) : 
        Dipole                0.9605 Ry au,          2.4414 Debye
        Dipole field          0.0018 Ry au, 
 
        Potential amp.       -0.1680 Ry
        Total length         46.3494 bohr
 

     total cpu time spent up to now is     1063.7 secs

     total energy              =   -2952.74686444 Ry
     estimated scf accuracy    <       0.01122611 Ry

     iteration # 52     ecut=    29.40 Ry     beta= 0.05
     Davidson diagonalization with overlap
     ethr =  2.83E-06,  avg # of iterations =  4.7

     negative rho (up, down):  9.904E-03 0.000E+00
 
     Adding external electric field

     Computed dipole along edir(3) : 
        Dipole                0.9599 Ry au,          2.4399 Debye
        Dipole field          0.0018 Ry au, 
 
        Potential amp.       -0.1679 Ry
        Total length         46.3494 bohr
 

     total cpu time spent up to now is     1079.1 secs

     total energy              =   -2952.74545618 Ry
     estimated scf accuracy    <       0.00753262 Ry

     iteration # 53     ecut=    29.40 Ry     beta= 0.05
     Davidson diagonalization with overlap
     c_bands:  1 eigenvalues not converged
     c_bands:  1 eigenvalues not converged
     ethr =  1.90E-06,  avg # of iterations = 15.9

     negative rho (up, down):  1.201E-02 0.000E+00
 
     Adding external electric field

     Computed dipole along edir(3) : 
        Dipole                1.0490 Ry au,          2.6663 Debye
        Dipole field          0.0020 Ry au, 
 
        Potential amp.       -0.1835 Ry
        Total length         46.3494 bohr
 

     total cpu time spent up to now is     1105.3 secs

     total energy              =   -2952.74519316 Ry
     estimated scf accuracy    <       0.00989000 Ry

     iteration # 54     ecut=    29.40 Ry     beta= 0.05
     Davidson diagonalization with overlap
     ethr =  1.90E-06,  avg # of iterations = 11.8

     negative rho (up, down):  1.320E-02 0.000E+00
 
     Adding external electric field

     Computed dipole along edir(3) : 
        Dipole                1.0674 Ry au,          2.7130 Debye
        Dipole field          0.0020 Ry au, 
 
        Potential amp.       -0.1867 Ry
        Total length         46.3494 bohr
 

     total cpu time spent up to now is     1125.9 secs

     total energy              =   -2952.74732999 Ry
     estimated scf accuracy    <       0.00362195 Ry

     iteration # 55     ecut=    29.40 Ry     beta= 0.05
     Davidson diagonalization with overlap
     ethr =  9.12E-07,  avg # of iterations =  9.1

     negative rho (up, down):  1.387E-02 0.000E+00
 
     Adding external electric field

     Computed dipole along edir(3) : 
        Dipole                1.0436 Ry au,          2.6525 Debye
        Dipole field          0.0020 Ry au, 
 
        Potential amp.       -0.1826 Ry
        Total length         46.3494 bohr
 

     total cpu time spent up to now is     1141.7 secs

     total energy              =   -2952.74632319 Ry
     estimated scf accuracy    <       0.00398583 Ry

     iteration # 56     ecut=    29.40 Ry     beta= 0.05
     Davidson diagonalization with overlap
     ethr =  9.12E-07,  avg # of iterations =  8.5

     negative rho (up, down):  1.543E-02 0.000E+00
 
     Adding external electric field

     Computed dipole along edir(3) : 
        Dipole                1.0715 Ry au,          2.7235 Debye
        Dipole field          0.0020 Ry au, 
 
        Potential amp.       -0.1874 Ry
        Total length         46.3494 bohr
 

     total cpu time spent up to now is     1159.7 secs

     total energy              =   -2952.74683975 Ry
     estimated scf accuracy    <       0.00047545 Ry

     iteration # 57     ecut=    29.40 Ry     beta= 0.05
     Davidson diagonalization with overlap
     c_bands:  1 eigenvalues not converged
     ethr =  1.20E-07,  avg # of iterations = 12.3

     negative rho (up, down):  1.495E-02 0.000E+00
 
     Adding external electric field

     Computed dipole along edir(3) : 
        Dipole                1.0663 Ry au,          2.7102 Debye
        Dipole field          0.0020 Ry au, 
 
        Potential amp.       -0.1865 Ry
        Total length         46.3494 bohr
 

     total cpu time spent up to now is     1183.2 secs

     total energy              =   -2952.74683253 Ry
     estimated scf accuracy    <       0.00080623 Ry

     iteration # 58     ecut=    29.40 Ry     beta= 0.05
     Davidson diagonalization with overlap
     ethr =  1.20E-07,  avg # of iterations =  8.2

     negative rho (up, down):  1.546E-02 0.000E+00
 
     Adding external electric field

     Computed dipole along edir(3) : 
        Dipole                1.0798 Ry au,          2.7445 Debye
        Dipole field          0.0020 Ry au, 
 
        Potential amp.       -0.1889 Ry
        Total length         46.3494 bohr
 

     total cpu time spent up to now is     1199.4 secs

     total energy              =   -2952.74683642 Ry
     estimated scf accuracy    <       0.00025361 Ry

     iteration # 59     ecut=    29.40 Ry     beta= 0.05
     Davidson diagonalization with overlap
     c_bands:  1 eigenvalues not converged
     ethr =  6.39E-08,  avg # of iterations = 14.2

     negative rho (up, down):  1.567E-02 0.000E+00
 
     Adding external electric field

     Computed dipole along edir(3) : 
        Dipole                1.0769 Ry au,          2.7372 Debye
        Dipole field          0.0020 Ry au, 
 
        Potential amp.       -0.1884 Ry
        Total length         46.3494 bohr
 

     total cpu time spent up to now is     1223.9 secs

     total energy              =   -2952.74687888 Ry
     estimated scf accuracy    <       0.00033712 Ry

     iteration # 60     ecut=    29.40 Ry     beta= 0.05
     Davidson diagonalization with overlap
     ethr =  6.39E-08,  avg # of iterations =  7.5

     negative rho (up, down):  1.617E-02 0.000E+00
 
     Adding external electric field

     Computed dipole along edir(3) : 
        Dipole                1.0781 Ry au,          2.7403 Debye
        Dipole field          0.0020 Ry au, 
 
        Potential amp.       -0.1886 Ry
        Total length         46.3494 bohr
 

     total cpu time spent up to now is     1239.8 secs

     total energy              =   -2952.74688554 Ry
     estimated scf accuracy    <       0.00012258 Ry

     iteration # 61     ecut=    29.40 Ry     beta= 0.05
     Davidson diagonalization with overlap
     c_bands:  1 eigenvalues not converged
     ethr =  3.09E-08,  avg # of iterations = 12.9

     negative rho (up, down):  1.624E-02 0.000E+00
 
     Adding external electric field

     Computed dipole along edir(3) : 
        Dipole                1.0796 Ry au,          2.7440 Debye
        Dipole field          0.0020 Ry au, 
 
        Potential amp.       -0.1889 Ry
        Total length         46.3494 bohr
 

     total cpu time spent up to now is     1261.7 secs

     total energy              =   -2952.74691046 Ry
     estimated scf accuracy    <       0.00005259 Ry

     iteration # 62     ecut=    29.40 Ry     beta= 0.05
     Davidson diagonalization with overlap
     c_bands:  1 eigenvalues not converged
     ethr =  1.32E-08,  avg # of iterations =  6.1

     negative rho (up, down):  1.639E-02 0.000E+00
 
     Adding external electric field

     Computed dipole along edir(3) : 
        Dipole                1.0832 Ry au,          2.7533 Debye
        Dipole field          0.0020 Ry au, 
 
        Potential amp.       -0.1895 Ry
        Total length         46.3494 bohr
 

     total cpu time spent up to now is     1276.1 secs

     total energy              =   -2952.74691078 Ry
     estimated scf accuracy    <       0.00003808 Ry

     iteration # 63     ecut=    29.40 Ry     beta= 0.05
     Davidson diagonalization with overlap
     ethr =  9.59E-09,  avg # of iterations = 13.0

     negative rho (up, down):  1.643E-02 0.000E+00
 
     Adding external electric field

     Computed dipole along edir(3) : 
        Dipole                1.0815 Ry au,          2.7488 Debye
        Dipole field          0.0020 Ry au, 
 
        Potential amp.       -0.1892 Ry
        Total length         46.3494 bohr
 

     total cpu time spent up to now is     1300.6 secs

     total energy              =   -2952.74692127 Ry
     estimated scf accuracy    <       0.00002921 Ry

     iteration # 64     ecut=    29.40 Ry     beta= 0.05
     Davidson diagonalization with overlap
     ethr =  7.36E-09,  avg # of iterations =  9.1

     negative rho (up, down):  1.637E-02 0.000E+00
 
     Adding external electric field

     Computed dipole along edir(3) : 
        Dipole                1.0814 Ry au,          2.7485 Debye
        Dipole field          0.0020 Ry au, 
 
        Potential amp.       -0.1892 Ry
        Total length         46.3494 bohr
 

     total cpu time spent up to now is     1317.8 secs

     total energy              =   -2952.74692968 Ry
     estimated scf accuracy    <       0.00001061 Ry

     iteration # 65     ecut=    29.40 Ry     beta= 0.05
     Davidson diagonalization with overlap
     ethr =  2.67E-09,  avg # of iterations =  8.4

     negative rho (up, down):  1.644E-02 0.000E+00
 
     Adding external electric field

     Computed dipole along edir(3) : 
        Dipole                1.0827 Ry au,          2.7519 Debye
        Dipole field          0.0020 Ry au, 
 
        Potential amp.       -0.1894 Ry
        Total length         46.3494 bohr
 

     total cpu time spent up to now is     1334.1 secs

     total energy              =   -2952.74693578 Ry
     estimated scf accuracy    <       0.00000921 Ry

     iteration # 66     ecut=    29.40 Ry     beta= 0.05
     Davidson diagonalization with overlap
     c_bands:  1 eigenvalues not converged
     ethr =  2.32E-09,  avg # of iterations = 13.3

     negative rho (up, down):  1.653E-02 0.000E+00
 
     Adding external electric field

     Computed dipole along edir(3) : 
        Dipole                1.0824 Ry au,          2.7511 Debye
        Dipole field          0.0020 Ry au, 
 
        Potential amp.       -0.1893 Ry
        Total length         46.3494 bohr
 

     total cpu time spent up to now is     1355.7 secs

     total energy              =   -2952.74693977 Ry
     estimated scf accuracy    <       0.00001009 Ry

     iteration # 67     ecut=    29.40 Ry     beta= 0.05
     Davidson diagonalization with overlap
     ethr =  2.32E-09,  avg # of iterations = 12.0

     negative rho (up, down):  1.656E-02 0.000E+00
 
     Adding external electric field

     Computed dipole along edir(3) : 
        Dipole                1.0828 Ry au,          2.7522 Debye
        Dipole field          0.0020 Ry au, 
 
        Potential amp.       -0.1894 Ry
        Total length         46.3494 bohr
 

     total cpu time spent up to now is     1376.1 secs

     total energy              =   -2952.74694532 Ry
     estimated scf accuracy    <       0.00000208 Ry

     iteration # 68     ecut=    29.40 Ry     beta= 0.05
     Davidson diagonalization with overlap
     ethr =  5.24E-10,  avg # of iterations = 13.7

     negative rho (up, down):  1.657E-02 0.000E+00
 
     Adding external electric field

     Computed dipole along edir(3) : 
        Dipole                1.0836 Ry au,          2.7542 Debye
        Dipole field          0.0020 Ry au, 
 
        Potential amp.       -0.1896 Ry
        Total length         46.3494 bohr
 

     total cpu time spent up to now is     1398.9 secs

     total energy              =   -2952.74694916 Ry
     estimated scf accuracy    <       0.00000256 Ry

     iteration # 69     ecut=    29.40 Ry     beta= 0.05
     Davidson diagonalization with overlap
     ethr =  5.24E-10,  avg # of iterations =  9.0

     negative rho (up, down):  1.661E-02 0.000E+00
 
     Adding external electric field

     Computed dipole along edir(3) : 
        Dipole                1.0847 Ry au,          2.7571 Debye
        Dipole field          0.0020 Ry au, 
 
        Potential amp.       -0.1898 Ry
        Total length         46.3494 bohr
 

     total cpu time spent up to now is     1415.6 secs

     total energy              =   -2952.74695286 Ry
     estimated scf accuracy    <       0.00000106 Ry

     iteration # 70     ecut=    29.40 Ry     beta= 0.05
     Davidson diagonalization with overlap
     ethr =  2.68E-10,  avg # of iterations = 14.3

     negative rho (up, down):  1.664E-02 0.000E+00
 
     Adding external electric field

     Computed dipole along edir(3) : 
        Dipole                1.0845 Ry au,          2.7564 Debye
        Dipole field          0.0020 Ry au, 
 
        Potential amp.       -0.1897 Ry
        Total length         46.3494 bohr
 

     total cpu time spent up to now is     1442.9 secs

     total energy              =   -2952.74695614 Ry
     estimated scf accuracy    <       0.00000215 Ry

     iteration # 71     ecut=    29.40 Ry     beta= 0.05
     Davidson diagonalization with overlap
     ethr =  2.68E-10,  avg # of iterations = 11.2

     negative rho (up, down):  1.666E-02 0.000E+00
 
     Adding external electric field

     Computed dipole along edir(3) : 
        Dipole                1.0847 Ry au,          2.7569 Debye
        Dipole field          0.0020 Ry au, 
 
        Potential amp.       -0.1897 Ry
        Total length         46.3494 bohr
 

     total cpu time spent up to now is     1461.2 secs

     total energy              =   -2952.74695903 Ry
     estimated scf accuracy    <       0.00000065 Ry

     iteration # 72     ecut=    29.40 Ry     beta= 0.05
     Davidson diagonalization with overlap
     ethr =  1.65E-10,  avg # of iterations =  8.6

     negative rho (up, down):  1.666E-02 0.000E+00
 
     Adding external electric field

     Computed dipole along edir(3) : 
        Dipole                1.0848 Ry au,          2.7573 Debye
        Dipole field          0.0020 Ry au, 
 
        Potential amp.       -0.1898 Ry
        Total length         46.3494 bohr
 

     total cpu time spent up to now is     1479.8 secs

     total energy              =   -2952.74696170 Ry
     estimated scf accuracy    <       0.00000035 Ry

     iteration # 73     ecut=    29.40 Ry     beta= 0.05
     Davidson diagonalization with overlap
     c_bands:  1 eigenvalues not converged
     ethr =  8.69E-11,  avg # of iterations = 12.5

     negative rho (up, down):  1.668E-02 0.000E+00
 
     Adding external electric field

     Computed dipole along edir(3) : 
        Dipole                1.0850 Ry au,          2.7578 Debye
        Dipole field          0.0020 Ry au, 
 
        Potential amp.       -0.1898 Ry
        Total length         46.3494 bohr
 

     total cpu time spent up to now is     1498.8 secs

     total energy              =   -2952.74696403 Ry
     estimated scf accuracy    <       0.00000021 Ry

     iteration # 74     ecut=    29.40 Ry     beta= 0.05
     Davidson diagonalization with overlap
     ethr =  5.37E-11,  avg # of iterations = 10.6

     negative rho (up, down):  1.669E-02 0.000E+00
 
     Adding external electric field

     Computed dipole along edir(3) : 
        Dipole                1.0851 Ry au,          2.7581 Debye
        Dipole field          0.0020 Ry au, 
 
        Potential amp.       -0.1898 Ry
        Total length         46.3494 bohr
 

     total cpu time spent up to now is     1516.3 secs

     total energy              =   -2952.74696609 Ry
     estimated scf accuracy    <       0.00000011 Ry

     iteration # 75     ecut=    29.40 Ry     beta= 0.05
     Davidson diagonalization with overlap
     c_bands:  1 eigenvalues not converged
     ethr =  2.75E-11,  avg # of iterations = 12.6

     negative rho (up, down):  1.672E-02 0.000E+00
 
     Adding external electric field

     Computed dipole along edir(3) : 
        Dipole                1.0856 Ry au,          2.7592 Debye
        Dipole field          0.0020 Ry au, 
 
        Potential amp.       -0.1899 Ry
        Total length         46.3494 bohr
 

     total cpu time spent up to now is     1537.7 secs

     End of self-consistent calculation

          k = 0.0000 0.0000 0.0000 ( 18029 PWs)   bands (ev):

   -55.6627 -55.6403 -55.6062 -55.4692 -55.4619 -55.4352 -55.4340 -55.4284
   -55.4116 -55.4004 -55.3511 -55.2426 -55.2263 -55.1750 -54.6060 -54.5720
   -32.1239 -31.9910 -31.9651 -31.9578 -31.9534 -31.9318 -31.9315 -31.8856
   -31.8840 -31.8680 -31.8354 -31.7927 -31.7551 -31.7459 -31.7368 -31.7342
   -31.7159 -31.6977 -31.6785 -31.6673 -31.6642 -31.6573 -31.6364 -31.6256
   -31.6180 -31.6105 -31.6013 -31.5918 -31.5906 -31.5788 -31.5764 -31.5716
   -31.5666 -31.5472 -31.5217 -31.5067 -31.4395 -31.4306 -31.4176 -31.3877
   -31.3808 -31.3806 -31.0116 -30.9262 -30.9037 -30.8292 -30.7428 -30.6311
   -16.7174 -16.4373 -16.2567 -16.0830 -15.8693 -15.7949 -15.7579 -15.5608
   -15.4745 -15.4099 -15.1784 -15.1726 -15.1620 -15.1394 -15.1126 -15.1027
   -15.0925 -15.0575 -15.0556 -15.0333 -15.0075 -14.9742 -14.9656 -14.9180
   -14.8689 -14.8522 -14.7711 -14.6980 -14.6513 -14.4496 -14.3246 -13.1045
   -12.9883  -9.3201  -6.3468  -4.7258  -3.9553  -3.6256  -3.5397  -3.5054
    -3.4302  -3.3800  -3.1442  -3.0080  -2.9602  -2.8762  -2.7630  -2.7380
    -2.6763  -2.6208  -2.5531  -2.5301  -2.4875  -2.4314  -2.4087  -2.3789
    -2.3696  -2.3377  -2.2864  -2.2232  -2.1624  -2.1371  -2.0788  -2.0026
    -1.9539  -1.9498  -1.9427  -1.9218  -1.8976  -1.8755  -1.8525  -1.8414
    -1.7380  -1.6846  -1.6658  -1.6125  -1.5656  -1.3107  -1.2346  -1.2239
    -1.1536  -1.1037  -1.0716  -1.0533  -1.0246  -0.9797  -0.9271  -0.8938
    -0.8129  -0.7588  -0.6995  -0.6866  -0.6405  -0.5644  -0.4811  -0.4235
    -0.4067  -0.3489  -0.3405  -0.3150  -0.1926  -0.1545  -0.1451  -0.0900
    -0.0630   0.0397   0.0838   0.1228   0.1538   0.2427   0.2646   0.3060
     0.3110   0.3416   0.3482   0.4382   0.4476   0.4736   0.5359   0.5624
     0.6401   0.7114   0.7189   0.8742   0.9218   1.0122   1.0450   1.1344
     1.3711   1.4203   1.4784   1.6142   1.9868   2.0318   3.4531   3.5983
     3.6156   3.7068   3.7126   3.8184   3.9278   3.9826   4.0201   4.1299

          k = 0.0000 0.0419 0.0000 ( 17933 PWs)   bands (ev):

   -55.6622 -55.6352 -55.6111 -55.4641 -55.4569 -55.4391 -55.4343 -55.4332
   -55.4119 -55.3972 -55.3541 -55.2406 -55.2270 -55.1770 -54.6009 -54.5769
   -32.0700 -31.9599 -31.9291 -31.9277 -31.9266 -31.9170 -31.9028 -31.8743
   -31.8677 -31.8307 -31.8221 -31.8026 -31.7788 -31.7256 -31.7248 -31.7193
   -31.7116 -31.7010 -31.6803 -31.6716 -31.6682 -31.6584 -31.6524 -31.6416
   -31.6292 -31.6237 -31.6219 -31.6202 -31.6035 -31.5970 -31.5878 -31.5876
   -31.5743 -31.5623 -31.5518 -31.5156 -31.4456 -31.4389 -31.4295 -31.4185
   -31.4152 -31.3803 -30.9576 -30.9228 -30.9068 -30.8166 -30.7554 -30.6882
   -16.7076 -16.4297 -16.1318 -15.9774 -15.7706 -15.7442 -15.6637 -15.4929
   -15.4286 -15.4159 -15.3169 -15.2443 -15.1484 -15.1211 -15.1136 -15.1104
   -15.0866 -15.0828 -15.0430 -15.0349 -15.0002 -14.9973 -14.9728 -14.9502
   -14.9004 -14.8298 -14.8290 -14.7549 -14.7117 -14.5041 -14.4389 -13.1087
   -13.0279  -9.3199  -6.3445  -4.7277  -3.9560  -3.4384  -3.3646  -3.3437
    -3.2982  -3.2292  -3.0168  -2.8581  -2.7896  -2.7614  -2.6867  -2.6709
    -2.6415  -2.6085  -2.5768  -2.5478  -2.5139  -2.4896  -2.4648  -2.4551
    -2.4115  -2.3417  -2.3209  -2.3045  -2.2786  -2.2350  -2.1837  -2.1652
    -2.1353  -2.1001  -2.0743  -2.0465  -2.0354  -1.9131  -1.8525  -1.8133
    -1.7531  -1.6433  -1.5812  -1.4615  -1.3803  -1.3191  -1.2964  -1.2342
    -1.1597  -1.0406  -1.0200  -0.8795  -0.8681  -0.8268  -0.8031  -0.7978
    -0.6920  -0.6304  -0.6067  -0.5873  -0.5610  -0.5412  -0.4562  -0.4422
    -0.4114  -0.3743  -0.3505  -0.3222  -0.2705  -0.2526  -0.1743  -0.1544
    -0.1349  -0.0996   0.0123   0.0415   0.1190   0.1385   0.1804   0.1992
     0.2105   0.2469   0.2636   0.3532   0.3916   0.4818   0.5162   0.5507
     0.5946   0.6518   0.6802   0.7334   0.7597   0.8233   0.8890   1.0050
     1.0396   1.3643   1.6101   1.7053   1.9419   1.9441   3.6639   3.6991
     3.7910   3.8435   3.8856   3.9073   3.9691   4.0068   4.0541   4.0722

          k = 0.0000-0.0839 0.0000 ( 17884 PWs)   bands (ev):

   -55.6618 -55.6233 -55.6230 -55.4531 -55.4501 -55.4453 -55.4446 -55.4336
   -55.4123 -55.3936 -55.3577 -55.2384 -55.2277 -55.1791 -54.5893 -54.5884
   -31.9378 -31.9377 -31.9287 -31.9170 -31.9168 -31.9162 -31.8756 -31.8708
   -31.8056 -31.7750 -31.7736 -31.7656 -31.7590 -31.7455 -31.7450 -31.7139
   -31.7070 -31.7018 -31.6998 -31.6921 -31.6830 -31.6819 -31.6773 -31.6673
   -31.6608 -31.6535 -31.6416 -31.6197 -31.6135 -31.6109 -31.6080 -31.6018
   -31.5823 -31.5779 -31.5578 -31.5231 -31.5058 -31.4616 -31.4381 -31.4283
   -31.4262 -31.3800 -30.9149 -30.9142 -30.8253 -30.8240 -30.7863 -30.7856
   -16.6988 -16.4239 -15.8762 -15.8065 -15.7287 -15.7106 -15.5061 -15.5010
   -15.4476 -15.4328 -15.3622 -15.3185 -15.2879 -15.2673 -15.1919 -15.0812
   -15.0523 -15.0214 -14.9962 -14.9909 -14.9847 -14.9723 -14.9701 -14.9002
   -14.8930 -14.8603 -14.8489 -14.8346 -14.7632 -14.6601 -14.5681 -13.0910
   -13.0903  -9.3198  -6.3425  -4.7297  -3.9574  -3.0589  -3.0331  -3.0308
    -2.9562  -2.9350  -2.9270  -2.9216  -2.8942  -2.8569  -2.7869  -2.7338
    -2.6489  -2.6390  -2.6332  -2.6190  -2.5891  -2.5757  -2.5512  -2.5411
    -2.4917  -2.4528  -2.4098  -2.3853  -2.3214  -2.3106  -2.2637  -2.2002
    -2.1747  -2.1196  -1.9783  -1.8974  -1.8792  -1.8327  -1.7249  -1.6800
    -1.6369  -1.5899  -1.5747  -1.3884  -1.3432  -1.2873  -1.2245  -1.1706
    -1.1136  -1.0707  -1.0182  -1.0034  -0.9952  -0.9768  -0.9478  -0.9029
    -0.8576  -0.7616  -0.7262  -0.7065  -0.6552  -0.5454  -0.3151  -0.2958
    -0.2471  -0.2426  -0.2310  -0.1967  -0.1673  -0.1567  -0.1290  -0.0925
    -0.0799  -0.0783  -0.0415  -0.0321   0.0203   0.0568   0.1151   0.1362
     0.1514   0.1832   0.2393   0.2424   0.2813   0.2866   0.3705   0.4044
     0.4451   0.5576   0.6263   0.6356   0.6490   0.6916   0.8197   0.9094
     1.1040   1.1474   1.7521   1.7608   1.8775   1.8787   3.7133   3.9265
     3.9352   3.9643   3.9936   4.0360   4.0476   4.0546   4.0786   4.1891

          k = 0.0380 0.0000 0.0000 ( 17913 PWs)   bands (ev):

   -55.6625 -55.6402 -55.6061 -55.4691 -55.4617 -55.4350 -55.4339 -55.4283
   -55.4116 -55.4003 -55.3510 -55.2426 -55.2262 -55.1749 -54.6059 -54.5719
   -32.1248 -31.9932 -31.9653 -31.9596 -31.9544 -31.9313 -31.9272 -31.8896
   -31.8855 -31.8674 -31.8355 -31.7898 -31.7558 -31.7457 -31.7340 -31.7179
   -31.7081 -31.6975 -31.6759 -31.6661 -31.6640 -31.6499 -31.6361 -31.6258
   -31.6178 -31.6105 -31.6091 -31.6035 -31.5904 -31.5786 -31.5757 -31.5714
   -31.5663 -31.5480 -31.5215 -31.5066 -31.4408 -31.4351 -31.4174 -31.3877
   -31.3810 -31.3807 -31.0112 -30.9295 -30.9017 -30.8290 -30.7427 -30.6309
   -16.7117 -16.4318 -16.1746 -16.0035 -15.8288 -15.7706 -15.6778 -15.5969
   -15.4722 -15.4108 -15.3280 -15.2960 -15.2394 -15.2147 -15.2075 -15.1806
   -15.1077 -15.0478 -15.0295 -14.9969 -14.9712 -14.8901 -14.8812 -14.8676
   -14.8286 -14.8040 -14.7923 -14.7742 -14.7062 -14.4476 -14.3241 -13.1013
   -12.9880  -9.3225  -6.3475  -4.7146  -3.9447  -3.4832  -3.3248  -3.2647
    -3.2463  -3.2053  -3.1065  -3.0029  -2.9755  -2.9377  -2.8878  -2.8650
    -2.7868  -2.7138  -2.6905  -2.6173  -2.5523  -2.3975  -2.3764  -2.2866
    -2.2623  -2.2241  -2.1705  -2.1521  -2.1027  -2.0482  -2.0052  -1.9881
    -1.9684  -1.9424  -1.9244  -1.9091  -1.9035  -1.8311  -1.7932  -1.7612
    -1.6674  -1.5584  -1.5035  -1.4813  -1.3811  -1.3731  -1.2947  -1.2611
    -1.2273  -1.1733  -1.1155  -1.0715  -1.0551  -0.9871  -0.9574  -0.9283
    -0.9076  -0.8412  -0.8287  -0.7487  -0.7220  -0.7054  -0.5773  -0.4747
    -0.4323  -0.3714  -0.2992  -0.2467  -0.2019  -0.1564  -0.1282  -0.0684
    -0.0312  -0.0086   0.0685   0.0961   0.1122   0.1411   0.1681   0.1985
     0.2393   0.2685   0.2939   0.3292   0.3525   0.4361   0.4905   0.5514
     0.6171   0.6577   0.6891   0.7496   0.8004   0.8333   0.9966   1.0704
     1.3411   1.3839   1.4322   1.5840   1.8758   1.9499   3.4690   3.5585
     3.7966   3.8498   3.9014   3.9300   3.9462   3.9534   3.9725   4.0423

          k = 0.0380 0.0419 0.0000 ( 17878 PWs)   bands (ev):

   -55.6621 -55.6351 -55.6111 -55.4640 -55.4567 -55.4391 -55.4342 -55.4332
   -55.4119 -55.3972 -55.3541 -55.2405 -55.2269 -55.1769 -54.6009 -54.5768
   -32.0708 -31.9617 -31.9291 -31.9275 -31.9264 -31.9145 -31.9046 -31.8745
   -31.8673 -31.8372 -31.8223 -31.8027 -31.7764 -31.7255 -31.7206 -31.7112
   -31.7091 -31.6945 -31.6820 -31.6717 -31.6586 -31.6573 -31.6464 -31.6414
   -31.6278 -31.6234 -31.6221 -31.6194 -31.6067 -31.6050 -31.5970 -31.5871
   -31.5742 -31.5603 -31.5557 -31.5156 -31.4456 -31.4408 -31.4328 -31.4184
   -31.4152 -31.3817 -30.9572 -30.9253 -30.9058 -30.8164 -30.7554 -30.6880
   -16.7047 -16.4256 -16.0576 -15.9050 -15.7777 -15.6702 -15.5842 -15.5207
   -15.4244 -15.4112 -15.3286 -15.2988 -15.2845 -15.2058 -15.1442 -15.1285
   -15.0973 -15.0862 -15.0576 -15.0388 -15.0117 -14.9654 -14.9030 -14.8909
   -14.8777 -14.8659 -14.8476 -14.8210 -14.7461 -14.5007 -14.4398 -13.1065
   -13.0282  -9.3225  -6.3451  -4.7162  -3.9439  -3.3165  -3.1796  -3.0942
    -3.0863  -3.0711  -2.9660  -2.8615  -2.8110  -2.7766  -2.7467  -2.7013
    -2.6350  -2.6030  -2.5252  -2.5099  -2.4817  -2.4622  -2.4416  -2.3867
    -2.3491  -2.3314  -2.3084  -2.2729  -2.2511  -2.2343  -2.2104  -2.1614
    -2.1160  -2.0643  -2.0550  -1.9782  -1.9363  -1.8582  -1.8346  -1.7290
    -1.6936  -1.6162  -1.5863  -1.5212  -1.3729  -1.3073  -1.2592  -1.2432
    -1.1595  -1.0843  -1.0098  -0.9882  -0.9416  -0.8969  -0.8887  -0.8305
    -0.8070  -0.7643  -0.7097  -0.6747  -0.6155  -0.5838  -0.5707  -0.5035
    -0.4839  -0.4117  -0.3852  -0.3450  -0.3297  -0.2948  -0.2630  -0.2312
    -0.2054  -0.1844  -0.1021  -0.0370  -0.0124   0.0077   0.0847   0.1151
     0.1495   0.1967   0.2562   0.3134   0.4086   0.4487   0.4987   0.5487
     0.6087   0.6441   0.6960   0.7443   0.7707   0.8141   0.9122   0.9683
     1.0191   1.2987   1.6202   1.7087   1.8647   1.9245   3.6607   3.6846
     3.8301   3.8620   3.9438   3.9752   4.0272   4.0433   4.0639   4.0808

          k = 0.0380-0.0839 0.0000 ( 17916 PWs)   bands (ev):

   -55.6618 -55.6233 -55.6230 -55.4531 -55.4501 -55.4453 -55.4446 -55.4336
   -55.4123 -55.3936 -55.3577 -55.2384 -55.2277 -55.1791 -54.5894 -54.5884
   -31.9385 -31.9385 -31.9274 -31.9173 -31.9170 -31.9168 -31.8760 -31.8697
   -31.8057 -31.7759 -31.7751 -31.7664 -31.7605 -31.7444 -31.7438 -31.7289
   -31.7135 -31.7101 -31.7019 -31.6820 -31.6698 -31.6695 -31.6663 -31.6601
   -31.6574 -31.6488 -31.6413 -31.6198 -31.6136 -31.6131 -31.6107 -31.5992
   -31.5929 -31.5779 -31.5674 -31.5225 -31.5058 -31.4614 -31.4404 -31.4312
   -31.4262 -31.3824 -30.9158 -30.9152 -30.8252 -30.8240 -30.7864 -30.7856
   -16.6978 -16.4209 -15.8500 -15.7638 -15.6790 -15.6603 -15.4493 -15.4425
   -15.4131 -15.4044 -15.3731 -15.3149 -15.2825 -15.2509 -15.2092 -15.1046
   -15.0941 -15.0659 -15.0472 -15.0449 -15.0386 -14.9753 -14.9710 -14.9461
   -14.9336 -14.9186 -14.9023 -14.8096 -14.7506 -14.6473 -14.5665 -13.0908
   -13.0901  -9.3225  -6.3428  -4.7200  -3.9473  -3.0324  -2.9608  -2.8292
    -2.8217  -2.7632  -2.7382  -2.7285  -2.7143  -2.7016  -2.6821  -2.6629
    -2.6302  -2.6034  -2.5528  -2.5468  -2.5156  -2.5031  -2.4878  -2.4728
    -2.4531  -2.4299  -2.3676  -2.3406  -2.3105  -2.2798  -2.2514  -2.2156
    -2.1947  -2.1646  -1.9618  -1.8804  -1.7968  -1.7497  -1.7414  -1.6601
    -1.6154  -1.5549  -1.5178  -1.4695  -1.4143  -1.3958  -1.3605  -1.3313
    -1.3139  -1.2945  -1.2579  -1.2471  -1.1185  -1.1033  -0.9659  -0.9011
    -0.8151  -0.7934  -0.7693  -0.7431  -0.7084  -0.6030  -0.4879  -0.4529
    -0.4344  -0.3965  -0.3413  -0.3215  -0.3043  -0.2816  -0.2463  -0.2285
    -0.2187  -0.1876  -0.1795  -0.1342  -0.0648  -0.0293   0.0186   0.0979
     0.1342   0.2069   0.2643   0.3356   0.3880   0.4488   0.4672   0.5080
     0.5269   0.5515   0.6588   0.6700   0.7199   0.7399   0.8586   0.9045
     1.0859   1.1009   1.7652   1.7733   1.8668   1.8681   3.7192   3.8837
     3.9194   3.9214   3.9713   4.0095   4.0782   4.0851   4.1007   4.1382

          k = 0.0380-0.0419 0.0000 ( 17876 PWs)   bands (ev):

   -55.6621 -55.6351 -55.6111 -55.4640 -55.4567 -55.4390 -55.4343 -55.4332
   -55.4119 -55.3972 -55.3541 -55.2405 -55.2269 -55.1769 -54.6009 -54.5768
   -32.0708 -31.9619 -31.9289 -31.9274 -31.9264 -31.9146 -31.9046 -31.8745
   -31.8674 -31.8372 -31.8224 -31.8027 -31.7764 -31.7254 -31.7205 -31.7112
   -31.7091 -31.6945 -31.6772 -31.6717 -31.6589 -31.6572 -31.6514 -31.6413
   -31.6275 -31.6239 -31.6209 -31.6202 -31.6063 -31.6051 -31.5969 -31.5870
   -31.5742 -31.5602 -31.5557 -31.5156 -31.4455 -31.4406 -31.4331 -31.4183
   -31.4152 -31.3816 -30.9572 -30.9254 -30.9058 -30.8164 -30.7554 -30.6880
   -16.7041 -16.4262 -16.0573 -15.9043 -15.7793 -15.6707 -15.5868 -15.5211
   -15.4253 -15.4127 -15.3252 -15.2879 -15.2788 -15.2091 -15.1496 -15.1292
   -15.0980 -15.0827 -15.0804 -15.0279 -15.0126 -14.9650 -14.9007 -14.8836
   -14.8765 -14.8694 -14.8487 -14.8214 -14.7453 -14.5007 -14.4406 -13.1065
   -13.0282  -9.3224  -6.3450  -4.7184  -3.9469  -3.3159  -3.1796  -3.0919
    -3.0827  -3.0616  -2.9651  -2.8582  -2.8129  -2.7517  -2.7387  -2.7091
    -2.6282  -2.6016  -2.5862  -2.5164  -2.4857  -2.4675  -2.4430  -2.4089
    -2.3454  -2.3269  -2.3090  -2.2736  -2.2488  -2.2393  -2.2142  -2.1584
    -2.0864  -2.0650  -2.0477  -1.9739  -1.9282  -1.8689  -1.8237  -1.7277
    -1.6996  -1.6173  -1.5734  -1.5182  -1.3687  -1.3000  -1.2643  -1.2389
    -1.1570  -1.0898  -1.0153  -0.9849  -0.9449  -0.9043  -0.8781  -0.8364
    -0.7951  -0.7587  -0.7012  -0.6777  -0.6347  -0.5918  -0.5782  -0.5525
    -0.4853  -0.4031  -0.3756  -0.3363  -0.3196  -0.2905  -0.2651  -0.2310
    -0.2024  -0.1416  -0.1169  -0.0370  -0.0107   0.0140   0.0887   0.1337
     0.1590   0.1967   0.2333   0.2766   0.4149   0.4545   0.4883   0.5499
     0.5995   0.6433   0.7086   0.7391   0.7835   0.8117   0.9087   0.9690
     1.0177   1.2977   1.6202   1.7087   1.8645   1.9251   3.6605   3.6835
     3.7780   3.9014   3.9685   3.9865   4.0050   4.0505   4.0725   4.0805

          k =-0.0760-0.0000 0.0000 ( 17886 PWs)   bands (ev):

   -55.6625 -55.6401 -55.6061 -55.4691 -55.4615 -55.4349 -55.4339 -55.4283
   -55.4116 -55.4004 -55.3510 -55.2425 -55.2262 -55.1749 -54.6058 -54.5718
   -32.1257 -31.9954 -31.9655 -31.9615 -31.9552 -31.9311 -31.9231 -31.8948
   -31.8855 -31.8669 -31.8358 -31.7869 -31.7566 -31.7456 -31.7338 -31.7013
   -31.6979 -31.6845 -31.6736 -31.6649 -31.6636 -31.6435 -31.6433 -31.6358
   -31.6256 -31.6173 -31.6082 -31.6072 -31.5903 -31.5786 -31.5754 -31.5713
   -31.5662 -31.5491 -31.5215 -31.5068 -31.4424 -31.4409 -31.4173 -31.3878
   -31.3811 -31.3807 -31.0108 -30.9328 -30.9004 -30.8289 -30.7426 -30.6309
   -16.7065 -16.4273 -16.0288 -15.9457 -15.8570 -15.6934 -15.5856 -15.5776
   -15.4614 -15.4144 -15.4111 -15.3476 -15.3219 -15.3041 -15.2998 -15.2859
   -15.0965 -15.0762 -15.0515 -14.9751 -14.9491 -14.9120 -14.8809 -14.8758
   -14.8630 -14.7919 -14.7393 -14.7200 -14.7081 -14.4468 -14.3239 -13.0983
   -12.9877  -9.3249  -6.3483  -4.7046  -3.9325  -3.4475  -3.2382  -3.0722
    -3.0519  -3.0499  -2.9994  -2.9608  -2.9054  -2.8944  -2.8828  -2.8771
    -2.8494  -2.8447  -2.6669  -2.5561  -2.4287  -2.4038  -2.2483  -2.2181
    -2.2021  -2.1327  -2.1237  -2.0686  -2.0593  -2.0254  -1.9784  -1.9762
    -1.9441  -1.9235  -1.9037  -1.8671  -1.8530  -1.8472  -1.8333  -1.7413
    -1.7099  -1.6870  -1.5397  -1.4888  -1.4123  -1.3312  -1.2283  -1.2178
    -1.2119  -1.1724  -1.1412  -1.1287  -1.0969  -1.0622  -1.0137  -0.9550
    -0.9392  -0.8882  -0.8750  -0.8402  -0.7959  -0.7460  -0.6823  -0.6120
    -0.4708  -0.4520  -0.3721  -0.2706  -0.2179  -0.2024  -0.1572  -0.1157
    -0.0825  -0.0545  -0.0518   0.0331   0.0671   0.0836   0.1286   0.1654
     0.1786   0.2058   0.2338   0.3359   0.3548   0.4459   0.4730   0.5272
     0.5332   0.6250   0.6385   0.6635   0.7867   0.8946   1.0239   1.0646
     1.0752   1.3863   1.4531   1.5599   1.7492   1.8948   3.4711   3.5150
     3.7752   3.7898   3.8327   3.8934   3.9304   3.9423   4.0215   4.0643

          k =-0.0760 0.0419 0.0000 ( 17914 PWs)   bands (ev):

   -55.6622 -55.6352 -55.6111 -55.4640 -55.4567 -55.4391 -55.4342 -55.4332
   -55.4120 -55.3973 -55.3541 -55.2405 -55.2270 -55.1769 -54.6009 -54.5769
   -32.0718 -31.9639 -31.9292 -31.9275 -31.9265 -31.9120 -31.9067 -31.8747
   -31.8670 -31.8435 -31.8227 -31.8029 -31.7743 -31.7254 -31.7219 -31.7111
   -31.6894 -31.6837 -31.6800 -31.6717 -31.6591 -31.6464 -31.6451 -31.6423
   -31.6323 -31.6263 -31.6222 -31.6200 -31.6185 -31.6107 -31.5970 -31.5867
   -31.5742 -31.5611 -31.5587 -31.5156 -31.4456 -31.4426 -31.4373 -31.4183
   -31.4152 -31.3829 -30.9570 -30.9281 -30.9051 -30.8164 -30.7554 -30.6881
   -16.7015 -16.4224 -15.9319 -15.8525 -15.7902 -15.6036 -15.5054 -15.4893
   -15.4088 -15.3801 -15.3774 -15.3226 -15.3091 -15.2843 -15.2513 -15.2452
   -15.1227 -15.1017 -15.0846 -15.0251 -15.0143 -14.9284 -14.9225 -14.9165
   -14.8994 -14.8846 -14.8211 -14.8044 -14.7479 -14.4979 -14.4422 -13.1044
   -13.0285  -9.3251  -6.3456  -4.7078  -3.9340  -3.2916  -3.1058  -2.9028
    -2.8378  -2.8149  -2.8005  -2.7561  -2.7481  -2.6886  -2.6855  -2.6677
    -2.6212  -2.5937  -2.5709  -2.5273  -2.5073  -2.4350  -2.4190  -2.3513
    -2.3418  -2.2936  -2.2614  -2.1951  -2.1831  -2.1567  -2.1397  -2.1261
    -2.1134  -2.0846  -2.0257  -2.0013  -1.9720  -1.7520  -1.7150  -1.6816
    -1.6380  -1.5707  -1.5393  -1.5069  -1.4338  -1.4196  -1.2901  -1.2193
    -1.1861  -1.1490  -1.1056  -1.0554  -1.0257  -0.9497  -0.9215  -0.8992
    -0.8636  -0.8543  -0.8296  -0.8131  -0.7624  -0.7390  -0.6945  -0.6641
    -0.6394  -0.5863  -0.5152  -0.4725  -0.4375  -0.3839  -0.3668  -0.3398
    -0.2880  -0.2279  -0.1985  -0.1757  -0.0916   0.0229   0.0740   0.1282
     0.1864   0.2141   0.2699   0.3109   0.3368   0.3810   0.5196   0.5791
     0.6290   0.7286   0.7603   0.7829   0.8513   0.8816   0.9438   0.9616
     1.0275   1.0924   1.6336   1.7107   1.7877   1.9138   3.6584   3.6779
     3.7726   3.8257   3.8692   3.9041   3.9592   4.0072   4.0259   4.1665

          k =-0.0760-0.0839 0.0000 ( 17948 PWs)   bands (ev):

   -55.6618 -55.6233 -55.6230 -55.4531 -55.4501 -55.4453 -55.4446 -55.4335
   -55.4124 -55.3937 -55.3578 -55.2384 -55.2278 -55.1791 -54.5894 -54.5885
   -31.9393 -31.9392 -31.9265 -31.9181 -31.9171 -31.9169 -31.8764 -31.8687
   -31.8058 -31.7770 -31.7762 -31.7670 -31.7617 -31.7432 -31.7427 -31.7368
   -31.7190 -31.7158 -31.7024 -31.6821 -31.6696 -31.6581 -31.6547 -31.6473
   -31.6442 -31.6407 -31.6369 -31.6210 -31.6168 -31.6133 -31.6112 -31.6108
   -31.5980 -31.5805 -31.5780 -31.5219 -31.5057 -31.4611 -31.4428 -31.4342
   -31.4263 -31.3849 -30.9168 -30.9161 -30.8252 -30.8239 -30.7864 -30.7857
   -16.6968 -16.4181 -15.8234 -15.7147 -15.5937 -15.5850 -15.4724 -15.3998
   -15.3652 -15.3359 -15.3185 -15.3081 -15.2845 -15.2459 -15.1973 -15.1767
   -15.1444 -15.1262 -15.1141 -15.0729 -15.0577 -15.0482 -15.0292 -14.9848
   -14.9710 -14.9414 -14.9286 -14.7973 -14.7436 -14.6371 -14.5658 -13.0906
   -13.0899  -9.3252  -6.3430  -4.7104  -3.9372  -3.0274  -2.9316  -2.8012
    -2.7070  -2.6699  -2.6319  -2.6061  -2.5827  -2.5420  -2.5247  -2.4759
    -2.4317  -2.4145  -2.4031  -2.3735  -2.3691  -2.3603  -2.3285  -2.3079
    -2.3009  -2.2882  -2.2644  -2.2535  -2.2364  -2.2121  -2.1991  -2.1729
    -2.1523  -2.1063  -1.9959  -1.9439  -1.9147  -1.7854  -1.7721  -1.7513
    -1.7361  -1.7213  -1.7007  -1.6822  -1.6154  -1.5964  -1.5696  -1.3934
    -1.3747  -1.2852  -1.2525  -1.2071  -1.1425  -1.1289  -1.0789  -1.0513
    -0.9971  -0.9715  -0.8799  -0.8253  -0.7951  -0.7587  -0.6347  -0.5831
    -0.5773  -0.5673  -0.5378  -0.5174  -0.4732  -0.4524  -0.4225  -0.3569
    -0.3274  -0.3103  -0.2647  -0.2529  -0.1287  -0.0111   0.0734   0.1168
     0.1782   0.1990   0.2381   0.3426   0.4182   0.4992   0.5416   0.5598
     0.5911   0.6822   0.6978   0.8403   0.8702   0.8752   0.9115   0.9431
     0.9721   1.0168   1.7835   1.7917   1.8519   1.8522   3.7002   3.8307
     3.9604   3.9804   3.9927   4.0251   4.0290   4.0528   4.1024   4.1423

     the Fermi energy is     3.4845 ev

!    total energy              =   -2952.74698506 Ry
     estimated scf accuracy    <       0.00000007 Ry
     smearing contrib. (-TS)   =      -0.02003924 Ry
     internal energy E=F+TS    =   -2952.72694582 Ry

     The total energy is F=E-TS. E is the sum of the following terms:
     one-electron contribution =  -23992.01079777 Ry
     hartree contribution      =   12087.49349159 Ry
     xc contribution           =    -488.02859045 Ry
     ewald contribution        =    9439.81672692 Ry
     electric field correction =       0.00222388 Ry

     convergence has been achieved in  75 iterations

     Forces acting on atoms (cartesian axes, Ry/au):

     atom    1 type  1   force =     0.00015830   -0.00027244    0.09475258
     atom    2 type  1   force =    -0.00000785    0.00040560   -0.17489917
     atom    3 type  2   force =    -0.00001342   -0.00013273   -0.02195975
     atom    4 type  2   force =     0.00006445   -0.00191595    0.05339860
     atom    5 type  2   force =    -0.00734141   -0.00240040    0.00310515
     atom    6 type  2   force =     0.00860406   -0.00197805    0.00182098
     atom    7 type  1   force =    -0.00058928   -0.00348390    0.00958814
     atom    8 type  1   force =     0.00060635    0.00468965    0.00861306
     atom    9 type  2   force =     0.00009199    0.00016159   -0.00016188
     atom   10 type  2   force =    -0.00268839   -0.00030686   -0.01303194
     atom   11 type  2   force =    -0.00039094   -0.00035967   -0.00010834
     atom   12 type  2   force =     0.00016845   -0.00017734    0.00030904
     atom   13 type  1   force =     0.00039591    0.00019835   -0.00068900
     atom   14 type  1   force =    -0.00014598    0.00007746   -0.00002502
     atom   15 type  2   force =     0.00025295   -0.00025813   -0.00038419
     atom   16 type  2   force =     0.00039475    0.00011070   -0.00003903
     atom   17 type  2   force =    -0.00018307   -0.00001373    0.00031683
     atom   18 type  2   force =     0.00004944   -0.00088782   -0.00020653
     atom   19 type  1   force =     0.00034790    0.00052357    0.00011608
     atom   20 type  1   force =    -0.00003680   -0.00005636    0.00002516
     atom   21 type  2   force =     0.00009838    0.00007870    0.10309643
     atom   22 type  2   force =     0.00008001   -0.00042866   -0.00000505
     atom   23 type  2   force =    -0.07212452   -0.00013445   -0.02737969
     atom   24 type  2   force =     0.07207676    0.00027660   -0.02740404
     atom   25 type  1   force =     0.00003463   -0.00009623    0.09451496
     atom   26 type  1   force =    -0.00007452   -0.00132667   -0.17506890
     atom   27 type  2   force =     0.00014839   -0.00020088   -0.02073186
     atom   28 type  2   force =     0.00002246   -0.00018634    0.04899703
     atom   29 type  2   force =    -0.00616566    0.00258965    0.00154678
     atom   30 type  2   force =     0.00738707    0.00321229    0.00010648
     atom   31 type  1   force =    -0.00055089    0.00715325   -0.00091585
     atom   32 type  1   force =     0.00055340   -0.00650140    0.00787218
     atom   33 type  2   force =     0.00025476   -0.00025560   -0.00034395
     atom   34 type  2   force =    -0.00212602    0.00146763   -0.01184738
     atom   35 type  2   force =    -0.00007997    0.00000726    0.00018548
     atom   36 type  2   force =    -0.00024203    0.00011490    0.00030951
     atom   37 type  1   force =     0.00054339   -0.00012242   -0.00026173
     atom   38 type  1   force =    -0.00019249   -0.00013596    0.00032164
     atom   39 type  2   force =     0.00012497    0.00037058   -0.00038206
     atom   40 type  2   force =    -0.00015335    0.00028648   -0.00045859
     atom   41 type  2   force =     0.00014241    0.00039006   -0.00023142
     atom   42 type  2   force =    -0.00011998    0.00040286    0.00025086
     atom   43 type  1   force =    -0.00000008   -0.00100845   -0.00031352
     atom   44 type  1   force =     0.00015343    0.00068583    0.00031240
     atom   45 type  2   force =     0.00009997   -0.00009185    0.10292169
     atom   46 type  2   force =    -0.07214488   -0.00005788   -0.02740216
     atom   47 type  2   force =     0.07214281    0.00039404   -0.02743261
     atom   48 type  3   force =    -0.00084830    0.00030620    0.00004920
     atom   49 type  4   force =     0.00230636   -0.00157795   -0.00305459
     atom   50 type  5   force =     0.00044704   -0.00049263    0.00004373
     atom   51 type  5   force =    -0.00095205    0.00122980    0.00205844
     atom   52 type  5   force =    -0.00022735   -0.00029877   -0.00011513
     atom   53 type  2   force =    -0.00000182    0.00007162    0.00149913
     atom   54 type  5   force =    -0.00034972   -0.00004512   -0.00127819

     Total force =     0.362399     Total SCF correction =     0.000618
  @ DRIVER MODE: Message from server: STATUS
  @ DRIVER MODE: Message from server: GETFORCE
  @ DRIVER MODE: Returning v,forces,stress,ensemble 

     Writing output data file ./calc.save/
  @ DRIVER MODE: Message from server: EXIT
  @ DRIVE MODE: Exiting  
 
     init_run     :     13.29s CPU     13.66s WALL (       1 calls)
     electrons    :   1483.71s CPU   1521.62s WALL (       1 calls)
     forces       :      7.05s CPU      7.18s WALL (       1 calls)

     Called by init_run:
     wfcinit      :      5.75s CPU      5.90s WALL (       1 calls)
     potinit      :      6.80s CPU      6.89s WALL (       1 calls)
     hinit0       :      0.37s CPU      0.39s WALL (       1 calls)

     Called by electrons:
     c_bands      :   1267.62s CPU   1288.42s WALL (      75 calls)
     sum_band     :    149.63s CPU    158.19s WALL (      75 calls)
     v_of_rho     :     50.03s CPU     52.04s WALL (      76 calls)
     newd         :     19.67s CPU     25.78s WALL (      76 calls)
     mix_rho      :      2.24s CPU      2.60s WALL (      75 calls)
     vdW_kernel   :      5.84s CPU      5.86s WALL (       1 calls)

     Called by c_bands:
     init_us_2    :      7.59s CPU      7.66s WALL (    1520 calls)
     cegterg      :   1242.41s CPU   1262.72s WALL (     760 calls)

     Called by *egterg:
     cdiaghg      :    225.01s CPU    229.49s WALL (    6930 calls)
     h_psi        :    674.64s CPU    685.59s WALL (    6940 calls)
     s_psi        :     82.24s CPU     82.51s WALL (    6940 calls)
     g_psi        :      2.22s CPU      2.23s WALL (    6170 calls)

     Called by h_psi:
     h_psi:calbec :     78.57s CPU     79.72s WALL (    6940 calls)
     vloc_psi     :    511.04s CPU    516.27s WALL (    6940 calls)
     add_vuspsi   :     82.50s CPU     84.69s WALL (    6940 calls)

     General routines
     calbec       :    108.94s CPU    110.26s WALL (    7730 calls)
     fft          :     25.40s CPU     25.54s WALL (    4788 calls)
     ffts         :      0.23s CPU      0.24s WALL (     151 calls)
     fftw         :    571.36s CPU    578.55s WALL (  995950 calls)
     interpolate  :      0.59s CPU      0.60s WALL (      76 calls)
     davcio       :      0.00s CPU      0.14s WALL (      10 calls)
 
     Parallel routines
 
     PWSCF        :  25m 6.49s CPU  25m45.69s WALL

 
   This run was terminated on:   7:49:47  23Sep2021            

=------------------------------------------------------------------------------=
   JOB DONE.
=------------------------------------------------------------------------------=
