
     Program PWSCF v.6.7GPU starts on 15Sep2021 at 16:59:37 

     This program is part of the open-source Quantum ESPRESSO suite
     for quantum simulation of materials; please cite
         "P. Giannozzi et al., J. Phys.:Condens. Matter 21 395502 (2009);
         "P. Giannozzi et al., J. Phys.:Condens. Matter 29 465901 (2017);
         "P. Giannozzi et al., J. Chem. Phys. 152 154105 (2020);
          URL http://www.quantum-espresso.org", 
     in publications or presentations arising from this work. More details at
     http://www.quantum-espresso.org/quote

     Parallel version (MPI), running on    10 processors

     MPI processes distributed on     1 nodes
     R & G space division:  proc/nbgrp/npool/nimage =      10
     Reading input from /storage/home/hcoda1/3/ntian30/research/carbon/CxH_vib/H2O_calc/ads_slab/CH3NHNH2H2O_a/out_0004/pw.inp
Warning: card &CELL ignored
Warning: card   CELL_DYNAMICS='IPI', ignored
Warning: card / ignored

     Current dimensions of program PWSCF are:
     Max number of different atomic species (ntypx) = 10
     Max number of k-points (npk) =  40000
     Max angular momentum in pseudopotentials (lmaxx) =  3
     Presently no symmetry can be used with electric field

     Message from routine cell_base_init:
     DEPRECATED: use true lattice parameter, not A to a.u. conversion factor

     **************************************************************************
     Initializing libbeef V0.1.2 with the BEEF-vdW functional.
     Citation: Wellendorff et al., PRB 85, 235149 (2012).
     **************************************************************************


     IMPORTANT: XC functional enforced from input :
     Exchange-correlation= BEEF-VDW
                           (   1   4  43  14   2   0   0)
     Any further DFT definition will be discarded
     Please, verify this is what you really want


     Subspace diagonalization in iterative solution of the eigenvalue problem:
     one sub-group per band group will be used
     scalapack distributed-memory algorithm (size of sub-group:  3*  3 procs)

  @ DRIVER MODE: Connecting to 
 qe_1139763_2852619.sched-torque.pace.gatech.edu0wjkgp1e_scratch
  using UNIX socket
  @ DRIVER MODE: Message from server: STATUS
  @ DRIVER MODE: Message from server: INIT
  @ DRIVER MODE: Receiving replica           0          -1
  @ DRIVER MODE: Receiving encoded integer          25
  @ DRIVER MODE:  SCF:  T  FORCE:  T  STRESS:  F  VC:  F  ENSEMBLE:  F
  @ DRIVER MODE:  SCF:  T  FORCE:  T  STRESS:  F  VC:  F  ENSEMBLE:  F
 
     Parallelization info
     --------------------
     sticks:   dense  smooth     PW     G-vecs:    dense   smooth      PW
     Min         327     131     37                56683    14340    2191
     Max         328     133     38                56694    14346    2206
     Sum        3275    1317    379               566857   143421   21985
 
     Using Slab Decomposition
 


     bravais-lattice index     =            0
     lattice parameter (alat)  =       1.8897  a.u.
     unit-cell volume          =    6658.9804 (a.u.)^3
     number of atoms/cell      =           59
     number of atomic types    =            5
     number of electrons       =       406.00
     number of Kohn-Sham states=          213
     kinetic-energy cutoff     =      29.3995  Ry
     charge density cutoff     =     293.9946  Ry
     scf convergence threshold =      7.3E-08
     mixing beta               =       0.0500
     number of iterations used =            8  plain     mixing
     Exchange-correlation= BEEF-VDW
                           (   1   4  43  14   2   0   0)

     celldm(1)=   1.889726  celldm(2)=   0.000000  celldm(3)=   0.000000
     celldm(4)=   0.000000  celldm(5)=   0.000000  celldm(6)=   0.000000

     crystal axes: (cart. coord. in units of alat)
               a(1) = (   6.579727   0.000000   0.000000 )  
               a(2) = (  -0.000775   5.961596   0.000000 )  
               a(3) = (   0.000000   0.000000  25.155947 )  

     reciprocal axes: (cart. coord. in units 2 pi/alat)
               b(1) = (  0.151982  0.000020  0.000000 )  
               b(2) = (  0.000000  0.167740  0.000000 )  
               b(3) = (  0.000000  0.000000  0.039752 )  


     PseudoPot. # 1 for Ti read from file:
     /storage/coda1/p-amedford6/0/shared/rich_project_chbe-medford/medford-share/data/pseudos_module/espresso/nninc/pbe/van/Ti.UPF
     MD5 check sum: 8e4df49b7f0d34bbd5052bf3f5ea0213
     Pseudo is Ultrasoft, Zval = 12.0
     Generated by new atomic code, or converted to UPF format
     Using radial grid of  851 points,  6 beta functions with: 
                l(1) =   0
                l(2) =   0
                l(3) =   1
                l(4) =   1
                l(5) =   2
                l(6) =   2
     Q(r) pseudized with  8 coefficients,  rinner =    1.000   1.000   1.000
                                                       1.000   1.000

     PseudoPot. # 2 for O  read from file:
     /storage/coda1/p-amedford6/0/shared/rich_project_chbe-medford/medford-share/data/pseudos_module/espresso/nninc/pbe/van/O.UPF
     MD5 check sum: 78c19812648e8988a0fe644b0f25305e
     Pseudo is Ultrasoft, Zval =  6.0
     Generated by new atomic code, or converted to UPF format
     Using radial grid of  737 points,  4 beta functions with: 
                l(1) =   0
                l(2) =   0
                l(3) =   1
                l(4) =   1
     Q(r) pseudized with  8 coefficients,  rinner =    0.800   0.800   0.800


     PseudoPot. # 3 for N  read from file:
     /storage/coda1/p-amedford6/0/shared/rich_project_chbe-medford/medford-share/data/pseudos_module/espresso/nninc/pbe/van/N.UPF
     MD5 check sum: 90d10febe142ad51ac9d5be1deb811c4
     Pseudo is Ultrasoft, Zval =  5.0
     Generated by new atomic code, or converted to UPF format
     Using radial grid of  729 points,  4 beta functions with: 
                l(1) =   0
                l(2) =   0
                l(3) =   1
                l(4) =   1
     Q(r) pseudized with  8 coefficients,  rinner =    0.800   0.800   0.800


     PseudoPot. # 4 for C  read from file:
     /storage/coda1/p-amedford6/0/shared/rich_project_chbe-medford/medford-share/data/pseudos_module/espresso/nninc/pbe/van/C.UPF
     MD5 check sum: 1a69bf6b8db32088f5b2163dbdb77a27
     Pseudo is Ultrasoft, Zval =  4.0
     Generated by new atomic code, or converted to UPF format
     Using radial grid of  721 points,  4 beta functions with: 
                l(1) =   0
                l(2) =   0
                l(3) =   1
                l(4) =   1
     Q(r) pseudized with  8 coefficients,  rinner =    0.800   0.800   0.800


     PseudoPot. # 5 for H  read from file:
     /storage/coda1/p-amedford6/0/shared/rich_project_chbe-medford/medford-share/data/pseudos_module/espresso/nninc/pbe/van/H.UPF
     MD5 check sum: b5ee9d7bfd3a09ee7748110bda690ff7
     Pseudo is Ultrasoft, Zval =  1.0
     Generated by new atomic code, or converted to UPF format
     Using radial grid of  615 points,  1 beta functions with: 
                l(1) =   0
     Q(r) pseudized with  8 coefficients,  rinner =    0.800

     atomic species   valence    mass     pseudopotential
        Ti1           12.00    47.86700     Ti( 1.00)
        O1             6.00    15.99900     O ( 1.00)
        N1             5.00    14.00700     N ( 1.00)
        C1             4.00    12.01100     C ( 1.00)
        H1             1.00     1.00800     H ( 1.00)

     No symmetry found



   Cartesian axes

     site n.     atom                  positions (alat units)
         1           Ti1 tau(   1) = (   0.0004258   2.9801865   6.0000000  )
         2           Ti1 tau(   2) = (   3.2906075   1.4906267   6.0002472  )
         3           O1  tau(   3) = (   0.0006271   0.0005054   7.9858123  )
         4           O1  tau(   4) = (   3.2906025   0.0005020   7.3038282  )
         5           O1  tau(   5) = (   4.5942328   1.4918067   9.2879030  )
         6           O1  tau(   6) = (   1.9868534   1.4903216   9.2879459  )
         7           Ti1 tau(   7) = (   3.2907910   2.8959150   9.1758416  )
         8           Ti1 tau(   8) = (   0.0015273   1.4827037   9.2680791  )
         9           O1  tau(   9) = (   3.2683845   0.0132936  11.3796717  )
        10           O1  tau(  10) = (   0.0116148   5.9584955  10.6183126  )
        11           O1  tau(  11) = (   1.2681313   1.5011218  12.7194972  )
        12           O1  tau(  12) = (   5.2787963   1.4993765  12.6897032  )
        13           Ti1 tau(  13) = (   6.5560253   2.9823375  12.4990790  )
        14           Ti1 tau(  14) = (   3.2673924   1.4925278  12.5394213  )
        15           O1  tau(  15) = (   6.5345332   5.8735037  14.6996474  )
        16           O1  tau(  16) = (   3.2898196   5.9462848  13.9939205  )
        17           O1  tau(  17) = (   4.4957945   1.5291507  16.1605787  )
        18           O1  tau(  18) = (   1.9883785   1.5110281  16.0762771  )
        19           Ti1 tau(  19) = (   3.2526948   3.0056396  15.7740191  )
        20           Ti1 tau(  20) = (   0.0000763   1.3299063  15.8143521  )
        21           O1  tau(  21) = (   3.2904802   0.0005063   4.7018136  )
        22           O1  tau(  22) = (   6.5205728   0.2065101  17.2442985  )
        23           O1  tau(  23) = (   1.3043587   1.4918075   6.0039043  )
        24           O1  tau(  24) = (   5.2767064   1.4903225   6.0039473  )
        25           Ti1 tau(  25) = (   0.0000382   5.9609847   6.0000000  )
        26           Ti1 tau(  26) = (   3.2902200   4.4714249   6.0002472  )
        27           O1  tau(  27) = (   0.0002396   2.9813036   7.9858123  )
        28           O1  tau(  28) = (   3.2902150   2.9813002   7.3038282  )
        29           O1  tau(  29) = (   4.5938453   4.4726049   9.2879030  )
        30           O1  tau(  30) = (   1.9864658   4.4711199   9.2879459  )
        31           Ti1 tau(  31) = (   3.2891106   5.8743827   9.1763621  )
        32           Ti1 tau(  32) = (   0.0006254   4.4649316   9.2693709  )
        33           O1  tau(  33) = (   3.2688559   2.9716192  11.3757022  )
        34           O1  tau(  34) = (   0.0092240   2.9805883  10.6323155  )
        35           O1  tau(  35) = (   1.2711362   4.4646907  12.6658965  )
        36           O1  tau(  36) = (   5.2748280   4.4660984  12.6332574  )
        37           Ti1 tau(  37) = (   6.5627654   5.9477838  12.5072267  )
        38           Ti1 tau(  38) = (   3.2667511   4.4702655  12.5260729  )
        39           O1  tau(  39) = (   6.5087961   3.0586107  15.0099536  )
        40           O1  tau(  40) = (   3.2849776   3.0149387  13.9815115  )
        41           O1  tau(  41) = (   4.4906635   4.4862850  16.2792570  )
        42           O1  tau(  42) = (   1.9756856   4.4939852  16.2100911  )
        43           Ti1 tau(  43) = (   3.2747729   0.0241646  15.7895078  )
        44           Ti1 tau(  44) = (   6.5697470   4.5456975  16.1185117  )
        45           O1  tau(  45) = (   3.2900926   2.9813045   4.7018136  )
        46           O1  tau(  46) = (   1.3039711   4.4726057   6.0039043  )
        47           O1  tau(  47) = (   5.2763189   4.4711207   6.0039473  )
        48           N1  tau(  48) = (   0.9980056   3.1061469  19.0053282  )
        49           N1  tau(  49) = (   6.4063515   3.4839273  18.2229180  )
        50           C1  tau(  50) = (   1.6570833   4.2684698  19.5811903  )
        51           H1  tau(  51) = (   0.9936588   4.8902639  20.1979557  )
        52           H1  tau(  52) = (   2.4789334   3.9063689  20.1993048  )
        53           H1  tau(  53) = (   2.0598354   4.8861676  18.7819781  )
        54           H1  tau(  54) = (   0.6510520   2.5058952  19.7602174  )
        55           H1  tau(  55) = (   5.8507131   4.1735594  18.7414995  )
        56           H1  tau(  56) = (   5.8147758   2.6545292  18.1916272  )
        57           O1  tau(  57) = (   5.1718451   0.7889162  19.5681371  )
        58           H1  tau(  58) = (   5.5516362   0.5215711  18.6954158  )
        59           H1  tau(  59) = (   4.2099197   0.7512590  19.4668632  )

     number of k points=    10  Fermi-Dirac smearing, width (Ry)=  0.0073
                       cart. coord. in units 2pi/alat
        k(    1) = (   0.0000000   0.0000000   0.0000000), wk =   0.1250000
        k(    2) = (   0.0000000   0.0419351   0.0000000), wk =   0.2500000
        k(    3) = (   0.0000000  -0.0838702   0.0000000), wk =   0.1250000
        k(    4) = (   0.0379955   0.0000049   0.0000000), wk =   0.2500000
        k(    5) = (   0.0379955   0.0419400   0.0000000), wk =   0.2500000
        k(    6) = (   0.0379955  -0.0838652   0.0000000), wk =   0.2500000
        k(    7) = (   0.0379955  -0.0419301   0.0000000), wk =   0.2500000
        k(    8) = (  -0.0759910  -0.0000099   0.0000000), wk =   0.1250000
        k(    9) = (  -0.0759910   0.0419252   0.0000000), wk =   0.2500000
        k(   10) = (  -0.0759910  -0.0838800   0.0000000), wk =   0.1250000

     Dense  grid:   566857 G-vectors     FFT dimensions: (  72,  64, 270)

     Smooth grid:   143421 G-vectors     FFT dimensions: (  45,  40, 180)

     Estimated max dynamical RAM per process >     368.16 MB

     Estimated total dynamical RAM >       3.60 GB
     Cannot read rho : file not found

     Initial potential from superposition of free atoms

     starting charge  389.99912, renormalised to  406.00000

     negative rho (up, down):  1.389E-02 0.000E+00


     %%%%%%%%%%%%%%%%%%%%%%%%%%%%%%%%%%%%%%%%%%%%%%%%%%%%%%%%%%%%%%%%%%%%%%%%
     %                                                                      %
     % You are using vdW-DF, which was implemented by the Thonhauser group. %
     % Please cite the following two papers that made this development      %
     % possible and the two reviews that describe the various versions:     %
     %                                                                      %
     %   T. Thonhauser et al., PRL 115, 136402 (2015).                      %
     %   T. Thonhauser et al., PRB 76, 125112 (2007).                       %
     %   K. Berland et al., Rep. Prog. Phys. 78, 066501 (2015).             %
     %   D.C. Langreth et al., J. Phys.: Condens. Matter 21, 084203 (2009). %
     %                                                                      %
     %                                                                      %
     % If you are calculating the stress with vdW-DF, please also cite:     %
     %                                                                      %
     %   R. Sabatini et al., J. Phys.: Condens. Matter 24, 424209 (2012).   %
     %                                                                      %
     %%%%%%%%%%%%%%%%%%%%%%%%%%%%%%%%%%%%%%%%%%%%%%%%%%%%%%%%%%%%%%%%%%%%%%%%


 
     Adding external electric field

     Computed dipole along edir(3) : 
        Dipole              -16.7176 Ry au,        -42.4920 Debye
        Dipole field         -0.0315 Ry au, 
 
        Potential amp.        2.9245 Ry
        Total length         46.3494 bohr
 
     Starting wfcs are  308 atomic wfcs
  @ DRIVER MODE: Message from server: STATUS
  @ DRIVER MODE: Message from server: POSDATA
  @ DRIVER MODE: Reading and sharing cell 
  @ DRIVER MODE: Reading and sharing positions 
  @ DRIVER MODE: Received positions 

     total cpu time spent up to now is       11.5 secs

     Self-consistent Calculation

     iteration #  1     ecut=    29.40 Ry     beta= 0.05
     Davidson diagonalization with overlap
     c_bands:  2 eigenvalues not converged
     c_bands:  3 eigenvalues not converged
     c_bands:  2 eigenvalues not converged
     c_bands:  4 eigenvalues not converged
     c_bands:  1 eigenvalues not converged
     c_bands:  4 eigenvalues not converged
     c_bands:  5 eigenvalues not converged
     c_bands:  3 eigenvalues not converged
     ethr =  1.00E-05,  avg # of iterations = 24.3

     negative rho (up, down):  7.398E-03 0.000E+00
 
     Adding external electric field

     Computed dipole along edir(3) : 
        Dipole               63.5339 Ry au,        161.4870 Debye
        Dipole field          0.1199 Ry au, 
 
        Potential amp.      -11.1143 Ry
        Total length         46.3494 bohr
 

     total cpu time spent up to now is       60.1 secs

     total energy              =   -2136.63195716 Ry
     estimated scf accuracy    <    9692.96249964 Ry

     iteration #  2     ecut=    29.40 Ry     beta= 0.05
     Davidson diagonalization with overlap
     ethr =  1.00E-02,  avg # of iterations = 32.2

     negative rho (up, down):  2.211E-04 0.000E+00
 
     Adding external electric field

     Computed dipole along edir(3) : 
        Dipole                0.5526 Ry au,          1.4045 Debye
        Dipole field          0.0010 Ry au, 
 
        Potential amp.       -0.0967 Ry
        Total length         46.3494 bohr
 

     total cpu time spent up to now is      160.0 secs

     total energy              =   -2438.68525032 Ry
     estimated scf accuracy    <   80169.16255679 Ry

     iteration #  3     ecut=    29.40 Ry     beta= 0.05
     Davidson diagonalization with overlap
     c_bands:  1 eigenvalues not converged
     ethr =  1.00E-02,  avg # of iterations = 16.7

     negative rho (up, down):  2.580E-04 0.000E+00
 
     Adding external electric field

     Computed dipole along edir(3) : 
        Dipole               -3.0307 Ry au,         -7.7033 Debye
        Dipole field         -0.0057 Ry au, 
 
        Potential amp.        0.5302 Ry
        Total length         46.3494 bohr
 

     total cpu time spent up to now is      210.7 secs

     total energy              =   -2971.19181038 Ry
     estimated scf accuracy    <    8164.50128811 Ry

     iteration #  4     ecut=    29.40 Ry     beta= 0.05
     Davidson diagonalization with overlap
     ethr =  1.00E-02,  avg # of iterations = 10.3

     negative rho (up, down):  2.743E-04 0.000E+00
 
     Adding external electric field

     Computed dipole along edir(3) : 
        Dipole               -4.9012 Ry au,        -12.4576 Debye
        Dipole field         -0.0092 Ry au, 
 
        Potential amp.        0.8574 Ry
        Total length         46.3494 bohr
 

     total cpu time spent up to now is      233.9 secs

     total energy              =   -2970.31519383 Ry
     estimated scf accuracy    <    2737.49884720 Ry

     iteration #  5     ecut=    29.40 Ry     beta= 0.05
     Davidson diagonalization with overlap
     c_bands:  3 eigenvalues not converged
     c_bands:  3 eigenvalues not converged
     ethr =  1.00E-02,  avg # of iterations = 14.1

     negative rho (up, down):  2.971E-04 0.000E+00
 
     Adding external electric field

     Computed dipole along edir(3) : 
        Dipole               -5.9612 Ry au,        -15.1519 Debye
        Dipole field         -0.0112 Ry au, 
 
        Potential amp.        1.0428 Ry
        Total length         46.3494 bohr
 

     total cpu time spent up to now is      253.8 secs

     total energy              =   -2969.89262378 Ry
     estimated scf accuracy    <    1029.65555301 Ry

     iteration #  6     ecut=    29.40 Ry     beta= 0.05
     Davidson diagonalization with overlap
     ethr =  1.00E-02,  avg # of iterations =  7.9

     negative rho (up, down):  3.026E-04 0.000E+00
 
     Adding external electric field

     Computed dipole along edir(3) : 
        Dipole               -6.0955 Ry au,        -15.4932 Debye
        Dipole field         -0.0115 Ry au, 
 
        Potential amp.        1.0663 Ry
        Total length         46.3494 bohr
 

     total cpu time spent up to now is      268.8 secs

     total energy              =   -2974.39575692 Ry
     estimated scf accuracy    <     326.73419106 Ry

     iteration #  7     ecut=    29.40 Ry     beta= 0.05
     Davidson diagonalization with overlap
     ethr =  1.00E-02,  avg # of iterations =  1.3

     negative rho (up, down):  3.219E-04 0.000E+00
 
     Adding external electric field

     Computed dipole along edir(3) : 
        Dipole               -6.2888 Ry au,        -15.9845 Debye
        Dipole field         -0.0119 Ry au, 
 
        Potential amp.        1.1001 Ry
        Total length         46.3494 bohr
 

     total cpu time spent up to now is      279.2 secs

     total energy              =   -2971.88132857 Ry
     estimated scf accuracy    <     334.85581431 Ry

     iteration #  8     ecut=    29.40 Ry     beta= 0.05
     Davidson diagonalization with overlap
     ethr =  1.00E-02,  avg # of iterations =  3.9

     negative rho (up, down):  3.379E-04 0.000E+00
 
     Adding external electric field

     Computed dipole along edir(3) : 
        Dipole               -5.6411 Ry au,        -14.3383 Debye
        Dipole field         -0.0106 Ry au, 
 
        Potential amp.        0.9868 Ry
        Total length         46.3494 bohr
 

     total cpu time spent up to now is      292.0 secs

     total energy              =   -2976.43290796 Ry
     estimated scf accuracy    <      98.43020777 Ry

     iteration #  9     ecut=    29.40 Ry     beta= 0.05
     Davidson diagonalization with overlap
     ethr =  1.00E-02,  avg # of iterations =  2.0

     negative rho (up, down):  4.027E-04 0.000E+00
 
     Adding external electric field

     Computed dipole along edir(3) : 
        Dipole               -3.7309 Ry au,         -9.4831 Debye
        Dipole field         -0.0070 Ry au, 
 
        Potential amp.        0.6527 Ry
        Total length         46.3494 bohr
 

     total cpu time spent up to now is      302.6 secs

     total energy              =   -2974.96780705 Ry
     estimated scf accuracy    <      85.08219887 Ry

     iteration # 10     ecut=    29.40 Ry     beta= 0.05
     Davidson diagonalization with overlap
     ethr =  1.00E-02,  avg # of iterations =  1.6

     negative rho (up, down):  6.592E-04 0.000E+00
 
     Adding external electric field

     Computed dipole along edir(3) : 
        Dipole               -0.8320 Ry au,         -2.1146 Debye
        Dipole field         -0.0016 Ry au, 
 
        Potential amp.        0.1455 Ry
        Total length         46.3494 bohr
 

     total cpu time spent up to now is      313.0 secs

     total energy              =   -2971.84405934 Ry
     estimated scf accuracy    <      71.79905558 Ry

     iteration # 11     ecut=    29.40 Ry     beta= 0.05
     Davidson diagonalization with overlap
     ethr =  1.00E-02,  avg # of iterations =  8.4

     negative rho (up, down):  6.270E-04 0.000E+00
 
     Adding external electric field

     Computed dipole along edir(3) : 
        Dipole               -1.3087 Ry au,         -3.3264 Debye
        Dipole field         -0.0025 Ry au, 
 
        Potential amp.        0.2289 Ry
        Total length         46.3494 bohr
 

     total cpu time spent up to now is      327.6 secs

     total energy              =   -2977.93288275 Ry
     estimated scf accuracy    <       6.43225935 Ry

     iteration # 12     ecut=    29.40 Ry     beta= 0.05
     Davidson diagonalization with overlap
     c_bands:  4 eigenvalues not converged
     c_bands:  3 eigenvalues not converged
     c_bands:  4 eigenvalues not converged
     ethr =  1.58E-03,  avg # of iterations = 11.8

     negative rho (up, down):  6.238E-04 0.000E+00
 
     Adding external electric field

     Computed dipole along edir(3) : 
        Dipole               -1.2160 Ry au,         -3.0907 Debye
        Dipole field         -0.0023 Ry au, 
 
        Potential amp.        0.2127 Ry
        Total length         46.3494 bohr
 

     total cpu time spent up to now is      344.4 secs

     total energy              =   -2978.86542867 Ry
     estimated scf accuracy    <       9.67601202 Ry

     iteration # 13     ecut=    29.40 Ry     beta= 0.05
     Davidson diagonalization with overlap
     ethr =  1.58E-03,  avg # of iterations =  1.2

     negative rho (up, down):  5.783E-04 0.000E+00
 
     Adding external electric field

     Computed dipole along edir(3) : 
        Dipole               -1.5313 Ry au,         -3.8923 Debye
        Dipole field         -0.0029 Ry au, 
 
        Potential amp.        0.2679 Ry
        Total length         46.3494 bohr
 

     total cpu time spent up to now is      354.7 secs

     total energy              =   -2978.03508282 Ry
     estimated scf accuracy    <       9.39125400 Ry

     iteration # 14     ecut=    29.40 Ry     beta= 0.05
     Davidson diagonalization with overlap
     ethr =  1.58E-03,  avg # of iterations =  3.7

     negative rho (up, down):  5.838E-04 0.000E+00
 
     Adding external electric field

     Computed dipole along edir(3) : 
        Dipole               -1.3463 Ry au,         -3.4220 Debye
        Dipole field         -0.0025 Ry au, 
 
        Potential amp.        0.2355 Ry
        Total length         46.3494 bohr
 

     total cpu time spent up to now is      365.8 secs

     total energy              =   -2978.11140016 Ry
     estimated scf accuracy    <       3.91171893 Ry

     iteration # 15     ecut=    29.40 Ry     beta= 0.05
     Davidson diagonalization with overlap
     c_bands:  1 eigenvalues not converged
     ethr =  9.63E-04,  avg # of iterations = 11.8

     negative rho (up, down):  7.010E-04 0.000E+00
 
     Adding external electric field

     Computed dipole along edir(3) : 
        Dipole                0.2964 Ry au,          0.7535 Debye
        Dipole field          0.0006 Ry au, 
 
        Potential amp.       -0.0519 Ry
        Total length         46.3494 bohr
 

     total cpu time spent up to now is      380.5 secs

     total energy              =   -2978.00519616 Ry
     estimated scf accuracy    <       3.85564059 Ry

     iteration # 16     ecut=    29.40 Ry     beta= 0.05
     Davidson diagonalization with overlap
     c_bands:  1 eigenvalues not converged
     ethr =  9.50E-04,  avg # of iterations =  8.0

     negative rho (up, down):  6.919E-04 0.000E+00
 
     Adding external electric field

     Computed dipole along edir(3) : 
        Dipole                0.0071 Ry au,          0.0181 Debye
        Dipole field          0.0000 Ry au, 
 
        Potential amp.       -0.0012 Ry
        Total length         46.3494 bohr
 

     total cpu time spent up to now is      393.7 secs

     total energy              =   -2978.26578690 Ry
     estimated scf accuracy    <       3.67222314 Ry

     iteration # 17     ecut=    29.40 Ry     beta= 0.05
     Davidson diagonalization with overlap
     ethr =  9.04E-04,  avg # of iterations =  4.4

     negative rho (up, down):  6.973E-04 0.000E+00
 
     Adding external electric field

     Computed dipole along edir(3) : 
        Dipole               -0.4328 Ry au,         -1.1000 Debye
        Dipole field         -0.0008 Ry au, 
 
        Potential amp.        0.0757 Ry
        Total length         46.3494 bohr
 

     total cpu time spent up to now is      405.1 secs

     total energy              =   -2978.13789423 Ry
     estimated scf accuracy    <       3.60887463 Ry

     iteration # 18     ecut=    29.40 Ry     beta= 0.05
     Davidson diagonalization with overlap
     ethr =  8.89E-04,  avg # of iterations = 15.9

     negative rho (up, down):  7.304E-04 0.000E+00
 
     Adding external electric field

     Computed dipole along edir(3) : 
        Dipole               -0.0447 Ry au,         -0.1136 Debye
        Dipole field         -0.0001 Ry au, 
 
        Potential amp.        0.0078 Ry
        Total length         46.3494 bohr
 

     total cpu time spent up to now is      421.8 secs

     total energy              =   -2977.67178338 Ry
     estimated scf accuracy    <       6.44388184 Ry

     iteration # 19     ecut=    29.40 Ry     beta= 0.05
     Davidson diagonalization with overlap
     c_bands:  1 eigenvalues not converged
     ethr =  8.89E-04,  avg # of iterations =  6.5

     negative rho (up, down):  8.159E-04 0.000E+00
 
     Adding external electric field

     Computed dipole along edir(3) : 
        Dipole                0.2868 Ry au,          0.7289 Debye
        Dipole field          0.0005 Ry au, 
 
        Potential amp.       -0.0502 Ry
        Total length         46.3494 bohr
 

     total cpu time spent up to now is      434.2 secs

     total energy              =   -2977.64559164 Ry
     estimated scf accuracy    <       2.29928868 Ry

     iteration # 20     ecut=    29.40 Ry     beta= 0.05
     Davidson diagonalization with overlap
     c_bands:  5 eigenvalues not converged
     c_bands:  1 eigenvalues not converged
     c_bands:  1 eigenvalues not converged
     c_bands:  2 eigenvalues not converged
     c_bands:  2 eigenvalues not converged
     c_bands:  5 eigenvalues not converged
     c_bands:  5 eigenvalues not converged
     c_bands:  2 eigenvalues not converged
     ethr =  5.66E-04,  avg # of iterations = 19.2

     negative rho (up, down):  8.084E-04 0.000E+00
 
     Adding external electric field

     Computed dipole along edir(3) : 
        Dipole               -0.0917 Ry au,         -0.2330 Debye
        Dipole field         -0.0002 Ry au, 
 
        Potential amp.        0.0160 Ry
        Total length         46.3494 bohr
 

     total cpu time spent up to now is      458.3 secs

     total energy              =   -2978.32379955 Ry
     estimated scf accuracy    <     140.54482570 Ry

     iteration # 21     ecut=    29.40 Ry     beta= 0.05
     Davidson diagonalization with overlap
     ethr =  5.66E-04,  avg # of iterations =  6.2

     negative rho (up, down):  8.316E-04 0.000E+00
 
     Adding external electric field

     Computed dipole along edir(3) : 
        Dipole               -0.0978 Ry au,         -0.2485 Debye
        Dipole field         -0.0002 Ry au, 
 
        Potential amp.        0.0171 Ry
        Total length         46.3494 bohr
 

     total cpu time spent up to now is      470.6 secs

     total energy              =   -2977.49208866 Ry
     estimated scf accuracy    <      53.80620284 Ry

     iteration # 22     ecut=    29.40 Ry     beta= 0.05
     Davidson diagonalization with overlap
     c_bands:  2 eigenvalues not converged
     c_bands:  1 eigenvalues not converged
     c_bands:  1 eigenvalues not converged
     ethr =  5.66E-04,  avg # of iterations = 12.7

     negative rho (up, down):  8.407E-04 0.000E+00
 
     Adding external electric field

     Computed dipole along edir(3) : 
        Dipole               -0.0543 Ry au,         -0.1380 Debye
        Dipole field         -0.0001 Ry au, 
 
        Potential amp.        0.0095 Ry
        Total length         46.3494 bohr
 

     total cpu time spent up to now is      485.1 secs

     total energy              =   -2977.69588197 Ry
     estimated scf accuracy    <      12.75287110 Ry

     iteration # 23     ecut=    29.40 Ry     beta= 0.05
     Davidson diagonalization with overlap
     c_bands:  1 eigenvalues not converged
     ethr =  5.66E-04,  avg # of iterations =  4.9

     negative rho (up, down):  8.567E-04 0.000E+00
 
     Adding external electric field

     Computed dipole along edir(3) : 
        Dipole               -0.3327 Ry au,         -0.8456 Debye
        Dipole field         -0.0006 Ry au, 
 
        Potential amp.        0.0582 Ry
        Total length         46.3494 bohr
 

     total cpu time spent up to now is      496.8 secs

     total energy              =   -2977.40224631 Ry
     estimated scf accuracy    <       6.79274402 Ry

     iteration # 24     ecut=    29.40 Ry     beta= 0.05
     Davidson diagonalization with overlap
     ethr =  5.66E-04,  avg # of iterations = 14.1

     negative rho (up, down):  9.167E-04 0.000E+00
 
     Adding external electric field

     Computed dipole along edir(3) : 
        Dipole               -0.7735 Ry au,         -1.9660 Debye
        Dipole field         -0.0015 Ry au, 
 
        Potential amp.        0.1353 Ry
        Total length         46.3494 bohr
 

     total cpu time spent up to now is      512.7 secs

     total energy              =   -2977.73957738 Ry
     estimated scf accuracy    <       1.53234331 Ry

     iteration # 25     ecut=    29.40 Ry     beta= 0.05
     Davidson diagonalization with overlap
     c_bands:  2 eigenvalues not converged
     c_bands:  1 eigenvalues not converged
     c_bands:  3 eigenvalues not converged
     c_bands:  2 eigenvalues not converged
     c_bands:  1 eigenvalues not converged
     c_bands:  3 eigenvalues not converged
     c_bands:  2 eigenvalues not converged
     ethr =  3.77E-04,  avg # of iterations = 19.8

     negative rho (up, down):  1.151E-03 0.000E+00
 
     Adding external electric field

     Computed dipole along edir(3) : 
        Dipole               -0.5743 Ry au,         -1.4598 Debye
        Dipole field         -0.0011 Ry au, 
 
        Potential amp.        0.1005 Ry
        Total length         46.3494 bohr
 

     total cpu time spent up to now is      535.3 secs

     total energy              =   -2977.69788552 Ry
     estimated scf accuracy    <       4.72226807 Ry

     iteration # 26     ecut=    29.40 Ry     beta= 0.05
     Davidson diagonalization with overlap
     ethr =  3.77E-04,  avg # of iterations =  6.9

     negative rho (up, down):  1.509E-03 0.000E+00
 
     Adding external electric field

     Computed dipole along edir(3) : 
        Dipole               -0.5289 Ry au,         -1.3444 Debye
        Dipole field         -0.0010 Ry au, 
 
        Potential amp.        0.0925 Ry
        Total length         46.3494 bohr
 

     total cpu time spent up to now is      548.0 secs

     total energy              =   -2977.71970188 Ry
     estimated scf accuracy    <       1.81896596 Ry

     iteration # 27     ecut=    29.40 Ry     beta= 0.05
     Davidson diagonalization with overlap
     c_bands:  1 eigenvalues not converged
     c_bands:  3 eigenvalues not converged
     c_bands:  1 eigenvalues not converged
     ethr =  3.77E-04,  avg # of iterations =  8.7

     negative rho (up, down):  1.530E-03 0.000E+00
 
     Adding external electric field

     Computed dipole along edir(3) : 
        Dipole               -0.5275 Ry au,         -1.3409 Debye
        Dipole field         -0.0010 Ry au, 
 
        Potential amp.        0.0923 Ry
        Total length         46.3494 bohr
 

     total cpu time spent up to now is      561.2 secs

     total energy              =   -2977.76762240 Ry
     estimated scf accuracy    <       1.07820299 Ry

     iteration # 28     ecut=    29.40 Ry     beta= 0.05
     Davidson diagonalization with overlap
     c_bands:  1 eigenvalues not converged
     ethr =  2.66E-04,  avg # of iterations =  4.6

     negative rho (up, down):  1.690E-03 0.000E+00
 
     Adding external electric field

     Computed dipole along edir(3) : 
        Dipole               -0.3641 Ry au,         -0.9255 Debye
        Dipole field         -0.0007 Ry au, 
 
        Potential amp.        0.0637 Ry
        Total length         46.3494 bohr
 

     total cpu time spent up to now is      572.6 secs

     total energy              =   -2977.76664715 Ry
     estimated scf accuracy    <       1.36272309 Ry

     iteration # 29     ecut=    29.40 Ry     beta= 0.05
     Davidson diagonalization with overlap
     c_bands:  1 eigenvalues not converged
     ethr =  2.66E-04,  avg # of iterations =  5.3

     negative rho (up, down):  2.169E-03 0.000E+00
 
     Adding external electric field

     Computed dipole along edir(3) : 
        Dipole                0.0306 Ry au,          0.0777 Debye
        Dipole field          0.0001 Ry au, 
 
        Potential amp.       -0.0053 Ry
        Total length         46.3494 bohr
 

     total cpu time spent up to now is      583.9 secs

     total energy              =   -2977.72611100 Ry
     estimated scf accuracy    <       1.47497016 Ry

     iteration # 30     ecut=    29.40 Ry     beta= 0.05
     Davidson diagonalization with overlap
     c_bands:  4 eigenvalues not converged
     ethr =  2.66E-04,  avg # of iterations = 11.5

     negative rho (up, down):  4.447E-03 0.000E+00
 
     Adding external electric field

     Computed dipole along edir(3) : 
        Dipole                0.7202 Ry au,          1.8305 Debye
        Dipole field          0.0014 Ry au, 
 
        Potential amp.       -0.1260 Ry
        Total length         46.3494 bohr
 

     total cpu time spent up to now is      598.8 secs

     total energy              =   -2977.71289786 Ry
     estimated scf accuracy    <       0.86385448 Ry

     iteration # 31     ecut=    29.40 Ry     beta= 0.05
     Davidson diagonalization with overlap
     c_bands:  1 eigenvalues not converged
     c_bands:  1 eigenvalues not converged
     ethr =  2.13E-04,  avg # of iterations =  8.9

     negative rho (up, down):  4.118E-03 0.000E+00
 
     Adding external electric field

     Computed dipole along edir(3) : 
        Dipole                0.5165 Ry au,          1.3127 Debye
        Dipole field          0.0010 Ry au, 
 
        Potential amp.       -0.0903 Ry
        Total length         46.3494 bohr
 

     total cpu time spent up to now is      611.8 secs

     total energy              =   -2977.73075644 Ry
     estimated scf accuracy    <       0.98324788 Ry

     iteration # 32     ecut=    29.40 Ry     beta= 0.05
     Davidson diagonalization with overlap
     ethr =  2.13E-04,  avg # of iterations =  1.1

     negative rho (up, down):  1.400E-02 0.000E+00
 
     Adding external electric field

     Computed dipole along edir(3) : 
        Dipole                1.0162 Ry au,          2.5829 Debye
        Dipole field          0.0019 Ry au, 
 
        Potential amp.       -0.1778 Ry
        Total length         46.3494 bohr
 

     total cpu time spent up to now is      622.1 secs

     total energy              =   -2977.74141233 Ry
     estimated scf accuracy    <       0.94936450 Ry

     iteration # 33     ecut=    29.40 Ry     beta= 0.05
     Davidson diagonalization with overlap
     ethr =  2.13E-04,  avg # of iterations = 11.7

     negative rho (up, down):  1.282E-02 0.000E+00
 
     Adding external electric field

     Computed dipole along edir(3) : 
        Dipole                1.4605 Ry au,          3.7122 Debye
        Dipole field          0.0028 Ry au, 
 
        Potential amp.       -0.2555 Ry
        Total length         46.3494 bohr
 

     total cpu time spent up to now is      636.5 secs

     total energy              =   -2977.72062068 Ry
     estimated scf accuracy    <       2.03908110 Ry

     iteration # 34     ecut=    29.40 Ry     beta= 0.05
     Davidson diagonalization with overlap
     c_bands:  3 eigenvalues not converged
     c_bands:  4 eigenvalues not converged
     ethr =  2.13E-04,  avg # of iterations = 14.9

     negative rho (up, down):  1.078E-02 0.000E+00
 
     Adding external electric field

     Computed dipole along edir(3) : 
        Dipole                1.3819 Ry au,          3.5125 Debye
        Dipole field          0.0026 Ry au, 
 
        Potential amp.       -0.2417 Ry
        Total length         46.3494 bohr
 

     total cpu time spent up to now is      652.0 secs

     total energy              =   -2977.76262284 Ry
     estimated scf accuracy    <       0.78874967 Ry

     iteration # 35     ecut=    29.40 Ry     beta= 0.05
     Davidson diagonalization with overlap
     ethr =  1.94E-04,  avg # of iterations =  3.1

     negative rho (up, down):  4.354E-03 0.000E+00
 
     Adding external electric field

     Computed dipole along edir(3) : 
        Dipole                1.0233 Ry au,          2.6010 Debye
        Dipole field          0.0019 Ry au, 
 
        Potential amp.       -0.1790 Ry
        Total length         46.3494 bohr
 

     total cpu time spent up to now is      663.0 secs

     total energy              =   -2977.69465019 Ry
     estimated scf accuracy    <       0.76020731 Ry

     iteration # 36     ecut=    29.40 Ry     beta= 0.05
     Davidson diagonalization with overlap
     c_bands:  5 eigenvalues not converged
     c_bands:  5 eigenvalues not converged
     c_bands:  1 eigenvalues not converged
     c_bands:  1 eigenvalues not converged
     c_bands:  5 eigenvalues not converged
     c_bands:  2 eigenvalues not converged
     ethr =  1.87E-04,  avg # of iterations = 15.6

     negative rho (up, down):  4.304E-03 0.000E+00
 
     Adding external electric field

     Computed dipole along edir(3) : 
        Dipole                0.8018 Ry au,          2.0380 Debye
        Dipole field          0.0015 Ry au, 
 
        Potential amp.       -0.1403 Ry
        Total length         46.3494 bohr
 

     total cpu time spent up to now is      678.9 secs

     total energy              =   -2977.66699352 Ry
     estimated scf accuracy    <       0.41617986 Ry

     iteration # 37     ecut=    29.40 Ry     beta= 0.05
     Davidson diagonalization with overlap
     c_bands:  4 eigenvalues not converged
     c_bands:  2 eigenvalues not converged
     c_bands:  1 eigenvalues not converged
     c_bands:  3 eigenvalues not converged
     c_bands:  1 eigenvalues not converged
     c_bands:  2 eigenvalues not converged
     c_bands:  1 eigenvalues not converged
     c_bands:  1 eigenvalues not converged
     ethr =  1.03E-04,  avg # of iterations = 19.4

     negative rho (up, down):  1.364E-02 0.000E+00
 
     Adding external electric field

     Computed dipole along edir(3) : 
        Dipole                1.1541 Ry au,          2.9334 Debye
        Dipole field          0.0022 Ry au, 
 
        Potential amp.       -0.2019 Ry
        Total length         46.3494 bohr
 

     total cpu time spent up to now is      697.8 secs

     total energy              =   -2977.67926862 Ry
     estimated scf accuracy    <       0.33525381 Ry

     iteration # 38     ecut=    29.40 Ry     beta= 0.05
     Davidson diagonalization with overlap
     c_bands:  1 eigenvalues not converged
     c_bands:  1 eigenvalues not converged
     c_bands:  2 eigenvalues not converged
     ethr =  8.26E-05,  avg # of iterations = 13.6

     negative rho (up, down):  1.002E-02 0.000E+00
 
     Adding external electric field

     Computed dipole along edir(3) : 
        Dipole                1.1128 Ry au,          2.8285 Debye
        Dipole field          0.0021 Ry au, 
 
        Potential amp.       -0.1947 Ry
        Total length         46.3494 bohr
 

     total cpu time spent up to now is      712.7 secs

     total energy              =   -2977.67454697 Ry
     estimated scf accuracy    <       0.30800014 Ry

     iteration # 39     ecut=    29.40 Ry     beta= 0.05
     Davidson diagonalization with overlap
     ethr =  7.59E-05,  avg # of iterations =  7.9

     negative rho (up, down):  5.590E-03 0.000E+00
 
     Adding external electric field

     Computed dipole along edir(3) : 
        Dipole                0.9172 Ry au,          2.3314 Debye
        Dipole field          0.0017 Ry au, 
 
        Potential amp.       -0.1605 Ry
        Total length         46.3494 bohr
 

     total cpu time spent up to now is      725.7 secs

     total energy              =   -2977.66683368 Ry
     estimated scf accuracy    <       0.05578212 Ry

     iteration # 40     ecut=    29.40 Ry     beta= 0.05
     Davidson diagonalization with overlap
     c_bands:  3 eigenvalues not converged
     c_bands:  4 eigenvalues not converged
     c_bands:  5 eigenvalues not converged
     c_bands:  2 eigenvalues not converged
     c_bands:  2 eigenvalues not converged
     c_bands:  3 eigenvalues not converged
     c_bands:  2 eigenvalues not converged
     c_bands:  3 eigenvalues not converged
     c_bands:  2 eigenvalues not converged
     ethr =  1.37E-05,  avg # of iterations = 21.8

     negative rho (up, down):  6.429E-03 0.000E+00
 
     Adding external electric field

     Computed dipole along edir(3) : 
        Dipole                0.9173 Ry au,          2.3316 Debye
        Dipole field          0.0017 Ry au, 
 
        Potential amp.       -0.1605 Ry
        Total length         46.3494 bohr
 

     total cpu time spent up to now is      752.4 secs

     total energy              =   -2977.68655485 Ry
     estimated scf accuracy    <       0.34337407 Ry

     iteration # 41     ecut=    29.40 Ry     beta= 0.05
     Davidson diagonalization with overlap
     c_bands:  2 eigenvalues not converged
     c_bands:  1 eigenvalues not converged
     c_bands:  1 eigenvalues not converged
     ethr =  1.37E-05,  avg # of iterations = 11.3

     negative rho (up, down):  8.404E-03 0.000E+00
 
     Adding external electric field

     Computed dipole along edir(3) : 
        Dipole                0.9235 Ry au,          2.3473 Debye
        Dipole field          0.0017 Ry au, 
 
        Potential amp.       -0.1616 Ry
        Total length         46.3494 bohr
 

     total cpu time spent up to now is      766.3 secs

     total energy              =   -2977.68150103 Ry
     estimated scf accuracy    <       0.14122840 Ry

     iteration # 42     ecut=    29.40 Ry     beta= 0.05
     Davidson diagonalization with overlap
     c_bands:  1 eigenvalues not converged
     c_bands:  2 eigenvalues not converged
     c_bands:  2 eigenvalues not converged
     c_bands:  1 eigenvalues not converged
     c_bands:  1 eigenvalues not converged
     ethr =  1.37E-05,  avg # of iterations = 18.0

     negative rho (up, down):  1.099E-02 0.000E+00
 
     Adding external electric field

     Computed dipole along edir(3) : 
        Dipole                1.0245 Ry au,          2.6040 Debye
        Dipole field          0.0019 Ry au, 
 
        Potential amp.       -0.1792 Ry
        Total length         46.3494 bohr
 

     total cpu time spent up to now is      784.4 secs

     total energy              =   -2977.68204908 Ry
     estimated scf accuracy    <       0.02580043 Ry

     iteration # 43     ecut=    29.40 Ry     beta= 0.05
     Davidson diagonalization with overlap
     c_bands:  1 eigenvalues not converged
     c_bands:  2 eigenvalues not converged
     c_bands:  1 eigenvalues not converged
     c_bands:  1 eigenvalues not converged
     c_bands:  1 eigenvalues not converged
     c_bands:  1 eigenvalues not converged
     c_bands:  1 eigenvalues not converged
     ethr =  6.35E-06,  avg # of iterations = 19.3

     negative rho (up, down):  1.020E-02 0.000E+00
 
     Adding external electric field

     Computed dipole along edir(3) : 
        Dipole                1.0678 Ry au,          2.7142 Debye
        Dipole field          0.0020 Ry au, 
 
        Potential amp.       -0.1868 Ry
        Total length         46.3494 bohr
 

     total cpu time spent up to now is      802.9 secs

     total energy              =   -2977.68286519 Ry
     estimated scf accuracy    <       0.01476370 Ry

     iteration # 44     ecut=    29.40 Ry     beta= 0.05
     Davidson diagonalization with overlap
     c_bands:  1 eigenvalues not converged
     c_bands:  2 eigenvalues not converged
     c_bands:  1 eigenvalues not converged
     c_bands:  1 eigenvalues not converged
     c_bands:  2 eigenvalues not converged
     ethr =  3.64E-06,  avg # of iterations = 17.8

     negative rho (up, down):  1.194E-02 0.000E+00
 
     Adding external electric field

     Computed dipole along edir(3) : 
        Dipole                1.0639 Ry au,          2.7040 Debye
        Dipole field          0.0020 Ry au, 
 
        Potential amp.       -0.1861 Ry
        Total length         46.3494 bohr
 

     total cpu time spent up to now is      823.0 secs

     total energy              =   -2977.68435819 Ry
     estimated scf accuracy    <       0.01976409 Ry

     iteration # 45     ecut=    29.40 Ry     beta= 0.05
     Davidson diagonalization with overlap
     ethr =  3.64E-06,  avg # of iterations =  1.5

     negative rho (up, down):  1.294E-02 0.000E+00
 
     Adding external electric field

     Computed dipole along edir(3) : 
        Dipole                0.9978 Ry au,          2.5362 Debye
        Dipole field          0.0019 Ry au, 
 
        Potential amp.       -0.1746 Ry
        Total length         46.3494 bohr
 

     total cpu time spent up to now is      833.6 secs

     total energy              =   -2977.68142496 Ry
     estimated scf accuracy    <       0.01223185 Ry

     iteration # 46     ecut=    29.40 Ry     beta= 0.05
     Davidson diagonalization with overlap
     c_bands:  1 eigenvalues not converged
     c_bands:  3 eigenvalues not converged
     c_bands:  1 eigenvalues not converged
     c_bands:  1 eigenvalues not converged
     c_bands:  1 eigenvalues not converged
     c_bands:  1 eigenvalues not converged
     c_bands:  1 eigenvalues not converged
     c_bands:  3 eigenvalues not converged
     ethr =  3.01E-06,  avg # of iterations = 19.4

     negative rho (up, down):  1.259E-02 0.000E+00
 
     Adding external electric field

     Computed dipole along edir(3) : 
        Dipole                0.9871 Ry au,          2.5089 Debye
        Dipole field          0.0019 Ry au, 
 
        Potential amp.       -0.1727 Ry
        Total length         46.3494 bohr
 

     total cpu time spent up to now is      854.9 secs

     total energy              =   -2977.68337290 Ry
     estimated scf accuracy    <       0.00975480 Ry

     iteration # 47     ecut=    29.40 Ry     beta= 0.05
     Davidson diagonalization with overlap
     c_bands:  2 eigenvalues not converged
     ethr =  2.40E-06,  avg # of iterations =  5.8

     negative rho (up, down):  1.261E-02 0.000E+00
 
     Adding external electric field

     Computed dipole along edir(3) : 
        Dipole                0.9876 Ry au,          2.5102 Debye
        Dipole field          0.0019 Ry au, 
 
        Potential amp.       -0.1728 Ry
        Total length         46.3494 bohr
 

     total cpu time spent up to now is      866.9 secs

     total energy              =   -2977.68316830 Ry
     estimated scf accuracy    <       0.00426398 Ry

     iteration # 48     ecut=    29.40 Ry     beta= 0.05
     Davidson diagonalization with overlap
     c_bands:  3 eigenvalues not converged
     c_bands:  1 eigenvalues not converged
     ethr =  1.05E-06,  avg # of iterations = 17.0

     negative rho (up, down):  1.382E-02 0.000E+00
 
     Adding external electric field

     Computed dipole along edir(3) : 
        Dipole                1.0057 Ry au,          2.5563 Debye
        Dipole field          0.0019 Ry au, 
 
        Potential amp.       -0.1759 Ry
        Total length         46.3494 bohr
 

     total cpu time spent up to now is      884.9 secs

     total energy              =   -2977.68344541 Ry
     estimated scf accuracy    <       0.00125572 Ry

     iteration # 49     ecut=    29.40 Ry     beta= 0.05
     Davidson diagonalization with overlap
     c_bands:  1 eigenvalues not converged
     ethr =  3.09E-07,  avg # of iterations = 16.4

     negative rho (up, down):  1.512E-02 0.000E+00
 
     Adding external electric field

     Computed dipole along edir(3) : 
        Dipole                1.0219 Ry au,          2.5973 Debye
        Dipole field          0.0019 Ry au, 
 
        Potential amp.       -0.1788 Ry
        Total length         46.3494 bohr
 

     total cpu time spent up to now is      904.5 secs

     total energy              =   -2977.68340479 Ry
     estimated scf accuracy    <       0.00228118 Ry

     iteration # 50     ecut=    29.40 Ry     beta= 0.05
     Davidson diagonalization with overlap
     c_bands:  1 eigenvalues not converged
     ethr =  3.09E-07,  avg # of iterations = 15.5

     negative rho (up, down):  1.496E-02 0.000E+00
 
     Adding external electric field

     Computed dipole along edir(3) : 
        Dipole                1.0157 Ry au,          2.5815 Debye
        Dipole field          0.0019 Ry au, 
 
        Potential amp.       -0.1777 Ry
        Total length         46.3494 bohr
 

     total cpu time spent up to now is      921.5 secs

     total energy              =   -2977.68351181 Ry
     estimated scf accuracy    <       0.00085106 Ry

     iteration # 51     ecut=    29.40 Ry     beta= 0.05
     Davidson diagonalization with overlap
     c_bands:  2 eigenvalues not converged
     ethr =  2.10E-07,  avg # of iterations = 13.9

     negative rho (up, down):  1.518E-02 0.000E+00
 
     Adding external electric field

     Computed dipole along edir(3) : 
        Dipole                1.0205 Ry au,          2.5938 Debye
        Dipole field          0.0019 Ry au, 
 
        Potential amp.       -0.1785 Ry
        Total length         46.3494 bohr
 

     total cpu time spent up to now is      937.5 secs

     total energy              =   -2977.68359943 Ry
     estimated scf accuracy    <       0.00029877 Ry

     iteration # 52     ecut=    29.40 Ry     beta= 0.05
     Davidson diagonalization with overlap
     ethr =  7.36E-08,  avg # of iterations = 10.6

     negative rho (up, down):  1.491E-02 0.000E+00
 
     Adding external electric field

     Computed dipole along edir(3) : 
        Dipole                1.0190 Ry au,          2.5899 Debye
        Dipole field          0.0019 Ry au, 
 
        Potential amp.       -0.1783 Ry
        Total length         46.3494 bohr
 

     total cpu time spent up to now is      951.7 secs

     total energy              =   -2977.68359523 Ry
     estimated scf accuracy    <       0.00028714 Ry

     iteration # 53     ecut=    29.40 Ry     beta= 0.05
     Davidson diagonalization with overlap
     ethr =  7.07E-08,  avg # of iterations =  3.4

     negative rho (up, down):  1.461E-02 0.000E+00
 
     Adding external electric field

     Computed dipole along edir(3) : 
        Dipole                1.0176 Ry au,          2.5866 Debye
        Dipole field          0.0019 Ry au, 
 
        Potential amp.       -0.1780 Ry
        Total length         46.3494 bohr
 

     total cpu time spent up to now is      963.1 secs

     total energy              =   -2977.68359005 Ry
     estimated scf accuracy    <       0.00018125 Ry

     iteration # 54     ecut=    29.40 Ry     beta= 0.05
     Davidson diagonalization with overlap
     ethr =  4.46E-08,  avg # of iterations = 13.0

     negative rho (up, down):  1.473E-02 0.000E+00
 
     Adding external electric field

     Computed dipole along edir(3) : 
        Dipole                1.0193 Ry au,          2.5907 Debye
        Dipole field          0.0019 Ry au, 
 
        Potential amp.       -0.1783 Ry
        Total length         46.3494 bohr
 

     total cpu time spent up to now is      981.5 secs

     total energy              =   -2977.68362120 Ry
     estimated scf accuracy    <       0.00010597 Ry

     iteration # 55     ecut=    29.40 Ry     beta= 0.05
     Davidson diagonalization with overlap
     ethr =  2.61E-08,  avg # of iterations =  1.9

     negative rho (up, down):  1.474E-02 0.000E+00
 
     Adding external electric field

     Computed dipole along edir(3) : 
        Dipole                1.0194 Ry au,          2.5912 Debye
        Dipole field          0.0019 Ry au, 
 
        Potential amp.       -0.1783 Ry
        Total length         46.3494 bohr
 

     total cpu time spent up to now is      992.0 secs

     total energy              =   -2977.68363035 Ry
     estimated scf accuracy    <       0.00009128 Ry

     iteration # 56     ecut=    29.40 Ry     beta= 0.05
     Davidson diagonalization with overlap
     ethr =  2.25E-08,  avg # of iterations =  1.1

     negative rho (up, down):  1.498E-02 0.000E+00
 
     Adding external electric field

     Computed dipole along edir(3) : 
        Dipole                1.0231 Ry au,          2.6003 Debye
        Dipole field          0.0019 Ry au, 
 
        Potential amp.       -0.1790 Ry
        Total length         46.3494 bohr
 

     total cpu time spent up to now is     1002.2 secs

     total energy              =   -2977.68363265 Ry
     estimated scf accuracy    <       0.00009087 Ry

     iteration # 57     ecut=    29.40 Ry     beta= 0.05
     Davidson diagonalization with overlap
     c_bands:  1 eigenvalues not converged
     c_bands:  1 eigenvalues not converged
     ethr =  2.24E-08,  avg # of iterations = 12.5

     negative rho (up, down):  1.477E-02 0.000E+00
 
     Adding external electric field

     Computed dipole along edir(3) : 
        Dipole                1.0209 Ry au,          2.5948 Debye
        Dipole field          0.0019 Ry au, 
 
        Potential amp.       -0.1786 Ry
        Total length         46.3494 bohr
 

     total cpu time spent up to now is     1016.6 secs

     total energy              =   -2977.68364368 Ry
     estimated scf accuracy    <       0.00004498 Ry

     iteration # 58     ecut=    29.40 Ry     beta= 0.05
     Davidson diagonalization with overlap
     ethr =  1.11E-08,  avg # of iterations =  9.2

     negative rho (up, down):  1.478E-02 0.000E+00
 
     Adding external electric field

     Computed dipole along edir(3) : 
        Dipole                1.0211 Ry au,          2.5954 Debye
        Dipole field          0.0019 Ry au, 
 
        Potential amp.       -0.1786 Ry
        Total length         46.3494 bohr
 

     total cpu time spent up to now is     1029.9 secs

     total energy              =   -2977.68365043 Ry
     estimated scf accuracy    <       0.00004976 Ry

     iteration # 59     ecut=    29.40 Ry     beta= 0.05
     Davidson diagonalization with overlap
     ethr =  1.11E-08,  avg # of iterations =  1.4

     negative rho (up, down):  1.465E-02 0.000E+00
 
     Adding external electric field

     Computed dipole along edir(3) : 
        Dipole                1.0204 Ry au,          2.5936 Debye
        Dipole field          0.0019 Ry au, 
 
        Potential amp.       -0.1785 Ry
        Total length         46.3494 bohr
 

     total cpu time spent up to now is     1040.4 secs

     total energy              =   -2977.68365475 Ry
     estimated scf accuracy    <       0.00004013 Ry

     iteration # 60     ecut=    29.40 Ry     beta= 0.05
     Davidson diagonalization with overlap
     ethr =  9.88E-09,  avg # of iterations =  8.0

     negative rho (up, down):  1.447E-02 0.000E+00
 
     Adding external electric field

     Computed dipole along edir(3) : 
        Dipole                1.0184 Ry au,          2.5884 Debye
        Dipole field          0.0019 Ry au, 
 
        Potential amp.       -0.1781 Ry
        Total length         46.3494 bohr
 

     total cpu time spent up to now is     1053.2 secs

     total energy              =   -2977.68365580 Ry
     estimated scf accuracy    <       0.00003083 Ry

     iteration # 61     ecut=    29.40 Ry     beta= 0.05
     Davidson diagonalization with overlap
     ethr =  7.59E-09,  avg # of iterations =  7.6

     negative rho (up, down):  1.432E-02 0.000E+00
 
     Adding external electric field

     Computed dipole along edir(3) : 
        Dipole                1.0179 Ry au,          2.5871 Debye
        Dipole field          0.0019 Ry au, 
 
        Potential amp.       -0.1781 Ry
        Total length         46.3494 bohr
 

     total cpu time spent up to now is     1066.1 secs

     total energy              =   -2977.68365943 Ry
     estimated scf accuracy    <       0.00001559 Ry

     iteration # 62     ecut=    29.40 Ry     beta= 0.05
     Davidson diagonalization with overlap
     c_bands:  1 eigenvalues not converged
     c_bands:  1 eigenvalues not converged
     ethr =  3.84E-09,  avg # of iterations = 18.4

     negative rho (up, down):  1.436E-02 0.000E+00
 
     Adding external electric field

     Computed dipole along edir(3) : 
        Dipole                1.0182 Ry au,          2.5879 Debye
        Dipole field          0.0019 Ry au, 
 
        Potential amp.       -0.1781 Ry
        Total length         46.3494 bohr
 

     total cpu time spent up to now is     1090.1 secs

     total energy              =   -2977.68366280 Ry
     estimated scf accuracy    <       0.00002761 Ry

     iteration # 63     ecut=    29.40 Ry     beta= 0.05
     Davidson diagonalization with overlap
     ethr =  3.84E-09,  avg # of iterations = 13.2

     negative rho (up, down):  1.432E-02 0.000E+00
 
     Adding external electric field

     Computed dipole along edir(3) : 
        Dipole                1.0180 Ry au,          2.5875 Debye
        Dipole field          0.0019 Ry au, 
 
        Potential amp.       -0.1781 Ry
        Total length         46.3494 bohr
 

     total cpu time spent up to now is     1106.7 secs

     total energy              =   -2977.68366713 Ry
     estimated scf accuracy    <       0.00000763 Ry

     iteration # 64     ecut=    29.40 Ry     beta= 0.05
     Davidson diagonalization with overlap
     ethr =  1.88E-09,  avg # of iterations = 11.1

     negative rho (up, down):  1.427E-02 0.000E+00
 
     Adding external electric field

     Computed dipole along edir(3) : 
        Dipole                1.0175 Ry au,          2.5863 Debye
        Dipole field          0.0019 Ry au, 
 
        Potential amp.       -0.1780 Ry
        Total length         46.3494 bohr
 

     total cpu time spent up to now is     1123.6 secs

     total energy              =   -2977.68367070 Ry
     estimated scf accuracy    <       0.00000423 Ry

     iteration # 65     ecut=    29.40 Ry     beta= 0.05
     Davidson diagonalization with overlap
     ethr =  1.04E-09,  avg # of iterations =  9.5

     negative rho (up, down):  1.422E-02 0.000E+00
 
     Adding external electric field

     Computed dipole along edir(3) : 
        Dipole                1.0174 Ry au,          2.5859 Debye
        Dipole field          0.0019 Ry au, 
 
        Potential amp.       -0.1780 Ry
        Total length         46.3494 bohr
 

     total cpu time spent up to now is     1138.3 secs

     total energy              =   -2977.68367452 Ry
     estimated scf accuracy    <       0.00000217 Ry

     iteration # 66     ecut=    29.40 Ry     beta= 0.05
     Davidson diagonalization with overlap
     ethr =  5.35E-10,  avg # of iterations =  9.8

     negative rho (up, down):  1.423E-02 0.000E+00
 
     Adding external electric field

     Computed dipole along edir(3) : 
        Dipole                1.0173 Ry au,          2.5857 Debye
        Dipole field          0.0019 Ry au, 
 
        Potential amp.       -0.1780 Ry
        Total length         46.3494 bohr
 

     total cpu time spent up to now is     1153.9 secs

     total energy              =   -2977.68367722 Ry
     estimated scf accuracy    <       0.00000229 Ry

     iteration # 67     ecut=    29.40 Ry     beta= 0.05
     Davidson diagonalization with overlap
     ethr =  5.35E-10,  avg # of iterations =  3.7

     negative rho (up, down):  1.425E-02 0.000E+00
 
     Adding external electric field

     Computed dipole along edir(3) : 
        Dipole                1.0174 Ry au,          2.5859 Debye
        Dipole field          0.0019 Ry au, 
 
        Potential amp.       -0.1780 Ry
        Total length         46.3494 bohr
 

     total cpu time spent up to now is     1165.1 secs

     total energy              =   -2977.68367902 Ry
     estimated scf accuracy    <       0.00000196 Ry

     iteration # 68     ecut=    29.40 Ry     beta= 0.05
     Davidson diagonalization with overlap
     ethr =  4.83E-10,  avg # of iterations = 13.6

     negative rho (up, down):  1.427E-02 0.000E+00
 
     Adding external electric field

     Computed dipole along edir(3) : 
        Dipole                1.0176 Ry au,          2.5866 Debye
        Dipole field          0.0019 Ry au, 
 
        Potential amp.       -0.1780 Ry
        Total length         46.3494 bohr
 

     total cpu time spent up to now is     1183.4 secs

     total energy              =   -2977.68368133 Ry
     estimated scf accuracy    <       0.00000079 Ry

     iteration # 69     ecut=    29.40 Ry     beta= 0.05
     Davidson diagonalization with overlap
     ethr =  1.95E-10,  avg # of iterations =  7.4

     negative rho (up, down):  1.429E-02 0.000E+00
 
     Adding external electric field

     Computed dipole along edir(3) : 
        Dipole                1.0181 Ry au,          2.5878 Debye
        Dipole field          0.0019 Ry au, 
 
        Potential amp.       -0.1781 Ry
        Total length         46.3494 bohr
 

     total cpu time spent up to now is     1196.7 secs

     total energy              =   -2977.68368324 Ry
     estimated scf accuracy    <       0.00000042 Ry

     iteration # 70     ecut=    29.40 Ry     beta= 0.05
     Davidson diagonalization with overlap
     c_bands:  2 eigenvalues not converged
     ethr =  1.04E-10,  avg # of iterations = 15.1

     negative rho (up, down):  1.431E-02 0.000E+00
 
     Adding external electric field

     Computed dipole along edir(3) : 
        Dipole                1.0180 Ry au,          2.5875 Debye
        Dipole field          0.0019 Ry au, 
 
        Potential amp.       -0.1781 Ry
        Total length         46.3494 bohr
 

     total cpu time spent up to now is     1217.7 secs

     total energy              =   -2977.68368489 Ry
     estimated scf accuracy    <       0.00000072 Ry

     iteration # 71     ecut=    29.40 Ry     beta= 0.05
     Davidson diagonalization with overlap
     ethr =  1.04E-10,  avg # of iterations = 10.0

     negative rho (up, down):  1.431E-02 0.000E+00
 
     Adding external electric field

     Computed dipole along edir(3) : 
        Dipole                1.0180 Ry au,          2.5874 Debye
        Dipole field          0.0019 Ry au, 
 
        Potential amp.       -0.1781 Ry
        Total length         46.3494 bohr
 

     total cpu time spent up to now is     1232.9 secs

     total energy              =   -2977.68368641 Ry
     estimated scf accuracy    <       0.00000014 Ry

     iteration # 72     ecut=    29.40 Ry     beta= 0.05
     Davidson diagonalization with overlap
     ethr =  3.40E-11,  avg # of iterations =  9.7

     negative rho (up, down):  1.431E-02 0.000E+00
 
     Adding external electric field

     Computed dipole along edir(3) : 
        Dipole                1.0179 Ry au,          2.5873 Debye
        Dipole field          0.0019 Ry au, 
 
        Potential amp.       -0.1781 Ry
        Total length         46.3494 bohr
 

     total cpu time spent up to now is     1246.5 secs

     total energy              =   -2977.68368774 Ry
     estimated scf accuracy    <       0.00000009 Ry

     iteration # 73     ecut=    29.40 Ry     beta= 0.05
     Davidson diagonalization with overlap
     ethr =  2.30E-11,  avg # of iterations = 13.5

     negative rho (up, down):  1.439E-02 0.000E+00
 
     Adding external electric field

     Computed dipole along edir(3) : 
        Dipole                1.0182 Ry au,          2.5881 Debye
        Dipole field          0.0019 Ry au, 
 
        Potential amp.       -0.1781 Ry
        Total length         46.3494 bohr
 

     total cpu time spent up to now is     1266.1 secs

     End of self-consistent calculation

          k = 0.0000 0.0000 0.0000 ( 18029 PWs)   bands (ev):

   -55.3604 -55.3232 -55.3109 -55.2933 -55.2767 -55.2413 -55.2396 -55.2046
   -55.1834 -55.1824 -55.1490 -55.1431 -55.1095 -55.0189 -54.3433 -54.3093
   -31.9268 -31.8091 -31.8038 -31.7282 -31.6768 -31.6728 -31.6726 -31.6496
   -31.5998 -31.5957 -31.5727 -31.5701 -31.5559 -31.5396 -31.5307 -31.5274
   -31.5149 -31.5077 -31.4974 -31.4797 -31.4649 -31.4636 -31.4358 -31.4252
   -31.4180 -31.4140 -31.3936 -31.3859 -31.3697 -31.3681 -31.3634 -31.3547
   -31.3423 -31.3414 -31.3326 -31.3300 -31.2970 -31.2941 -31.2715 -31.2543
   -31.2311 -31.2289 -30.7527 -30.6583 -30.6363 -30.5692 -30.4824 -30.3714
   -18.0047 -17.6608 -16.1942 -15.9335 -15.7882 -15.6596 -15.5620 -15.4337
   -15.4144 -15.2925 -15.2221 -15.1186 -15.0673 -15.0493 -15.0131 -15.0029
   -14.9800 -14.9092 -14.9029 -14.8890 -14.8650 -14.8563 -14.8101 -14.8023
   -14.7612 -14.7368 -14.7127 -14.6136 -14.5235 -14.4487 -14.3417 -13.1798
   -12.8457 -12.7282  -9.3865  -6.3347  -5.8777  -5.7388  -4.2833  -3.5326
    -3.3839  -3.3155  -3.2790  -3.2536  -3.1201  -2.9655  -2.9493  -2.8114
    -2.7893  -2.6820  -2.6453  -2.5740  -2.5568  -2.5421  -2.3963  -2.3736
    -2.3473  -2.2818  -2.2545  -2.1884  -2.1662  -2.1556  -2.1458  -2.1228
    -2.0947  -2.0515  -1.9931  -1.9341  -1.8408  -1.8150  -1.7649  -1.7342
    -1.7145  -1.6973  -1.6519  -1.6409  -1.6017  -1.5869  -1.5665  -1.5526
    -1.3893  -1.3657  -1.2653  -1.2032  -1.1046  -1.0009  -0.9650  -0.9505
    -0.8535  -0.8350  -0.7821  -0.7415  -0.7387  -0.7041  -0.5924  -0.5301
    -0.4774  -0.4138  -0.3908  -0.3510  -0.2831  -0.1996  -0.1439  -0.1299
    -0.1133  -0.0968   0.0124   0.0249   0.0765   0.1514   0.1609   0.1671
     0.2410   0.2973   0.3675   0.3924   0.4102   0.5152   0.5309   0.5632
     0.5689   0.5988   0.6195   0.6446   0.7048   0.7351   0.8182   0.9399
     1.1322   1.2213   1.2485   1.3925   1.5714   1.5840   1.6797   1.8628
     2.2560   2.3044   3.7366   3.8078   3.8826   3.8866   3.9091   3.9730
     4.2098   4.2272   4.2416   4.2453   4.2694

          k = 0.0000 0.0419 0.0000 ( 17933 PWs)   bands (ev):

   -55.3553 -55.3281 -55.3058 -55.2926 -55.2817 -55.2370 -55.2366 -55.2092
   -55.1849 -55.1783 -55.1539 -55.1381 -55.1143 -55.0194 -54.3383 -54.3142
   -31.8697 -31.7708 -31.7498 -31.6736 -31.6612 -31.6251 -31.6196 -31.6064
   -31.6050 -31.5948 -31.5915 -31.5589 -31.5523 -31.5518 -31.5352 -31.5318
   -31.5244 -31.5071 -31.5037 -31.4818 -31.4684 -31.4650 -31.4496 -31.4348
   -31.4122 -31.4097 -31.4031 -31.3983 -31.3894 -31.3861 -31.3819 -31.3767
   -31.3630 -31.3530 -31.3494 -31.3333 -31.3292 -31.3251 -31.3091 -31.2814
   -31.2652 -31.2292 -30.6985 -30.6549 -30.6392 -30.5565 -30.4950 -30.4286
   -17.9985 -17.6658 -16.0634 -15.8159 -15.6846 -15.5888 -15.4561 -15.4062
   -15.3743 -15.2728 -15.2229 -15.1784 -15.1159 -15.0600 -15.0415 -15.0109
   -14.9765 -14.9433 -14.9392 -14.8795 -14.8622 -14.8475 -14.8459 -14.8197
   -14.7967 -14.7535 -14.7327 -14.6692 -14.5785 -14.5085 -14.4566 -13.1809
   -12.8493 -12.7674  -9.3922  -6.3479  -5.9101  -5.6717  -4.2763  -3.3421
    -3.2163  -3.1609  -3.1198  -3.0773  -2.9781  -2.9513  -2.7784  -2.7179
    -2.6928  -2.6388  -2.6037  -2.5443  -2.5066  -2.4642  -2.4411  -2.4109
    -2.3815  -2.3470  -2.3359  -2.3188  -2.2756  -2.2587  -2.1621  -2.1497
    -2.1345  -2.0941  -2.0785  -2.0040  -1.9709  -1.9275  -1.9086  -1.8811
    -1.8572  -1.8091  -1.7861  -1.6659  -1.6584  -1.5197  -1.4777  -1.3444
    -1.3093  -1.2803  -1.1842  -1.1254  -1.0903  -1.0398  -0.9421  -0.8209
    -0.7514  -0.7112  -0.6979  -0.6868  -0.5967  -0.5680  -0.5395  -0.5298
    -0.3883  -0.3685  -0.3612  -0.2936  -0.2860  -0.2199  -0.2043  -0.1856
    -0.1760  -0.1499  -0.0707   0.0151   0.0330   0.0346   0.1261   0.1354
     0.1856   0.2371   0.2785   0.3565   0.3736   0.3855   0.4069   0.4439
     0.4675   0.5655   0.5836   0.6203   0.6666   0.7379   0.8129   0.9332
     0.9419   0.9818   1.0982   1.2869   1.4005   1.4463   1.8629   1.9382
     2.2110   2.2146   3.9297   3.9393   3.9725   4.0279   4.1063   4.1110
     4.1517   4.1644   4.2182   4.2380   4.3079

          k = 0.0000-0.0839 0.0000 ( 17884 PWs)   bands (ev):

   -55.3466 -55.3367 -55.2940 -55.2934 -55.2920 -55.2340 -55.2293 -55.2164
   -55.1878 -55.1676 -55.1646 -55.1264 -55.1260 -55.0199 -54.3264 -54.3260
   -31.7342 -31.7264 -31.7242 -31.6401 -31.6202 -31.6175 -31.6171 -31.5851
   -31.5848 -31.5589 -31.5504 -31.5477 -31.5344 -31.5333 -31.5310 -31.5269
   -31.5175 -31.5043 -31.5031 -31.4924 -31.4885 -31.4843 -31.4636 -31.4371
   -31.4337 -31.4335 -31.4295 -31.4264 -31.4161 -31.4161 -31.4156 -31.4017
   -31.4003 -31.3978 -31.3884 -31.3718 -31.3258 -31.3233 -31.3077 -31.3071
   -31.3020 -31.2280 -30.6470 -30.6467 -30.5654 -30.5652 -30.5259 -30.5256
   -17.9922 -17.6711 -15.7909 -15.6980 -15.5560 -15.5098 -15.4598 -15.3738
   -15.3675 -15.2658 -15.2328 -15.2221 -15.1793 -15.1499 -15.1178 -14.9904
   -14.9712 -14.9565 -14.9552 -14.9072 -14.8420 -14.8207 -14.8079 -14.7886
   -14.7704 -14.7686 -14.7207 -14.7047 -14.6646 -14.6547 -14.6503 -13.1819
   -12.8301 -12.8301  -9.3979  -6.3611  -5.9304  -5.6173  -4.2695  -2.9878
    -2.9240  -2.8901  -2.8518  -2.8060  -2.7974  -2.7826  -2.7750  -2.7256
    -2.7088  -2.6689  -2.6349  -2.6328  -2.5758  -2.5650  -2.5171  -2.5112
    -2.4864  -2.4474  -2.4004  -2.3685  -2.3347  -2.2517  -2.2395  -2.2238
    -2.1909  -2.1819  -2.1500  -2.0846  -2.0030  -1.9959  -1.9201  -1.9114
    -1.7858  -1.7636  -1.7332  -1.7106  -1.5409  -1.4621  -1.4063  -1.3134
    -1.2798  -1.1806  -1.1381  -1.1250  -0.9935  -0.8842  -0.8718  -0.8639
    -0.8283  -0.8195  -0.7869  -0.7522  -0.7385  -0.6604  -0.6052  -0.5730
    -0.5293  -0.4525  -0.4147  -0.2114  -0.2026  -0.1502  -0.1096  -0.0875
    -0.0710  -0.0103   0.0131   0.0261   0.0333   0.0821   0.1221   0.1574
     0.1624   0.1940   0.2317   0.2513   0.2674   0.2815   0.3201   0.3589
     0.3943   0.4262   0.4267   0.4532   0.4610   0.7707   0.8284   0.8472
     0.8523   0.9907   1.0134   1.1907   1.2010   1.4130   2.0048   2.0052
     2.1465   2.1468   3.9921   3.9967   4.0485   4.0613   4.1219   4.1703
     4.2188   4.2219   4.3100   4.3237   4.3343

          k = 0.0380 0.0000 0.0000 ( 17913 PWs)   bands (ev):

   -55.3603 -55.3231 -55.3108 -55.2931 -55.2766 -55.2412 -55.2396 -55.2045
   -55.1831 -55.1823 -55.1489 -55.1432 -55.1094 -55.0188 -54.3432 -54.3092
   -31.9269 -31.8092 -31.8047 -31.7335 -31.6805 -31.6767 -31.6726 -31.6499
   -31.5996 -31.5957 -31.5727 -31.5559 -31.5530 -31.5394 -31.5273 -31.5155
   -31.5145 -31.5074 -31.4910 -31.4648 -31.4621 -31.4585 -31.4433 -31.4354
   -31.4249 -31.4137 -31.3935 -31.3859 -31.3691 -31.3679 -31.3560 -31.3543
   -31.3516 -31.3422 -31.3412 -31.3325 -31.2957 -31.2937 -31.2714 -31.2547
   -31.2333 -31.2292 -30.7522 -30.6618 -30.6342 -30.5690 -30.4823 -30.3712
   -18.0040 -17.6608 -16.1145 -15.8469 -15.7711 -15.6340 -15.4648 -15.4447
   -15.4186 -15.3094 -15.2308 -15.1695 -15.1482 -15.1317 -15.0689 -15.0599
   -15.0298 -15.0011 -14.9598 -14.8823 -14.8640 -14.8056 -14.7665 -14.7492
   -14.7353 -14.6880 -14.6216 -14.5984 -14.5819 -14.5348 -14.3404 -13.1818
   -12.8424 -12.7279  -9.3820  -6.3406  -5.8664  -5.7508  -4.2766  -3.4126
    -3.2598  -3.1537  -3.0974  -3.0142  -2.9713  -2.9532  -2.9392  -2.8939
    -2.8239  -2.7874  -2.7522  -2.6979  -2.6004  -2.5101  -2.4364  -2.4290
    -2.3389  -2.3066  -2.1774  -2.1521  -2.1362  -2.1293  -2.0811  -2.0404
    -2.0072  -1.9643  -1.9493  -1.8898  -1.8031  -1.7506  -1.7281  -1.7191
    -1.7029  -1.6752  -1.6620  -1.6027  -1.5649  -1.4834  -1.4456  -1.4193
    -1.3410  -1.3032  -1.2923  -1.1669  -1.1383  -1.0294  -0.9957  -0.9726
    -0.9130  -0.8739  -0.8184  -0.7749  -0.7704  -0.7168  -0.7112  -0.6830
    -0.4595  -0.4260  -0.3835  -0.3065  -0.2642  -0.2470  -0.2256  -0.1969
    -0.1051  -0.0600  -0.0487  -0.0097   0.0280   0.0568   0.1262   0.1642
     0.1797   0.2335   0.2860   0.3241   0.3520   0.3720   0.3945   0.4549
     0.4905   0.5425   0.5818   0.6000   0.6399   0.6538   0.7341   0.8205
     0.8835   1.0545   1.3007   1.3880   1.4328   1.5893   1.6916   1.8316
     2.1433   2.2216   3.7523   3.8426   4.0160   4.0303   4.0703   4.1280
     4.1761   4.1869   4.2268   4.2329   4.2450

          k = 0.0380 0.0419 0.0000 ( 17878 PWs)   bands (ev):

   -55.3552 -55.3281 -55.3057 -55.2925 -55.2817 -55.2369 -55.2366 -55.2091
   -55.1849 -55.1781 -55.1539 -55.1382 -55.1143 -55.0193 -54.3382 -54.3141
   -31.8699 -31.7709 -31.7506 -31.6799 -31.6611 -31.6293 -31.6238 -31.6067
   -31.6052 -31.5946 -31.5917 -31.5526 -31.5525 -31.5447 -31.5350 -31.5319
   -31.5110 -31.5036 -31.4976 -31.4819 -31.4686 -31.4490 -31.4458 -31.4392
   -31.4285 -31.4093 -31.4027 -31.3961 -31.3896 -31.3817 -31.3793 -31.3737
   -31.3636 -31.3622 -31.3491 -31.3378 -31.3328 -31.3315 -31.3088 -31.2815
   -31.2650 -31.2321 -30.6981 -30.6577 -30.6382 -30.5564 -30.4950 -30.4284
   -17.9980 -17.6658 -15.9903 -15.7362 -15.6893 -15.5405 -15.4089 -15.3833
   -15.3515 -15.2860 -15.2386 -15.1774 -15.1469 -15.1163 -15.0764 -15.0420
   -15.0237 -15.0079 -14.9459 -14.9243 -14.8956 -14.8399 -14.8177 -14.7840
   -14.7767 -14.7403 -14.6879 -14.6540 -14.6461 -14.5888 -14.4555 -13.1830
   -12.8469 -12.7677  -9.3876  -6.3553  -5.9014  -5.6797  -4.2706  -3.2361
    -3.1018  -2.9917  -2.9839  -2.9091  -2.8558  -2.7951  -2.7711  -2.7468
    -2.7007  -2.6612  -2.6177  -2.5569  -2.4941  -2.4498  -2.4167  -2.3939
    -2.3636  -2.3205  -2.2831  -2.2394  -2.2109  -2.1793  -2.1649  -2.1387
    -2.1010  -2.0694  -2.0578  -1.9977  -1.9665  -1.9488  -1.8761  -1.8595
    -1.8115  -1.7617  -1.7459  -1.6516  -1.5791  -1.4583  -1.4153  -1.3692
    -1.3553  -1.2175  -1.1737  -1.1522  -1.0909  -0.9694  -0.9263  -0.8639
    -0.8445  -0.7996  -0.7645  -0.7147  -0.6916  -0.6574  -0.6213  -0.5485
    -0.5075  -0.4827  -0.4488  -0.3403  -0.3184  -0.3063  -0.2713  -0.2020
    -0.1671  -0.1394  -0.1027  -0.0788  -0.0574  -0.0253   0.0080   0.0208
     0.0503   0.1091   0.1833   0.2004   0.2419   0.2857   0.3525   0.3715
     0.4365   0.5090   0.5752   0.6112   0.6976   0.7363   0.7846   0.8523
     0.9050   1.0442   1.0579   1.2307   1.3929   1.4045   1.8738   1.9416
     2.1331   2.1964   3.9233   3.9352   3.9656   4.0742   4.0972   4.1423
     4.1699   4.2507   4.2756   4.3116   4.3319

          k = 0.0380-0.0839 0.0000 ( 17916 PWs)   bands (ev):

   -55.3466 -55.3367 -55.2940 -55.2934 -55.2920 -55.2340 -55.2293 -55.2165
   -55.1879 -55.1675 -55.1646 -55.1265 -55.1261 -55.0199 -54.3264 -54.3260
   -31.7345 -31.7267 -31.7244 -31.6403 -31.6205 -31.6183 -31.6179 -31.5851
   -31.5848 -31.5662 -31.5591 -31.5517 -31.5500 -31.5316 -31.5191 -31.5091
   -31.5072 -31.4995 -31.4989 -31.4951 -31.4924 -31.4900 -31.4583 -31.4389
   -31.4357 -31.4325 -31.4173 -31.4152 -31.4147 -31.4110 -31.4086 -31.4061
   -31.4001 -31.3976 -31.3968 -31.3741 -31.3376 -31.3350 -31.3077 -31.3071
   -31.3016 -31.2314 -30.6480 -30.6477 -30.5653 -30.5651 -30.5259 -30.5257
   -17.9922 -17.6707 -15.7453 -15.6500 -15.5371 -15.4626 -15.4521 -15.3336
   -15.3116 -15.2584 -15.2261 -15.2168 -15.1725 -15.1117 -15.0758 -14.9942
   -14.9897 -14.9842 -14.9654 -14.9476 -14.9270 -14.8720 -14.8423 -14.8010
   -14.7934 -14.7788 -14.7394 -14.7255 -14.7048 -14.7038 -14.6484 -13.1840
   -12.8299 -12.8299  -9.3946  -6.3592  -5.9172  -5.6382  -4.2652  -2.9740
    -2.8642  -2.8441  -2.8344  -2.7043  -2.6629  -2.6192  -2.6156  -2.5733
    -2.5583  -2.5434  -2.5216  -2.4938  -2.4757  -2.4459  -2.4384  -2.4206
    -2.4112  -2.3849  -2.3428  -2.3228  -2.2881  -2.2691  -2.2488  -2.1974
    -2.1695  -2.1163  -2.0939  -2.0791  -2.0313  -2.0077  -1.9524  -1.9111
    -1.8311  -1.7379  -1.6254  -1.5643  -1.5574  -1.4384  -1.3981  -1.3256
    -1.3010  -1.2868  -1.2279  -1.2084  -1.1302  -1.1027  -1.0499  -1.0419
    -1.0198  -0.9282  -0.8538  -0.8010  -0.7336  -0.7098  -0.6810  -0.6527
    -0.6022  -0.4468  -0.4108  -0.3873  -0.3306  -0.2961  -0.2194  -0.1966
    -0.1683  -0.1597  -0.1286  -0.1133  -0.0635  -0.0093  -0.0037   0.0209
     0.0570   0.1057   0.1105   0.1468   0.1657   0.2791   0.3560   0.3705
     0.3861   0.4978   0.5280   0.6948   0.6977   0.7200   0.7636   0.8538
     0.8746   0.9502   0.9555   1.1822   1.1909   1.4048   2.0182   2.0187
     2.1371   2.1378   3.9039   4.0007   4.0248   4.0515   4.1342   4.1702
     4.1952   4.2246   4.3205   4.3405   4.3873

          k = 0.0380-0.0419 0.0000 ( 17876 PWs)   bands (ev):

   -55.3552 -55.3281 -55.3057 -55.2925 -55.2816 -55.2369 -55.2366 -55.2091
   -55.1849 -55.1781 -55.1539 -55.1382 -55.1143 -55.0193 -54.3382 -54.3141
   -31.8699 -31.7709 -31.7506 -31.6798 -31.6611 -31.6295 -31.6238 -31.6067
   -31.6052 -31.5946 -31.5917 -31.5526 -31.5525 -31.5447 -31.5350 -31.5319
   -31.5105 -31.5036 -31.4975 -31.4819 -31.4686 -31.4489 -31.4458 -31.4395
   -31.4285 -31.4093 -31.4028 -31.3960 -31.3896 -31.3816 -31.3793 -31.3737
   -31.3641 -31.3624 -31.3488 -31.3376 -31.3329 -31.3315 -31.3088 -31.2815
   -31.2650 -31.2319 -30.6981 -30.6577 -30.6382 -30.5564 -30.4950 -30.4284
   -17.9983 -17.6655 -15.9902 -15.7358 -15.6890 -15.5404 -15.4097 -15.3829
   -15.3512 -15.2858 -15.2385 -15.1781 -15.1475 -15.1181 -15.0776 -15.0412
   -15.0242 -15.0084 -14.9428 -14.9240 -14.8956 -14.8398 -14.8176 -14.7840
   -14.7770 -14.7402 -14.6872 -14.6538 -14.6465 -14.5891 -14.4556 -13.1830
   -12.8469 -12.7677  -9.3889  -6.3439  -5.8939  -5.6974  -4.2709  -3.2359
    -3.1027  -2.9918  -2.9815  -2.8904  -2.8569  -2.7998  -2.7820  -2.7310
    -2.6989  -2.6544  -2.6304  -2.5574  -2.4983  -2.4508  -2.4070  -2.3999
    -2.3612  -2.3139  -2.2788  -2.2502  -2.2101  -2.1947  -2.1719  -2.1436
    -2.1107  -2.0667  -2.0575  -2.0071  -1.9627  -1.9443  -1.8720  -1.8390
    -1.7997  -1.7742  -1.7425  -1.6493  -1.5825  -1.4748  -1.4292  -1.3680
    -1.3491  -1.2179  -1.1669  -1.1470  -1.0881  -0.9827  -0.9359  -0.8513
    -0.8307  -0.7900  -0.7635  -0.7176  -0.7015  -0.6724  -0.6273  -0.5482
    -0.5159  -0.4703  -0.4427  -0.3402  -0.3245  -0.3076  -0.2722  -0.1994
    -0.1729  -0.1406  -0.0972  -0.0716  -0.0559  -0.0232   0.0094   0.0189
     0.0527   0.1058   0.1889   0.2033   0.2440   0.2829   0.3513   0.3685
     0.4401   0.5053   0.5814   0.6011   0.6939   0.7323   0.7839   0.8572
     0.9054   1.0448   1.0576   1.2308   1.3974   1.4068   1.8738   1.9416
     2.1329   2.1970   3.9260   3.9338   3.9650   4.0746   4.0996   4.1429
     4.1669   4.2482   4.2883   4.3085   4.3394

          k =-0.0760-0.0000 0.0000 ( 17886 PWs)   bands (ev):

   -55.3602 -55.3231 -55.3107 -55.2930 -55.2767 -55.2412 -55.2396 -55.2045
   -55.1830 -55.1823 -55.1489 -55.1432 -55.1093 -55.0188 -54.3432 -54.3091
   -31.9271 -31.8095 -31.8057 -31.7386 -31.6841 -31.6806 -31.6724 -31.6502
   -31.5995 -31.5957 -31.5728 -31.5559 -31.5401 -31.5273 -31.5272 -31.5144
   -31.5070 -31.4935 -31.4855 -31.4648 -31.4613 -31.4581 -31.4577 -31.4259
   -31.4248 -31.4140 -31.3934 -31.3859 -31.3857 -31.3690 -31.3681 -31.3544
   -31.3473 -31.3423 -31.3413 -31.3362 -31.2948 -31.2935 -31.2714 -31.2553
   -31.2358 -31.2294 -30.7518 -30.6653 -30.6329 -30.5689 -30.4822 -30.3712
   -18.0035 -17.6609 -15.9790 -15.8640 -15.6917 -15.5764 -15.4296 -15.4173
   -15.4043 -15.2773 -15.2677 -15.2250 -15.2045 -15.1776 -15.1431 -15.1132
   -15.0781 -15.0682 -14.9836 -14.8640 -14.8276 -14.7972 -14.7840 -14.7732
   -14.7713 -14.6958 -14.6543 -14.6065 -14.5311 -14.4935 -14.3395 -13.1838
   -12.8393 -12.7276  -9.3775  -6.3465  -5.8523  -5.7660  -4.2703  -3.3766
    -3.2372  -3.0089  -2.9946  -2.9325  -2.9159  -2.8691  -2.8610  -2.8521
    -2.7875  -2.7484  -2.6799  -2.6392  -2.6072  -2.5913  -2.4301  -2.3025
    -2.2989  -2.2093  -2.1680  -2.1289  -2.0870  -2.0102  -1.9681  -1.9489
    -1.9201  -1.9043  -1.8464  -1.8410  -1.8334  -1.7874  -1.7284  -1.7143
    -1.6978  -1.6794  -1.6645  -1.6527  -1.5804  -1.5642  -1.5323  -1.4347
    -1.3169  -1.1924  -1.1726  -1.0723  -1.0582  -1.0099  -1.0028  -0.9772
    -0.9691  -0.9258  -0.8950  -0.8727  -0.8010  -0.7755  -0.7123  -0.6847
    -0.6567  -0.6345  -0.5623  -0.3691  -0.2993  -0.2898  -0.2656  -0.2337
    -0.1495  -0.1170  -0.0821  -0.0599  -0.0230   0.0336   0.0559   0.0796
     0.1315   0.1373   0.1982   0.2169   0.2918   0.3209   0.3780   0.4235
     0.4346   0.4707   0.4783   0.4926   0.5603   0.6021   0.7588   0.8626
     0.8676   1.1170   1.1588   1.3275   1.3875   1.5940   1.7130   1.8066
     2.0131   2.1666   3.7522   3.7996   3.8821   4.0073   4.0811   4.1219
     4.1784   4.2005   4.2261   4.2473   4.3185

          k =-0.0760 0.0419 0.0000 ( 17914 PWs)   bands (ev):

   -55.3552 -55.3281 -55.3058 -55.2925 -55.2817 -55.2370 -55.2367 -55.2092
   -55.1849 -55.1780 -55.1539 -55.1383 -55.1144 -55.0193 -54.3382 -54.3142
   -31.8702 -31.7711 -31.7517 -31.6859 -31.6613 -31.6336 -31.6281 -31.6072
   -31.6053 -31.5946 -31.5917 -31.5527 -31.5524 -31.5360 -31.5320 -31.5264
   -31.5033 -31.4932 -31.4884 -31.4822 -31.4686 -31.4495 -31.4483 -31.4450
   -31.4140 -31.4101 -31.4029 -31.3953 -31.3928 -31.3897 -31.3822 -31.3814
   -31.3640 -31.3512 -31.3492 -31.3490 -31.3396 -31.3333 -31.3094 -31.2815
   -31.2649 -31.2350 -30.6979 -30.6606 -30.6375 -30.5564 -30.4951 -30.4285
   -17.9979 -17.6655 -15.8623 -15.7749 -15.6077 -15.4841 -15.3897 -15.3383
   -15.3230 -15.2801 -15.2367 -15.1769 -15.1657 -15.1552 -15.1333 -15.0933
   -15.0632 -15.0541 -14.9812 -14.9236 -14.9182 -14.8368 -14.8275 -14.8033
   -14.7907 -14.7535 -14.7436 -14.6507 -14.6187 -14.6006 -14.4550 -13.1851
   -12.8448 -12.7680  -9.3844  -6.3514  -5.8841  -5.7068  -4.2655  -3.2105
    -3.0821  -2.9748  -2.7995  -2.7797  -2.7215  -2.6957  -2.6690  -2.6277
    -2.5861  -2.5754  -2.5623  -2.5116  -2.4702  -2.3924  -2.3722  -2.3510
    -2.3248  -2.3086  -2.2561  -2.2247  -2.1821  -2.1598  -2.0836  -2.0775
    -2.0437  -2.0356  -1.9619  -1.9485  -1.9220  -1.9080  -1.8780  -1.8325
    -1.8133  -1.7820  -1.5973  -1.5777  -1.5360  -1.5186  -1.4385  -1.4147
    -1.3367  -1.1659  -1.1319  -1.1141  -1.1021  -1.0053  -0.9928  -0.9550
    -0.9331  -0.8632  -0.8024  -0.7754  -0.7631  -0.7276  -0.7011  -0.6569
    -0.6353  -0.6111  -0.5678  -0.5496  -0.5212  -0.4584  -0.4287  -0.3610
    -0.3461  -0.2548  -0.1729  -0.1607  -0.1412  -0.1235  -0.0933  -0.0662
    -0.0378   0.0826   0.0940   0.1756   0.1910   0.2553   0.3606   0.3882
     0.4570   0.5136   0.5289   0.5898   0.6964   0.7938   0.8535   0.9051
     0.9558   1.0474   1.1349   1.1484   1.2893   1.3918   1.8891   1.9437
     2.0552   2.1856   3.9117   3.9353   3.9591   3.9776   4.0526   4.0926
     4.1396   4.2003   4.2737   4.3250   4.3679

          k =-0.0760-0.0839 0.0000 ( 17948 PWs)   bands (ev):

   -55.3466 -55.3367 -55.2940 -55.2934 -55.2920 -55.2341 -55.2294 -55.2165
   -55.1879 -55.1675 -55.1645 -55.1266 -55.1262 -55.0200 -54.3264 -54.3260
   -31.7348 -31.7270 -31.7247 -31.6405 -31.6208 -31.6191 -31.6187 -31.5852
   -31.5849 -31.5740 -31.5598 -31.5586 -31.5519 -31.5319 -31.5203 -31.5067
   -31.5003 -31.4971 -31.4956 -31.4943 -31.4875 -31.4800 -31.4478 -31.4401
   -31.4371 -31.4369 -31.4230 -31.4182 -31.4138 -31.4132 -31.4076 -31.4002
   -31.3977 -31.3807 -31.3774 -31.3755 -31.3604 -31.3574 -31.3076 -31.3071
   -31.3013 -31.2349 -30.6491 -30.6488 -30.5653 -30.5651 -30.5259 -30.5257
   -17.9922 -17.6703 -15.6748 -15.5897 -15.5688 -15.4136 -15.3619 -15.3356
   -15.3246 -15.2093 -15.1671 -15.1478 -15.1332 -15.1112 -15.0730 -15.0634
   -15.0566 -14.9934 -14.9730 -14.9641 -14.9382 -14.8843 -14.8768 -14.8688
   -14.8610 -14.8111 -14.8073 -14.7678 -14.7166 -14.7131 -14.6379 -13.1861
   -12.8297 -12.8296  -9.3913  -6.3568  -5.9026  -5.6607  -4.2609  -2.9677
    -2.8482  -2.8371  -2.8307  -2.6903  -2.6268  -2.5515  -2.5294  -2.5067
    -2.4225  -2.4099  -2.3794  -2.3539  -2.3243  -2.2855  -2.2475  -2.2417
    -2.2051  -2.1966  -2.1807  -2.1641  -2.1423  -2.1265  -2.0933  -2.0825
    -2.0691  -2.0250  -1.9992  -1.9847  -1.9639  -1.9437  -1.9355  -1.9171
    -1.8422  -1.7518  -1.7275  -1.6424  -1.5715  -1.5711  -1.5640  -1.5033
    -1.4599  -1.4215  -1.3965  -1.3793  -1.2399  -1.1689  -1.1246  -1.1104
    -1.0958  -0.9649  -0.9583  -0.8824  -0.8601  -0.8537  -0.7590  -0.7156
    -0.6771  -0.6702  -0.5835  -0.5713  -0.4954  -0.3970  -0.3752  -0.3614
    -0.3162  -0.3144  -0.2768  -0.2639  -0.1676  -0.1320  -0.1090  -0.0982
    -0.0814  -0.0400   0.1107   0.1601   0.1667   0.2998   0.3314   0.4701
     0.4997   0.5639   0.6437   0.6926   0.7450   0.7778   0.8641   0.9391
     0.9423   1.0057   1.0213   1.0873   1.0995   1.3970   2.0359   2.0364
     2.1242   2.1246   3.8847   3.9997   4.0033   4.0325   4.1545   4.1781
     4.2544   4.2819   4.3211   4.3244   4.3837

     the Fermi energy is     3.8007 ev

!    total energy              =   -2977.68369993 Ry
     estimated scf accuracy    <       0.00000006 Ry
     smearing contrib. (-TS)   =      -0.03717700 Ry
     internal energy E=F+TS    =   -2977.64652293 Ry

     The total energy is F=E-TS. E is the sum of the following terms:
     one-electron contribution =  -22682.04201995 Ry
     hartree contribution      =   11438.37999048 Ry
     xc contribution           =    -496.61939665 Ry
     ewald contribution        =    8762.63294659 Ry
     electric field correction =       0.00195660 Ry

     convergence has been achieved in  73 iterations

     Forces acting on atoms (cartesian axes, Ry/au):

     atom    1 type  1   force =     0.00024262   -0.00038301    0.09320999
     atom    2 type  1   force =     0.00002759   -0.00038795   -0.17818791
     atom    3 type  2   force =     0.00004916   -0.00041583   -0.02000867
     atom    4 type  2   force =     0.00001140   -0.00190298    0.05913770
     atom    5 type  2   force =    -0.01035345   -0.00059205    0.00862120
     atom    6 type  2   force =     0.01130246    0.00009865    0.00629193
     atom    7 type  1   force =    -0.00096219    0.00197556   -0.01426304
     atom    8 type  1   force =     0.00097414   -0.00256225   -0.00599568
     atom    9 type  2   force =     0.00016940   -0.00000926    0.00008823
     atom   10 type  2   force =    -0.00230863    0.00309687    0.00260861
     atom   11 type  2   force =     0.00043043   -0.00042011   -0.00057011
     atom   12 type  2   force =     0.00002739   -0.00039740   -0.00057522
     atom   13 type  1   force =     0.00033334   -0.00026683   -0.00021853
     atom   14 type  1   force =     0.00005644   -0.00007818   -0.00007078
     atom   15 type  2   force =    -0.00000559    0.00066048   -0.00004774
     atom   16 type  2   force =     0.00030597    0.00028606   -0.00011175
     atom   17 type  2   force =     0.00041516    0.00026470    0.00040943
     atom   18 type  2   force =    -0.00053623    0.00022065   -0.00002915
     atom   19 type  1   force =    -0.00012600    0.00012375    0.00030232
     atom   20 type  1   force =    -0.00010288   -0.00015744    0.00048513
     atom   21 type  2   force =     0.00012089   -0.00011108    0.10400953
     atom   22 type  2   force =     0.00020726   -0.00020441    0.00058840
     atom   23 type  2   force =    -0.07030587   -0.00019627   -0.02687321
     atom   24 type  2   force =     0.07029044    0.00025124   -0.02687155
     atom   25 type  1   force =     0.00017377   -0.00030013    0.09240351
     atom   26 type  1   force =     0.00005311   -0.00054234   -0.17851763
     atom   27 type  2   force =     0.00008279   -0.00021044   -0.01907370
     atom   28 type  2   force =     0.00005987   -0.00173212    0.05855395
     atom   29 type  2   force =    -0.01102226   -0.00114161    0.00945732
     atom   30 type  2   force =     0.01188169   -0.00069820    0.00723849
     atom   31 type  1   force =    -0.00087768    0.00646207   -0.01493015
     atom   32 type  1   force =     0.00101646    0.00220966   -0.00638328
     atom   33 type  2   force =     0.00025983    0.00008650    0.00002084
     atom   34 type  2   force =    -0.00214581   -0.00243696   -0.00030992
     atom   35 type  2   force =     0.00028440    0.00011547   -0.00001034
     atom   36 type  2   force =     0.00025088    0.00002600    0.00050668
     atom   37 type  1   force =    -0.00010396    0.00001948   -0.00005170
     atom   38 type  1   force =     0.00015660   -0.00008069   -0.00001091
     atom   39 type  2   force =    -0.00009880   -0.00021385    0.00042581
     atom   40 type  2   force =    -0.00014381    0.00007556    0.00006014
     atom   41 type  2   force =    -0.00045795    0.00013584    0.00024419
     atom   42 type  2   force =     0.00023136   -0.00009248   -0.00014803
     atom   43 type  1   force =     0.00040889    0.00024773   -0.00002996
     atom   44 type  1   force =    -0.00010583   -0.00019647   -0.00002667
     atom   45 type  2   force =     0.00012609   -0.00010980    0.10394121
     atom   46 type  2   force =    -0.07027709   -0.00013178   -0.02681175
     atom   47 type  2   force =     0.07026790    0.00027687   -0.02687478
     atom   48 type  3   force =    -0.00526465   -0.01759582    0.00460922
     atom   49 type  3   force =    -0.00035836    0.00412392   -0.00123693
     atom   50 type  4   force =     0.00059071    0.00648960    0.00088247
     atom   51 type  5   force =    -0.00025308    0.00141532    0.00099200
     atom   52 type  5   force =     0.00026744   -0.00035376    0.00020824
     atom   53 type  5   force =     0.00055178    0.00114118   -0.00008283
     atom   54 type  5   force =     0.00394598    0.00515785   -0.00642555
     atom   55 type  5   force =    -0.00055762    0.00057881   -0.00095772
     atom   56 type  5   force =     0.00063810   -0.00123798    0.00124490
     atom   57 type  2   force =    -0.00101880   -0.00058532    0.00077550
     atom   58 type  5   force =     0.00007178   -0.00030008   -0.00016057
     atom   59 type  5   force =     0.00110304    0.00050506   -0.00145118

     Total force =     0.366998     Total SCF correction =     0.000686
  @ DRIVER MODE: Message from server: STATUS
  @ DRIVER MODE: Message from server: GETFORCE
  @ DRIVER MODE: Returning v,forces,stress,ensemble 

     Writing output data file ./calc.save/
  @ DRIVER MODE: Message from server: EXIT
  @ DRIVE MODE: Exiting  
 
     init_run     :     10.97s CPU     11.18s WALL (       1 calls)
     electrons    :   1237.25s CPU   1254.65s WALL (       1 calls)
     forces       :      2.48s CPU      2.58s WALL (       1 calls)

     Called by init_run:
     wfcinit      :      4.95s CPU      5.01s WALL (       1 calls)
     potinit      :      5.35s CPU      5.41s WALL (       1 calls)
     hinit0       :      0.30s CPU      0.31s WALL (       1 calls)

     Called by electrons:
     c_bands      :   1059.81s CPU   1067.22s WALL (      73 calls)
     sum_band     :    120.16s CPU    124.18s WALL (      73 calls)
     v_of_rho     :     42.67s CPU     44.72s WALL (      74 calls)
     newd         :     17.64s CPU     21.56s WALL (      74 calls)
     mix_rho      :      1.60s CPU      1.62s WALL (      73 calls)
     vdW_kernel   :      4.54s CPU      4.56s WALL (       1 calls)

     Called by c_bands:
     init_us_2    :      8.39s CPU      8.43s WALL (    1480 calls)
     cegterg      :   1038.45s CPU   1045.54s WALL (     748 calls)

     Called by *egterg:
     cdiaghg      :    178.20s CPU    178.96s WALL (    8520 calls)
     h_psi        :    536.88s CPU    541.73s WALL (    8533 calls)
     s_psi        :     76.12s CPU     76.36s WALL (    8533 calls)
     g_psi        :      2.11s CPU      2.12s WALL (    7775 calls)

     Called by h_psi:
     h_psi:calbec :     71.29s CPU     71.63s WALL (    8533 calls)
     vloc_psi     :    384.53s CPU    388.36s WALL (    8533 calls)
     add_vuspsi   :     76.85s CPU     77.29s WALL (    8533 calls)

     General routines
     calbec       :     92.63s CPU     93.04s WALL (    9303 calls)
     fft          :     22.08s CPU     22.24s WALL (    4662 calls)
     ffts         :      0.15s CPU      0.15s WALL (     147 calls)
     fftw         :    429.78s CPU    434.06s WALL ( 1032352 calls)
     interpolate  :      0.46s CPU      0.46s WALL (      74 calls)
     davcio       :      0.00s CPU      0.16s WALL (      10 calls)
 
     Parallel routines
 
     PWSCF        :  20m51.00s CPU  21m 9.59s WALL

 
   This run was terminated on:  17:20:46  15Sep2021            

=------------------------------------------------------------------------------=
   JOB DONE.
=------------------------------------------------------------------------------=
