
     Program PWSCF v.6.7GPU starts on 10Sep2021 at 10:44:45 

     This program is part of the open-source Quantum ESPRESSO suite
     for quantum simulation of materials; please cite
         "P. Giannozzi et al., J. Phys.:Condens. Matter 21 395502 (2009);
         "P. Giannozzi et al., J. Phys.:Condens. Matter 29 465901 (2017);
         "P. Giannozzi et al., J. Chem. Phys. 152 154105 (2020);
          URL http://www.quantum-espresso.org", 
     in publications or presentations arising from this work. More details at
     http://www.quantum-espresso.org/quote

     Parallel version (MPI), running on    10 processors

     MPI processes distributed on     1 nodes
     R & G space division:  proc/nbgrp/npool/nimage =      10
     Reading input from /storage/home/hcoda1/3/ntian30/research/carbon/CxH_vib/CH3_calc/ads_slab/CH3N2H2O_e/out_0040/pw.inp
Warning: card &CELL ignored
Warning: card   CELL_DYNAMICS='IPI', ignored
Warning: card / ignored

     Current dimensions of program PWSCF are:
     Max number of different atomic species (ntypx) = 10
     Max number of k-points (npk) =  40000
     Max angular momentum in pseudopotentials (lmaxx) =  3
     Presently no symmetry can be used with electric field

     Message from routine cell_base_init:
     DEPRECATED: use true lattice parameter, not A to a.u. conversion factor

     **************************************************************************
     Initializing libbeef V0.1.2 with the BEEF-vdW functional.
     Citation: Wellendorff et al., PRB 85, 235149 (2012).
     **************************************************************************


     IMPORTANT: XC functional enforced from input :
     Exchange-correlation= BEEF-VDW
                           (   1   4  43  14   2   0   0)
     Any further DFT definition will be discarded
     Please, verify this is what you really want


     Subspace diagonalization in iterative solution of the eigenvalue problem:
     one sub-group per band group will be used
     scalapack distributed-memory algorithm (size of sub-group:  3*  3 procs)

  @ DRIVER MODE: Connecting to 
 qe_1139763_2779715.sched-torque.pace.gatech.eduvauqzrv2_scratch
  using UNIX socket
  @ DRIVER MODE: Message from server: STATUS
  @ DRIVER MODE: Message from server: INIT
  @ DRIVER MODE: Receiving replica           0          -1
  @ DRIVER MODE: Receiving encoded integer          25
  @ DRIVER MODE:  SCF:  T  FORCE:  T  STRESS:  F  VC:  F  ENSEMBLE:  F
  @ DRIVER MODE:  SCF:  T  FORCE:  T  STRESS:  F  VC:  F  ENSEMBLE:  F
 
     Parallelization info
     --------------------
     sticks:   dense  smooth     PW     G-vecs:    dense   smooth      PW
     Min         327     131     37                56683    14340    2191
     Max         328     133     38                56694    14346    2206
     Sum        3275    1317    379               566857   143421   21985
 
     Using Slab Decomposition
 


     bravais-lattice index     =            0
     lattice parameter (alat)  =       1.8897  a.u.
     unit-cell volume          =    6658.9804 (a.u.)^3
     number of atoms/cell      =           56
     number of atomic types    =            5
     number of electrons       =       403.00
     number of Kohn-Sham states=          211
     kinetic-energy cutoff     =      29.3995  Ry
     charge density cutoff     =     293.9946  Ry
     scf convergence threshold =      7.3E-08
     mixing beta               =       0.0500
     number of iterations used =            8  plain     mixing
     Exchange-correlation= BEEF-VDW
                           (   1   4  43  14   2   0   0)

     celldm(1)=   1.889726  celldm(2)=   0.000000  celldm(3)=   0.000000
     celldm(4)=   0.000000  celldm(5)=   0.000000  celldm(6)=   0.000000

     crystal axes: (cart. coord. in units of alat)
               a(1) = (   6.579727   0.000000   0.000000 )  
               a(2) = (  -0.000775   5.961596   0.000000 )  
               a(3) = (   0.000000   0.000000  25.155947 )  

     reciprocal axes: (cart. coord. in units 2 pi/alat)
               b(1) = (  0.151982  0.000020  0.000000 )  
               b(2) = (  0.000000  0.167740  0.000000 )  
               b(3) = (  0.000000  0.000000  0.039752 )  


     PseudoPot. # 1 for Ti read from file:
     /storage/coda1/p-amedford6/0/shared/rich_project_chbe-medford/medford-share/data/pseudos_module/espresso/nninc/pbe/van/Ti.UPF
     MD5 check sum: 8e4df49b7f0d34bbd5052bf3f5ea0213
     Pseudo is Ultrasoft, Zval = 12.0
     Generated by new atomic code, or converted to UPF format
     Using radial grid of  851 points,  6 beta functions with: 
                l(1) =   0
                l(2) =   0
                l(3) =   1
                l(4) =   1
                l(5) =   2
                l(6) =   2
     Q(r) pseudized with  8 coefficients,  rinner =    1.000   1.000   1.000
                                                       1.000   1.000

     PseudoPot. # 2 for O  read from file:
     /storage/coda1/p-amedford6/0/shared/rich_project_chbe-medford/medford-share/data/pseudos_module/espresso/nninc/pbe/van/O.UPF
     MD5 check sum: 78c19812648e8988a0fe644b0f25305e
     Pseudo is Ultrasoft, Zval =  6.0
     Generated by new atomic code, or converted to UPF format
     Using radial grid of  737 points,  4 beta functions with: 
                l(1) =   0
                l(2) =   0
                l(3) =   1
                l(4) =   1
     Q(r) pseudized with  8 coefficients,  rinner =    0.800   0.800   0.800


     PseudoPot. # 3 for N  read from file:
     /storage/coda1/p-amedford6/0/shared/rich_project_chbe-medford/medford-share/data/pseudos_module/espresso/nninc/pbe/van/N.UPF
     MD5 check sum: 90d10febe142ad51ac9d5be1deb811c4
     Pseudo is Ultrasoft, Zval =  5.0
     Generated by new atomic code, or converted to UPF format
     Using radial grid of  729 points,  4 beta functions with: 
                l(1) =   0
                l(2) =   0
                l(3) =   1
                l(4) =   1
     Q(r) pseudized with  8 coefficients,  rinner =    0.800   0.800   0.800


     PseudoPot. # 4 for C  read from file:
     /storage/coda1/p-amedford6/0/shared/rich_project_chbe-medford/medford-share/data/pseudos_module/espresso/nninc/pbe/van/C.UPF
     MD5 check sum: 1a69bf6b8db32088f5b2163dbdb77a27
     Pseudo is Ultrasoft, Zval =  4.0
     Generated by new atomic code, or converted to UPF format
     Using radial grid of  721 points,  4 beta functions with: 
                l(1) =   0
                l(2) =   0
                l(3) =   1
                l(4) =   1
     Q(r) pseudized with  8 coefficients,  rinner =    0.800   0.800   0.800


     PseudoPot. # 5 for H  read from file:
     /storage/coda1/p-amedford6/0/shared/rich_project_chbe-medford/medford-share/data/pseudos_module/espresso/nninc/pbe/van/H.UPF
     MD5 check sum: b5ee9d7bfd3a09ee7748110bda690ff7
     Pseudo is Ultrasoft, Zval =  1.0
     Generated by new atomic code, or converted to UPF format
     Using radial grid of  615 points,  1 beta functions with: 
                l(1) =   0
     Q(r) pseudized with  8 coefficients,  rinner =    0.800

     atomic species   valence    mass     pseudopotential
        Ti1           12.00    47.86700     Ti( 1.00)
        O1             6.00    15.99900     O ( 1.00)
        N1             5.00    14.00700     N ( 1.00)
        C1             4.00    12.01100     C ( 1.00)
        H1             1.00     1.00800     H ( 1.00)

     No symmetry found



   Cartesian axes

     site n.     atom                  positions (alat units)
         1           Ti1 tau(   1) = (   0.0004258   2.9801865   6.0000000  )
         2           Ti1 tau(   2) = (   3.2906075   1.4906267   6.0002472  )
         3           O1  tau(   3) = (   0.0006271   0.0005054   7.9858123  )
         4           O1  tau(   4) = (   3.2906025   0.0005020   7.3038282  )
         5           O1  tau(   5) = (   4.5942328   1.4918067   9.2879030  )
         6           O1  tau(   6) = (   1.9868534   1.4903216   9.2879459  )
         7           Ti1 tau(   7) = (   3.2907910   2.8959150   9.1758416  )
         8           Ti1 tau(   8) = (   0.0015273   1.4827037   9.2680791  )
         9           O1  tau(   9) = (   3.2823942   0.0140684  11.3428430  )
        10           O1  tau(  10) = (   0.0116148   5.9584955  10.6183126  )
        11           O1  tau(  11) = (   1.2742013   1.4978990  12.6323156  )
        12           O1  tau(  12) = (   5.2614901   1.5083079  12.6129891  )
        13           Ti1 tau(  13) = (   0.0550148   2.9595524  12.6160221  )
        14           Ti1 tau(  14) = (   3.3718896   1.5084997  12.4944496  )
        15           O1  tau(  15) = (   6.5380961   0.0278828  14.6255036  )
        16           O1  tau(  16) = (   3.2758616   0.0189586  13.9121306  )
        17           O1  tau(  17) = (   4.4976875   1.5333668  16.0433440  )
        18           O1  tau(  18) = (   1.9922867   1.5271532  16.0291573  )
        19           Ti1 tau(  19) = (   3.1858679   3.0241111  15.7732818  )
        20           Ti1 tau(  20) = (   6.4842391   1.5502874  15.8011710  )
        21           O1  tau(  21) = (   3.2904802   0.0005063   4.7018136  )
        22           O1  tau(  22) = (   6.5196731   0.0665875  17.1891134  )
        23           O1  tau(  23) = (   1.3043587   1.4918075   6.0039043  )
        24           O1  tau(  24) = (   5.2767064   1.4903225   6.0039473  )
        25           Ti1 tau(  25) = (   0.0000382   5.9609847   6.0000000  )
        26           Ti1 tau(  26) = (   3.2902200   4.4714249   6.0002472  )
        27           O1  tau(  27) = (   0.0002396   2.9813036   7.9858123  )
        28           O1  tau(  28) = (   3.2902150   2.9813002   7.3038282  )
        29           O1  tau(  29) = (   4.5938453   4.4726049   9.2879030  )
        30           O1  tau(  30) = (   1.9864658   4.4711199   9.2879459  )
        31           Ti1 tau(  31) = (   3.2891106   5.8743827   9.1763621  )
        32           Ti1 tau(  32) = (   0.0006254   4.4649316   9.2693709  )
        33           O1  tau(  33) = (   3.2807012   2.9937711  11.3380227  )
        34           O1  tau(  34) = (   0.0092240   2.9805883  10.6323155  )
        35           O1  tau(  35) = (   1.2734598   4.4826339  12.6318047  )
        36           O1  tau(  36) = (   5.2665626   4.4910389  12.6093644  )
        37           Ti1 tau(  37) = (   0.0550181   5.9329888  12.5453996  )
        38           Ti1 tau(  38) = (   3.3741151   4.4737790  12.4977360  )
        39           O1  tau(  39) = (   6.5373474   2.9946220  14.6524478  )
        40           O1  tau(  40) = (   3.2677173   3.0168568  13.9399215  )
        41           O1  tau(  41) = (   4.4884636   4.5316779  16.1079578  )
        42           O1  tau(  42) = (   1.9830865   4.5332738  16.0531499  )
        43           Ti1 tau(  43) = (   3.2469912   0.0413792  15.7000251  )
        44           Ti1 tau(  44) = (   6.5198411   4.7064707  16.0702691  )
        45           O1  tau(  45) = (   3.2900926   2.9813045   4.7018136  )
        46           O1  tau(  46) = (   1.3039711   4.4726057   6.0039043  )
        47           O1  tau(  47) = (   5.2763189   4.4711207   6.0039473  )
        48           N1  tau(  48) = (   0.0943371   2.6987919  18.6315974  )
        49           N1  tau(  49) = (   6.5718678   2.9345059  17.4339123  )
        50           C1  tau(  50) = (   0.1779456   3.8407003  19.5793842  )
        51           H1  tau(  51) = (   6.4148796   4.7858965  19.1557567  )
        52           H1  tau(  52) = (   6.1971438   3.5603257  20.4715321  )
        53           H1  tau(  53) = (   1.2306852   3.9282498  19.8556806  )
        54           O1  tau(  54) = (   3.3096034   3.0830741  18.2289406  )
        55           H1  tau(  55) = (   4.0988663   3.6297178  18.3192648  )
        56           H1  tau(  56) = (   3.5789210   2.1977314  18.5501991  )

     number of k points=    10  Fermi-Dirac smearing, width (Ry)=  0.0073
                       cart. coord. in units 2pi/alat
        k(    1) = (   0.0000000   0.0000000   0.0000000), wk =   0.1250000
        k(    2) = (   0.0000000   0.0419351   0.0000000), wk =   0.2500000
        k(    3) = (   0.0000000  -0.0838702   0.0000000), wk =   0.1250000
        k(    4) = (   0.0379955   0.0000049   0.0000000), wk =   0.2500000
        k(    5) = (   0.0379955   0.0419400   0.0000000), wk =   0.2500000
        k(    6) = (   0.0379955  -0.0838652   0.0000000), wk =   0.2500000
        k(    7) = (   0.0379955  -0.0419301   0.0000000), wk =   0.2500000
        k(    8) = (  -0.0759910  -0.0000099   0.0000000), wk =   0.1250000
        k(    9) = (  -0.0759910   0.0419252   0.0000000), wk =   0.2500000
        k(   10) = (  -0.0759910  -0.0838800   0.0000000), wk =   0.1250000

     Dense  grid:   566857 G-vectors     FFT dimensions: (  72,  64, 270)

     Smooth grid:   143421 G-vectors     FFT dimensions: (  45,  40, 180)

     Estimated max dynamical RAM per process >     367.48 MB

     Estimated total dynamical RAM >       3.59 GB
     Cannot read rho : file not found

     Initial potential from superposition of free atoms

     starting charge  386.99914, renormalised to  403.00000

     negative rho (up, down):  1.478E-02 0.000E+00


     %%%%%%%%%%%%%%%%%%%%%%%%%%%%%%%%%%%%%%%%%%%%%%%%%%%%%%%%%%%%%%%%%%%%%%%%
     %                                                                      %
     % You are using vdW-DF, which was implemented by the Thonhauser group. %
     % Please cite the following two papers that made this development      %
     % possible and the two reviews that describe the various versions:     %
     %                                                                      %
     %   T. Thonhauser et al., PRL 115, 136402 (2015).                      %
     %   T. Thonhauser et al., PRB 76, 125112 (2007).                       %
     %   K. Berland et al., Rep. Prog. Phys. 78, 066501 (2015).             %
     %   D.C. Langreth et al., J. Phys.: Condens. Matter 21, 084203 (2009). %
     %                                                                      %
     %                                                                      %
     % If you are calculating the stress with vdW-DF, please also cite:     %
     %                                                                      %
     %   R. Sabatini et al., J. Phys.: Condens. Matter 24, 424209 (2012).   %
     %                                                                      %
     %%%%%%%%%%%%%%%%%%%%%%%%%%%%%%%%%%%%%%%%%%%%%%%%%%%%%%%%%%%%%%%%%%%%%%%%


 
     Adding external electric field

     Computed dipole along edir(3) : 
        Dipole              -13.2300 Ry au,        -33.6274 Debye
        Dipole field         -0.0250 Ry au, 
 
        Potential amp.        2.3144 Ry
        Total length         46.3494 bohr
 
     Starting wfcs are  305 atomic wfcs
  @ DRIVER MODE: Message from server: STATUS
  @ DRIVER MODE: Message from server: POSDATA
  @ DRIVER MODE: Reading and sharing cell 
  @ DRIVER MODE: Reading and sharing positions 
  @ DRIVER MODE: Received positions 

     total cpu time spent up to now is       69.2 secs

     Self-consistent Calculation

     iteration #  1     ecut=    29.40 Ry     beta= 0.05
     Davidson diagonalization with overlap
     c_bands:  5 eigenvalues not converged
     c_bands:  2 eigenvalues not converged
     c_bands:  5 eigenvalues not converged
     c_bands:  5 eigenvalues not converged
     c_bands:  1 eigenvalues not converged
     c_bands:  1 eigenvalues not converged
     c_bands:  4 eigenvalues not converged
     c_bands:  2 eigenvalues not converged
     c_bands:  1 eigenvalues not converged
     ethr =  1.00E-05,  avg # of iterations = 26.9

     negative rho (up, down):  9.025E-03 0.000E+00
 
     Adding external electric field

     Computed dipole along edir(3) : 
        Dipole               53.0169 Ry au,        134.7554 Debye
        Dipole field          0.1000 Ry au, 
 
        Potential amp.       -9.2745 Ry
        Total length         46.3494 bohr
 

     total cpu time spent up to now is      116.3 secs

     total energy              =   -2368.06262473 Ry
     estimated scf accuracy    <    6913.19722344 Ry

     iteration #  2     ecut=    29.40 Ry     beta= 0.05
     Davidson diagonalization with overlap
     ethr =  1.00E-02,  avg # of iterations = 23.6

     negative rho (up, down):  4.797E-04 0.000E+00
 
     Adding external electric field

     Computed dipole along edir(3) : 
        Dipole               -1.1613 Ry au,         -2.9518 Debye
        Dipole field         -0.0022 Ry au, 
 
        Potential amp.        0.2032 Ry
        Total length         46.3494 bohr
 

     total cpu time spent up to now is      196.5 secs

     total energy              =   -2458.77628556 Ry
     estimated scf accuracy    <   71788.41362947 Ry

     iteration #  3     ecut=    29.40 Ry     beta= 0.05
     Davidson diagonalization with overlap
     c_bands:  1 eigenvalues not converged
     ethr =  1.00E-02,  avg # of iterations = 17.2

     negative rho (up, down):  5.320E-04 0.000E+00
 
     Adding external electric field

     Computed dipole along edir(3) : 
        Dipole               -4.0051 Ry au,        -10.1800 Debye
        Dipole field         -0.0076 Ry au, 
 
        Potential amp.        0.7006 Ry
        Total length         46.3494 bohr
 

     total cpu time spent up to now is      247.0 secs

     total energy              =   -2963.62464255 Ry
     estimated scf accuracy    <    5627.39119749 Ry

     iteration #  4     ecut=    29.40 Ry     beta= 0.05
     Davidson diagonalization with overlap
     ethr =  1.00E-02,  avg # of iterations = 15.7

     negative rho (up, down):  5.466E-04 0.000E+00
 
     Adding external electric field

     Computed dipole along edir(3) : 
        Dipole               -5.3893 Ry au,        -13.6982 Debye
        Dipole field         -0.0102 Ry au, 
 
        Potential amp.        0.9428 Ry
        Total length         46.3494 bohr
 

     total cpu time spent up to now is      269.9 secs

     total energy              =   -2967.33031831 Ry
     estimated scf accuracy    <    1719.30842389 Ry

     iteration #  5     ecut=    29.40 Ry     beta= 0.05
     Davidson diagonalization with overlap
     ethr =  1.00E-02,  avg # of iterations =  1.6

     negative rho (up, down):  6.093E-04 0.000E+00
 
     Adding external electric field

     Computed dipole along edir(3) : 
        Dipole               -7.9278 Ry au,        -20.1504 Debye
        Dipole field         -0.0150 Ry au, 
 
        Potential amp.        1.3868 Ry
        Total length         46.3494 bohr
 

     total cpu time spent up to now is      280.1 secs

     total energy              =   -2943.80916892 Ry
     estimated scf accuracy    <    1732.09048575 Ry

     iteration #  6     ecut=    29.40 Ry     beta= 0.05
     Davidson diagonalization with overlap
     ethr =  1.00E-02,  avg # of iterations = 14.7

     negative rho (up, down):  5.820E-04 0.000E+00
 
     Adding external electric field

     Computed dipole along edir(3) : 
        Dipole               -6.4841 Ry au,        -16.4809 Debye
        Dipole field         -0.0122 Ry au, 
 
        Potential amp.        1.1343 Ry
        Total length         46.3494 bohr
 

     total cpu time spent up to now is      306.1 secs

     total energy              =   -2977.70889862 Ry
     estimated scf accuracy    <     159.79597746 Ry

     iteration #  7     ecut=    29.40 Ry     beta= 0.05
     Davidson diagonalization with overlap
     ethr =  1.00E-02,  avg # of iterations =  1.1

     negative rho (up, down):  5.941E-04 0.000E+00
 
     Adding external electric field

     Computed dipole along edir(3) : 
        Dipole               -5.9521 Ry au,        -15.1289 Debye
        Dipole field         -0.0112 Ry au, 
 
        Potential amp.        1.0412 Ry
        Total length         46.3494 bohr
 

     total cpu time spent up to now is      316.1 secs

     total energy              =   -2977.70225460 Ry
     estimated scf accuracy    <      32.06262705 Ry

     iteration #  8     ecut=    29.40 Ry     beta= 0.05
     Davidson diagonalization with overlap
     ethr =  7.96E-03,  avg # of iterations =  1.0

     negative rho (up, down):  6.028E-04 0.000E+00
 
     Adding external electric field

     Computed dipole along edir(3) : 
        Dipole               -6.0174 Ry au,        -15.2948 Debye
        Dipole field         -0.0114 Ry au, 
 
        Potential amp.        1.0527 Ry
        Total length         46.3494 bohr
 

     total cpu time spent up to now is      326.0 secs

     total energy              =   -2977.68757278 Ry
     estimated scf accuracy    <      21.17069119 Ry

     iteration #  9     ecut=    29.40 Ry     beta= 0.05
     Davidson diagonalization with overlap
     ethr =  5.25E-03,  avg # of iterations =  1.0

     negative rho (up, down):  9.122E-04 0.000E+00
 
     Adding external electric field

     Computed dipole along edir(3) : 
        Dipole               -5.3204 Ry au,        -13.5231 Debye
        Dipole field         -0.0100 Ry au, 
 
        Potential amp.        0.9307 Ry
        Total length         46.3494 bohr
 

     total cpu time spent up to now is      335.9 secs

     total energy              =   -2973.42811735 Ry
     estimated scf accuracy    <      20.35387092 Ry

     iteration # 10     ecut=    29.40 Ry     beta= 0.05
     Davidson diagonalization with overlap
     ethr =  5.05E-03,  avg # of iterations =  6.8

     negative rho (up, down):  2.275E-03 0.000E+00
 
     Adding external electric field

     Computed dipole along edir(3) : 
        Dipole               -3.9391 Ry au,        -10.0123 Debye
        Dipole field         -0.0074 Ry au, 
 
        Potential amp.        0.6891 Ry
        Total length         46.3494 bohr
 

     total cpu time spent up to now is      348.5 secs

     total energy              =   -2974.02597312 Ry
     estimated scf accuracy    <     143.67366593 Ry

     iteration # 11     ecut=    29.40 Ry     beta= 0.05
     Davidson diagonalization with overlap
     ethr =  5.05E-03,  avg # of iterations =  8.1

     negative rho (up, down):  2.084E-03 0.000E+00
 
     Adding external electric field

     Computed dipole along edir(3) : 
        Dipole               -4.0948 Ry au,        -10.4079 Debye
        Dipole field         -0.0077 Ry au, 
 
        Potential amp.        0.7163 Ry
        Total length         46.3494 bohr
 

     total cpu time spent up to now is      362.4 secs

     total energy              =   -2976.12846902 Ry
     estimated scf accuracy    <      84.94660991 Ry

     iteration # 12     ecut=    29.40 Ry     beta= 0.05
     Davidson diagonalization with overlap
     ethr =  5.05E-03,  avg # of iterations =  1.5

     negative rho (up, down):  1.146E-03 0.000E+00
 
     Adding external electric field

     Computed dipole along edir(3) : 
        Dipole               -4.3209 Ry au,        -10.9827 Debye
        Dipole field         -0.0082 Ry au, 
 
        Potential amp.        0.7559 Ry
        Total length         46.3494 bohr
 

     total cpu time spent up to now is      372.7 secs

     total energy              =   -2974.33215307 Ry
     estimated scf accuracy    <      92.87886178 Ry

     iteration # 13     ecut=    29.40 Ry     beta= 0.05
     Davidson diagonalization with overlap
     ethr =  5.05E-03,  avg # of iterations =  4.1

     negative rho (up, down):  9.533E-04 0.000E+00
 
     Adding external electric field

     Computed dipole along edir(3) : 
        Dipole               -3.6770 Ry au,         -9.3459 Debye
        Dipole field         -0.0069 Ry au, 
 
        Potential amp.        0.6432 Ry
        Total length         46.3494 bohr
 

     total cpu time spent up to now is      383.9 secs

     total energy              =   -2972.30292284 Ry
     estimated scf accuracy    <     132.31360528 Ry

     iteration # 14     ecut=    29.40 Ry     beta= 0.05
     Davidson diagonalization with overlap
     ethr =  5.05E-03,  avg # of iterations =  5.9

     negative rho (up, down):  1.123E-03 0.000E+00
 
     Adding external electric field

     Computed dipole along edir(3) : 
        Dipole               -1.8099 Ry au,         -4.6002 Debye
        Dipole field         -0.0034 Ry au, 
 
        Potential amp.        0.3166 Ry
        Total length         46.3494 bohr
 

     total cpu time spent up to now is      395.8 secs

     total energy              =   -2973.01466780 Ry
     estimated scf accuracy    <      14.07264189 Ry

     iteration # 15     ecut=    29.40 Ry     beta= 0.05
     Davidson diagonalization with overlap
     ethr =  3.49E-03,  avg # of iterations =  9.3

     negative rho (up, down):  1.063E-03 0.000E+00
 
     Adding external electric field

     Computed dipole along edir(3) : 
        Dipole               -2.7614 Ry au,         -7.0188 Debye
        Dipole field         -0.0052 Ry au, 
 
        Potential amp.        0.4831 Ry
        Total length         46.3494 bohr
 

     total cpu time spent up to now is      409.4 secs

     total energy              =   -2974.27068920 Ry
     estimated scf accuracy    <       4.73146388 Ry

     iteration # 16     ecut=    29.40 Ry     beta= 0.05
     Davidson diagonalization with overlap
     ethr =  1.17E-03,  avg # of iterations =  1.9

     negative rho (up, down):  1.105E-03 0.000E+00
 
     Adding external electric field

     Computed dipole along edir(3) : 
        Dipole               -4.4139 Ry au,        -11.2191 Debye
        Dipole field         -0.0083 Ry au, 
 
        Potential amp.        0.7722 Ry
        Total length         46.3494 bohr
 

     total cpu time spent up to now is      420.1 secs

     total energy              =   -2974.25650239 Ry
     estimated scf accuracy    <       2.66774388 Ry

     iteration # 17     ecut=    29.40 Ry     beta= 0.05
     Davidson diagonalization with overlap
     c_bands:  1 eigenvalues not converged
     ethr =  6.62E-04,  avg # of iterations = 17.8

     negative rho (up, down):  1.106E-03 0.000E+00
 
     Adding external electric field

     Computed dipole along edir(3) : 
        Dipole               -3.9567 Ry au,        -10.0571 Debye
        Dipole field         -0.0075 Ry au, 
 
        Potential amp.        0.6922 Ry
        Total length         46.3494 bohr
 

     total cpu time spent up to now is      440.6 secs

     total energy              =   -2974.68190576 Ry
     estimated scf accuracy    <     120.66023462 Ry

     iteration # 18     ecut=    29.40 Ry     beta= 0.05
     Davidson diagonalization with overlap
     ethr =  6.62E-04,  avg # of iterations =  2.0

     negative rho (up, down):  1.266E-03 0.000E+00
 
     Adding external electric field

     Computed dipole along edir(3) : 
        Dipole               -3.4783 Ry au,         -8.8409 Debye
        Dipole field         -0.0066 Ry au, 
 
        Potential amp.        0.6085 Ry
        Total length         46.3494 bohr
 

     total cpu time spent up to now is      450.9 secs

     total energy              =   -2974.54797626 Ry
     estimated scf accuracy    <      18.72431934 Ry

     iteration # 19     ecut=    29.40 Ry     beta= 0.05
     Davidson diagonalization with overlap
     ethr =  6.62E-04,  avg # of iterations =  1.3

     negative rho (up, down):  1.706E-03 0.000E+00
 
     Adding external electric field

     Computed dipole along edir(3) : 
        Dipole               -2.6100 Ry au,         -6.6340 Debye
        Dipole field         -0.0049 Ry au, 
 
        Potential amp.        0.4566 Ry
        Total length         46.3494 bohr
 

     total cpu time spent up to now is      461.1 secs

     total energy              =   -2973.84848623 Ry
     estimated scf accuracy    <      18.78246635 Ry

     iteration # 20     ecut=    29.40 Ry     beta= 0.05
     Davidson diagonalization with overlap
     ethr =  6.62E-04,  avg # of iterations = 10.4

     negative rho (up, down):  1.639E-03 0.000E+00
 
     Adding external electric field

     Computed dipole along edir(3) : 
        Dipole               -2.3861 Ry au,         -6.0647 Debye
        Dipole field         -0.0045 Ry au, 
 
        Potential amp.        0.4174 Ry
        Total length         46.3494 bohr
 

     total cpu time spent up to now is      477.1 secs

     total energy              =   -2974.08574993 Ry
     estimated scf accuracy    <      12.13822894 Ry

     iteration # 21     ecut=    29.40 Ry     beta= 0.05
     Davidson diagonalization with overlap
     ethr =  6.62E-04,  avg # of iterations =  1.4

     negative rho (up, down):  1.611E-03 0.000E+00
 
     Adding external electric field

     Computed dipole along edir(3) : 
        Dipole               -1.7472 Ry au,         -4.4409 Debye
        Dipole field         -0.0033 Ry au, 
 
        Potential amp.        0.3056 Ry
        Total length         46.3494 bohr
 

     total cpu time spent up to now is      487.3 secs

     total energy              =   -2973.84455662 Ry
     estimated scf accuracy    <       9.11920731 Ry

     iteration # 22     ecut=    29.40 Ry     beta= 0.05
     Davidson diagonalization with overlap
     c_bands:  1 eigenvalues not converged
     c_bands:  1 eigenvalues not converged
     c_bands:  3 eigenvalues not converged
     c_bands:  3 eigenvalues not converged
     c_bands:  5 eigenvalues not converged
     c_bands:  1 eigenvalues not converged
     c_bands:  4 eigenvalues not converged
     ethr =  6.62E-04,  avg # of iterations = 19.5

     negative rho (up, down):  2.157E-03 0.000E+00
 
     Adding external electric field

     Computed dipole along edir(3) : 
        Dipole               -1.0430 Ry au,         -2.6511 Debye
        Dipole field         -0.0020 Ry au, 
 
        Potential amp.        0.1825 Ry
        Total length         46.3494 bohr
 

     total cpu time spent up to now is      504.9 secs

     total energy              =   -2974.18300954 Ry
     estimated scf accuracy    <       1.03007105 Ry

     iteration # 23     ecut=    29.40 Ry     beta= 0.05
     Davidson diagonalization with overlap
     c_bands:  1 eigenvalues not converged
     ethr =  2.56E-04,  avg # of iterations = 14.4

     negative rho (up, down):  2.027E-03 0.000E+00
 
     Adding external electric field

     Computed dipole along edir(3) : 
        Dipole               -1.1925 Ry au,         -3.0312 Debye
        Dipole field         -0.0023 Ry au, 
 
        Potential amp.        0.2086 Ry
        Total length         46.3494 bohr
 

     total cpu time spent up to now is      519.3 secs

     total energy              =   -2974.19359934 Ry
     estimated scf accuracy    <       1.96895512 Ry

     iteration # 24     ecut=    29.40 Ry     beta= 0.05
     Davidson diagonalization with overlap
     ethr =  2.56E-04,  avg # of iterations =  1.1

     negative rho (up, down):  1.867E-03 0.000E+00
 
     Adding external electric field

     Computed dipole along edir(3) : 
        Dipole               -2.0443 Ry au,         -5.1960 Debye
        Dipole field         -0.0039 Ry au, 
 
        Potential amp.        0.3576 Ry
        Total length         46.3494 bohr
 

     total cpu time spent up to now is      529.3 secs

     total energy              =   -2973.91435752 Ry
     estimated scf accuracy    <       1.60266615 Ry

     iteration # 25     ecut=    29.40 Ry     beta= 0.05
     Davidson diagonalization with overlap
     c_bands:  2 eigenvalues not converged
     c_bands:  1 eigenvalues not converged
     c_bands:  1 eigenvalues not converged
     c_bands:  2 eigenvalues not converged
     ethr =  2.56E-04,  avg # of iterations = 16.6

     negative rho (up, down):  2.061E-03 0.000E+00
 
     Adding external electric field

     Computed dipole along edir(3) : 
        Dipole               -1.5277 Ry au,         -3.8831 Debye
        Dipole field         -0.0029 Ry au, 
 
        Potential amp.        0.2673 Ry
        Total length         46.3494 bohr
 

     total cpu time spent up to now is      546.3 secs

     total energy              =   -2974.00267052 Ry
     estimated scf accuracy    <      11.29240857 Ry

     iteration # 26     ecut=    29.40 Ry     beta= 0.05
     Davidson diagonalization with overlap
     ethr =  2.56E-04,  avg # of iterations =  3.8

     negative rho (up, down):  2.441E-03 0.000E+00
 
     Adding external electric field

     Computed dipole along edir(3) : 
        Dipole               -0.8343 Ry au,         -2.1205 Debye
        Dipole field         -0.0016 Ry au, 
 
        Potential amp.        0.1459 Ry
        Total length         46.3494 bohr
 

     total cpu time spent up to now is      557.5 secs

     total energy              =   -2974.02143778 Ry
     estimated scf accuracy    <       0.68911713 Ry

     iteration # 27     ecut=    29.40 Ry     beta= 0.05
     Davidson diagonalization with overlap
     c_bands:  1 eigenvalues not converged
     c_bands:  3 eigenvalues not converged
     ethr =  1.71E-04,  avg # of iterations = 12.9

     negative rho (up, down):  3.589E-03 0.000E+00
 
     Adding external electric field

     Computed dipole along edir(3) : 
        Dipole                0.1113 Ry au,          0.2829 Debye
        Dipole field          0.0002 Ry au, 
 
        Potential amp.       -0.0195 Ry
        Total length         46.3494 bohr
 

     total cpu time spent up to now is      571.8 secs

     total energy              =   -2974.00582193 Ry
     estimated scf accuracy    <       0.43189497 Ry

     iteration # 28     ecut=    29.40 Ry     beta= 0.05
     Davidson diagonalization with overlap
     c_bands:  1 eigenvalues not converged
     c_bands:  1 eigenvalues not converged
     c_bands:  2 eigenvalues not converged
     ethr =  1.07E-04,  avg # of iterations = 15.0

     negative rho (up, down):  4.912E-03 0.000E+00
 
     Adding external electric field

     Computed dipole along edir(3) : 
        Dipole                0.5157 Ry au,          1.3108 Debye
        Dipole field          0.0010 Ry au, 
 
        Potential amp.       -0.0902 Ry
        Total length         46.3494 bohr
 

     total cpu time spent up to now is      588.8 secs

     total energy              =   -2974.02802031 Ry
     estimated scf accuracy    <       0.38831438 Ry

     iteration # 29     ecut=    29.40 Ry     beta= 0.05
     Davidson diagonalization with overlap
     ethr =  9.64E-05,  avg # of iterations =  3.6

     negative rho (up, down):  5.311E-03 0.000E+00
 
     Adding external electric field

     Computed dipole along edir(3) : 
        Dipole                0.5447 Ry au,          1.3844 Debye
        Dipole field          0.0010 Ry au, 
 
        Potential amp.       -0.0953 Ry
        Total length         46.3494 bohr
 

     total cpu time spent up to now is      600.0 secs

     total energy              =   -2973.98896940 Ry
     estimated scf accuracy    <       0.33043206 Ry

     iteration # 30     ecut=    29.40 Ry     beta= 0.05
     Davidson diagonalization with overlap
     ethr =  8.20E-05,  avg # of iterations = 13.3

     negative rho (up, down):  4.839E-03 0.000E+00
 
     Adding external electric field

     Computed dipole along edir(3) : 
        Dipole                0.5636 Ry au,          1.4325 Debye
        Dipole field          0.0011 Ry au, 
 
        Potential amp.       -0.0986 Ry
        Total length         46.3494 bohr
 

     total cpu time spent up to now is      614.9 secs

     total energy              =   -2973.98090101 Ry
     estimated scf accuracy    <       0.14064475 Ry

     iteration # 31     ecut=    29.40 Ry     beta= 0.05
     Davidson diagonalization with overlap
     c_bands:  1 eigenvalues not converged
     c_bands:  4 eigenvalues not converged
     c_bands:  1 eigenvalues not converged
     c_bands:  1 eigenvalues not converged
     c_bands:  1 eigenvalues not converged
     ethr =  3.49E-05,  avg # of iterations = 18.6

     negative rho (up, down):  5.650E-03 0.000E+00
 
     Adding external electric field

     Computed dipole along edir(3) : 
        Dipole                0.8452 Ry au,          2.1482 Debye
        Dipole field          0.0016 Ry au, 
 
        Potential amp.       -0.1479 Ry
        Total length         46.3494 bohr
 

     total cpu time spent up to now is      633.6 secs

     total energy              =   -2973.98579674 Ry
     estimated scf accuracy    <       0.06464731 Ry

     iteration # 32     ecut=    29.40 Ry     beta= 0.05
     Davidson diagonalization with overlap
     c_bands:  1 eigenvalues not converged
     c_bands:  2 eigenvalues not converged
     c_bands:  2 eigenvalues not converged
     ethr =  1.60E-05,  avg # of iterations = 15.2

     negative rho (up, down):  6.229E-03 0.000E+00
 
     Adding external electric field

     Computed dipole along edir(3) : 
        Dipole                0.9118 Ry au,          2.3176 Debye
        Dipole field          0.0017 Ry au, 
 
        Potential amp.       -0.1595 Ry
        Total length         46.3494 bohr
 

     total cpu time spent up to now is      649.8 secs

     total energy              =   -2973.98991203 Ry
     estimated scf accuracy    <       0.15979605 Ry

     iteration # 33     ecut=    29.40 Ry     beta= 0.05
     Davidson diagonalization with overlap
     ethr =  1.60E-05,  avg # of iterations =  8.5

     negative rho (up, down):  7.433E-03 0.000E+00
 
     Adding external electric field

     Computed dipole along edir(3) : 
        Dipole                0.9475 Ry au,          2.4083 Debye
        Dipole field          0.0018 Ry au, 
 
        Potential amp.       -0.1658 Ry
        Total length         46.3494 bohr
 

     total cpu time spent up to now is      662.3 secs

     total energy              =   -2973.98766000 Ry
     estimated scf accuracy    <       0.08513037 Ry

     iteration # 34     ecut=    29.40 Ry     beta= 0.05
     Davidson diagonalization with overlap
     ethr =  1.60E-05,  avg # of iterations =  7.3

     negative rho (up, down):  9.248E-03 0.000E+00
 
     Adding external electric field

     Computed dipole along edir(3) : 
        Dipole                0.8703 Ry au,          2.2121 Debye
        Dipole field          0.0016 Ry au, 
 
        Potential amp.       -0.1522 Ry
        Total length         46.3494 bohr
 

     total cpu time spent up to now is      674.4 secs

     total energy              =   -2973.98291692 Ry
     estimated scf accuracy    <       0.03619164 Ry

     iteration # 35     ecut=    29.40 Ry     beta= 0.05
     Davidson diagonalization with overlap
     c_bands:  1 eigenvalues not converged
     c_bands:  1 eigenvalues not converged
     c_bands:  1 eigenvalues not converged
     c_bands:  1 eigenvalues not converged
     c_bands:  2 eigenvalues not converged
     ethr =  8.98E-06,  avg # of iterations = 16.0

     negative rho (up, down):  8.952E-03 0.000E+00
 
     Adding external electric field

     Computed dipole along edir(3) : 
        Dipole                0.8587 Ry au,          2.1826 Debye
        Dipole field          0.0016 Ry au, 
 
        Potential amp.       -0.1502 Ry
        Total length         46.3494 bohr
 

     total cpu time spent up to now is      692.2 secs

     total energy              =   -2973.98664601 Ry
     estimated scf accuracy    <       0.02075968 Ry

     iteration # 36     ecut=    29.40 Ry     beta= 0.05
     Davidson diagonalization with overlap
     ethr =  5.15E-06,  avg # of iterations =  4.9

     negative rho (up, down):  8.933E-03 0.000E+00
 
     Adding external electric field

     Computed dipole along edir(3) : 
        Dipole                0.8272 Ry au,          2.1025 Debye
        Dipole field          0.0016 Ry au, 
 
        Potential amp.       -0.1447 Ry
        Total length         46.3494 bohr
 

     total cpu time spent up to now is      703.6 secs

     total energy              =   -2973.98537628 Ry
     estimated scf accuracy    <       0.01571395 Ry

     iteration # 37     ecut=    29.40 Ry     beta= 0.05
     Davidson diagonalization with overlap
     ethr =  3.90E-06,  avg # of iterations =  8.9

     negative rho (up, down):  1.122E-02 0.000E+00
 
     Adding external electric field

     Computed dipole along edir(3) : 
        Dipole                0.8423 Ry au,          2.1409 Debye
        Dipole field          0.0016 Ry au, 
 
        Potential amp.       -0.1473 Ry
        Total length         46.3494 bohr
 

     total cpu time spent up to now is      716.4 secs

     total energy              =   -2973.98438815 Ry
     estimated scf accuracy    <       0.00904239 Ry

     iteration # 38     ecut=    29.40 Ry     beta= 0.05
     Davidson diagonalization with overlap
     c_bands:  1 eigenvalues not converged
     c_bands:  1 eigenvalues not converged
     ethr =  2.24E-06,  avg # of iterations = 17.3

     negative rho (up, down):  1.239E-02 0.000E+00
 
     Adding external electric field

     Computed dipole along edir(3) : 
        Dipole                0.9079 Ry au,          2.3076 Debye
        Dipole field          0.0017 Ry au, 
 
        Potential amp.       -0.1588 Ry
        Total length         46.3494 bohr
 

     total cpu time spent up to now is      737.6 secs

     total energy              =   -2973.98488536 Ry
     estimated scf accuracy    <       0.00940129 Ry

     iteration # 39     ecut=    29.40 Ry     beta= 0.05
     Davidson diagonalization with overlap
     c_bands:  1 eigenvalues not converged
     ethr =  2.24E-06,  avg # of iterations = 13.0

     negative rho (up, down):  1.358E-02 0.000E+00
 
     Adding external electric field

     Computed dipole along edir(3) : 
        Dipole                0.9358 Ry au,          2.3785 Debye
        Dipole field          0.0018 Ry au, 
 
        Potential amp.       -0.1637 Ry
        Total length         46.3494 bohr
 

     total cpu time spent up to now is      753.0 secs

     total energy              =   -2973.98594886 Ry
     estimated scf accuracy    <       0.00307472 Ry

     iteration # 40     ecut=    29.40 Ry     beta= 0.05
     Davidson diagonalization with overlap
     ethr =  7.63E-07,  avg # of iterations = 13.0

     negative rho (up, down):  1.470E-02 0.000E+00
 
     Adding external electric field

     Computed dipole along edir(3) : 
        Dipole                0.9266 Ry au,          2.3551 Debye
        Dipole field          0.0017 Ry au, 
 
        Potential amp.       -0.1621 Ry
        Total length         46.3494 bohr
 

     total cpu time spent up to now is      771.3 secs

     total energy              =   -2973.98529253 Ry
     estimated scf accuracy    <       0.00512014 Ry

     iteration # 41     ecut=    29.40 Ry     beta= 0.05
     Davidson diagonalization with overlap
     c_bands:  1 eigenvalues not converged
     ethr =  7.63E-07,  avg # of iterations = 12.8

     negative rho (up, down):  1.458E-02 0.000E+00
 
     Adding external electric field

     Computed dipole along edir(3) : 
        Dipole                0.9060 Ry au,          2.3029 Debye
        Dipole field          0.0017 Ry au, 
 
        Potential amp.       -0.1585 Ry
        Total length         46.3494 bohr
 

     total cpu time spent up to now is      789.6 secs

     total energy              =   -2973.98572747 Ry
     estimated scf accuracy    <       0.00163371 Ry

     iteration # 42     ecut=    29.40 Ry     beta= 0.05
     Davidson diagonalization with overlap
     ethr =  4.05E-07,  avg # of iterations = 12.1

     negative rho (up, down):  1.526E-02 0.000E+00
 
     Adding external electric field

     Computed dipole along edir(3) : 
        Dipole                0.9290 Ry au,          2.3612 Debye
        Dipole field          0.0018 Ry au, 
 
        Potential amp.       -0.1625 Ry
        Total length         46.3494 bohr
 

     total cpu time spent up to now is      806.6 secs

     total energy              =   -2973.98583067 Ry
     estimated scf accuracy    <       0.00118818 Ry

     iteration # 43     ecut=    29.40 Ry     beta= 0.05
     Davidson diagonalization with overlap
     ethr =  2.95E-07,  avg # of iterations = 12.0

     negative rho (up, down):  1.525E-02 0.000E+00
 
     Adding external electric field

     Computed dipole along edir(3) : 
        Dipole                0.9198 Ry au,          2.3378 Debye
        Dipole field          0.0017 Ry au, 
 
        Potential amp.       -0.1609 Ry
        Total length         46.3494 bohr
 

     total cpu time spent up to now is      821.5 secs

     total energy              =   -2973.98595979 Ry
     estimated scf accuracy    <       0.00043815 Ry

     iteration # 44     ecut=    29.40 Ry     beta= 0.05
     Davidson diagonalization with overlap
     ethr =  1.09E-07,  avg # of iterations = 13.8

     negative rho (up, down):  1.519E-02 0.000E+00
 
     Adding external electric field

     Computed dipole along edir(3) : 
        Dipole                0.9118 Ry au,          2.3175 Debye
        Dipole field          0.0017 Ry au, 
 
        Potential amp.       -0.1595 Ry
        Total length         46.3494 bohr
 

     total cpu time spent up to now is      837.4 secs

     total energy              =   -2973.98602584 Ry
     estimated scf accuracy    <       0.00019600 Ry

     iteration # 45     ecut=    29.40 Ry     beta= 0.05
     Davidson diagonalization with overlap
     ethr =  4.86E-08,  avg # of iterations =  7.3

     negative rho (up, down):  1.523E-02 0.000E+00
 
     Adding external electric field

     Computed dipole along edir(3) : 
        Dipole                0.9109 Ry au,          2.3152 Debye
        Dipole field          0.0017 Ry au, 
 
        Potential amp.       -0.1593 Ry
        Total length         46.3494 bohr
 

     total cpu time spent up to now is      850.0 secs

     total energy              =   -2973.98602603 Ry
     estimated scf accuracy    <       0.00016323 Ry

     iteration # 46     ecut=    29.40 Ry     beta= 0.05
     Davidson diagonalization with overlap
     ethr =  4.05E-08,  avg # of iterations = 13.7

     negative rho (up, down):  1.507E-02 0.000E+00
 
     Adding external electric field

     Computed dipole along edir(3) : 
        Dipole                0.9053 Ry au,          2.3011 Debye
        Dipole field          0.0017 Ry au, 
 
        Potential amp.       -0.1584 Ry
        Total length         46.3494 bohr
 

     total cpu time spent up to now is      868.0 secs

     total energy              =   -2973.98606738 Ry
     estimated scf accuracy    <       0.00007464 Ry

     iteration # 47     ecut=    29.40 Ry     beta= 0.05
     Davidson diagonalization with overlap
     ethr =  1.85E-08,  avg # of iterations =  8.6

     negative rho (up, down):  1.510E-02 0.000E+00
 
     Adding external electric field

     Computed dipole along edir(3) : 
        Dipole                0.9046 Ry au,          2.2993 Debye
        Dipole field          0.0017 Ry au, 
 
        Potential amp.       -0.1582 Ry
        Total length         46.3494 bohr
 

     total cpu time spent up to now is      880.6 secs

     total energy              =   -2973.98608800 Ry
     estimated scf accuracy    <       0.00003547 Ry

     iteration # 48     ecut=    29.40 Ry     beta= 0.05
     Davidson diagonalization with overlap
     c_bands:  1 eigenvalues not converged
     ethr =  8.80E-09,  avg # of iterations = 13.2

     negative rho (up, down):  1.505E-02 0.000E+00
 
     Adding external electric field

     Computed dipole along edir(3) : 
        Dipole                0.9048 Ry au,          2.2999 Debye
        Dipole field          0.0017 Ry au, 
 
        Potential amp.       -0.1583 Ry
        Total length         46.3494 bohr
 

     total cpu time spent up to now is      898.3 secs

     total energy              =   -2973.98610514 Ry
     estimated scf accuracy    <       0.00002821 Ry

     iteration # 49     ecut=    29.40 Ry     beta= 0.05
     Davidson diagonalization with overlap
     ethr =  7.00E-09,  avg # of iterations =  8.1

     negative rho (up, down):  1.499E-02 0.000E+00
 
     Adding external electric field

     Computed dipole along edir(3) : 
        Dipole                0.9079 Ry au,          2.3076 Debye
        Dipole field          0.0017 Ry au, 
 
        Potential amp.       -0.1588 Ry
        Total length         46.3494 bohr
 

     total cpu time spent up to now is      910.8 secs

     total energy              =   -2973.98611913 Ry
     estimated scf accuracy    <       0.00001899 Ry

     iteration # 50     ecut=    29.40 Ry     beta= 0.05
     Davidson diagonalization with overlap
     ethr =  4.71E-09,  avg # of iterations = 12.2

     negative rho (up, down):  1.497E-02 0.000E+00
 
     Adding external electric field

     Computed dipole along edir(3) : 
        Dipole                0.9061 Ry au,          2.3032 Debye
        Dipole field          0.0017 Ry au, 
 
        Potential amp.       -0.1585 Ry
        Total length         46.3494 bohr
 

     total cpu time spent up to now is      929.4 secs

     total energy              =   -2973.98613429 Ry
     estimated scf accuracy    <       0.00001819 Ry

     iteration # 51     ecut=    29.40 Ry     beta= 0.05
     Davidson diagonalization with overlap
     ethr =  4.51E-09,  avg # of iterations = 10.0

     negative rho (up, down):  1.496E-02 0.000E+00
 
     Adding external electric field

     Computed dipole along edir(3) : 
        Dipole                0.9054 Ry au,          2.3012 Debye
        Dipole field          0.0017 Ry au, 
 
        Potential amp.       -0.1584 Ry
        Total length         46.3494 bohr
 

     total cpu time spent up to now is      943.4 secs

     total energy              =   -2973.98614740 Ry
     estimated scf accuracy    <       0.00000444 Ry

     iteration # 52     ecut=    29.40 Ry     beta= 0.05
     Davidson diagonalization with overlap
     ethr =  1.10E-09,  avg # of iterations =  8.7

     negative rho (up, down):  1.499E-02 0.000E+00
 
     Adding external electric field

     Computed dipole along edir(3) : 
        Dipole                0.9057 Ry au,          2.3021 Debye
        Dipole field          0.0017 Ry au, 
 
        Potential amp.       -0.1584 Ry
        Total length         46.3494 bohr
 

     total cpu time spent up to now is      958.0 secs

     total energy              =   -2973.98615814 Ry
     estimated scf accuracy    <       0.00000284 Ry

     iteration # 53     ecut=    29.40 Ry     beta= 0.05
     Davidson diagonalization with overlap
     ethr =  7.06E-10,  avg # of iterations = 10.4

     negative rho (up, down):  1.501E-02 0.000E+00
 
     Adding external electric field

     Computed dipole along edir(3) : 
        Dipole                0.9056 Ry au,          2.3018 Debye
        Dipole field          0.0017 Ry au, 
 
        Potential amp.       -0.1584 Ry
        Total length         46.3494 bohr
 

     total cpu time spent up to now is      971.8 secs

     total energy              =   -2973.98616799 Ry
     estimated scf accuracy    <       0.00000228 Ry

     iteration # 54     ecut=    29.40 Ry     beta= 0.05
     Davidson diagonalization with overlap
     ethr =  5.66E-10,  avg # of iterations =  7.6

     negative rho (up, down):  1.498E-02 0.000E+00
 
     Adding external electric field

     Computed dipole along edir(3) : 
        Dipole                0.9049 Ry au,          2.3000 Debye
        Dipole field          0.0017 Ry au, 
 
        Potential amp.       -0.1583 Ry
        Total length         46.3494 bohr
 

     total cpu time spent up to now is      984.3 secs

     total energy              =   -2973.98617653 Ry
     estimated scf accuracy    <       0.00000133 Ry

     iteration # 55     ecut=    29.40 Ry     beta= 0.05
     Davidson diagonalization with overlap
     ethr =  3.29E-10,  avg # of iterations = 11.5

     negative rho (up, down):  1.497E-02 0.000E+00
 
     Adding external electric field

     Computed dipole along edir(3) : 
        Dipole                0.9050 Ry au,          2.3002 Debye
        Dipole field          0.0017 Ry au, 
 
        Potential amp.       -0.1583 Ry
        Total length         46.3494 bohr
 

     total cpu time spent up to now is     1000.3 secs

     total energy              =   -2973.98618423 Ry
     estimated scf accuracy    <       0.00000071 Ry

     iteration # 56     ecut=    29.40 Ry     beta= 0.05
     Davidson diagonalization with overlap
     ethr =  1.77E-10,  avg # of iterations = 12.2

     negative rho (up, down):  1.496E-02 0.000E+00
 
     Adding external electric field

     Computed dipole along edir(3) : 
        Dipole                0.9053 Ry au,          2.3011 Debye
        Dipole field          0.0017 Ry au, 
 
        Potential amp.       -0.1584 Ry
        Total length         46.3494 bohr
 

     total cpu time spent up to now is     1015.5 secs

     total energy              =   -2973.98619115 Ry
     estimated scf accuracy    <       0.00000061 Ry

     iteration # 57     ecut=    29.40 Ry     beta= 0.05
     Davidson diagonalization with overlap
     c_bands:  1 eigenvalues not converged
     ethr =  1.51E-10,  avg # of iterations = 10.8

     negative rho (up, down):  1.496E-02 0.000E+00
 
     Adding external electric field

     Computed dipole along edir(3) : 
        Dipole                0.9056 Ry au,          2.3018 Debye
        Dipole field          0.0017 Ry au, 
 
        Potential amp.       -0.1584 Ry
        Total length         46.3494 bohr
 

     total cpu time spent up to now is     1029.8 secs

     total energy              =   -2973.98619745 Ry
     estimated scf accuracy    <       0.00000030 Ry

     iteration # 58     ecut=    29.40 Ry     beta= 0.05
     Davidson diagonalization with overlap
     ethr =  7.41E-11,  avg # of iterations = 10.7

     negative rho (up, down):  1.495E-02 0.000E+00
 
     Adding external electric field

     Computed dipole along edir(3) : 
        Dipole                0.9052 Ry au,          2.3009 Debye
        Dipole field          0.0017 Ry au, 
 
        Potential amp.       -0.1584 Ry
        Total length         46.3494 bohr
 

     total cpu time spent up to now is     1047.3 secs

     total energy              =   -2973.98620308 Ry
     estimated scf accuracy    <       0.00000031 Ry

     iteration # 59     ecut=    29.40 Ry     beta= 0.05
     Davidson diagonalization with overlap
     ethr =  7.41E-11,  avg # of iterations =  6.7

     negative rho (up, down):  1.495E-02 0.000E+00
 
     Adding external electric field

     Computed dipole along edir(3) : 
        Dipole                0.9050 Ry au,          2.3002 Debye
        Dipole field          0.0017 Ry au, 
 
        Potential amp.       -0.1583 Ry
        Total length         46.3494 bohr
 

     total cpu time spent up to now is     1059.8 secs

     total energy              =   -2973.98620818 Ry
     estimated scf accuracy    <       0.00000013 Ry

     iteration # 60     ecut=    29.40 Ry     beta= 0.05
     Davidson diagonalization with overlap
     c_bands:  1 eigenvalues not converged
     ethr =  3.34E-11,  avg # of iterations = 12.1

     negative rho (up, down):  1.495E-02 0.000E+00
 
     Adding external electric field

     Computed dipole along edir(3) : 
        Dipole                0.9052 Ry au,          2.3008 Debye
        Dipole field          0.0017 Ry au, 
 
        Potential amp.       -0.1583 Ry
        Total length         46.3494 bohr
 

     total cpu time spent up to now is     1078.7 secs

     total energy              =   -2973.98621278 Ry
     estimated scf accuracy    <       0.00000018 Ry

     iteration # 61     ecut=    29.40 Ry     beta= 0.05
     Davidson diagonalization with overlap
     ethr =  3.34E-11,  avg # of iterations =  8.9

     negative rho (up, down):  1.504E-02 0.000E+00
 
     Adding external electric field

     Computed dipole along edir(3) : 
        Dipole                0.9053 Ry au,          2.3011 Debye
        Dipole field          0.0017 Ry au, 
 
        Potential amp.       -0.1584 Ry
        Total length         46.3494 bohr
 

     total cpu time spent up to now is     1093.7 secs

     End of self-consistent calculation

          k = 0.0000 0.0000 0.0000 ( 18029 PWs)   bands (ev):

   -55.6040 -55.5699 -55.5683 -55.5325 -55.4996 -55.4493 -55.4397 -55.4153
   -55.4032 -55.3813 -55.3798 -55.3458 -55.0098 -54.8378 -54.5835 -54.5495
   -32.1132 -32.0866 -31.9598 -31.9437 -31.9139 -31.8968 -31.8822 -31.8696
   -31.8472 -31.8073 -31.7995 -31.7685 -31.7561 -31.7470 -31.7383 -31.7285
   -31.7085 -31.6994 -31.6967 -31.6611 -31.6572 -31.6470 -31.6338 -31.6082
   -31.6038 -31.5992 -31.5938 -31.5869 -31.5792 -31.5698 -31.5552 -31.5552
   -31.5462 -31.5327 -31.5220 -31.5099 -31.4916 -31.2871 -31.2003 -31.0983
   -31.0935 -31.0569 -30.9907 -30.9021 -30.8797 -30.8074 -30.7209 -30.6099
   -19.0295 -18.3028 -16.3187 -16.0776 -15.8755 -15.7605 -15.7198 -15.5273
   -15.4292 -15.3306 -15.2339 -15.1655 -15.1422 -15.1351 -15.1312 -15.1055
   -15.0805 -15.0691 -15.0477 -15.0311 -15.0163 -14.9566 -14.9431 -14.9341
   -14.8445 -14.7895 -14.7551 -14.7362 -14.6787 -14.6601 -14.1784 -13.0858
   -12.9694 -11.2890  -6.8753  -6.7028  -4.1971  -4.0605  -3.8017  -3.6890
    -3.5573  -3.5098  -3.4490  -3.4187  -3.2217  -3.1043  -3.0310  -2.8446
    -2.7874  -2.7592  -2.7302  -2.6593  -2.5225  -2.4723  -2.4209  -2.4146
    -2.4027  -2.3712  -2.3663  -2.3455  -2.2456  -2.2423  -2.1910  -2.1511
    -2.0819  -2.0023  -1.9835  -1.9359  -1.9169  -1.9047  -1.8767  -1.8534
    -1.8428  -1.8077  -1.7953  -1.7217  -1.6191  -1.5505  -1.5019  -1.4640
    -1.3988  -1.3858  -1.2186  -1.1540  -1.1088  -1.0720  -1.0535  -1.0330
    -0.9992  -0.9917  -0.8827  -0.7584  -0.7543  -0.6743  -0.6139  -0.5357
    -0.5261  -0.4489  -0.3934  -0.3746  -0.3621  -0.3510  -0.3223  -0.2495
    -0.1038  -0.0603  -0.0357  -0.0006   0.0282   0.0944   0.1377   0.2073
     0.2422   0.2832   0.3184   0.3424   0.3667   0.3743   0.3894   0.4015
     0.4209   0.6030   0.6633   0.6844   0.7495   0.7789   0.9218   0.9884
     1.0524   1.1591   1.3639   1.4387   1.5294   1.6309   2.0101   2.0559
     2.7716   3.5302   3.6151   3.6619   3.7038   3.7765   3.7943   3.9664
     3.9856   4.0289   4.1884

          k = 0.0000 0.0419 0.0000 ( 17933 PWs)   bands (ev):

   -55.5989 -55.5748 -55.5631 -55.5377 -55.4964 -55.4524 -55.4350 -55.4104
   -55.4077 -55.3862 -55.3749 -55.3506 -55.0090 -54.8385 -54.5784 -54.5544
   -32.0565 -32.0327 -31.9064 -31.8922 -31.8889 -31.8850 -31.8696 -31.8277
   -31.8176 -31.8131 -31.7914 -31.7790 -31.7652 -31.7571 -31.7423 -31.7414
   -31.7365 -31.7262 -31.6834 -31.6750 -31.6476 -31.6471 -31.6433 -31.6257
   -31.6179 -31.6129 -31.6054 -31.6039 -31.5968 -31.5884 -31.5825 -31.5732
   -31.5515 -31.5510 -31.5469 -31.5353 -31.4751 -31.2865 -31.1972 -31.1227
   -31.0974 -31.0717 -30.9366 -30.8987 -30.8828 -30.7948 -30.7334 -30.6670
   -19.0291 -18.3009 -16.1835 -15.9578 -15.7656 -15.6524 -15.6222 -15.4918
   -15.4425 -15.3600 -15.3516 -15.1962 -15.1649 -15.1251 -15.1119 -15.1045
   -15.0838 -15.0768 -15.0678 -15.0634 -15.0427 -14.9906 -14.9502 -14.9070
   -14.8460 -14.8414 -14.8104 -14.7946 -14.7172 -14.6933 -14.2571 -13.0899
   -13.0089 -11.2879  -6.8827  -6.7062  -4.1599  -4.0611  -3.7901  -3.5013
    -3.3905  -3.3343  -3.2969  -3.2687  -3.0698  -3.0318  -2.8633  -2.7799
    -2.7578  -2.6537  -2.6514  -2.6365  -2.5799  -2.5540  -2.5097  -2.4860
    -2.4612  -2.4391  -2.4106  -2.3566  -2.3493  -2.3249  -2.2937  -2.2813
    -2.2603  -2.1808  -2.1154  -2.0945  -2.0710  -2.0239  -1.9736  -1.8634
    -1.8582  -1.7818  -1.7237  -1.6138  -1.5359  -1.4534  -1.4171  -1.3598
    -1.3295  -1.2670  -1.2303  -1.1847  -1.0224  -0.9918  -0.9435  -0.8645
    -0.8447  -0.8115  -0.7943  -0.6788  -0.6133  -0.5827  -0.5567  -0.5385
    -0.5110  -0.4921  -0.4708  -0.4196  -0.4098  -0.3493  -0.2695  -0.2093
    -0.1890  -0.1406  -0.1061  -0.0674  -0.0519  -0.0066   0.0942   0.1285
     0.1773   0.2041   0.2192   0.2309   0.2450   0.2770   0.3776   0.4229
     0.4574   0.5142   0.5944   0.6382   0.6716   0.7268   0.7394   0.7871
     0.9118   1.0572   1.0769   1.4043   1.6278   1.7112   1.9642   1.9679
     2.7601   3.7197   3.7703   3.7904   3.8528   3.8842   3.9185   3.9342
     4.0311   4.0427   4.0967

          k = 0.0000-0.0839 0.0000 ( 17884 PWs)   bands (ev):

   -55.5874 -55.5863 -55.5514 -55.5492 -55.4927 -55.4560 -55.4273 -55.4155
   -55.3990 -55.3974 -55.3654 -55.3601 -55.0082 -54.8392 -54.5664 -54.5663
   -31.9268 -31.9113 -31.9007 -31.9000 -31.8826 -31.8817 -31.8516 -31.8173
   -31.7934 -31.7678 -31.7642 -31.7611 -31.7594 -31.7568 -31.7468 -31.7388
   -31.7170 -31.7104 -31.7092 -31.7083 -31.7081 -31.6854 -31.6803 -31.6631
   -31.6514 -31.6505 -31.6290 -31.6251 -31.6166 -31.6113 -31.5966 -31.5888
   -31.5690 -31.5656 -31.5441 -31.5416 -31.4279 -31.2859 -31.2058 -31.1546
   -31.0975 -31.0828 -30.8905 -30.8904 -30.8037 -30.8035 -30.7641 -30.7641
   -19.0287 -18.2990 -15.8701 -15.8069 -15.6870 -15.6399 -15.5162 -15.4973
   -15.4364 -15.3827 -15.3779 -15.3406 -15.3164 -15.2309 -15.1551 -15.1494
   -15.0498 -14.9975 -14.9868 -14.9863 -14.9786 -14.9458 -14.9411 -14.9380
   -14.9334 -14.9316 -14.8606 -14.8480 -14.8287 -14.6713 -14.3646 -13.0717
   -13.0715 -11.2869  -6.8899  -6.7098  -4.1248  -4.0616  -3.7851  -3.1449
    -3.0615  -3.0112  -2.9920  -2.9832  -2.9605  -2.9030  -2.8957  -2.8892
    -2.8568  -2.7667  -2.7549  -2.7184  -2.6885  -2.6665  -2.6122  -2.6027
    -2.5616  -2.5455  -2.4653  -2.4509  -2.4130  -2.3736  -2.3527  -2.3169
    -2.2930  -2.1895  -2.1775  -2.1319  -2.0197  -1.9805  -1.9514  -1.9383
    -1.7011  -1.6114  -1.5455  -1.5230  -1.4793  -1.4116  -1.3658  -1.3026
    -1.2738  -1.2593  -1.2192  -1.1011  -1.0756  -1.0291  -1.0113  -0.9924
    -0.9740  -0.9483  -0.8281  -0.7535  -0.7408  -0.6870  -0.5939  -0.5357
    -0.4861  -0.3674  -0.2916  -0.2468  -0.2413  -0.2221  -0.1962  -0.1900
    -0.1167  -0.0828  -0.0638  -0.0469  -0.0322  -0.0223   0.0239   0.0707
     0.0957   0.1182   0.1337   0.1610   0.1859   0.2063   0.2300   0.2550
     0.2690   0.3008   0.3837   0.5336   0.6351   0.6360   0.6482   0.6772
     0.9879   1.0067   1.0844   1.1370   1.7706   1.7713   1.9011   1.9019
     2.7751   3.8132   3.8711   3.8923   3.9016   3.9366   3.9726   3.9808
     4.0917   4.1098   4.1238

          k = 0.0380 0.0000 0.0000 ( 17913 PWs)   bands (ev):

   -55.6039 -55.5698 -55.5682 -55.5324 -55.4995 -55.4492 -55.4397 -55.4150
   -55.4031 -55.3812 -55.3799 -55.3457 -55.0098 -54.8377 -54.5834 -54.5494
   -32.1134 -32.0875 -31.9611 -31.9494 -31.9140 -31.8966 -31.8820 -31.8743
   -31.8472 -31.8048 -31.7851 -31.7680 -31.7532 -31.7468 -31.7345 -31.7218
   -31.7082 -31.6990 -31.6764 -31.6649 -31.6609 -31.6562 -31.6344 -31.6080
   -31.5987 -31.5968 -31.5936 -31.5868 -31.5791 -31.5761 -31.5695 -31.5550
   -31.5461 -31.5329 -31.5210 -31.5086 -31.4919 -31.2889 -31.2002 -31.0984
   -31.0935 -31.0567 -30.9902 -30.9055 -30.8777 -30.8072 -30.7208 -30.6097
   -19.0271 -18.3054 -16.2398 -15.9923 -15.7916 -15.7447 -15.6574 -15.5374
   -15.4667 -15.3290 -15.3035 -15.2963 -15.2667 -15.2306 -15.2226 -15.1668
   -15.1517 -15.0695 -14.9791 -14.9588 -14.9508 -14.8708 -14.8606 -14.8496
   -14.8339 -14.7996 -14.7945 -14.7831 -14.7572 -14.6603 -14.1760 -13.0826
   -12.9691 -11.2886  -6.8670  -6.7037  -4.1728  -3.9908  -3.8020  -3.5909
    -3.3373  -3.3001  -3.2529  -3.2323  -3.1509  -3.1068  -3.0732  -3.0312
    -2.8478  -2.8447  -2.7432  -2.6965  -2.6813  -2.6067  -2.4241  -2.4169
    -2.3640  -2.3111  -2.3040  -2.2459  -2.2068  -2.1769  -2.1393  -2.1009
    -2.0660  -2.0013  -1.9611  -1.9522  -1.8780  -1.8720  -1.8417  -1.8061
    -1.7618  -1.6732  -1.6252  -1.6155  -1.5608  -1.5133  -1.4568  -1.4258
    -1.3817  -1.3338  -1.2490  -1.2104  -1.1660  -1.1446  -1.0552  -1.0385
    -1.0303  -0.9788  -0.8889  -0.8716  -0.8582  -0.8392  -0.7419  -0.6483
    -0.6188  -0.4890  -0.4260  -0.3950  -0.3730  -0.3421  -0.2958  -0.2641
    -0.1580  -0.1147  -0.0434  -0.0075   0.0474   0.0648   0.1275   0.1476
     0.1808   0.1992   0.2176   0.2519   0.2718   0.2819   0.2943   0.3507
     0.4591   0.5259   0.5746   0.5937   0.6887   0.7744   0.8018   0.8264
     1.0406   1.0858   1.3665   1.3966   1.4506   1.6004   1.8986   1.9730
     2.7831   3.5635   3.5866   3.8650   3.8879   3.9277   3.9370   3.9591
     3.9844   4.0195   4.0326

          k = 0.0380 0.0419 0.0000 ( 17878 PWs)   bands (ev):

   -55.5988 -55.5748 -55.5629 -55.5376 -55.4963 -55.4523 -55.4349 -55.4102
   -55.4077 -55.3862 -55.3750 -55.3506 -55.0090 -54.8384 -54.5784 -54.5543
   -32.0567 -32.0335 -31.9076 -31.8957 -31.8919 -31.8853 -31.8694 -31.8280
   -31.8220 -31.8137 -31.7822 -31.7748 -31.7653 -31.7570 -31.7398 -31.7397
   -31.7281 -31.7232 -31.6746 -31.6662 -31.6590 -31.6468 -31.6461 -31.6261
   -31.6120 -31.6079 -31.6064 -31.6037 -31.5968 -31.5883 -31.5825 -31.5753
   -31.5713 -31.5502 -31.5431 -31.5400 -31.4744 -31.2881 -31.1972 -31.1225
   -31.0980 -31.0716 -30.9362 -30.9013 -30.8818 -30.7946 -30.7335 -30.6669
   -19.0268 -18.3036 -16.1111 -15.8794 -15.6894 -15.6402 -15.5556 -15.4958
   -15.4448 -15.3904 -15.3610 -15.2609 -15.2526 -15.2088 -15.1987 -15.1297
   -15.1066 -15.0982 -15.0396 -15.0231 -14.9865 -14.9313 -14.9273 -14.8963
   -14.8800 -14.8539 -14.8421 -14.8156 -14.7898 -14.6787 -14.2548 -13.0876
   -13.0092 -11.2877  -6.8765  -6.7067  -4.1482  -3.9840  -3.7886  -3.4226
    -3.1839  -3.1611  -3.1317  -3.0588  -3.0088  -2.9888  -2.8942  -2.8433
    -2.7231  -2.7027  -2.6177  -2.5863  -2.5596  -2.5234  -2.5021  -2.4720
    -2.4498  -2.4114  -2.3839  -2.3353  -2.3142  -2.3024  -2.2579  -2.2459
    -2.2269  -2.1639  -2.1261  -2.0895  -2.0665  -1.9509  -1.8982  -1.8474
    -1.7648  -1.7355  -1.6508  -1.6007  -1.5505  -1.5248  -1.4034  -1.3564
    -1.3072  -1.2593  -1.1913  -1.1260  -1.0941  -1.0267  -1.0128  -0.9560
    -0.8827  -0.8692  -0.8405  -0.8247  -0.7490  -0.7132  -0.6620  -0.6124
    -0.5845  -0.5303  -0.5119  -0.4603  -0.4225  -0.3993  -0.3512  -0.3140
    -0.2615  -0.2370  -0.2179  -0.1709  -0.1381  -0.0708  -0.0366  -0.0103
     0.0530   0.0846   0.1160   0.1545   0.2007   0.2962   0.3397   0.4065
     0.4798   0.5370   0.5913   0.6473   0.7064   0.7353   0.7843   0.8261
     0.8391   0.9918   1.0564   1.3398   1.6386   1.7155   1.8866   1.9485
     2.7769   3.7106   3.7732   3.8316   3.8954   3.9320   3.9805   4.0049
     4.0629   4.0958   4.1219

          k = 0.0380-0.0839 0.0000 ( 17916 PWs)   bands (ev):

   -55.5874 -55.5863 -55.5514 -55.5492 -55.4927 -55.4560 -55.4273 -55.4155
   -55.3989 -55.3973 -55.3655 -55.3602 -55.0082 -54.8392 -54.5665 -54.5663
   -31.9271 -31.9116 -31.9015 -31.9008 -31.8826 -31.8817 -31.8517 -31.8174
   -31.7942 -31.7841 -31.7764 -31.7616 -31.7590 -31.7399 -31.7331 -31.7264
   -31.7175 -31.7111 -31.7080 -31.7070 -31.7067 -31.6960 -31.6915 -31.6612
   -31.6373 -31.6284 -31.6279 -31.6259 -31.6233 -31.6114 -31.5966 -31.5887
   -31.5691 -31.5657 -31.5558 -31.5535 -31.4277 -31.2874 -31.2057 -31.1546
   -31.0984 -31.0828 -30.8915 -30.8914 -30.8036 -30.8034 -30.7641 -30.7641
   -19.0266 -18.3018 -15.8241 -15.7552 -15.6349 -15.5857 -15.4722 -15.4530
   -15.4327 -15.3556 -15.3529 -15.3175 -15.3074 -15.2501 -15.1666 -15.1614
   -15.0899 -15.0518 -15.0295 -15.0219 -15.0135 -15.0094 -14.9793 -14.9654
   -14.9606 -14.9216 -14.9065 -14.8931 -14.8041 -14.6653 -14.3606 -13.0714
   -13.0713 -11.2868  -6.8845  -6.7112  -4.1266  -3.9749  -3.7832  -3.1987
    -3.0496  -2.8931  -2.8523  -2.8054  -2.7829  -2.7742  -2.7398  -2.7097
    -2.6876  -2.6716  -2.6539  -2.6163  -2.6003  -2.5707  -2.5544  -2.5444
    -2.4578  -2.4468  -2.4393  -2.4191  -2.3974  -2.3453  -2.3092  -2.3031
    -2.2893  -2.2373  -2.2056  -2.1560  -2.0795  -2.0497  -1.7594  -1.7366
    -1.6809  -1.6355  -1.5431  -1.5165  -1.4970  -1.4717  -1.4481  -1.4200
    -1.3753  -1.3418  -1.3150  -1.2788  -1.2349  -1.2283  -1.2007  -1.1181
    -1.0906  -1.0325  -0.8368  -0.8009  -0.7042  -0.6692  -0.6531  -0.6096
    -0.5531  -0.5030  -0.4246  -0.3978  -0.3841  -0.3572  -0.3419  -0.3153
    -0.2996  -0.2506  -0.2292  -0.2025  -0.1729  -0.1587  -0.1499  -0.0895
    -0.0219   0.0180   0.0343   0.1769   0.2196   0.2476   0.3327   0.3832
     0.4835   0.5017   0.5254   0.5517   0.5832   0.6636   0.7395   0.7668
     0.9377   0.9456   1.0658   1.1344   1.7839   1.7846   1.8902   1.8911
     2.7937   3.7889   3.8457   3.9017   3.9322   3.9411   3.9684   4.0215
     4.1358   4.1549   4.1603

          k = 0.0380-0.0419 0.0000 ( 17876 PWs)   bands (ev):

   -55.5988 -55.5748 -55.5629 -55.5376 -55.4963 -55.4523 -55.4349 -55.4102
   -55.4077 -55.3862 -55.3750 -55.3506 -55.0090 -54.8384 -54.5784 -54.5543
   -32.0567 -32.0335 -31.9075 -31.8957 -31.8919 -31.8853 -31.8694 -31.8280
   -31.8219 -31.8137 -31.7824 -31.7745 -31.7652 -31.7570 -31.7399 -31.7398
   -31.7278 -31.7233 -31.6746 -31.6661 -31.6594 -31.6471 -31.6459 -31.6259
   -31.6120 -31.6078 -31.6063 -31.6037 -31.5968 -31.5884 -31.5825 -31.5752
   -31.5716 -31.5502 -31.5429 -31.5400 -31.4744 -31.2880 -31.1971 -31.1226
   -31.0980 -31.0716 -30.9362 -30.9013 -30.8817 -30.7946 -30.7335 -30.6669
   -19.0268 -18.3036 -16.1115 -15.8792 -15.6883 -15.6406 -15.5558 -15.4959
   -15.4434 -15.3908 -15.3609 -15.2616 -15.2591 -15.2066 -15.1992 -15.1242
   -15.1087 -15.0974 -15.0424 -15.0189 -14.9857 -14.9308 -14.9262 -14.8987
   -14.8818 -14.8534 -14.8420 -14.8157 -14.7891 -14.6789 -14.2552 -13.0877
   -13.0092 -11.2876  -6.8753  -6.7081  -4.1485  -3.9822  -3.7891  -3.4216
    -3.1838  -3.1610  -3.1336  -3.0583  -3.0086  -2.9876  -2.8979  -2.8363
    -2.7195  -2.7014  -2.6143  -2.5908  -2.5574  -2.5261  -2.4971  -2.4797
    -2.4542  -2.4093  -2.3875  -2.3371  -2.3160  -2.3023  -2.2607  -2.2497
    -2.2381  -2.1662  -2.1247  -2.0857  -2.0698  -1.9487  -1.9083  -1.8437
    -1.7661  -1.7392  -1.6331  -1.5960  -1.5652  -1.5280  -1.3925  -1.3349
    -1.2995  -1.2483  -1.1994  -1.1218  -1.0998  -1.0273  -1.0134  -0.9599
    -0.8918  -0.8631  -0.8351  -0.8265  -0.7462  -0.6994  -0.6729  -0.6181
    -0.5587  -0.5365  -0.5078  -0.4737  -0.4204  -0.3818  -0.3299  -0.3126
    -0.2905  -0.2401  -0.2227  -0.1749  -0.1289  -0.0870  -0.0500  -0.0091
     0.0577   0.0903   0.1196   0.1560   0.1967   0.2972   0.3506   0.3787
     0.4663   0.5345   0.5920   0.6481   0.7067   0.7420   0.7820   0.8322
     0.8394   0.9894   1.0546   1.3386   1.6386   1.7157   1.8865   1.9492
     2.7749   3.7104   3.7741   3.8205   3.8893   3.9560   3.9771   4.0078
     4.0740   4.1084   4.1161

          k =-0.0760-0.0000 0.0000 ( 17886 PWs)   bands (ev):

   -55.6038 -55.5698 -55.5681 -55.5324 -55.4994 -55.4492 -55.4397 -55.4148
   -55.4031 -55.3812 -55.3800 -55.3457 -55.0097 -54.8377 -54.5833 -54.5493
   -32.1136 -32.0884 -31.9623 -31.9548 -31.9142 -31.8965 -31.8819 -31.8788
   -31.8473 -31.8044 -31.7698 -31.7592 -31.7503 -31.7466 -31.7308 -31.7159
   -31.7082 -31.6989 -31.6895 -31.6612 -31.6563 -31.6353 -31.6308 -31.6229
   -31.6071 -31.5987 -31.5934 -31.5907 -31.5867 -31.5789 -31.5694 -31.5551
   -31.5460 -31.5338 -31.5202 -31.5075 -31.4925 -31.2910 -31.2002 -31.0989
   -31.0935 -31.0567 -30.9899 -30.9088 -30.8764 -30.8071 -30.7207 -30.6097
   -19.0248 -18.3081 -16.1276 -15.9186 -15.7181 -15.7036 -15.5945 -15.5095
   -15.4667 -15.3836 -15.3794 -15.3275 -15.3254 -15.3059 -15.2839 -15.2582
   -15.2202 -15.0625 -15.0040 -14.9613 -14.9293 -14.8954 -14.8895 -14.8524
   -14.8316 -14.7954 -14.7773 -14.7601 -14.6950 -14.6575 -14.1741 -13.0796
   -12.9688 -11.2883  -6.8586  -6.7050  -4.1538  -3.8962  -3.8028  -3.5723
    -3.2848  -3.2543  -3.1740  -3.0622  -3.0087  -2.9734  -2.9387  -2.8896
    -2.8660  -2.8538  -2.8518  -2.8276  -2.6097  -2.4320  -2.4165  -2.3891
    -2.3708  -2.2462  -2.2259  -2.1767  -2.1277  -2.1089  -2.0998  -2.0543
    -2.0097  -1.9455  -1.9359  -1.9215  -1.8757  -1.8501  -1.8433  -1.8340
    -1.8290  -1.7930  -1.7294  -1.6051  -1.5473  -1.4526  -1.4078  -1.3592
    -1.3195  -1.2808  -1.2298  -1.2036  -1.1983  -1.1881  -1.1629  -1.0840
    -1.0682  -1.0113  -0.9676  -0.9179  -0.8815  -0.8326  -0.7978  -0.7682
    -0.7609  -0.7392  -0.6357  -0.4145  -0.3762  -0.3616  -0.2648  -0.2552
    -0.2143  -0.1915  -0.1164  -0.1004  -0.0724  -0.0387  -0.0194   0.0573
     0.1094   0.1420   0.1984   0.2139   0.2462   0.2521   0.2859   0.3833
     0.4382   0.4747   0.5492   0.6487   0.6658   0.7313   0.8726   0.8797
     1.0101   1.0866   1.1212   1.3783   1.4717   1.5760   1.7693   1.9174
     2.7928   3.5646   3.5689   3.7189   3.8138   3.8677   3.8933   3.9838
     3.9906   4.0493   4.0687

          k =-0.0760 0.0419 0.0000 ( 17914 PWs)   bands (ev):

   -55.5989 -55.5748 -55.5629 -55.5376 -55.4963 -55.4523 -55.4350 -55.4100
   -55.4077 -55.3862 -55.3751 -55.3506 -55.0090 -54.8384 -54.5784 -54.5544
   -32.0571 -32.0345 -31.9089 -31.9022 -31.8920 -31.8856 -31.8695 -31.8280
   -31.8272 -31.8138 -31.7806 -31.7655 -31.7585 -31.7570 -31.7399 -31.7377
   -31.7205 -31.7186 -31.6783 -31.6745 -31.6470 -31.6458 -31.6324 -31.6265
   -31.6137 -31.6117 -31.6090 -31.6030 -31.5964 -31.5940 -31.5870 -31.5824
   -31.5717 -31.5500 -31.5468 -31.5431 -31.4737 -31.2899 -31.1972 -31.1226
   -31.0989 -31.0716 -30.9360 -30.9041 -30.8811 -30.7946 -30.7335 -30.6669
   -19.0246 -18.3063 -16.0107 -15.8051 -15.6264 -15.6008 -15.5158 -15.4589
   -15.4342 -15.3694 -15.3581 -15.3400 -15.3012 -15.2523 -15.2462 -15.2145
   -15.2088 -15.0965 -15.0645 -14.9981 -14.9830 -14.9786 -14.9419 -14.8911
   -14.8901 -14.8750 -14.8574 -14.7860 -14.7790 -14.6750 -14.2534 -13.0855
   -13.0095 -11.2874  -6.8689  -6.7090  -4.1395  -3.8805  -3.7881  -3.4206
    -3.2317  -3.1202  -2.9195  -2.8574  -2.7931  -2.7592  -2.7185  -2.6920
    -2.6681  -2.6513  -2.6411  -2.6009  -2.5554  -2.5344  -2.4962  -2.4777
    -2.4641  -2.3833  -2.3473  -2.3121  -2.2886  -2.2770  -2.2107  -2.1716
    -2.1203  -2.0910  -2.0866  -2.0805  -2.0361  -1.9705  -1.9119  -1.7300
    -1.7233  -1.6830  -1.6230  -1.6038  -1.5425  -1.4925  -1.4510  -1.3901
    -1.2940  -1.2519  -1.1966  -1.1747  -1.1415  -1.0998  -1.0265  -1.0074
    -0.9858  -0.9561  -0.8983  -0.8689  -0.8434  -0.8266  -0.7956  -0.7776
    -0.7636  -0.6996  -0.6791  -0.6104  -0.5899  -0.5309  -0.5000  -0.4185
    -0.3658  -0.3213  -0.3183  -0.2584  -0.2453  -0.2051  -0.1428  -0.0727
    -0.0212   0.0373   0.0850   0.1046   0.2250   0.2921   0.3663   0.4033
     0.5221   0.6027   0.6843   0.6989   0.7619   0.8000   0.8494   0.8564
     0.9115   0.9630   0.9981   1.1744   1.6534   1.7188   1.8100   1.9378
     2.7917   3.6996   3.7704   3.7784   3.8511   3.8883   3.8944   3.9404
     4.0348   4.1195   4.1695

          k =-0.0760-0.0839 0.0000 ( 17948 PWs)   bands (ev):

   -55.5874 -55.5863 -55.5514 -55.5492 -55.4927 -55.4560 -55.4274 -55.4155
   -55.3989 -55.3973 -55.3656 -55.3603 -55.0083 -54.8392 -54.5665 -54.5663
   -31.9274 -31.9119 -31.9023 -31.9015 -31.8827 -31.8817 -31.8519 -31.8175
   -31.7951 -31.7916 -31.7826 -31.7622 -31.7594 -31.7403 -31.7190 -31.7145
   -31.7125 -31.7079 -31.7069 -31.7058 -31.7051 -31.7030 -31.6988 -31.6593
   -31.6483 -31.6351 -31.6249 -31.6114 -31.5986 -31.5979 -31.5959 -31.5885
   -31.5796 -31.5761 -31.5692 -31.5656 -31.4274 -31.2889 -31.2057 -31.1546
   -31.0994 -31.0828 -30.8925 -30.8924 -30.8035 -30.8034 -30.7642 -30.7641
   -19.0244 -18.3046 -15.7652 -15.6833 -15.5608 -15.5222 -15.4787 -15.4349
   -15.4147 -15.3218 -15.3022 -15.2923 -15.2413 -15.2272 -15.2042 -15.1602
   -15.1381 -15.1291 -15.1248 -15.0893 -15.0609 -15.0442 -15.0407 -15.0349
   -14.9727 -14.9238 -14.9217 -14.9168 -14.7902 -14.6613 -14.3570 -13.0712
   -13.0711 -11.2867  -6.8790  -6.7129  -4.1262  -3.8662  -3.7819  -3.2888
    -3.0500  -2.8904  -2.8185  -2.7284  -2.6988  -2.6915  -2.5479  -2.5155
    -2.4858  -2.4381  -2.4334  -2.4295  -2.4223  -2.4063  -2.3998  -2.3836
    -2.3318  -2.3190  -2.2942  -2.2807  -2.2741  -2.2567  -2.2347  -2.2246
    -2.2026  -2.1685  -2.1543  -2.1185  -2.1130  -2.0226  -1.8369  -1.8268
    -1.7799  -1.7467  -1.7326  -1.7074  -1.6703  -1.6568  -1.6483  -1.5971
    -1.4741  -1.4323  -1.3447  -1.2967  -1.2796  -1.2260  -1.1631  -1.1389
    -1.0692  -1.0245  -0.9877  -0.9657  -0.9432  -0.7983  -0.7860  -0.7324
    -0.7194  -0.6820  -0.6345  -0.5760  -0.5640  -0.5535  -0.5372  -0.5040
    -0.4356  -0.3663  -0.3545  -0.3263  -0.2753  -0.2588  -0.2154  -0.1267
    -0.1078  -0.0712   0.0273   0.1290   0.2206   0.3553   0.4414   0.4644
     0.5203   0.5977   0.6958   0.7056   0.7140   0.7500   0.7739   0.8344
     0.9277   0.9477   0.9747   1.0973   1.8022   1.8029   1.8755   1.8757
     2.8126   3.7912   3.8510   3.8965   3.9156   4.0081   4.0414   4.0631
     4.0657   4.1126   4.2079

     the Fermi energy is     3.5293 ev

!    total energy              =   -2973.98625524 Ry
     estimated scf accuracy    <       0.00000004 Ry
     smearing contrib. (-TS)   =      -0.02191689 Ry
     internal energy E=F+TS    =   -2973.96433835 Ry

     The total energy is F=E-TS. E is the sum of the following terms:
     one-electron contribution =  -23875.29214329 Ry
     hartree contribution      =   12032.09806274 Ry
     xc contribution           =    -494.07996170 Ry
     ewald contribution        =    9363.30815719 Ry
     electric field correction =       0.00154671 Ry

     convergence has been achieved in  61 iterations

     Forces acting on atoms (cartesian axes, Ry/au):

     atom    1 type  1   force =     0.00007282   -0.00016753    0.09643862
     atom    2 type  1   force =    -0.00015353   -0.00063476   -0.17546643
     atom    3 type  2   force =    -0.00003568    0.00001859   -0.02462969
     atom    4 type  2   force =     0.00005949   -0.00136607    0.05309346
     atom    5 type  2   force =    -0.01209896    0.00004067    0.00386573
     atom    6 type  2   force =     0.01331808    0.00071558    0.00207126
     atom    7 type  1   force =    -0.00148497    0.00064628   -0.01047882
     atom    8 type  1   force =     0.00072668    0.00971102    0.02661509
     atom    9 type  2   force =    -0.00040370    0.00009071   -0.00029905
     atom   10 type  2   force =    -0.00180963    0.00306175   -0.01772497
     atom   11 type  2   force =    -0.00015203   -0.00023490    0.00010829
     atom   12 type  2   force =    -0.00019396   -0.00029096   -0.00031219
     atom   13 type  1   force =    -0.00020142   -0.00019889   -0.00009421
     atom   14 type  1   force =    -0.00035740   -0.00019845   -0.00034006
     atom   15 type  2   force =     0.00003626   -0.00085652    0.00024458
     atom   16 type  2   force =     0.00006058    0.00016894   -0.00004185
     atom   17 type  2   force =    -0.00015023   -0.00043054    0.00043841
     atom   18 type  2   force =     0.00029766   -0.00031104    0.00054720
     atom   19 type  1   force =     0.00043476    0.00019014   -0.00011798
     atom   20 type  1   force =     0.00033920   -0.00072456    0.00013124
     atom   21 type  2   force =     0.00008642   -0.00004802    0.10322686
     atom   22 type  2   force =     0.00054027   -0.00046903   -0.00036923
     atom   23 type  2   force =    -0.07147566   -0.00008208   -0.02775317
     atom   24 type  2   force =     0.07141289    0.00030398   -0.02775257
     atom   25 type  1   force =     0.00007427   -0.00027565    0.09592303
     atom   26 type  1   force =    -0.00025687   -0.00022863   -0.17574039
     atom   27 type  2   force =     0.00007100   -0.00008875   -0.02365212
     atom   28 type  2   force =     0.00006250   -0.00118850    0.05337282
     atom   29 type  2   force =    -0.01233673    0.00062252    0.00390248
     atom   30 type  2   force =     0.01349188    0.00110534    0.00207290
     atom   31 type  1   force =    -0.00129792    0.00373310   -0.00845559
     atom   32 type  1   force =     0.00085372   -0.01165993    0.02704272
     atom   33 type  2   force =    -0.00002027    0.00013026   -0.00008260
     atom   34 type  2   force =    -0.00128288    0.00169149   -0.02364829
     atom   35 type  2   force =    -0.00023917   -0.00003398    0.00003127
     atom   36 type  2   force =     0.00003310   -0.00002502    0.00016967
     atom   37 type  1   force =    -0.00000036   -0.00019335    0.00015641
     atom   38 type  1   force =    -0.00055937   -0.00029619    0.00054682
     atom   39 type  2   force =     0.00022307   -0.00063554    0.00051053
     atom   40 type  2   force =    -0.00001911   -0.00009672    0.00015636
     atom   41 type  2   force =     0.00029858   -0.00036226   -0.00062600
     atom   42 type  2   force =     0.00009802   -0.00027977   -0.00064070
     atom   43 type  1   force =     0.00076176   -0.00066145    0.00022259
     atom   44 type  1   force =    -0.00007720   -0.00020962   -0.00080008
     atom   45 type  2   force =     0.00009299   -0.00005763    0.10322220
     atom   46 type  2   force =    -0.07146495   -0.00008122   -0.02775712
     atom   47 type  2   force =     0.07141743    0.00035316   -0.02776996
     atom   48 type  3   force =    -0.00044979   -0.00068414    0.00116415
     atom   49 type  3   force =     0.00021663    0.00064196   -0.00050883
     atom   50 type  4   force =    -0.00048077    0.00136566   -0.00037078
     atom   51 type  5   force =     0.00138468   -0.00074044    0.00025900
     atom   52 type  5   force =     0.00024100    0.00006638   -0.00039238
     atom   53 type  5   force =    -0.00003841   -0.00011066    0.00040224
     atom   54 type  2   force =    -0.00489059   -0.02390073    0.00463538
     atom   55 type  5   force =     0.00976340    0.00738440    0.00113359
     atom   56 type  5   force =    -0.00453759    0.01578160   -0.00587986

     Total force =     0.369284     Total SCF correction =     0.000443
  @ DRIVER MODE: Message from server: STATUS
  @ DRIVER MODE: Message from server: GETFORCE
  @ DRIVER MODE: Returning v,forces,stress,ensemble 

     Writing output data file ./calc.save/
  @ DRIVER MODE: Message from server: EXIT
  @ DRIVE MODE: Exiting  
 
     init_run     :     10.81s CPU     11.10s WALL (       1 calls)
     electrons    :   1009.97s CPU   1024.55s WALL (       1 calls)
     forces       :      2.39s CPU      2.47s WALL (       1 calls)

     Called by init_run:
     wfcinit      :      4.82s CPU      4.91s WALL (       1 calls)
     potinit      :      5.35s CPU      5.43s WALL (       1 calls)
     hinit0       :      0.29s CPU      0.31s WALL (       1 calls)

     Called by electrons:
     c_bands      :    866.18s CPU    872.52s WALL (      61 calls)
     sum_band     :     97.93s CPU    101.15s WALL (      61 calls)
     v_of_rho     :     34.92s CPU     36.75s WALL (      62 calls)
     newd         :     14.30s CPU     17.39s WALL (      62 calls)
     mix_rho      :      1.26s CPU      1.34s WALL (      61 calls)
     vdW_kernel   :      4.54s CPU      4.55s WALL (       1 calls)

     Called by c_bands:
     init_us_2    :      5.62s CPU      5.66s WALL (    1240 calls)
     cegterg      :    849.56s CPU    855.61s WALL (     625 calls)

     Called by *egterg:
     cdiaghg      :    147.79s CPU    148.62s WALL (    6817 calls)
     h_psi        :    445.93s CPU    450.01s WALL (    6831 calls)
     s_psi        :     60.27s CPU     60.47s WALL (    6831 calls)
     g_psi        :      1.62s CPU      1.64s WALL (    6196 calls)

     Called by h_psi:
     h_psi:calbec :     56.54s CPU     56.82s WALL (    6831 calls)
     vloc_psi     :    326.08s CPU    329.32s WALL (    6831 calls)
     add_vuspsi   :     60.40s CPU     60.76s WALL (    6831 calls)

     General routines
     calbec       :     74.03s CPU     74.36s WALL (    7481 calls)
     fft          :     17.61s CPU     17.78s WALL (    3906 calls)
     ffts         :      0.11s CPU      0.11s WALL (     123 calls)
     fftw         :    363.08s CPU    366.63s WALL (  866744 calls)
     interpolate  :      0.35s CPU      0.36s WALL (      62 calls)
     davcio       :      0.00s CPU      0.24s WALL (      10 calls)
 
     Parallel routines
 
     PWSCF        :  17m 3.68s CPU  19m30.31s WALL

 
   This run was terminated on:  11: 4:15  10Sep2021            

=------------------------------------------------------------------------------=
   JOB DONE.
=------------------------------------------------------------------------------=
