
     Program PWSCF v.6.7GPU starts on 23Sep2021 at 13:30: 3 

     This program is part of the open-source Quantum ESPRESSO suite
     for quantum simulation of materials; please cite
         "P. Giannozzi et al., J. Phys.:Condens. Matter 21 395502 (2009);
         "P. Giannozzi et al., J. Phys.:Condens. Matter 29 465901 (2017);
         "P. Giannozzi et al., J. Chem. Phys. 152 154105 (2020);
          URL http://www.quantum-espresso.org", 
     in publications or presentations arising from this work. More details at
     http://www.quantum-espresso.org/quote

     Parallel version (MPI), running on    10 processors

     MPI processes distributed on     1 nodes
     R & G space division:  proc/nbgrp/npool/nimage =      10
     Reading input from /storage/home/hcoda1/3/ntian30/research/carbon/CxH_vib/H2O_calc/ads_slab/CHNHNH2H2O_b/out_0059/pw.inp
Warning: card &CELL ignored
Warning: card   CELL_DYNAMICS='IPI', ignored
Warning: card / ignored

     Current dimensions of program PWSCF are:
     Max number of different atomic species (ntypx) = 10
     Max number of k-points (npk) =  40000
     Max angular momentum in pseudopotentials (lmaxx) =  3
     Presently no symmetry can be used with electric field

     Message from routine cell_base_init:
     DEPRECATED: use true lattice parameter, not A to a.u. conversion factor

     **************************************************************************
     Initializing libbeef V0.1.2 with the BEEF-vdW functional.
     Citation: Wellendorff et al., PRB 85, 235149 (2012).
     **************************************************************************


     IMPORTANT: XC functional enforced from input :
     Exchange-correlation= BEEF-VDW
                           (   1   4  43  14   2   0   0)
     Any further DFT definition will be discarded
     Please, verify this is what you really want


     Subspace diagonalization in iterative solution of the eigenvalue problem:
     one sub-group per band group will be used
     scalapack distributed-memory algorithm (size of sub-group:  3*  3 procs)

  @ DRIVER MODE: Connecting to 
 qe_1139763_2937312.sched-torque.pace.gatech.edu9j0ui5a2_scratch
  using UNIX socket
  @ DRIVER MODE: Message from server: STATUS
  @ DRIVER MODE: Message from server: INIT
  @ DRIVER MODE: Receiving replica           0          -1
  @ DRIVER MODE: Receiving encoded integer          25
  @ DRIVER MODE:  SCF:  T  FORCE:  T  STRESS:  F  VC:  F  ENSEMBLE:  F
  @ DRIVER MODE:  SCF:  T  FORCE:  T  STRESS:  F  VC:  F  ENSEMBLE:  F
 
     Parallelization info
     --------------------
     sticks:   dense  smooth     PW     G-vecs:    dense   smooth      PW
     Min         327     131     37                56683    14340    2191
     Max         328     133     38                56694    14346    2206
     Sum        3275    1317    379               566857   143421   21985
 
     Using Slab Decomposition
 


     bravais-lattice index     =            0
     lattice parameter (alat)  =       1.8897  a.u.
     unit-cell volume          =    6658.9804 (a.u.)^3
     number of atoms/cell      =           57
     number of atomic types    =            5
     number of electrons       =       404.00
     number of Kohn-Sham states=          212
     kinetic-energy cutoff     =      29.3995  Ry
     charge density cutoff     =     293.9946  Ry
     scf convergence threshold =      7.3E-08
     mixing beta               =       0.0500
     number of iterations used =            8  plain     mixing
     Exchange-correlation= BEEF-VDW
                           (   1   4  43  14   2   0   0)

     celldm(1)=   1.889726  celldm(2)=   0.000000  celldm(3)=   0.000000
     celldm(4)=   0.000000  celldm(5)=   0.000000  celldm(6)=   0.000000

     crystal axes: (cart. coord. in units of alat)
               a(1) = (   6.579727   0.000000   0.000000 )  
               a(2) = (  -0.000775   5.961596   0.000000 )  
               a(3) = (   0.000000   0.000000  25.155947 )  

     reciprocal axes: (cart. coord. in units 2 pi/alat)
               b(1) = (  0.151982  0.000020  0.000000 )  
               b(2) = (  0.000000  0.167740  0.000000 )  
               b(3) = (  0.000000  0.000000  0.039752 )  


     PseudoPot. # 1 for Ti read from file:
     /storage/coda1/p-amedford6/0/shared/rich_project_chbe-medford/medford-share/data/pseudos_module/espresso/nninc/pbe/van/Ti.UPF
     MD5 check sum: 8e4df49b7f0d34bbd5052bf3f5ea0213
     Pseudo is Ultrasoft, Zval = 12.0
     Generated by new atomic code, or converted to UPF format
     Using radial grid of  851 points,  6 beta functions with: 
                l(1) =   0
                l(2) =   0
                l(3) =   1
                l(4) =   1
                l(5) =   2
                l(6) =   2
     Q(r) pseudized with  8 coefficients,  rinner =    1.000   1.000   1.000
                                                       1.000   1.000

     PseudoPot. # 2 for O  read from file:
     /storage/coda1/p-amedford6/0/shared/rich_project_chbe-medford/medford-share/data/pseudos_module/espresso/nninc/pbe/van/O.UPF
     MD5 check sum: 78c19812648e8988a0fe644b0f25305e
     Pseudo is Ultrasoft, Zval =  6.0
     Generated by new atomic code, or converted to UPF format
     Using radial grid of  737 points,  4 beta functions with: 
                l(1) =   0
                l(2) =   0
                l(3) =   1
                l(4) =   1
     Q(r) pseudized with  8 coefficients,  rinner =    0.800   0.800   0.800


     PseudoPot. # 3 for N  read from file:
     /storage/coda1/p-amedford6/0/shared/rich_project_chbe-medford/medford-share/data/pseudos_module/espresso/nninc/pbe/van/N.UPF
     MD5 check sum: 90d10febe142ad51ac9d5be1deb811c4
     Pseudo is Ultrasoft, Zval =  5.0
     Generated by new atomic code, or converted to UPF format
     Using radial grid of  729 points,  4 beta functions with: 
                l(1) =   0
                l(2) =   0
                l(3) =   1
                l(4) =   1
     Q(r) pseudized with  8 coefficients,  rinner =    0.800   0.800   0.800


     PseudoPot. # 4 for C  read from file:
     /storage/coda1/p-amedford6/0/shared/rich_project_chbe-medford/medford-share/data/pseudos_module/espresso/nninc/pbe/van/C.UPF
     MD5 check sum: 1a69bf6b8db32088f5b2163dbdb77a27
     Pseudo is Ultrasoft, Zval =  4.0
     Generated by new atomic code, or converted to UPF format
     Using radial grid of  721 points,  4 beta functions with: 
                l(1) =   0
                l(2) =   0
                l(3) =   1
                l(4) =   1
     Q(r) pseudized with  8 coefficients,  rinner =    0.800   0.800   0.800


     PseudoPot. # 5 for H  read from file:
     /storage/coda1/p-amedford6/0/shared/rich_project_chbe-medford/medford-share/data/pseudos_module/espresso/nninc/pbe/van/H.UPF
     MD5 check sum: b5ee9d7bfd3a09ee7748110bda690ff7
     Pseudo is Ultrasoft, Zval =  1.0
     Generated by new atomic code, or converted to UPF format
     Using radial grid of  615 points,  1 beta functions with: 
                l(1) =   0
     Q(r) pseudized with  8 coefficients,  rinner =    0.800

     atomic species   valence    mass     pseudopotential
        Ti1           12.00    47.86700     Ti( 1.00)
        O1             6.00    15.99900     O ( 1.00)
        N1             5.00    14.00700     N ( 1.00)
        C1             4.00    12.01100     C ( 1.00)
        H1             1.00     1.00800     H ( 1.00)

     No symmetry found



   Cartesian axes

     site n.     atom                  positions (alat units)
         1           Ti1 tau(   1) = (   0.0004258   2.9801865   6.0000000  )
         2           Ti1 tau(   2) = (   3.2906075   1.4906267   6.0002472  )
         3           O1  tau(   3) = (   0.0006271   0.0005054   7.9858123  )
         4           O1  tau(   4) = (   3.2906025   0.0005020   7.3038282  )
         5           O1  tau(   5) = (   4.5942328   1.4918067   9.2879030  )
         6           O1  tau(   6) = (   1.9868534   1.4903216   9.2879459  )
         7           Ti1 tau(   7) = (   3.2907910   2.8959150   9.1758416  )
         8           Ti1 tau(   8) = (   0.0015273   1.4827037   9.2680791  )
         9           O1  tau(   9) = (   3.3066417   5.9496923  11.3845403  )
        10           O1  tau(  10) = (   0.0116148   5.9584955  10.6183126  )
        11           O1  tau(  11) = (   1.3010148   1.4986442  12.6442229  )
        12           O1  tau(  12) = (   5.3085967   1.5001388  12.6592367  )
        13           Ti1 tau(  13) = (   0.0282779   2.9853959  12.5065338  )
        14           Ti1 tau(  14) = (   3.3279724   1.4707331  12.5413945  )
        15           O1  tau(  15) = (   0.0378505   0.0859181  14.6860672  )
        16           O1  tau(  16) = (   3.3018867   0.0259462  14.0338077  )
        17           O1  tau(  17) = (   4.5998927   1.5484098  16.1661054  )
        18           O1  tau(  18) = (   2.0454451   1.5021798  16.2221046  )
        19           Ti1 tau(  19) = (   3.3206312   2.9825829  15.7321521  )
        20           Ti1 tau(  20) = (   0.0140791   1.4435866  15.9983415  )
        21           O1  tau(  21) = (   3.2904802   0.0005063   4.7018136  )
        22           O1  tau(  22) = (   6.5273045   5.8164216  17.2577718  )
        23           O1  tau(  23) = (   1.3043587   1.4918075   6.0039043  )
        24           O1  tau(  24) = (   5.2767064   1.4903225   6.0039473  )
        25           Ti1 tau(  25) = (   0.0000382   5.9609847   6.0000000  )
        26           Ti1 tau(  26) = (   3.2902200   4.4714249   6.0002472  )
        27           O1  tau(  27) = (   0.0002396   2.9813036   7.9858123  )
        28           O1  tau(  28) = (   3.2902150   2.9813002   7.3038282  )
        29           O1  tau(  29) = (   4.5938453   4.4726049   9.2879030  )
        30           O1  tau(  30) = (   1.9864658   4.4711199   9.2879459  )
        31           Ti1 tau(  31) = (   3.2891106   5.8743827   9.1763621  )
        32           Ti1 tau(  32) = (   0.0006254   4.4649316   9.2693709  )
        33           O1  tau(  33) = (   3.3068470   2.9864458  11.3814114  )
        34           O1  tau(  34) = (   0.0092240   2.9805883  10.6323155  )
        35           O1  tau(  35) = (   1.2982948   4.4740332  12.6840172  )
        36           O1  tau(  36) = (   5.3097620   4.4704985  12.6972095  )
        37           Ti1 tau(  37) = (   0.0348817   0.0130325  12.4954113  )
        38           Ti1 tau(  38) = (   3.3270268   4.4633798  12.5435021  )
        39           O1  tau(  39) = (   0.0563025   2.9439880  14.9425960  )
        40           O1  tau(  40) = (   3.2900316   2.9661073  13.9503945  )
        41           O1  tau(  41) = (   4.5967999   4.4093095  16.0633277  )
        42           O1  tau(  42) = (   2.0412097   4.4536800  16.1303113  )
        43           Ti1 tau(  43) = (   3.2964201   5.9600488  15.8742613  )
        44           Ti1 tau(  44) = (   0.0241369   4.6516137  15.8518307  )
        45           O1  tau(  45) = (   3.2900926   2.9813045   4.7018136  )
        46           O1  tau(  46) = (   1.3039711   4.4726057   6.0039043  )
        47           O1  tau(  47) = (   5.2763189   4.4711207   6.0039473  )
        48           N1  tau(  48) = (   1.4509408   2.7109095  18.7602185  )
        49           N1  tau(  49) = (   0.0917387   2.5303350  18.2207845  )
        50           C1  tau(  50) = (   1.9503960   3.7723240  19.2784661  )
        51           H1  tau(  51) = (   1.1612915   4.5273475  19.4152495  )
        52           H1  tau(  52) = (   2.0208952   1.9183395  18.4664618  )
        53           H1  tau(  53) = (   6.1377449   3.3539424  18.4987646  )
        54           H1  tau(  54) = (   6.2616785   1.7135167  18.6767212  )
        55           O1  tau(  55) = (   3.7012217   5.9496235  18.2853534  )
        56           H1  tau(  56) = (   4.6684668   5.8470116  18.1670174  )
        57           H1  tau(  57) = (   3.3852657   5.1278045  18.7238684  )

     number of k points=    10  Fermi-Dirac smearing, width (Ry)=  0.0073
                       cart. coord. in units 2pi/alat
        k(    1) = (   0.0000000   0.0000000   0.0000000), wk =   0.1250000
        k(    2) = (   0.0000000   0.0419351   0.0000000), wk =   0.2500000
        k(    3) = (   0.0000000  -0.0838702   0.0000000), wk =   0.1250000
        k(    4) = (   0.0379955   0.0000049   0.0000000), wk =   0.2500000
        k(    5) = (   0.0379955   0.0419400   0.0000000), wk =   0.2500000
        k(    6) = (   0.0379955  -0.0838652   0.0000000), wk =   0.2500000
        k(    7) = (   0.0379955  -0.0419301   0.0000000), wk =   0.2500000
        k(    8) = (  -0.0759910  -0.0000099   0.0000000), wk =   0.1250000
        k(    9) = (  -0.0759910   0.0419252   0.0000000), wk =   0.2500000
        k(   10) = (  -0.0759910  -0.0838800   0.0000000), wk =   0.1250000

     Dense  grid:   566857 G-vectors     FFT dimensions: (  72,  64, 270)

     Smooth grid:   143421 G-vectors     FFT dimensions: (  45,  40, 180)

     Estimated max dynamical RAM per process >     367.81 MB

     Estimated total dynamical RAM >       3.59 GB
     Cannot read rho : file not found

     Initial potential from superposition of free atoms

     starting charge  387.99913, renormalised to  404.00000

     negative rho (up, down):  1.598E-02 0.000E+00


     %%%%%%%%%%%%%%%%%%%%%%%%%%%%%%%%%%%%%%%%%%%%%%%%%%%%%%%%%%%%%%%%%%%%%%%%
     %                                                                      %
     % You are using vdW-DF, which was implemented by the Thonhauser group. %
     % Please cite the following two papers that made this development      %
     % possible and the two reviews that describe the various versions:     %
     %                                                                      %
     %   T. Thonhauser et al., PRL 115, 136402 (2015).                      %
     %   T. Thonhauser et al., PRB 76, 125112 (2007).                       %
     %   K. Berland et al., Rep. Prog. Phys. 78, 066501 (2015).             %
     %   D.C. Langreth et al., J. Phys.: Condens. Matter 21, 084203 (2009). %
     %                                                                      %
     %                                                                      %
     % If you are calculating the stress with vdW-DF, please also cite:     %
     %                                                                      %
     %   R. Sabatini et al., J. Phys.: Condens. Matter 24, 424209 (2012).   %
     %                                                                      %
     %%%%%%%%%%%%%%%%%%%%%%%%%%%%%%%%%%%%%%%%%%%%%%%%%%%%%%%%%%%%%%%%%%%%%%%%


 
     Adding external electric field

     Computed dipole along edir(3) : 
        Dipole              -14.3577 Ry au,        -36.4937 Debye
        Dipole field         -0.0271 Ry au, 
 
        Potential amp.        2.5117 Ry
        Total length         46.3494 bohr
 
     Starting wfcs are  306 atomic wfcs
  @ DRIVER MODE: Message from server: STATUS
  @ DRIVER MODE: Message from server: POSDATA
  @ DRIVER MODE: Reading and sharing cell 
  @ DRIVER MODE: Reading and sharing positions 
  @ DRIVER MODE: Received positions 

     total cpu time spent up to now is       11.5 secs

     Self-consistent Calculation

     iteration #  1     ecut=    29.40 Ry     beta= 0.05
     Davidson diagonalization with overlap
     c_bands:  4 eigenvalues not converged
     c_bands:  4 eigenvalues not converged
     c_bands:  4 eigenvalues not converged
     c_bands:  4 eigenvalues not converged
     c_bands:  3 eigenvalues not converged
     c_bands:  2 eigenvalues not converged
     c_bands:  4 eigenvalues not converged
     ethr =  1.00E-05,  avg # of iterations = 23.4

     negative rho (up, down):  8.496E-03 0.000E+00
 
     Adding external electric field

     Computed dipole along edir(3) : 
        Dipole               60.0562 Ry au,        152.6476 Debye
        Dipole field          0.1133 Ry au, 
 
        Potential amp.      -10.5059 Ry
        Total length         46.3494 bohr
 

     total cpu time spent up to now is       58.6 secs

     total energy              =   -2220.91945306 Ry
     estimated scf accuracy    <    8587.37381989 Ry

     iteration #  2     ecut=    29.40 Ry     beta= 0.05
     Davidson diagonalization with overlap
     ethr =  1.00E-02,  avg # of iterations = 28.1

     negative rho (up, down):  2.949E-04 0.000E+00
 
     Adding external electric field

     Computed dipole along edir(3) : 
        Dipole                1.3058 Ry au,          3.3191 Debye
        Dipole field          0.0025 Ry au, 
 
        Potential amp.       -0.2284 Ry
        Total length         46.3494 bohr
 

     total cpu time spent up to now is      149.0 secs

     total energy              =   -2490.23767175 Ry
     estimated scf accuracy    <   73772.85452592 Ry

     iteration #  3     ecut=    29.40 Ry     beta= 0.05
     Davidson diagonalization with overlap
     c_bands:  1 eigenvalues not converged
     ethr =  1.00E-02,  avg # of iterations = 16.9

     negative rho (up, down):  3.423E-04 0.000E+00
 
     Adding external electric field

     Computed dipole along edir(3) : 
        Dipole               -2.5166 Ry au,         -6.3966 Debye
        Dipole field         -0.0047 Ry au, 
 
        Potential amp.        0.4402 Ry
        Total length         46.3494 bohr
 

     total cpu time spent up to now is      199.0 secs

     total energy              =   -2962.43576752 Ry
     estimated scf accuracy    <    7786.38372465 Ry

     iteration #  4     ecut=    29.40 Ry     beta= 0.05
     Davidson diagonalization with overlap
     ethr =  1.00E-02,  avg # of iterations = 11.9

     negative rho (up, down):  3.618E-04 0.000E+00
 
     Adding external electric field

     Computed dipole along edir(3) : 
        Dipole               -4.4845 Ry au,        -11.3986 Debye
        Dipole field         -0.0085 Ry au, 
 
        Potential amp.        0.7845 Ry
        Total length         46.3494 bohr
 

     total cpu time spent up to now is      223.1 secs

     total energy              =   -2965.89201760 Ry
     estimated scf accuracy    <    2417.44852252 Ry

     iteration #  5     ecut=    29.40 Ry     beta= 0.05
     Davidson diagonalization with overlap
     c_bands:  4 eigenvalues not converged
     ethr =  1.00E-02,  avg # of iterations =  5.4

     negative rho (up, down):  4.119E-04 0.000E+00
 
     Adding external electric field

     Computed dipole along edir(3) : 
        Dipole               -7.2512 Ry au,        -18.4308 Debye
        Dipole field         -0.0137 Ry au, 
 
        Potential amp.        1.2685 Ry
        Total length         46.3494 bohr
 

     total cpu time spent up to now is      235.7 secs

     total energy              =   -2942.96452589 Ry
     estimated scf accuracy    <    1744.07727226 Ry

     iteration #  6     ecut=    29.40 Ry     beta= 0.05
     Davidson diagonalization with overlap
     c_bands:  1 eigenvalues not converged
     ethr =  1.00E-02,  avg # of iterations = 13.8

     negative rho (up, down):  3.976E-04 0.000E+00
 
     Adding external electric field

     Computed dipole along edir(3) : 
        Dipole               -5.5809 Ry au,        -14.1853 Debye
        Dipole field         -0.0105 Ry au, 
 
        Potential amp.        0.9763 Ry
        Total length         46.3494 bohr
 

     total cpu time spent up to now is      261.9 secs

     total energy              =   -2979.41302907 Ry
     estimated scf accuracy    <      83.04412159 Ry

     iteration #  7     ecut=    29.40 Ry     beta= 0.05
     Davidson diagonalization with overlap
     ethr =  1.00E-02,  avg # of iterations =  1.4

     negative rho (up, down):  4.027E-04 0.000E+00
 
     Adding external electric field

     Computed dipole along edir(3) : 
        Dipole               -4.5399 Ry au,        -11.5393 Debye
        Dipole field         -0.0086 Ry au, 
 
        Potential amp.        0.7942 Ry
        Total length         46.3494 bohr
 

     total cpu time spent up to now is      272.4 secs

     total energy              =   -2978.56425578 Ry
     estimated scf accuracy    <      30.34737604 Ry

     iteration #  8     ecut=    29.40 Ry     beta= 0.05
     Davidson diagonalization with overlap
     ethr =  7.51E-03,  avg # of iterations =  1.6

     negative rho (up, down):  4.048E-04 0.000E+00
 
     Adding external electric field

     Computed dipole along edir(3) : 
        Dipole               -4.0822 Ry au,        -10.3760 Debye
        Dipole field         -0.0077 Ry au, 
 
        Potential amp.        0.7141 Ry
        Total length         46.3494 bohr
 

     total cpu time spent up to now is      282.8 secs

     total energy              =   -2978.59962302 Ry
     estimated scf accuracy    <      20.00435002 Ry

     iteration #  9     ecut=    29.40 Ry     beta= 0.05
     Davidson diagonalization with overlap
     ethr =  4.95E-03,  avg # of iterations =  1.3

     negative rho (up, down):  4.706E-04 0.000E+00
 
     Adding external electric field

     Computed dipole along edir(3) : 
        Dipole                2.8020 Ry au,          7.1219 Debye
        Dipole field          0.0053 Ry au, 
 
        Potential amp.       -0.4902 Ry
        Total length         46.3494 bohr
 

     total cpu time spent up to now is      293.1 secs

     total energy              =   -2975.62649160 Ry
     estimated scf accuracy    <      18.86993324 Ry

     iteration # 10     ecut=    29.40 Ry     beta= 0.05
     Davidson diagonalization with overlap
     ethr =  4.67E-03,  avg # of iterations = 14.9

     negative rho (up, down):  6.318E-04 0.000E+00
 
     Adding external electric field

     Computed dipole along edir(3) : 
        Dipole                6.4198 Ry au,         16.3175 Debye
        Dipole field          0.0121 Ry au, 
 
        Potential amp.       -1.1230 Ry
        Total length         46.3494 bohr
 

     total cpu time spent up to now is      317.4 secs

     total energy              =   -3048.04713719 Ry
     estimated scf accuracy    <    4178.67120271 Ry

     iteration # 11     ecut=    29.40 Ry     beta= 0.05
     Davidson diagonalization with overlap
     ethr =  4.67E-03,  avg # of iterations =  8.5

     negative rho (up, down):  6.664E-04 0.000E+00
 
     Adding external electric field

     Computed dipole along edir(3) : 
        Dipole                4.1005 Ry au,         10.4225 Debye
        Dipole field          0.0077 Ry au, 
 
        Potential amp.       -0.7173 Ry
        Total length         46.3494 bohr
 

     total cpu time spent up to now is      330.5 secs

     total energy              =   -3007.44475431 Ry
     estimated scf accuracy    <    5540.27174553 Ry

     iteration # 12     ecut=    29.40 Ry     beta= 0.05
     Davidson diagonalization with overlap
     ethr =  4.67E-03,  avg # of iterations =  2.5

     negative rho (up, down):  7.656E-04 0.000E+00
 
     Adding external electric field

     Computed dipole along edir(3) : 
        Dipole                1.8589 Ry au,          4.7249 Debye
        Dipole field          0.0035 Ry au, 
 
        Potential amp.       -0.3252 Ry
        Total length         46.3494 bohr
 

     total cpu time spent up to now is      341.5 secs

     total energy              =   -2976.70509228 Ry
     estimated scf accuracy    <    3683.09963631 Ry

     iteration # 13     ecut=    29.40 Ry     beta= 0.05
     Davidson diagonalization with overlap
     ethr =  4.67E-03,  avg # of iterations = 12.4

     negative rho (up, down):  7.815E-04 0.000E+00
 
     Adding external electric field

     Computed dipole along edir(3) : 
        Dipole                3.0551 Ry au,          7.7653 Debye
        Dipole field          0.0058 Ry au, 
 
        Potential amp.       -0.5344 Ry
        Total length         46.3494 bohr
 

     total cpu time spent up to now is      360.9 secs

     total energy              =   -2995.19724374 Ry
     estimated scf accuracy    <    1786.45674677 Ry

     iteration # 14     ecut=    29.40 Ry     beta= 0.05
     Davidson diagonalization with overlap
     ethr =  4.67E-03,  avg # of iterations =  2.4

     negative rho (up, down):  6.064E-04 0.000E+00
 
     Adding external electric field

     Computed dipole along edir(3) : 
        Dipole               -1.9071 Ry au,         -4.8474 Debye
        Dipole field         -0.0036 Ry au, 
 
        Potential amp.        0.3336 Ry
        Total length         46.3494 bohr
 

     total cpu time spent up to now is      371.9 secs

     total energy              =   -2959.53531745 Ry
     estimated scf accuracy    <    2490.12136098 Ry

     iteration # 15     ecut=    29.40 Ry     beta= 0.05
     Davidson diagonalization with overlap
     ethr =  4.67E-03,  avg # of iterations = 18.1

     negative rho (up, down):  7.335E-04 0.000E+00
 
     Adding external electric field

     Computed dipole along edir(3) : 
        Dipole               -0.5167 Ry au,         -1.3134 Debye
        Dipole field         -0.0010 Ry au, 
 
        Potential amp.        0.0904 Ry
        Total length         46.3494 bohr
 

     total cpu time spent up to now is      396.2 secs

     total energy              =   -2975.35897245 Ry
     estimated scf accuracy    <       6.79528709 Ry

     iteration # 16     ecut=    29.40 Ry     beta= 0.05
     Davidson diagonalization with overlap
     ethr =  1.68E-03,  avg # of iterations =  2.5

     negative rho (up, down):  7.206E-04 0.000E+00
 
     Adding external electric field

     Computed dipole along edir(3) : 
        Dipole               -0.4084 Ry au,         -1.0380 Debye
        Dipole field         -0.0008 Ry au, 
 
        Potential amp.        0.0714 Ry
        Total length         46.3494 bohr
 

     total cpu time spent up to now is      407.3 secs

     total energy              =   -2976.39770418 Ry
     estimated scf accuracy    <     142.20711768 Ry

     iteration # 17     ecut=    29.40 Ry     beta= 0.05
     Davidson diagonalization with overlap
     ethr =  1.68E-03,  avg # of iterations =  1.2

     negative rho (up, down):  8.301E-04 0.000E+00
 
     Adding external electric field

     Computed dipole along edir(3) : 
        Dipole               -0.4991 Ry au,         -1.2686 Debye
        Dipole field         -0.0009 Ry au, 
 
        Potential amp.        0.0873 Ry
        Total length         46.3494 bohr
 

     total cpu time spent up to now is      417.6 secs

     total energy              =   -2974.45402592 Ry
     estimated scf accuracy    <     185.97953696 Ry

     iteration # 18     ecut=    29.40 Ry     beta= 0.05
     Davidson diagonalization with overlap
     ethr =  1.68E-03,  avg # of iterations =  3.4

     negative rho (up, down):  8.402E-04 0.000E+00
 
     Adding external electric field

     Computed dipole along edir(3) : 
        Dipole               -0.4517 Ry au,         -1.1482 Debye
        Dipole field         -0.0009 Ry au, 
 
        Potential amp.        0.0790 Ry
        Total length         46.3494 bohr
 

     total cpu time spent up to now is      428.7 secs

     total energy              =   -2975.37381571 Ry
     estimated scf accuracy    <       4.03247380 Ry

     iteration # 19     ecut=    29.40 Ry     beta= 0.05
     Davidson diagonalization with overlap
     ethr =  9.98E-04,  avg # of iterations =  2.6

     negative rho (up, down):  8.054E-04 0.000E+00
 
     Adding external electric field

     Computed dipole along edir(3) : 
        Dipole               -1.0269 Ry au,         -2.6100 Debye
        Dipole field         -0.0019 Ry au, 
 
        Potential amp.        0.1796 Ry
        Total length         46.3494 bohr
 

     total cpu time spent up to now is      439.7 secs

     total energy              =   -2975.22666259 Ry
     estimated scf accuracy    <       3.64807283 Ry

     iteration # 20     ecut=    29.40 Ry     beta= 0.05
     Davidson diagonalization with overlap
     c_bands:  2 eigenvalues not converged
     ethr =  9.03E-04,  avg # of iterations =  3.9

     negative rho (up, down):  8.426E-04 0.000E+00
 
     Adding external electric field

     Computed dipole along edir(3) : 
        Dipole               -1.7634 Ry au,         -4.4820 Debye
        Dipole field         -0.0033 Ry au, 
 
        Potential amp.        0.3085 Ry
        Total length         46.3494 bohr
 

     total cpu time spent up to now is      450.9 secs

     total energy              =   -2975.06958987 Ry
     estimated scf accuracy    <       2.04495639 Ry

     iteration # 21     ecut=    29.40 Ry     beta= 0.05
     Davidson diagonalization with overlap
     c_bands:  4 eigenvalues not converged
     c_bands:  4 eigenvalues not converged
     c_bands:  2 eigenvalues not converged
     c_bands:  4 eigenvalues not converged
     ethr =  5.06E-04,  avg # of iterations = 17.0

     negative rho (up, down):  1.064E-03 0.000E+00
 
     Adding external electric field

     Computed dipole along edir(3) : 
        Dipole               -1.4698 Ry au,         -3.7358 Debye
        Dipole field         -0.0028 Ry au, 
 
        Potential amp.        0.2571 Ry
        Total length         46.3494 bohr
 

     total cpu time spent up to now is      470.3 secs

     total energy              =   -2975.29295215 Ry
     estimated scf accuracy    <       3.86172471 Ry

     iteration # 22     ecut=    29.40 Ry     beta= 0.05
     Davidson diagonalization with overlap
     c_bands:  1 eigenvalues not converged
     ethr =  5.06E-04,  avg # of iterations =  7.9

     negative rho (up, down):  1.220E-03 0.000E+00
 
     Adding external electric field

     Computed dipole along edir(3) : 
        Dipole               -0.9271 Ry au,         -2.3566 Debye
        Dipole field         -0.0017 Ry au, 
 
        Potential amp.        0.1622 Ry
        Total length         46.3494 bohr
 

     total cpu time spent up to now is      483.1 secs

     total energy              =   -2975.21774376 Ry
     estimated scf accuracy    <       2.57262719 Ry

     iteration # 23     ecut=    29.40 Ry     beta= 0.05
     Davidson diagonalization with overlap
     ethr =  5.06E-04,  avg # of iterations =  6.1

     negative rho (up, down):  1.136E-03 0.000E+00
 
     Adding external electric field

     Computed dipole along edir(3) : 
        Dipole               -0.5001 Ry au,         -1.2712 Debye
        Dipole field         -0.0009 Ry au, 
 
        Potential amp.        0.0875 Ry
        Total length         46.3494 bohr
 

     total cpu time spent up to now is      495.2 secs

     total energy              =   -2975.14220042 Ry
     estimated scf accuracy    <       2.13765316 Ry

     iteration # 24     ecut=    29.40 Ry     beta= 0.05
     Davidson diagonalization with overlap
     ethr =  5.06E-04,  avg # of iterations =  3.7

     negative rho (up, down):  1.305E-03 0.000E+00
 
     Adding external electric field

     Computed dipole along edir(3) : 
        Dipole               -0.4086 Ry au,         -1.0385 Debye
        Dipole field         -0.0008 Ry au, 
 
        Potential amp.        0.0715 Ry
        Total length         46.3494 bohr
 

     total cpu time spent up to now is      506.8 secs

     total energy              =   -2975.17355788 Ry
     estimated scf accuracy    <       2.46409492 Ry

     iteration # 25     ecut=    29.40 Ry     beta= 0.05
     Davidson diagonalization with overlap
     ethr =  5.06E-04,  avg # of iterations =  2.4

     negative rho (up, down):  1.233E-03 0.000E+00
 
     Adding external electric field

     Computed dipole along edir(3) : 
        Dipole               -0.5268 Ry au,         -1.3389 Debye
        Dipole field         -0.0010 Ry au, 
 
        Potential amp.        0.0921 Ry
        Total length         46.3494 bohr
 

     total cpu time spent up to now is      517.5 secs

     total energy              =   -2975.13085644 Ry
     estimated scf accuracy    <       1.52240301 Ry

     iteration # 26     ecut=    29.40 Ry     beta= 0.05
     Davidson diagonalization with overlap
     ethr =  3.77E-04,  avg # of iterations =  2.6

     negative rho (up, down):  1.458E-03 0.000E+00
 
     Adding external electric field

     Computed dipole along edir(3) : 
        Dipole               -0.1191 Ry au,         -0.3027 Debye
        Dipole field         -0.0002 Ry au, 
 
        Potential amp.        0.0208 Ry
        Total length         46.3494 bohr
 

     total cpu time spent up to now is      528.5 secs

     total energy              =   -2975.17940803 Ry
     estimated scf accuracy    <       0.64289059 Ry

     iteration # 27     ecut=    29.40 Ry     beta= 0.05
     Davidson diagonalization with overlap
     c_bands:  2 eigenvalues not converged
     c_bands:  1 eigenvalues not converged
     c_bands:  1 eigenvalues not converged
     c_bands:  1 eigenvalues not converged
     c_bands:  1 eigenvalues not converged
     c_bands:  2 eigenvalues not converged
     c_bands:  1 eigenvalues not converged
     ethr =  1.59E-04,  avg # of iterations = 18.6

     negative rho (up, down):  1.555E-03 0.000E+00
 
     Adding external electric field

     Computed dipole along edir(3) : 
        Dipole               -0.0981 Ry au,         -0.2494 Debye
        Dipole field         -0.0002 Ry au, 
 
        Potential amp.        0.0172 Ry
        Total length         46.3494 bohr
 

     total cpu time spent up to now is      546.3 secs

     total energy              =   -2975.19743570 Ry
     estimated scf accuracy    <       1.47140342 Ry

     iteration # 28     ecut=    29.40 Ry     beta= 0.05
     Davidson diagonalization with overlap
     c_bands:  1 eigenvalues not converged
     ethr =  1.59E-04,  avg # of iterations =  4.0

     negative rho (up, down):  1.902E-03 0.000E+00
 
     Adding external electric field

     Computed dipole along edir(3) : 
        Dipole               -0.0151 Ry au,         -0.0383 Debye
        Dipole field         -0.0000 Ry au, 
 
        Potential amp.        0.0026 Ry
        Total length         46.3494 bohr
 

     total cpu time spent up to now is      557.6 secs

     total energy              =   -2975.00299549 Ry
     estimated scf accuracy    <       1.46537917 Ry

     iteration # 29     ecut=    29.40 Ry     beta= 0.05
     Davidson diagonalization with overlap
     c_bands:  1 eigenvalues not converged
     c_bands:  5 eigenvalues not converged
     c_bands:  2 eigenvalues not converged
     c_bands:  2 eigenvalues not converged
     c_bands:  1 eigenvalues not converged
     c_bands:  1 eigenvalues not converged
     c_bands:  3 eigenvalues not converged
     c_bands:  2 eigenvalues not converged
     ethr =  1.59E-04,  avg # of iterations = 18.1

     negative rho (up, down):  2.154E-03 0.000E+00
 
     Adding external electric field

     Computed dipole along edir(3) : 
        Dipole                0.3795 Ry au,          0.9646 Debye
        Dipole field          0.0007 Ry au, 
 
        Potential amp.       -0.0664 Ry
        Total length         46.3494 bohr
 

     total cpu time spent up to now is      582.7 secs

     total energy              =   -2975.08002465 Ry
     estimated scf accuracy    <       2.66577787 Ry

     iteration # 30     ecut=    29.40 Ry     beta= 0.05
     Davidson diagonalization with overlap
     c_bands:  1 eigenvalues not converged
     c_bands:  1 eigenvalues not converged
     c_bands:  3 eigenvalues not converged
     c_bands:  1 eigenvalues not converged
     c_bands:  1 eigenvalues not converged
     ethr =  1.59E-04,  avg # of iterations = 16.5

     negative rho (up, down):  1.956E-03 0.000E+00
 
     Adding external electric field

     Computed dipole along edir(3) : 
        Dipole                0.2313 Ry au,          0.5879 Debye
        Dipole field          0.0004 Ry au, 
 
        Potential amp.       -0.0405 Ry
        Total length         46.3494 bohr
 

     total cpu time spent up to now is      599.0 secs

     total energy              =   -2975.14408274 Ry
     estimated scf accuracy    <       1.66698818 Ry

     iteration # 31     ecut=    29.40 Ry     beta= 0.05
     Davidson diagonalization with overlap
     ethr =  1.59E-04,  avg # of iterations =  1.2

     negative rho (up, down):  1.887E-03 0.000E+00
 
     Adding external electric field

     Computed dipole along edir(3) : 
        Dipole                0.1929 Ry au,          0.4904 Debye
        Dipole field          0.0004 Ry au, 
 
        Potential amp.       -0.0337 Ry
        Total length         46.3494 bohr
 

     total cpu time spent up to now is      609.2 secs

     total energy              =   -2975.16299660 Ry
     estimated scf accuracy    <       1.04524096 Ry

     iteration # 32     ecut=    29.40 Ry     beta= 0.05
     Davidson diagonalization with overlap
     ethr =  1.59E-04,  avg # of iterations =  2.2

     negative rho (up, down):  2.161E-03 0.000E+00
 
     Adding external electric field

     Computed dipole along edir(3) : 
        Dipole                0.4193 Ry au,          1.0657 Debye
        Dipole field          0.0008 Ry au, 
 
        Potential amp.       -0.0733 Ry
        Total length         46.3494 bohr
 

     total cpu time spent up to now is      619.7 secs

     total energy              =   -2975.07829363 Ry
     estimated scf accuracy    <       1.45001232 Ry

     iteration # 33     ecut=    29.40 Ry     beta= 0.05
     Davidson diagonalization with overlap
     ethr =  1.59E-04,  avg # of iterations =  6.3

     negative rho (up, down):  2.306E-03 0.000E+00
 
     Adding external electric field

     Computed dipole along edir(3) : 
        Dipole                0.4628 Ry au,          1.1763 Debye
        Dipole field          0.0009 Ry au, 
 
        Potential amp.       -0.0810 Ry
        Total length         46.3494 bohr
 

     total cpu time spent up to now is      632.2 secs

     total energy              =   -2975.12197457 Ry
     estimated scf accuracy    <       1.16879255 Ry

     iteration # 34     ecut=    29.40 Ry     beta= 0.05
     Davidson diagonalization with overlap
     ethr =  1.59E-04,  avg # of iterations =  1.2

     negative rho (up, down):  2.550E-03 0.000E+00
 
     Adding external electric field

     Computed dipole along edir(3) : 
        Dipole                0.4651 Ry au,          1.1822 Debye
        Dipole field          0.0009 Ry au, 
 
        Potential amp.       -0.0814 Ry
        Total length         46.3494 bohr
 

     total cpu time spent up to now is      642.5 secs

     total energy              =   -2975.09731525 Ry
     estimated scf accuracy    <       1.16820932 Ry

     iteration # 35     ecut=    29.40 Ry     beta= 0.05
     Davidson diagonalization with overlap
     ethr =  1.59E-04,  avg # of iterations =  3.9

     negative rho (up, down):  2.462E-03 0.000E+00
 
     Adding external electric field

     Computed dipole along edir(3) : 
        Dipole                0.5468 Ry au,          1.3899 Debye
        Dipole field          0.0010 Ry au, 
 
        Potential amp.       -0.0957 Ry
        Total length         46.3494 bohr
 

     total cpu time spent up to now is      653.9 secs

     total energy              =   -2975.08733662 Ry
     estimated scf accuracy    <       0.28951517 Ry

     iteration # 36     ecut=    29.40 Ry     beta= 0.05
     Davidson diagonalization with overlap
     c_bands:  2 eigenvalues not converged
     c_bands:  1 eigenvalues not converged
     c_bands:  1 eigenvalues not converged
     c_bands:  1 eigenvalues not converged
     ethr =  7.17E-05,  avg # of iterations = 19.1

     negative rho (up, down):  3.000E-03 0.000E+00
 
     Adding external electric field

     Computed dipole along edir(3) : 
        Dipole                0.6163 Ry au,          1.5665 Debye
        Dipole field          0.0012 Ry au, 
 
        Potential amp.       -0.1078 Ry
        Total length         46.3494 bohr
 

     total cpu time spent up to now is      676.1 secs

     total energy              =   -2975.07029296 Ry
     estimated scf accuracy    <       0.82353637 Ry

     iteration # 37     ecut=    29.40 Ry     beta= 0.05
     Davidson diagonalization with overlap
     c_bands:  1 eigenvalues not converged
     c_bands:  2 eigenvalues not converged
     c_bands:  3 eigenvalues not converged
     ethr =  7.17E-05,  avg # of iterations = 14.5

     negative rho (up, down):  2.958E-03 0.000E+00
 
     Adding external electric field

     Computed dipole along edir(3) : 
        Dipole                0.5666 Ry au,          1.4400 Debye
        Dipole field          0.0011 Ry au, 
 
        Potential amp.       -0.0991 Ry
        Total length         46.3494 bohr
 

     total cpu time spent up to now is      692.4 secs

     total energy              =   -2975.09952582 Ry
     estimated scf accuracy    <       0.39656190 Ry

     iteration # 38     ecut=    29.40 Ry     beta= 0.05
     Davidson diagonalization with overlap
     ethr =  7.17E-05,  avg # of iterations =  4.6

     negative rho (up, down):  4.094E-03 0.000E+00
 
     Adding external electric field

     Computed dipole along edir(3) : 
        Dipole                0.7518 Ry au,          1.9109 Debye
        Dipole field          0.0014 Ry au, 
 
        Potential amp.       -0.1315 Ry
        Total length         46.3494 bohr
 

     total cpu time spent up to now is      704.0 secs

     total energy              =   -2975.09690685 Ry
     estimated scf accuracy    <       0.21464497 Ry

     iteration # 39     ecut=    29.40 Ry     beta= 0.05
     Davidson diagonalization with overlap
     c_bands:  3 eigenvalues not converged
     c_bands:  1 eigenvalues not converged
     c_bands:  1 eigenvalues not converged
     c_bands:  2 eigenvalues not converged
     c_bands:  1 eigenvalues not converged
     ethr =  5.31E-05,  avg # of iterations = 14.9

     negative rho (up, down):  6.117E-03 0.000E+00
 
     Adding external electric field

     Computed dipole along edir(3) : 
        Dipole                0.9041 Ry au,          2.2979 Debye
        Dipole field          0.0017 Ry au, 
 
        Potential amp.       -0.1582 Ry
        Total length         46.3494 bohr
 

     total cpu time spent up to now is      719.5 secs

     total energy              =   -2975.09791283 Ry
     estimated scf accuracy    <       0.06996387 Ry

     iteration # 40     ecut=    29.40 Ry     beta= 0.05
     Davidson diagonalization with overlap
     c_bands:  3 eigenvalues not converged
     c_bands:  2 eigenvalues not converged
     c_bands:  1 eigenvalues not converged
     c_bands:  2 eigenvalues not converged
     c_bands:  1 eigenvalues not converged
     ethr =  1.73E-05,  avg # of iterations = 18.7

     negative rho (up, down):  5.344E-03 0.000E+00
 
     Adding external electric field

     Computed dipole along edir(3) : 
        Dipole                0.8738 Ry au,          2.2209 Debye
        Dipole field          0.0016 Ry au, 
 
        Potential amp.       -0.1529 Ry
        Total length         46.3494 bohr
 

     total cpu time spent up to now is      740.0 secs

     total energy              =   -2975.10320997 Ry
     estimated scf accuracy    <       0.10307333 Ry

     iteration # 41     ecut=    29.40 Ry     beta= 0.05
     Davidson diagonalization with overlap
     c_bands:  1 eigenvalues not converged
     ethr =  1.73E-05,  avg # of iterations = 11.4

     negative rho (up, down):  4.806E-03 0.000E+00
 
     Adding external electric field

     Computed dipole along edir(3) : 
        Dipole                0.8565 Ry au,          2.1770 Debye
        Dipole field          0.0016 Ry au, 
 
        Potential amp.       -0.1498 Ry
        Total length         46.3494 bohr
 

     total cpu time spent up to now is      753.9 secs

     total energy              =   -2975.10057708 Ry
     estimated scf accuracy    <       0.04611731 Ry

     iteration # 42     ecut=    29.40 Ry     beta= 0.05
     Davidson diagonalization with overlap
     c_bands:  1 eigenvalues not converged
     ethr =  1.14E-05,  avg # of iterations = 12.3

     negative rho (up, down):  7.037E-03 0.000E+00
 
     Adding external electric field

     Computed dipole along edir(3) : 
        Dipole                0.9833 Ry au,          2.4993 Debye
        Dipole field          0.0019 Ry au, 
 
        Potential amp.       -0.1720 Ry
        Total length         46.3494 bohr
 

     total cpu time spent up to now is      768.7 secs

     total energy              =   -2975.10169170 Ry
     estimated scf accuracy    <       0.02354351 Ry

     iteration # 43     ecut=    29.40 Ry     beta= 0.05
     Davidson diagonalization with overlap
     c_bands:  1 eigenvalues not converged
     c_bands:  4 eigenvalues not converged
     c_bands:  2 eigenvalues not converged
     c_bands:  2 eigenvalues not converged
     c_bands:  2 eigenvalues not converged
     c_bands:  3 eigenvalues not converged
     c_bands:  1 eigenvalues not converged
     ethr =  5.83E-06,  avg # of iterations = 18.9

     negative rho (up, down):  6.574E-03 0.000E+00
 
     Adding external electric field

     Computed dipole along edir(3) : 
        Dipole                0.9232 Ry au,          2.3465 Debye
        Dipole field          0.0017 Ry au, 
 
        Potential amp.       -0.1615 Ry
        Total length         46.3494 bohr
 

     total cpu time spent up to now is      791.1 secs

     total energy              =   -2975.10164712 Ry
     estimated scf accuracy    <       0.11063537 Ry

     iteration # 44     ecut=    29.40 Ry     beta= 0.05
     Davidson diagonalization with overlap
     c_bands:  1 eigenvalues not converged
     c_bands:  1 eigenvalues not converged
     c_bands:  1 eigenvalues not converged
     ethr =  5.83E-06,  avg # of iterations = 17.4

     negative rho (up, down):  7.910E-03 0.000E+00
 
     Adding external electric field

     Computed dipole along edir(3) : 
        Dipole                0.9424 Ry au,          2.3954 Debye
        Dipole field          0.0018 Ry au, 
 
        Potential amp.       -0.1649 Ry
        Total length         46.3494 bohr
 

     total cpu time spent up to now is      808.6 secs

     total energy              =   -2975.10181597 Ry
     estimated scf accuracy    <       0.04964407 Ry

     iteration # 45     ecut=    29.40 Ry     beta= 0.05
     Davidson diagonalization with overlap
     c_bands:  1 eigenvalues not converged
     c_bands:  1 eigenvalues not converged
     c_bands:  1 eigenvalues not converged
     ethr =  5.83E-06,  avg # of iterations = 16.8

     negative rho (up, down):  1.000E-02 0.000E+00
 
     Adding external electric field

     Computed dipole along edir(3) : 
        Dipole                0.9915 Ry au,          2.5202 Debye
        Dipole field          0.0019 Ry au, 
 
        Potential amp.       -0.1734 Ry
        Total length         46.3494 bohr
 

     total cpu time spent up to now is      828.1 secs

     total energy              =   -2975.10408932 Ry
     estimated scf accuracy    <       0.01725414 Ry

     iteration # 46     ecut=    29.40 Ry     beta= 0.05
     Davidson diagonalization with overlap
     ethr =  4.27E-06,  avg # of iterations = 13.4

     negative rho (up, down):  9.440E-03 0.000E+00
 
     Adding external electric field

     Computed dipole along edir(3) : 
        Dipole                0.9735 Ry au,          2.4744 Debye
        Dipole field          0.0018 Ry au, 
 
        Potential amp.       -0.1703 Ry
        Total length         46.3494 bohr
 

     total cpu time spent up to now is      843.7 secs

     total energy              =   -2975.10441213 Ry
     estimated scf accuracy    <       0.00779988 Ry

     iteration # 47     ecut=    29.40 Ry     beta= 0.05
     Davidson diagonalization with overlap
     ethr =  1.93E-06,  avg # of iterations = 13.2

     negative rho (up, down):  9.717E-03 0.000E+00
 
     Adding external electric field

     Computed dipole along edir(3) : 
        Dipole                0.9716 Ry au,          2.4695 Debye
        Dipole field          0.0018 Ry au, 
 
        Potential amp.       -0.1700 Ry
        Total length         46.3494 bohr
 

     total cpu time spent up to now is      859.1 secs

     total energy              =   -2975.10439367 Ry
     estimated scf accuracy    <       0.00673448 Ry

     iteration # 48     ecut=    29.40 Ry     beta= 0.05
     Davidson diagonalization with overlap
     ethr =  1.67E-06,  avg # of iterations =  9.4

     negative rho (up, down):  1.227E-02 0.000E+00
 
     Adding external electric field

     Computed dipole along edir(3) : 
        Dipole                1.0018 Ry au,          2.5463 Debye
        Dipole field          0.0019 Ry au, 
 
        Potential amp.       -0.1752 Ry
        Total length         46.3494 bohr
 

     total cpu time spent up to now is      872.6 secs

     total energy              =   -2975.10447815 Ry
     estimated scf accuracy    <       0.00319694 Ry

     iteration # 49     ecut=    29.40 Ry     beta= 0.05
     Davidson diagonalization with overlap
     ethr =  7.91E-07,  avg # of iterations = 15.2

     negative rho (up, down):  1.293E-02 0.000E+00
 
     Adding external electric field

     Computed dipole along edir(3) : 
        Dipole                1.0094 Ry au,          2.5657 Debye
        Dipole field          0.0019 Ry au, 
 
        Potential amp.       -0.1766 Ry
        Total length         46.3494 bohr
 

     total cpu time spent up to now is      893.2 secs

     total energy              =   -2975.10482192 Ry
     estimated scf accuracy    <       0.00354140 Ry

     iteration # 50     ecut=    29.40 Ry     beta= 0.05
     Davidson diagonalization with overlap
     ethr =  7.91E-07,  avg # of iterations = 12.1

     negative rho (up, down):  1.342E-02 0.000E+00
 
     Adding external electric field

     Computed dipole along edir(3) : 
        Dipole                1.0065 Ry au,          2.5582 Debye
        Dipole field          0.0019 Ry au, 
 
        Potential amp.       -0.1761 Ry
        Total length         46.3494 bohr
 

     total cpu time spent up to now is      907.5 secs

     total energy              =   -2975.10489065 Ry
     estimated scf accuracy    <       0.00105964 Ry

     iteration # 51     ecut=    29.40 Ry     beta= 0.05
     Davidson diagonalization with overlap
     c_bands:  1 eigenvalues not converged
     ethr =  2.62E-07,  avg # of iterations = 14.8

     negative rho (up, down):  1.478E-02 0.000E+00
 
     Adding external electric field

     Computed dipole along edir(3) : 
        Dipole                1.0234 Ry au,          2.6013 Debye
        Dipole field          0.0019 Ry au, 
 
        Potential amp.       -0.1790 Ry
        Total length         46.3494 bohr
 

     total cpu time spent up to now is      927.1 secs

     total energy              =   -2975.10503653 Ry
     estimated scf accuracy    <       0.00170808 Ry

     iteration # 52     ecut=    29.40 Ry     beta= 0.05
     Davidson diagonalization with overlap
     ethr =  2.62E-07,  avg # of iterations =  3.0

     negative rho (up, down):  1.525E-02 0.000E+00
 
     Adding external electric field

     Computed dipole along edir(3) : 
        Dipole                1.0304 Ry au,          2.6189 Debye
        Dipole field          0.0019 Ry au, 
 
        Potential amp.       -0.1802 Ry
        Total length         46.3494 bohr
 

     total cpu time spent up to now is      938.4 secs

     total energy              =   -2975.10505929 Ry
     estimated scf accuracy    <       0.00034879 Ry

     iteration # 53     ecut=    29.40 Ry     beta= 0.05
     Davidson diagonalization with overlap
     c_bands:  2 eigenvalues not converged
     ethr =  8.63E-08,  avg # of iterations = 11.1

     negative rho (up, down):  1.529E-02 0.000E+00
 
     Adding external electric field

     Computed dipole along edir(3) : 
        Dipole                1.0294 Ry au,          2.6165 Debye
        Dipole field          0.0019 Ry au, 
 
        Potential amp.       -0.1801 Ry
        Total length         46.3494 bohr
 

     total cpu time spent up to now is      957.0 secs

     total energy              =   -2975.10515831 Ry
     estimated scf accuracy    <       0.00042318 Ry

     iteration # 54     ecut=    29.40 Ry     beta= 0.05
     Davidson diagonalization with overlap
     ethr =  8.63E-08,  avg # of iterations =  1.1

     negative rho (up, down):  1.551E-02 0.000E+00
 
     Adding external electric field

     Computed dipole along edir(3) : 
        Dipole                1.0228 Ry au,          2.5997 Debye
        Dipole field          0.0019 Ry au, 
 
        Potential amp.       -0.1789 Ry
        Total length         46.3494 bohr
 

     total cpu time spent up to now is      967.2 secs

     total energy              =   -2975.10509197 Ry
     estimated scf accuracy    <       0.00028294 Ry

     iteration # 55     ecut=    29.40 Ry     beta= 0.05
     Davidson diagonalization with overlap
     ethr =  7.00E-08,  avg # of iterations =  9.2

     negative rho (up, down):  1.528E-02 0.000E+00
 
     Adding external electric field

     Computed dipole along edir(3) : 
        Dipole                1.0201 Ry au,          2.5928 Debye
        Dipole field          0.0019 Ry au, 
 
        Potential amp.       -0.1785 Ry
        Total length         46.3494 bohr
 

     total cpu time spent up to now is      985.6 secs

     total energy              =   -2975.10511485 Ry
     estimated scf accuracy    <       0.00022405 Ry

     iteration # 56     ecut=    29.40 Ry     beta= 0.05
     Davidson diagonalization with overlap
     ethr =  5.55E-08,  avg # of iterations =  8.1

     negative rho (up, down):  1.548E-02 0.000E+00
 
     Adding external electric field

     Computed dipole along edir(3) : 
        Dipole                1.0180 Ry au,          2.5874 Debye
        Dipole field          0.0019 Ry au, 
 
        Potential amp.       -0.1781 Ry
        Total length         46.3494 bohr
 

     total cpu time spent up to now is     1002.6 secs

     total energy              =   -2975.10517423 Ry
     estimated scf accuracy    <       0.00013128 Ry

     iteration # 57     ecut=    29.40 Ry     beta= 0.05
     Davidson diagonalization with overlap
     ethr =  3.25E-08,  avg # of iterations =  1.7

     negative rho (up, down):  1.540E-02 0.000E+00
 
     Adding external electric field

     Computed dipole along edir(3) : 
        Dipole                1.0127 Ry au,          2.5740 Debye
        Dipole field          0.0019 Ry au, 
 
        Potential amp.       -0.1772 Ry
        Total length         46.3494 bohr
 

     total cpu time spent up to now is     1013.3 secs

     total energy              =   -2975.10516649 Ry
     estimated scf accuracy    <       0.00005930 Ry

     iteration # 58     ecut=    29.40 Ry     beta= 0.05
     Davidson diagonalization with overlap
     ethr =  1.47E-08,  avg # of iterations = 10.1

     negative rho (up, down):  1.543E-02 0.000E+00
 
     Adding external electric field

     Computed dipole along edir(3) : 
        Dipole                1.0136 Ry au,          2.5763 Debye
        Dipole field          0.0019 Ry au, 
 
        Potential amp.       -0.1773 Ry
        Total length         46.3494 bohr
 

     total cpu time spent up to now is     1034.5 secs

     total energy              =   -2975.10520858 Ry
     estimated scf accuracy    <       0.00010784 Ry

     iteration # 59     ecut=    29.40 Ry     beta= 0.05
     Davidson diagonalization with overlap
     ethr =  1.47E-08,  avg # of iterations =  1.0

     negative rho (up, down):  1.553E-02 0.000E+00
 
     Adding external electric field

     Computed dipole along edir(3) : 
        Dipole                1.0180 Ry au,          2.5875 Debye
        Dipole field          0.0019 Ry au, 
 
        Potential amp.       -0.1781 Ry
        Total length         46.3494 bohr
 

     total cpu time spent up to now is     1044.6 secs

     total energy              =   -2975.10518713 Ry
     estimated scf accuracy    <       0.00010070 Ry

     iteration # 60     ecut=    29.40 Ry     beta= 0.05
     Davidson diagonalization with overlap
     ethr =  1.47E-08,  avg # of iterations =  7.0

     negative rho (up, down):  1.567E-02 0.000E+00
 
     Adding external electric field

     Computed dipole along edir(3) : 
        Dipole                1.0190 Ry au,          2.5902 Debye
        Dipole field          0.0019 Ry au, 
 
        Potential amp.       -0.1783 Ry
        Total length         46.3494 bohr
 

     total cpu time spent up to now is     1061.7 secs

     total energy              =   -2975.10521058 Ry
     estimated scf accuracy    <       0.00000887 Ry

     iteration # 61     ecut=    29.40 Ry     beta= 0.05
     Davidson diagonalization with overlap
     ethr =  2.19E-09,  avg # of iterations = 10.8

     negative rho (up, down):  1.576E-02 0.000E+00
 
     Adding external electric field

     Computed dipole along edir(3) : 
        Dipole                1.0200 Ry au,          2.5926 Debye
        Dipole field          0.0019 Ry au, 
 
        Potential amp.       -0.1784 Ry
        Total length         46.3494 bohr
 

     total cpu time spent up to now is     1080.1 secs

     total energy              =   -2975.10521897 Ry
     estimated scf accuracy    <       0.00000422 Ry

     iteration # 62     ecut=    29.40 Ry     beta= 0.05
     Davidson diagonalization with overlap
     ethr =  1.04E-09,  avg # of iterations =  4.9

     negative rho (up, down):  1.582E-02 0.000E+00
 
     Adding external electric field

     Computed dipole along edir(3) : 
        Dipole                1.0216 Ry au,          2.5967 Debye
        Dipole field          0.0019 Ry au, 
 
        Potential amp.       -0.1787 Ry
        Total length         46.3494 bohr
 

     total cpu time spent up to now is     1091.9 secs

     total energy              =   -2975.10522373 Ry
     estimated scf accuracy    <       0.00000348 Ry

     iteration # 63     ecut=    29.40 Ry     beta= 0.05
     Davidson diagonalization with overlap
     c_bands:  1 eigenvalues not converged
     ethr =  8.60E-10,  avg # of iterations = 11.6

     negative rho (up, down):  1.579E-02 0.000E+00
 
     Adding external electric field

     Computed dipole along edir(3) : 
        Dipole                1.0216 Ry au,          2.5965 Debye
        Dipole field          0.0019 Ry au, 
 
        Potential amp.       -0.1787 Ry
        Total length         46.3494 bohr
 

     total cpu time spent up to now is     1108.1 secs

     total energy              =   -2975.10522905 Ry
     estimated scf accuracy    <       0.00000111 Ry

     iteration # 64     ecut=    29.40 Ry     beta= 0.05
     Davidson diagonalization with overlap
     c_bands:  1 eigenvalues not converged
     c_bands:  1 eigenvalues not converged
     ethr =  2.75E-10,  avg # of iterations = 11.8

     negative rho (up, down):  1.573E-02 0.000E+00
 
     Adding external electric field

     Computed dipole along edir(3) : 
        Dipole                1.0208 Ry au,          2.5947 Debye
        Dipole field          0.0019 Ry au, 
 
        Potential amp.       -0.1786 Ry
        Total length         46.3494 bohr
 

     total cpu time spent up to now is     1124.2 secs

     total energy              =   -2975.10523333 Ry
     estimated scf accuracy    <       0.00000087 Ry

     iteration # 65     ecut=    29.40 Ry     beta= 0.05
     Davidson diagonalization with overlap
     ethr =  2.15E-10,  avg # of iterations =  5.8

     negative rho (up, down):  1.576E-02 0.000E+00
 
     Adding external electric field

     Computed dipole along edir(3) : 
        Dipole                1.0213 Ry au,          2.5958 Debye
        Dipole field          0.0019 Ry au, 
 
        Potential amp.       -0.1787 Ry
        Total length         46.3494 bohr
 

     total cpu time spent up to now is     1137.4 secs

     total energy              =   -2975.10523731 Ry
     estimated scf accuracy    <       0.00000051 Ry

     iteration # 66     ecut=    29.40 Ry     beta= 0.05
     Davidson diagonalization with overlap
     ethr =  1.25E-10,  avg # of iterations =  4.2

     negative rho (up, down):  1.574E-02 0.000E+00
 
     Adding external electric field

     Computed dipole along edir(3) : 
        Dipole                1.0212 Ry au,          2.5957 Debye
        Dipole field          0.0019 Ry au, 
 
        Potential amp.       -0.1786 Ry
        Total length         46.3494 bohr
 

     total cpu time spent up to now is     1149.9 secs

     total energy              =   -2975.10524080 Ry
     estimated scf accuracy    <       0.00000026 Ry

     iteration # 67     ecut=    29.40 Ry     beta= 0.05
     Davidson diagonalization with overlap
     c_bands:  1 eigenvalues not converged
     ethr =  6.33E-11,  avg # of iterations = 15.0

     negative rho (up, down):  1.574E-02 0.000E+00
 
     Adding external electric field

     Computed dipole along edir(3) : 
        Dipole                1.0211 Ry au,          2.5954 Debye
        Dipole field          0.0019 Ry au, 
 
        Potential amp.       -0.1786 Ry
        Total length         46.3494 bohr
 

     total cpu time spent up to now is     1168.2 secs

     total energy              =   -2975.10524397 Ry
     estimated scf accuracy    <       0.00000019 Ry

     iteration # 68     ecut=    29.40 Ry     beta= 0.05
     Davidson diagonalization with overlap
     ethr =  4.73E-11,  avg # of iterations =  8.8

     negative rho (up, down):  1.572E-02 0.000E+00
 
     Adding external electric field

     Computed dipole along edir(3) : 
        Dipole                1.0207 Ry au,          2.5944 Debye
        Dipole field          0.0019 Ry au, 
 
        Potential amp.       -0.1786 Ry
        Total length         46.3494 bohr
 

     total cpu time spent up to now is     1181.5 secs

     total energy              =   -2975.10524680 Ry
     estimated scf accuracy    <       0.00000011 Ry

     iteration # 69     ecut=    29.40 Ry     beta= 0.05
     Davidson diagonalization with overlap
     ethr =  2.70E-11,  avg # of iterations =  7.4

     negative rho (up, down):  1.573E-02 0.000E+00
 
     Adding external electric field

     Computed dipole along edir(3) : 
        Dipole                1.0207 Ry au,          2.5945 Debye
        Dipole field          0.0019 Ry au, 
 
        Potential amp.       -0.1786 Ry
        Total length         46.3494 bohr
 

     total cpu time spent up to now is     1194.9 secs

     total energy              =   -2975.10524932 Ry
     estimated scf accuracy    <       0.00000012 Ry

     iteration # 70     ecut=    29.40 Ry     beta= 0.05
     Davidson diagonalization with overlap
     ethr =  2.70E-11,  avg # of iterations =  8.5

     negative rho (up, down):  1.579E-02 0.000E+00
 
     Adding external electric field

     Computed dipole along edir(3) : 
        Dipole                1.0202 Ry au,          2.5930 Debye
        Dipole field          0.0019 Ry au, 
 
        Potential amp.       -0.1785 Ry
        Total length         46.3494 bohr
 

     total cpu time spent up to now is     1210.6 secs

     End of self-consistent calculation

          k = 0.0000 0.0000 0.0000 ( 18029 PWs)   bands (ev):

   -55.3871 -55.3513 -55.3472 -55.3131 -55.3097 -55.3042 -55.2691 -55.2338
   -55.2187 -55.1839 -55.1770 -55.1619 -55.1433 -55.1142 -54.3786 -54.3446
   -31.9461 -31.8820 -31.8399 -31.7587 -31.7098 -31.7073 -31.6829 -31.6801
   -31.6360 -31.6002 -31.5930 -31.5918 -31.5847 -31.5814 -31.5631 -31.5611
   -31.5364 -31.5284 -31.5255 -31.5142 -31.4999 -31.4933 -31.4744 -31.4697
   -31.4613 -31.4483 -31.4476 -31.4189 -31.4045 -31.4007 -31.3976 -31.3754
   -31.3716 -31.3675 -31.3640 -31.3428 -31.3318 -31.3197 -31.3049 -31.3047
   -31.2945 -31.2881 -30.7881 -30.6936 -30.6715 -30.6045 -30.5177 -30.4068
   -18.8780 -18.4851 -16.2219 -15.9746 -15.8385 -15.7341 -15.5967 -15.4985
   -15.3893 -15.2760 -15.2530 -15.1590 -15.0849 -15.0812 -15.0440 -15.0181
   -14.9555 -14.9342 -14.9104 -14.9044 -14.8899 -14.8796 -14.8431 -14.8322
   -14.7989 -14.7883 -14.7710 -14.6473 -14.6281 -14.5537 -14.4831 -14.3456
   -12.8810 -12.7635  -9.8326  -6.9974  -6.4004  -6.0848  -4.4263  -3.7300
    -3.5454  -3.4121  -3.3337  -3.3044  -3.2874  -3.1559  -3.0652  -2.9040
    -2.8653  -2.8089  -2.6755  -2.5997  -2.5932  -2.5055  -2.4328  -2.4095
    -2.3767  -2.2674  -2.2611  -2.2118  -2.1940  -2.1709  -2.1616  -2.1150
    -2.0688  -2.0417  -1.9566  -1.8551  -1.8119  -1.7915  -1.7553  -1.7325
    -1.7278  -1.6842  -1.6780  -1.6543  -1.6157  -1.5914  -1.5457  -1.4338
    -1.3957  -1.2343  -1.1965  -1.0422  -1.0220  -0.9827  -0.9617  -0.9234
    -0.8953  -0.8790  -0.8627  -0.7740  -0.7157  -0.6494  -0.5854  -0.4955
    -0.4842  -0.4093  -0.3844  -0.3192  -0.2329  -0.1872  -0.1775  -0.1529
    -0.1496  -0.0358   0.0092   0.0693   0.0880   0.1453   0.1614   0.1836
     0.2535   0.3069   0.3766   0.4070   0.4864   0.5046   0.5397   0.5489
     0.5812   0.5917   0.6677   0.6827   0.7108   0.8136   0.9111   1.0048
     1.2147   1.2166   1.2579   1.5491   1.5512   1.6444   1.8278   2.2208
     2.2692   3.7027   3.7811   3.8306   3.8483   3.8528   3.9376   4.1922
     4.2065   4.2192   4.2254   4.2662

          k = 0.0000 0.0419 0.0000 ( 17933 PWs)   bands (ev):

   -55.3818 -55.3565 -55.3422 -55.3180 -55.3087 -55.3033 -55.2641 -55.2385
   -55.2138 -55.1887 -55.1720 -55.1628 -55.1481 -55.1150 -54.3736 -54.3495
   -31.8894 -31.8429 -31.7859 -31.7038 -31.6702 -31.6586 -31.6541 -31.6403
   -31.6311 -31.6172 -31.5997 -31.5886 -31.5871 -31.5761 -31.5658 -31.5558
   -31.5512 -31.5366 -31.5321 -31.5179 -31.4995 -31.4982 -31.4859 -31.4786
   -31.4770 -31.4443 -31.4418 -31.4293 -31.4221 -31.4206 -31.4182 -31.4080
   -31.3878 -31.3708 -31.3667 -31.3637 -31.3593 -31.3504 -31.3421 -31.3355
   -31.3152 -31.3009 -30.7339 -30.6902 -30.6745 -30.5918 -30.5303 -30.4639
   -18.8752 -18.4869 -16.0983 -15.8657 -15.7602 -15.6540 -15.4924 -15.4327
   -15.3449 -15.2863 -15.2305 -15.1996 -15.1311 -15.0916 -15.0508 -15.0362
   -14.9916 -14.9614 -14.9376 -14.9026 -14.8928 -14.8784 -14.8781 -14.8449
   -14.8340 -14.8306 -14.7656 -14.6870 -14.6572 -14.6090 -14.5429 -14.4446
   -12.8845 -12.8027  -9.8374  -7.0041  -6.4041  -6.0501  -4.4452  -3.6966
    -3.3625  -3.2438  -3.1999  -3.1617  -3.1122  -3.0151  -2.9840  -2.7521
    -2.7299  -2.6863  -2.6234  -2.5574  -2.5409  -2.4824  -2.4514  -2.4190
    -2.4104  -2.3582  -2.3409  -2.3145  -2.2761  -2.2390  -2.1904  -2.1635
    -2.1448  -2.0957  -2.0644  -1.9954  -1.9826  -1.9617  -1.9461  -1.9304
    -1.8265  -1.7999  -1.7200  -1.6703  -1.5561  -1.4460  -1.4187  -1.3401
    -1.2558  -1.2114  -1.1540  -1.0903  -1.0020  -0.9632  -0.8464  -0.7808
    -0.7544  -0.7102  -0.7063  -0.6780  -0.6612  -0.6024  -0.5637  -0.4755
    -0.4015  -0.3859  -0.3465  -0.3299  -0.3148  -0.2409  -0.2178  -0.2014
    -0.1208  -0.0698  -0.0294  -0.0019   0.0522   0.0693   0.0980   0.1760
     0.1972   0.2562   0.3131   0.3526   0.3608   0.3952   0.4145   0.4260
     0.5373   0.5808   0.6132   0.6366   0.7209   0.7833   0.8665   0.9000
     0.9190   1.0827   1.2497   1.2526   1.4264   1.8279   1.9037   2.1757
     2.1795   3.8971   3.9091   3.9385   3.9957   4.0767   4.1015   4.1140
     4.1405   4.1883   4.2088   4.2645

          k = 0.0000-0.0839 0.0000 ( 17884 PWs)   bands (ev):

   -55.3703 -55.3679 -55.3301 -55.3300 -55.3076 -55.3025 -55.2552 -55.2474
   -55.2045 -55.1979 -55.1638 -55.1609 -55.1592 -55.1159 -54.3615 -54.3615
   -31.7962 -31.7580 -31.7438 -31.6535 -31.6533 -31.6398 -31.6282 -31.6212
   -31.6211 -31.5886 -31.5745 -31.5690 -31.5668 -31.5644 -31.5592 -31.5591
   -31.5481 -31.5469 -31.5312 -31.5248 -31.5241 -31.5177 -31.5019 -31.4809
   -31.4674 -31.4659 -31.4643 -31.4605 -31.4553 -31.4522 -31.4521 -31.4374
   -31.4284 -31.4279 -31.4222 -31.3806 -31.3604 -31.3577 -31.3575 -31.3409
   -31.3397 -31.2979 -30.6821 -30.6821 -30.6008 -30.6006 -30.5611 -30.5610
   -18.8724 -18.4887 -15.8905 -15.7490 -15.6058 -15.5489 -15.4286 -15.4166
   -15.3919 -15.3132 -15.2341 -15.2129 -15.2082 -15.1732 -15.0434 -15.0032
   -14.9946 -14.9833 -14.9772 -14.9480 -14.9184 -14.8980 -14.8334 -14.8140
   -14.8046 -14.8018 -14.7466 -14.7399 -14.7093 -14.6881 -14.6856 -14.5660
   -12.8654 -12.8653  -9.8423  -7.0110  -6.4069  -6.0169  -4.4630  -3.6720
    -3.0498  -2.9622  -2.9528  -2.8552  -2.8334  -2.8201  -2.7993  -2.7834
    -2.7297  -2.6711  -2.6698  -2.6009  -2.5922  -2.5604  -2.5529  -2.5381
    -2.5133  -2.4554  -2.4123  -2.3913  -2.3079  -2.2880  -2.2620  -2.2511
    -2.2435  -2.2126  -2.1663  -2.1416  -2.0368  -2.0041  -1.8494  -1.8354
    -1.7648  -1.7616  -1.5981  -1.5560  -1.5282  -1.4770  -1.3370  -1.2212
    -1.1857  -1.1704  -1.1618  -1.1439  -0.9390  -0.9131  -0.8755  -0.8686
    -0.8492  -0.8272  -0.7857  -0.7806  -0.7784  -0.6465  -0.5792  -0.5694
    -0.4870  -0.4187  -0.3427  -0.2777  -0.1437  -0.1133  -0.0870  -0.0390
    -0.0200  -0.0108   0.0122   0.0215   0.0595   0.0988   0.1202   0.1261
     0.1493   0.1930   0.2309   0.2350   0.2776   0.3112   0.3489   0.3600
     0.3921   0.3927   0.4179   0.4322   0.7181   0.7763   0.8156   0.8161
     0.9533   0.9797   1.1684   1.1760   1.2417   1.9693   1.9706   2.1114
     2.1115   3.9814   3.9953   4.0355   4.0544   4.1004   4.1276   4.1836
     4.1907   4.2739   4.2870   4.3150

          k = 0.0380 0.0000 0.0000 ( 17913 PWs)   bands (ev):

   -55.3870 -55.3512 -55.3471 -55.3130 -55.3092 -55.3045 -55.2690 -55.2337
   -55.2185 -55.1838 -55.1770 -55.1618 -55.1432 -55.1142 -54.3785 -54.3445
   -31.9462 -31.8821 -31.8408 -31.7640 -31.7135 -31.7113 -31.6833 -31.6799
   -31.6358 -31.5929 -31.5918 -31.5854 -31.5827 -31.5810 -31.5610 -31.5473
   -31.5362 -31.5270 -31.5202 -31.4979 -31.4935 -31.4932 -31.4817 -31.4695
   -31.4652 -31.4610 -31.4481 -31.4189 -31.4042 -31.4000 -31.3901 -31.3861
   -31.3752 -31.3714 -31.3670 -31.3389 -31.3305 -31.3192 -31.3112 -31.3046
   -31.2949 -31.2884 -30.7876 -30.6971 -30.6695 -30.6043 -30.5176 -30.4065
   -18.8762 -18.4865 -16.1424 -15.8937 -15.8442 -15.6705 -15.5202 -15.4824
   -15.3995 -15.3011 -15.2573 -15.2181 -15.1922 -15.1649 -15.0907 -15.0807
   -15.0651 -14.9959 -14.9120 -14.9057 -14.8840 -14.8421 -14.8267 -14.7925
   -14.7510 -14.7015 -14.6566 -14.6514 -14.6289 -14.6170 -14.5697 -14.3452
   -12.8776 -12.7632  -9.8329  -7.0056  -6.3921  -6.0686  -4.4244  -3.7105
    -3.4145  -3.3073  -3.1793  -3.1306  -3.0438  -3.0224  -3.0015  -2.9282
    -2.8780  -2.8606  -2.8180  -2.7561  -2.7129  -2.5307  -2.4714  -2.4560
    -2.3840  -2.2587  -2.1823  -2.1523  -2.1504  -2.0927  -2.0575  -2.0484
    -2.0136  -1.9843  -1.9149  -1.8227  -1.7839  -1.7480  -1.7329  -1.7176
    -1.7051  -1.6477  -1.6389  -1.6084  -1.5525  -1.4734  -1.4476  -1.3705
    -1.3116  -1.2336  -1.2057  -1.0888  -1.0404  -1.0244  -0.9830  -0.9313
    -0.9153  -0.8939  -0.8268  -0.8101  -0.8025  -0.7425  -0.7040  -0.6627
    -0.4719  -0.4290  -0.3748  -0.3256  -0.2971  -0.2640  -0.1982  -0.1464
    -0.1237  -0.1029  -0.0298   0.0027   0.0450   0.0807   0.1327   0.1638
     0.2145   0.2910   0.3133   0.3396   0.3620   0.3877   0.4254   0.4656
     0.5141   0.5581   0.5753   0.6173   0.6512   0.7201   0.7786   0.8105
     1.0452   1.2420   1.2672   1.4120   1.5555   1.6563   1.7966   2.1081
     2.1864   3.7162   3.8057   3.9226   4.0144   4.0475   4.0953   4.1439
     4.1476   4.1942   4.2040   4.2161

          k = 0.0380 0.0419 0.0000 ( 17878 PWs)   bands (ev):

   -55.3817 -55.3564 -55.3421 -55.3180 -55.3082 -55.3037 -55.2641 -55.2385
   -55.2136 -55.1886 -55.1721 -55.1628 -55.1481 -55.1150 -54.3735 -54.3495
   -31.8896 -31.8430 -31.7867 -31.7101 -31.6717 -31.6610 -31.6583 -31.6407
   -31.6308 -31.6173 -31.5996 -31.5874 -31.5772 -31.5741 -31.5658 -31.5511
   -31.5417 -31.5319 -31.5271 -31.5180 -31.4983 -31.4846 -31.4834 -31.4810
   -31.4782 -31.4582 -31.4440 -31.4268 -31.4224 -31.4179 -31.4105 -31.4080
   -31.3968 -31.3722 -31.3704 -31.3663 -31.3658 -31.3474 -31.3418 -31.3343
   -31.3153 -31.3082 -30.7335 -30.6929 -30.6735 -30.5917 -30.5303 -30.4638
   -18.8737 -18.4879 -16.0286 -15.8159 -15.7490 -15.5773 -15.4494 -15.3887
   -15.3482 -15.2837 -15.2572 -15.2084 -15.1824 -15.1462 -15.1126 -15.0641
   -15.0424 -14.9876 -14.9594 -14.9315 -14.9257 -14.8738 -14.8592 -14.8349
   -14.8054 -14.7543 -14.7198 -14.6871 -14.6777 -14.6656 -14.6237 -14.4440
   -12.8822 -12.8030  -9.8382  -7.0122  -6.3940  -6.0327  -4.4413  -3.6763
    -3.2457  -3.1625  -3.0571  -3.0118  -2.9119  -2.8897  -2.8303  -2.7672
    -2.7376  -2.6951  -2.6657  -2.5903  -2.5270  -2.4670  -2.4162  -2.3968
    -2.3802  -2.3281  -2.2815  -2.2418  -2.2303  -2.2022  -2.1840  -2.1554
    -2.1002  -2.0900  -2.0598  -2.0251  -1.9814  -1.9066  -1.9020  -1.8646
    -1.7991  -1.7433  -1.6872  -1.6010  -1.4632  -1.4453  -1.3948  -1.3568
    -1.2264  -1.1975  -1.1274  -1.1173  -1.0102  -0.9633  -0.9122  -0.8553
    -0.8291  -0.7864  -0.7656  -0.7369  -0.7096  -0.6618  -0.6278  -0.5608
    -0.5183  -0.4896  -0.4174  -0.3687  -0.3412  -0.3230  -0.3079  -0.2002
    -0.1694  -0.1379  -0.1036  -0.0897  -0.0552  -0.0123   0.0188   0.0387
     0.0825   0.0959   0.1873   0.2225   0.2697   0.3290   0.3533   0.4466
     0.4949   0.5658   0.5899   0.6650   0.7233   0.7551   0.8120   0.8750
     1.0235   1.0357   1.1984   1.2445   1.3801   1.8388   1.9071   2.0979
     2.1612   3.8720   3.8953   3.9257   4.0483   4.0950   4.1256   4.1393
     4.1898   4.2423   4.2711   4.2996

          k = 0.0380-0.0839 0.0000 ( 17916 PWs)   bands (ev):

   -55.3703 -55.3680 -55.3301 -55.3300 -55.3072 -55.3028 -55.2553 -55.2474
   -55.2045 -55.1978 -55.1638 -55.1610 -55.1593 -55.1159 -54.3615 -54.3615
   -31.7965 -31.7583 -31.7441 -31.6542 -31.6541 -31.6401 -31.6284 -31.6212
   -31.6212 -31.5925 -31.5919 -31.5844 -31.5690 -31.5612 -31.5490 -31.5378
   -31.5361 -31.5350 -31.5309 -31.5285 -31.5258 -31.5225 -31.5022 -31.4890
   -31.4693 -31.4679 -31.4513 -31.4513 -31.4500 -31.4439 -31.4403 -31.4373
   -31.4371 -31.4307 -31.4279 -31.3816 -31.3720 -31.3693 -31.3513 -31.3409
   -31.3397 -31.3067 -30.6832 -30.6831 -30.6007 -30.6005 -30.5611 -30.5611
   -18.8721 -18.4882 -15.8665 -15.7065 -15.5634 -15.4974 -15.4130 -15.3734
   -15.3362 -15.2863 -15.2400 -15.2259 -15.1669 -15.1409 -15.0572 -15.0363
   -15.0168 -15.0128 -14.9900 -14.9666 -14.9641 -14.8878 -14.8693 -14.8530
   -14.8309 -14.8264 -14.7672 -14.7608 -14.7396 -14.7384 -14.7072 -14.5627
   -12.8652 -12.8651  -9.8421  -6.9989  -6.3919  -6.0383  -4.4510  -3.6633
    -3.0295  -2.9211  -2.9115  -2.7118  -2.6854  -2.6715  -2.6563  -2.6084
    -2.5710  -2.5626  -2.5230  -2.5022  -2.4918  -2.4730  -2.4671  -2.4482
    -2.4343  -2.3933  -2.3773  -2.3369  -2.3031  -2.2809  -2.2393  -2.2314
    -2.1705  -2.1584  -2.1107  -2.0856  -2.0501  -2.0298  -1.9405  -1.8823
    -1.7001  -1.6171  -1.5900  -1.5708  -1.4753  -1.4358  -1.3616  -1.3260
    -1.2925  -1.2621  -1.2480  -1.1984  -1.1349  -1.0832  -1.0787  -1.0486
    -0.9853  -0.9477  -0.8800  -0.7589  -0.7440  -0.6913  -0.6591  -0.6242
    -0.5151  -0.4501  -0.4113  -0.3878  -0.3423  -0.2841  -0.2325  -0.2115
    -0.1971  -0.1827  -0.1634  -0.0683  -0.0413  -0.0349  -0.0043   0.0509
     0.0781   0.0881   0.1322   0.1425   0.2559   0.3251   0.3473   0.3889
     0.4898   0.5558   0.6622   0.6689   0.6752   0.7539   0.8210   0.8449
     0.9226   0.9405   1.1566   1.1647   1.2276   1.9828   1.9840   2.1019
     2.1026   3.8805   3.9625   3.9981   4.0405   4.1179   4.1377   4.1599
     4.2087   4.2835   4.3151   4.3563

          k = 0.0380-0.0419 0.0000 ( 17876 PWs)   bands (ev):

   -55.3817 -55.3564 -55.3421 -55.3180 -55.3082 -55.3037 -55.2641 -55.2385
   -55.2136 -55.1886 -55.1721 -55.1628 -55.1481 -55.1150 -54.3735 -54.3495
   -31.8896 -31.8430 -31.7867 -31.7101 -31.6717 -31.6610 -31.6583 -31.6407
   -31.6308 -31.6173 -31.5996 -31.5874 -31.5772 -31.5741 -31.5658 -31.5512
   -31.5412 -31.5319 -31.5270 -31.5180 -31.4983 -31.4846 -31.4833 -31.4810
   -31.4783 -31.4582 -31.4440 -31.4268 -31.4224 -31.4179 -31.4105 -31.4079
   -31.3970 -31.3722 -31.3720 -31.3664 -31.3658 -31.3451 -31.3418 -31.3347
   -31.3153 -31.3084 -30.7335 -30.6929 -30.6735 -30.5917 -30.5303 -30.4638
   -18.8746 -18.4868 -16.0285 -15.8159 -15.7489 -15.5770 -15.4492 -15.3886
   -15.3481 -15.2846 -15.2567 -15.2082 -15.1814 -15.1477 -15.1159 -15.0645
   -15.0429 -14.9888 -14.9595 -14.9316 -14.9259 -14.8736 -14.8568 -14.8335
   -14.8054 -14.7546 -14.7191 -14.6869 -14.6780 -14.6642 -14.6240 -14.4443
   -12.8822 -12.8030  -9.8367  -6.9914  -6.3896  -6.0743  -4.4353  -3.6916
    -3.2453  -3.1589  -3.0288  -3.0091  -2.9016  -2.8821  -2.8299  -2.7848
    -2.7361  -2.6926  -2.6707  -2.5983  -2.5235  -2.4660  -2.4157  -2.3995
    -2.3801  -2.3295  -2.2811  -2.2396  -2.2296  -2.1962  -2.1879  -2.1561
    -2.0984  -2.0900  -2.0597  -2.0250  -1.9802  -1.9094  -1.8930  -1.8574
    -1.8127  -1.7612  -1.6924  -1.6003  -1.4757  -1.4457  -1.4171  -1.3580
    -1.2212  -1.1894  -1.1279  -1.0744  -1.0156  -0.9740  -0.9033  -0.8515
    -0.8229  -0.8025  -0.7781  -0.7391  -0.7046  -0.6654  -0.6430  -0.5615
    -0.5274  -0.4581  -0.4036  -0.3679  -0.3362  -0.3202  -0.2989  -0.2031
    -0.1631  -0.1364  -0.1026  -0.0852  -0.0454  -0.0137   0.0229   0.0427
     0.0789   0.1024   0.1883   0.2098   0.2597   0.3285   0.3492   0.4621
     0.4841   0.5706   0.5823   0.6620   0.7183   0.7547   0.8092   0.8750
     1.0232   1.0309   1.1976   1.2439   1.3810   1.8388   1.9071   2.0977
     2.1618   3.8784   3.8970   3.9251   4.0481   4.0902   4.1230   4.1397
     4.2019   4.2390   4.2753   4.2992

          k =-0.0760-0.0000 0.0000 ( 17886 PWs)   bands (ev):

   -55.3869 -55.3512 -55.3471 -55.3130 -55.3086 -55.3050 -55.2690 -55.2337
   -55.2183 -55.1837 -55.1771 -55.1618 -55.1432 -55.1141 -54.3785 -54.3445
   -31.9464 -31.8823 -31.8418 -31.7691 -31.7172 -31.7153 -31.6836 -31.6796
   -31.6357 -31.5925 -31.5918 -31.5855 -31.5816 -31.5609 -31.5574 -31.5357
   -31.5267 -31.5223 -31.5149 -31.4993 -31.4941 -31.4931 -31.4911 -31.4695
   -31.4609 -31.4606 -31.4483 -31.4202 -31.4186 -31.4045 -31.3998 -31.3815
   -31.3754 -31.3716 -31.3709 -31.3322 -31.3297 -31.3240 -31.3158 -31.3045
   -31.2955 -31.2891 -30.7872 -30.7006 -30.6681 -30.6042 -30.5175 -30.4066
   -18.8745 -18.4879 -15.9794 -15.9631 -15.7589 -15.5903 -15.4724 -15.4440
   -15.3485 -15.3268 -15.2983 -15.2723 -15.2415 -15.2310 -15.1732 -15.1485
   -15.1124 -15.0684 -14.8987 -14.8930 -14.8592 -14.8458 -14.8311 -14.7972
   -14.7801 -14.7267 -14.6698 -14.6636 -14.6412 -14.5614 -14.5288 -14.3454
   -12.8746 -12.7629  -9.8334  -7.0138  -6.3837  -6.0529  -4.4231  -3.7028
    -3.3730  -3.2897  -3.0294  -3.0265  -2.9739  -2.9278  -2.8986  -2.8580
    -2.8450  -2.8297  -2.7669  -2.7088  -2.6425  -2.6264  -2.4437  -2.3582
    -2.2570  -2.2030  -2.1626  -2.0610  -2.0409  -2.0120  -2.0053  -1.9812
    -1.9167  -1.9095  -1.8958  -1.8754  -1.8596  -1.8034  -1.7517  -1.7327
    -1.7057  -1.6853  -1.6617  -1.5997  -1.5532  -1.5024  -1.3719  -1.2867
    -1.2425  -1.1795  -1.1094  -1.0596  -1.0386  -1.0336  -1.0151  -0.9847
    -0.9617  -0.9347  -0.9142  -0.8556  -0.8370  -0.7459  -0.7131  -0.6879
    -0.6732  -0.6591  -0.5850  -0.4046  -0.3349  -0.2846  -0.2537  -0.2119
    -0.1421  -0.1152  -0.0832  -0.0397   0.0050   0.0125   0.0776   0.1069
     0.1257   0.1743   0.1888   0.2706   0.2882   0.3536   0.4060   0.4083
     0.4434   0.4581   0.4899   0.5508   0.5857   0.7311   0.8421   0.8784
     1.0937   1.1309   1.2324   1.2926   1.5600   1.6777   1.7716   1.9779
     2.1313   3.7160   3.7633   3.8545   3.9724   3.9991   4.0862   4.1259
     4.1546   4.1928   4.2035   4.2910

          k =-0.0760 0.0419 0.0000 ( 17914 PWs)   bands (ev):

   -55.3817 -55.3564 -55.3421 -55.3180 -55.3077 -55.3042 -55.2641 -55.2386
   -55.2135 -55.1886 -55.1722 -55.1628 -55.1482 -55.1150 -54.3735 -54.3495
   -31.8899 -31.8433 -31.7878 -31.7161 -31.6741 -31.6631 -31.6623 -31.6413
   -31.6309 -31.6174 -31.5995 -31.5876 -31.5768 -31.5663 -31.5566 -31.5513
   -31.5317 -31.5183 -31.5182 -31.5178 -31.5001 -31.4981 -31.4814 -31.4787
   -31.4778 -31.4487 -31.4448 -31.4273 -31.4261 -31.4224 -31.4176 -31.4132
   -31.3853 -31.3838 -31.3743 -31.3709 -31.3666 -31.3430 -31.3418 -31.3301
   -31.3198 -31.3153 -30.7332 -30.6959 -30.6728 -30.5917 -30.5304 -30.4639
   -18.8732 -18.4879 -15.9015 -15.8661 -15.6647 -15.4992 -15.3959 -15.3685
   -15.2960 -15.2869 -15.2729 -15.2333 -15.2011 -15.1876 -15.1864 -15.1213
   -15.0931 -15.0435 -14.9626 -14.9501 -14.9186 -14.8783 -14.8662 -14.8321
   -14.8179 -14.7748 -14.7719 -14.6853 -14.6704 -14.6493 -14.6359 -14.4443
   -12.8800 -12.8033  -9.8376  -6.9999  -6.3799  -6.0564  -4.4315  -3.6775
    -3.2170  -3.1430  -3.0003  -2.8286  -2.7654  -2.7492  -2.6692  -2.6540
    -2.6417  -2.6137  -2.5904  -2.5318  -2.4579  -2.4259  -2.3837  -2.3520
    -2.3496  -2.2935  -2.2858  -2.2165  -2.2120  -2.1511  -2.1063  -2.0722
    -2.0639  -2.0486  -1.9966  -1.9594  -1.9520  -1.9324  -1.9115  -1.8586
    -1.8011  -1.6290  -1.5960  -1.5514  -1.5176  -1.4838  -1.3901  -1.2832
    -1.2319  -1.1876  -1.1615  -1.0699  -1.0333  -1.0053  -0.9876  -0.9680
    -0.8906  -0.8706  -0.8293  -0.7887  -0.7733  -0.7437  -0.7194  -0.6754
    -0.6359  -0.6176  -0.6021  -0.5708  -0.4773  -0.4657  -0.4059  -0.3843
    -0.3604  -0.2208  -0.1920  -0.1752  -0.1481  -0.1076  -0.0968  -0.0823
     0.0568   0.0635   0.0948   0.1915   0.2167   0.3273   0.3545   0.4234
     0.5097   0.5537   0.5753   0.7202   0.7727   0.8664   0.8775   0.9369
     1.0173   1.1004   1.1202   1.2327   1.2566   1.8540   1.9092   2.0200
     2.1503   3.8792   3.8933   3.9055   3.9287   4.0143   4.0924   4.1058
     4.1734   4.2200   4.2763   4.3445

          k =-0.0760-0.0839 0.0000 ( 17948 PWs)   bands (ev):

   -55.3703 -55.3679 -55.3301 -55.3300 -55.3068 -55.3033 -55.2553 -55.2475
   -55.2044 -55.1977 -55.1638 -55.1611 -55.1594 -55.1160 -54.3616 -54.3615
   -31.7967 -31.7586 -31.7445 -31.6550 -31.6549 -31.6405 -31.6284 -31.6213
   -31.6212 -31.6003 -31.5952 -31.5921 -31.5692 -31.5614 -31.5496 -31.5357
   -31.5325 -31.5299 -31.5259 -31.5179 -31.5130 -31.5111 -31.5101 -31.5024
   -31.4705 -31.4691 -31.4499 -31.4498 -31.4494 -31.4446 -31.4417 -31.4373
   -31.4279 -31.4165 -31.4108 -31.3940 -31.3922 -31.3823 -31.3410 -31.3400
   -31.3395 -31.3207 -30.6842 -30.6842 -30.6007 -30.6005 -30.5611 -30.5611
   -18.8719 -18.4878 -15.8413 -15.6548 -15.5034 -15.4315 -15.4113 -15.3281
   -15.2728 -15.2696 -15.1964 -15.1784 -15.1659 -15.1443 -15.1347 -15.0873
   -15.0502 -15.0135 -14.9948 -14.9721 -14.9289 -14.9063 -14.9047 -14.8979
   -14.8902 -14.8498 -14.8446 -14.8413 -14.7496 -14.7477 -14.7069 -14.5598
   -12.8650 -12.8649  -9.8419  -6.9862  -6.3762  -6.0607  -4.4391  -3.6564
    -3.0277  -2.9129  -2.9024  -2.6743  -2.6550  -2.5940  -2.5814  -2.4935
    -2.4778  -2.4172  -2.3936  -2.3438  -2.3206  -2.2828  -2.2689  -2.2473
    -2.2261  -2.2124  -2.1862  -2.1697  -2.1528  -2.1331  -2.1221  -2.1108
    -2.0553  -2.0498  -2.0411  -2.0156  -1.9927  -1.9564  -1.9465  -1.9300
    -1.7748  -1.7597  -1.7385  -1.6022  -1.5979  -1.5634  -1.5236  -1.4961
    -1.4391  -1.4296  -1.4020  -1.3443  -1.1487  -1.1387  -1.1263  -1.1082
    -1.0371  -0.9827  -0.9685  -0.9502  -0.8965  -0.8184  -0.7836  -0.7322
    -0.6418  -0.5908  -0.5813  -0.5556  -0.4343  -0.4115  -0.3686  -0.3508
    -0.3345  -0.3001  -0.2985  -0.2419  -0.1889  -0.1530  -0.1301  -0.1158
    -0.0788   0.0760   0.1279   0.1441   0.2588   0.2879   0.4661   0.5086
     0.5303   0.6354   0.7189   0.7469   0.7612   0.8870   0.9090   0.9114
     0.9797   1.0019   1.0620   1.0677   1.2150   2.0005   2.0018   2.0890
     2.0893   3.8278   3.9507   3.9949   4.0307   4.1068   4.1594   4.2165
     4.2755   4.2872   4.2906   4.3574

     the Fermi energy is     3.7648 ev

!    total energy              =   -2975.10527260 Ry
     estimated scf accuracy    <       0.00000003 Ry
     smearing contrib. (-TS)   =      -0.03671861 Ry
     internal energy E=F+TS    =   -2975.06855399 Ry

     The total energy is F=E-TS. E is the sum of the following terms:
     one-electron contribution =  -23505.91688473 Ry
     hartree contribution      =   11848.95309973 Ry
     xc contribution           =    -494.92212637 Ry
     ewald contribution        =    9176.81539335 Ry
     electric field correction =       0.00196403 Ry

     convergence has been achieved in  70 iterations

     Forces acting on atoms (cartesian axes, Ry/au):

     atom    1 type  1   force =     0.00002832   -0.00025114    0.09309880
     atom    2 type  1   force =    -0.00018202   -0.00032225   -0.17837990
     atom    3 type  2   force =     0.00006131   -0.00017129   -0.02024474
     atom    4 type  2   force =     0.00001759   -0.00203717    0.05925356
     atom    5 type  2   force =    -0.01033015   -0.00110220    0.00808849
     atom    6 type  2   force =     0.01217603   -0.00054675    0.00816825
     atom    7 type  1   force =     0.00014960    0.00329148   -0.01111751
     atom    8 type  1   force =    -0.00030360    0.00052850   -0.00562246
     atom    9 type  2   force =     0.00004159    0.00017639   -0.00014678
     atom   10 type  2   force =    -0.00146434   -0.00003676   -0.00172039
     atom   11 type  2   force =     0.00037686   -0.00003858   -0.00006466
     atom   12 type  2   force =    -0.00009505    0.00010118   -0.00009422
     atom   13 type  1   force =    -0.00009678   -0.00017114   -0.00023993
     atom   14 type  1   force =    -0.00021414   -0.00036737    0.00035277
     atom   15 type  2   force =     0.00006970   -0.00049783    0.00007378
     atom   16 type  2   force =     0.00022116    0.00008669    0.00023966
     atom   17 type  2   force =     0.00037275   -0.00013705    0.00013657
     atom   18 type  2   force =    -0.00005520   -0.00015922   -0.00015876
     atom   19 type  1   force =    -0.00029351   -0.00055908   -0.00002340
     atom   20 type  1   force =     0.00012308    0.00032326    0.00062127
     atom   21 type  2   force =    -0.00000252   -0.00007497    0.10402965
     atom   22 type  2   force =    -0.00013271   -0.00005856   -0.00014708
     atom   23 type  2   force =    -0.07035073   -0.00016304   -0.02683395
     atom   24 type  2   force =     0.07021922    0.00028312   -0.02691100
     atom   25 type  1   force =     0.00002378   -0.00015891    0.09276107
     atom   26 type  1   force =    -0.00015780   -0.00039810   -0.17832469
     atom   27 type  2   force =     0.00011188   -0.00030804   -0.01918402
     atom   28 type  2   force =     0.00004671   -0.00163427    0.05840362
     atom   29 type  2   force =    -0.01028408   -0.00064226    0.00729435
     atom   30 type  2   force =     0.01201960   -0.00031057    0.00742861
     atom   31 type  1   force =     0.00007624    0.00515264   -0.01465740
     atom   32 type  1   force =    -0.00013664   -0.00051501   -0.00596582
     atom   33 type  2   force =     0.00012894   -0.00039334   -0.00023282
     atom   34 type  2   force =    -0.00078745    0.00260689   -0.00104346
     atom   35 type  2   force =    -0.00007108   -0.00011167   -0.00012850
     atom   36 type  2   force =     0.00023839    0.00000406   -0.00015542
     atom   37 type  1   force =    -0.00044455    0.00008065    0.00003412
     atom   38 type  1   force =    -0.00002791   -0.00023949   -0.00023597
     atom   39 type  2   force =    -0.00030304   -0.00019949   -0.00018454
     atom   40 type  2   force =    -0.00013451   -0.00005675   -0.00004382
     atom   41 type  2   force =    -0.00017133   -0.00012670    0.00044242
     atom   42 type  2   force =    -0.00003010   -0.00020875    0.00020054
     atom   43 type  1   force =     0.00004619   -0.00010099   -0.00004509
     atom   44 type  1   force =     0.00000585   -0.00001561    0.00020534
     atom   45 type  2   force =     0.00000980   -0.00011108    0.10400079
     atom   46 type  2   force =    -0.07037284   -0.00011621   -0.02685541
     atom   47 type  2   force =     0.07021989    0.00031841   -0.02691548
     atom   48 type  3   force =     0.00011300    0.00096716    0.00039878
     atom   49 type  3   force =    -0.00094698   -0.00086360    0.00015149
     atom   50 type  4   force =     0.00038796    0.00085656    0.00054379
     atom   51 type  5   force =     0.00000529   -0.00062295   -0.00039702
     atom   52 type  5   force =    -0.00009857   -0.00099948   -0.00025045
     atom   53 type  5   force =    -0.00006967    0.00003856    0.00003742
     atom   54 type  5   force =     0.00021556    0.00055072   -0.00003602
     atom   55 type  2   force =     0.00245306    0.00546756   -0.00310514
     atom   56 type  5   force =     0.00021918   -0.00024251   -0.00051111
     atom   57 type  5   force =    -0.00262126   -0.00576364    0.00401180

     Total force =     0.366342     Total SCF correction =     0.000400
  @ DRIVER MODE: Message from server: STATUS
  @ DRIVER MODE: Message from server: GETFORCE
  @ DRIVER MODE: Returning v,forces,stress,ensemble 

     Writing output data file ./calc.save/
  @ DRIVER MODE: Message from server: EXIT
  @ DRIVE MODE: Exiting  
 
     init_run     :     10.95s CPU     11.23s WALL (       1 calls)
     electrons    :   1182.30s CPU   1199.10s WALL (       1 calls)
     forces       :      2.48s CPU      2.57s WALL (       1 calls)

     Called by init_run:
     wfcinit      :      4.90s CPU      5.00s WALL (       1 calls)
     potinit      :      5.38s CPU      5.46s WALL (       1 calls)
     hinit0       :      0.30s CPU      0.32s WALL (       1 calls)

     Called by electrons:
     c_bands      :   1012.00s CPU   1019.01s WALL (      70 calls)
     sum_band     :    115.27s CPU    119.22s WALL (      70 calls)
     v_of_rho     :     41.23s CPU     43.26s WALL (      71 calls)
     newd         :     16.81s CPU     20.52s WALL (      71 calls)
     mix_rho      :      1.54s CPU      1.62s WALL (      70 calls)
     vdW_kernel   :      4.54s CPU      4.55s WALL (       1 calls)

     Called by c_bands:
     init_us_2    :      8.02s CPU      8.06s WALL (    1420 calls)
     cegterg      :    991.57s CPU    998.25s WALL (     713 calls)

     Called by *egterg:
     cdiaghg      :    161.44s CPU    162.20s WALL (    7267 calls)
     h_psi        :    520.63s CPU    525.23s WALL (    7280 calls)
     s_psi        :     71.36s CPU     71.59s WALL (    7280 calls)
     g_psi        :      2.08s CPU      2.10s WALL (    6557 calls)

     Called by h_psi:
     h_psi:calbec :     67.48s CPU     67.79s WALL (    7280 calls)
     vloc_psi     :    376.28s CPU    379.95s WALL (    7280 calls)
     add_vuspsi   :     72.77s CPU     73.20s WALL (    7280 calls)

     General routines
     calbec       :     87.87s CPU     88.25s WALL (    8020 calls)
     fft          :     21.43s CPU     21.57s WALL (    4473 calls)
     ffts         :      0.13s CPU      0.13s WALL (     141 calls)
     fftw         :    419.29s CPU    423.38s WALL ( 1006530 calls)
     interpolate  :      0.46s CPU      0.46s WALL (      71 calls)
     davcio       :      0.01s CPU      0.56s WALL (      10 calls)
 
     Parallel routines
 
     PWSCF        :  19m56.03s CPU  20m14.55s WALL

 
   This run was terminated on:  13:50:18  23Sep2021            

=------------------------------------------------------------------------------=
   JOB DONE.
=------------------------------------------------------------------------------=
