
     Program PWSCF v.6.7GPU starts on 15Sep2021 at 18:27:21 

     This program is part of the open-source Quantum ESPRESSO suite
     for quantum simulation of materials; please cite
         "P. Giannozzi et al., J. Phys.:Condens. Matter 21 395502 (2009);
         "P. Giannozzi et al., J. Phys.:Condens. Matter 29 465901 (2017);
         "P. Giannozzi et al., J. Chem. Phys. 152 154105 (2020);
          URL http://www.quantum-espresso.org", 
     in publications or presentations arising from this work. More details at
     http://www.quantum-espresso.org/quote

     Parallel version (MPI), running on    10 processors

     MPI processes distributed on     1 nodes
     R & G space division:  proc/nbgrp/npool/nimage =      10
     Reading input from /storage/home/hcoda1/3/ntian30/research/carbon/CxH_vib/H2O_calc/ads_slab/CH3NHH2O_a/out_0009/pw.inp
Warning: card &CELL ignored
Warning: card   CELL_DYNAMICS='IPI', ignored
Warning: card / ignored

     Current dimensions of program PWSCF are:
     Max number of different atomic species (ntypx) = 10
     Max number of k-points (npk) =  40000
     Max angular momentum in pseudopotentials (lmaxx) =  3
     Presently no symmetry can be used with electric field

     Message from routine cell_base_init:
     DEPRECATED: use true lattice parameter, not A to a.u. conversion factor

     **************************************************************************
     Initializing libbeef V0.1.2 with the BEEF-vdW functional.
     Citation: Wellendorff et al., PRB 85, 235149 (2012).
     **************************************************************************


     IMPORTANT: XC functional enforced from input :
     Exchange-correlation= BEEF-VDW
                           (   1   4  43  14   2   0   0)
     Any further DFT definition will be discarded
     Please, verify this is what you really want


     Subspace diagonalization in iterative solution of the eigenvalue problem:
     one sub-group per band group will be used
     scalapack distributed-memory algorithm (size of sub-group:  3*  3 procs)

  @ DRIVER MODE: Connecting to 
 qe_1139763_2852633.sched-torque.pace.gatech.edul4lc1e8z_scratch
  using UNIX socket
  @ DRIVER MODE: Message from server: STATUS
  @ DRIVER MODE: Message from server: INIT
  @ DRIVER MODE: Receiving replica           0          -1
  @ DRIVER MODE: Receiving encoded integer          25
  @ DRIVER MODE:  SCF:  T  FORCE:  T  STRESS:  F  VC:  F  ENSEMBLE:  F
  @ DRIVER MODE:  SCF:  T  FORCE:  T  STRESS:  F  VC:  F  ENSEMBLE:  F
 
     Parallelization info
     --------------------
     sticks:   dense  smooth     PW     G-vecs:    dense   smooth      PW
     Min         327     131     37                56683    14340    2191
     Max         328     133     38                56694    14346    2206
     Sum        3275    1317    379               566857   143421   21985
 
     Using Slab Decomposition
 


     bravais-lattice index     =            0
     lattice parameter (alat)  =       1.8897  a.u.
     unit-cell volume          =    6658.9804 (a.u.)^3
     number of atoms/cell      =           56
     number of atomic types    =            5
     number of electrons       =       399.00
     number of Kohn-Sham states=          209
     kinetic-energy cutoff     =      29.3995  Ry
     charge density cutoff     =     293.9946  Ry
     scf convergence threshold =      7.3E-08
     mixing beta               =       0.0500
     number of iterations used =            8  plain     mixing
     Exchange-correlation= BEEF-VDW
                           (   1   4  43  14   2   0   0)

     celldm(1)=   1.889726  celldm(2)=   0.000000  celldm(3)=   0.000000
     celldm(4)=   0.000000  celldm(5)=   0.000000  celldm(6)=   0.000000

     crystal axes: (cart. coord. in units of alat)
               a(1) = (   6.579727   0.000000   0.000000 )  
               a(2) = (  -0.000775   5.961596   0.000000 )  
               a(3) = (   0.000000   0.000000  25.155947 )  

     reciprocal axes: (cart. coord. in units 2 pi/alat)
               b(1) = (  0.151982  0.000020  0.000000 )  
               b(2) = (  0.000000  0.167740  0.000000 )  
               b(3) = (  0.000000  0.000000  0.039752 )  


     PseudoPot. # 1 for Ti read from file:
     /storage/coda1/p-amedford6/0/shared/rich_project_chbe-medford/medford-share/data/pseudos_module/espresso/nninc/pbe/van/Ti.UPF
     MD5 check sum: 8e4df49b7f0d34bbd5052bf3f5ea0213
     Pseudo is Ultrasoft, Zval = 12.0
     Generated by new atomic code, or converted to UPF format
     Using radial grid of  851 points,  6 beta functions with: 
                l(1) =   0
                l(2) =   0
                l(3) =   1
                l(4) =   1
                l(5) =   2
                l(6) =   2
     Q(r) pseudized with  8 coefficients,  rinner =    1.000   1.000   1.000
                                                       1.000   1.000

     PseudoPot. # 2 for O  read from file:
     /storage/coda1/p-amedford6/0/shared/rich_project_chbe-medford/medford-share/data/pseudos_module/espresso/nninc/pbe/van/O.UPF
     MD5 check sum: 78c19812648e8988a0fe644b0f25305e
     Pseudo is Ultrasoft, Zval =  6.0
     Generated by new atomic code, or converted to UPF format
     Using radial grid of  737 points,  4 beta functions with: 
                l(1) =   0
                l(2) =   0
                l(3) =   1
                l(4) =   1
     Q(r) pseudized with  8 coefficients,  rinner =    0.800   0.800   0.800


     PseudoPot. # 3 for H  read from file:
     /storage/coda1/p-amedford6/0/shared/rich_project_chbe-medford/medford-share/data/pseudos_module/espresso/nninc/pbe/van/H.UPF
     MD5 check sum: b5ee9d7bfd3a09ee7748110bda690ff7
     Pseudo is Ultrasoft, Zval =  1.0
     Generated by new atomic code, or converted to UPF format
     Using radial grid of  615 points,  1 beta functions with: 
                l(1) =   0
     Q(r) pseudized with  8 coefficients,  rinner =    0.800

     PseudoPot. # 4 for N  read from file:
     /storage/coda1/p-amedford6/0/shared/rich_project_chbe-medford/medford-share/data/pseudos_module/espresso/nninc/pbe/van/N.UPF
     MD5 check sum: 90d10febe142ad51ac9d5be1deb811c4
     Pseudo is Ultrasoft, Zval =  5.0
     Generated by new atomic code, or converted to UPF format
     Using radial grid of  729 points,  4 beta functions with: 
                l(1) =   0
                l(2) =   0
                l(3) =   1
                l(4) =   1
     Q(r) pseudized with  8 coefficients,  rinner =    0.800   0.800   0.800


     PseudoPot. # 5 for C  read from file:
     /storage/coda1/p-amedford6/0/shared/rich_project_chbe-medford/medford-share/data/pseudos_module/espresso/nninc/pbe/van/C.UPF
     MD5 check sum: 1a69bf6b8db32088f5b2163dbdb77a27
     Pseudo is Ultrasoft, Zval =  4.0
     Generated by new atomic code, or converted to UPF format
     Using radial grid of  721 points,  4 beta functions with: 
                l(1) =   0
                l(2) =   0
                l(3) =   1
                l(4) =   1
     Q(r) pseudized with  8 coefficients,  rinner =    0.800   0.800   0.800


     atomic species   valence    mass     pseudopotential
        Ti1           12.00    47.86700     Ti( 1.00)
        O1             6.00    15.99900     O ( 1.00)
        H1             1.00     1.00800     H ( 1.00)
        N1             5.00    14.00700     N ( 1.00)
        C1             4.00    12.01100     C ( 1.00)

     No symmetry found



   Cartesian axes

     site n.     atom                  positions (alat units)
         1           Ti1 tau(   1) = (   0.0004258   2.9801865   6.0000000  )
         2           Ti1 tau(   2) = (   3.2906075   1.4906267   6.0002472  )
         3           O1  tau(   3) = (   0.0006271   0.0005054   7.9858123  )
         4           O1  tau(   4) = (   3.2906025   0.0005020   7.3038282  )
         5           O1  tau(   5) = (   4.5942328   1.4918067   9.2879030  )
         6           O1  tau(   6) = (   1.9868534   1.4903216   9.2879459  )
         7           Ti1 tau(   7) = (   3.2907910   2.8959150   9.1758416  )
         8           Ti1 tau(   8) = (   0.0015273   1.4827037   9.2680791  )
         9           O1  tau(   9) = (   3.2896571   0.0076959  11.3233140  )
        10           O1  tau(  10) = (   0.0116148   5.9584955  10.6183126  )
        11           O1  tau(  11) = (   1.3168077   1.5009220  12.6157425  )
        12           O1  tau(  12) = (   5.2956243   1.4929856  12.6075824  )
        13           Ti1 tau(  13) = (   6.5239244   2.9540340  12.6210794  )
        14           Ti1 tau(  14) = (   3.2085880   1.4976218  12.4699624  )
        15           O1  tau(  15) = (   6.5712616   0.0419518  14.6436513  )
        16           O1  tau(  16) = (   3.3111435   0.0202601  13.9161875  )
        17           O1  tau(  17) = (   4.5291760   1.5523016  16.0784362  )
        18           O1  tau(  18) = (   2.0445308   1.5488630  16.0432715  )
        19           Ti1 tau(  19) = (   3.3059752   3.0257308  15.6838679  )
        20           Ti1 tau(  20) = (   0.0592185   1.5662548  15.8694889  )
        21           O1  tau(  21) = (   3.2904802   0.0005063   4.7018136  )
        22           O1  tau(  22) = (   0.0264932   0.0561689  17.2024660  )
        23           O1  tau(  23) = (   1.3043587   1.4918075   6.0039043  )
        24           O1  tau(  24) = (   5.2767064   1.4903225   6.0039473  )
        25           Ti1 tau(  25) = (   0.0000382   5.9609847   6.0000000  )
        26           Ti1 tau(  26) = (   3.2902200   4.4714249   6.0002472  )
        27           O1  tau(  27) = (   0.0002396   2.9813036   7.9858123  )
        28           O1  tau(  28) = (   3.2902150   2.9813002   7.3038282  )
        29           O1  tau(  29) = (   4.5938453   4.4726049   9.2879030  )
        30           O1  tau(  30) = (   1.9864658   4.4711199   9.2879459  )
        31           Ti1 tau(  31) = (   3.2891106   5.8743827   9.1763621  )
        32           Ti1 tau(  32) = (   0.0006254   4.4649316   9.2693709  )
        33           O1  tau(  33) = (   3.2898653   2.9926188  11.3210358  )
        34           O1  tau(  34) = (   0.0092240   2.9805883  10.6323155  )
        35           O1  tau(  35) = (   1.3106253   4.4883450  12.6271249  )
        36           O1  tau(  36) = (   5.2968722   4.4793810  12.6200386  )
        37           Ti1 tau(  37) = (   6.5212985   5.9329073  12.5685303  )
        38           Ti1 tau(  38) = (   3.2059443   4.4781599  12.4721232  )
        39           O1  tau(  39) = (   6.5764971   2.9600267  14.6431433  )
        40           O1  tau(  40) = (   3.3056941   3.0038382  13.8936370  )
        41           O1  tau(  41) = (   4.5394310   4.5052612  16.0827012  )
        42           O1  tau(  42) = (   2.0570581   4.5113261  16.0718816  )
        43           Ti1 tau(  43) = (   3.3383738   0.0382055  15.7109988  )
        44           Ti1 tau(  44) = (   0.0469139   4.6840235  16.0886640  )
        45           O1  tau(  45) = (   3.2900926   2.9813045   4.7018136  )
        46           O1  tau(  46) = (   1.3039711   4.4726057   6.0039043  )
        47           O1  tau(  47) = (   5.2763189   4.4711207   6.0039473  )
        48           H1  tau(  48) = (   5.6101632   2.9904038  17.7880820  )
        49           N1  tau(  49) = (   6.5649722   2.9946358  17.4438072  )
        50           C1  tau(  50) = (   0.8874553   2.9889031  18.6120612  )
        51           H1  tau(  51) = (   1.3591778   3.9628686  18.7739097  )
        52           H1  tau(  52) = (   0.3310755   2.7322232  19.5165709  )
        53           H1  tau(  53) = (   1.6717793   2.2402645  18.4914768  )
        54           O1  tau(  54) = (   3.2567199   5.9268012  21.6217354  )
        55           H1  tau(  55) = (   4.0245811   5.9269051  22.2091127  )
        56           H1  tau(  56) = (   2.4887544   5.9269923  22.2092946  )

     number of k points=    10  Fermi-Dirac smearing, width (Ry)=  0.0073
                       cart. coord. in units 2pi/alat
        k(    1) = (   0.0000000   0.0000000   0.0000000), wk =   0.1250000
        k(    2) = (   0.0000000   0.0419351   0.0000000), wk =   0.2500000
        k(    3) = (   0.0000000  -0.0838702   0.0000000), wk =   0.1250000
        k(    4) = (   0.0379955   0.0000049   0.0000000), wk =   0.2500000
        k(    5) = (   0.0379955   0.0419400   0.0000000), wk =   0.2500000
        k(    6) = (   0.0379955  -0.0838652   0.0000000), wk =   0.2500000
        k(    7) = (   0.0379955  -0.0419301   0.0000000), wk =   0.2500000
        k(    8) = (  -0.0759910  -0.0000099   0.0000000), wk =   0.1250000
        k(    9) = (  -0.0759910   0.0419252   0.0000000), wk =   0.2500000
        k(   10) = (  -0.0759910  -0.0838800   0.0000000), wk =   0.1250000

     Dense  grid:   566857 G-vectors     FFT dimensions: (  72,  64, 270)

     Smooth grid:   143421 G-vectors     FFT dimensions: (  45,  40, 180)

     Estimated max dynamical RAM per process >     366.69 MB

     Estimated total dynamical RAM >       3.58 GB
     Cannot read rho : file not found

     Initial potential from superposition of free atoms

     starting charge  382.99914, renormalised to  399.00000

     negative rho (up, down):  9.626E-03 0.000E+00


     %%%%%%%%%%%%%%%%%%%%%%%%%%%%%%%%%%%%%%%%%%%%%%%%%%%%%%%%%%%%%%%%%%%%%%%%
     %                                                                      %
     % You are using vdW-DF, which was implemented by the Thonhauser group. %
     % Please cite the following two papers that made this development      %
     % possible and the two reviews that describe the various versions:     %
     %                                                                      %
     %   T. Thonhauser et al., PRL 115, 136402 (2015).                      %
     %   T. Thonhauser et al., PRB 76, 125112 (2007).                       %
     %   K. Berland et al., Rep. Prog. Phys. 78, 066501 (2015).             %
     %   D.C. Langreth et al., J. Phys.: Condens. Matter 21, 084203 (2009). %
     %                                                                      %
     %                                                                      %
     % If you are calculating the stress with vdW-DF, please also cite:     %
     %                                                                      %
     %   R. Sabatini et al., J. Phys.: Condens. Matter 24, 424209 (2012).   %
     %                                                                      %
     %%%%%%%%%%%%%%%%%%%%%%%%%%%%%%%%%%%%%%%%%%%%%%%%%%%%%%%%%%%%%%%%%%%%%%%%


 
     Adding external electric field

     Computed dipole along edir(3) : 
        Dipole              -12.5493 Ry au,        -31.8972 Debye
        Dipole field         -0.0237 Ry au, 
 
        Potential amp.        2.1953 Ry
        Total length         46.3494 bohr
 
     Starting wfcs are  302 atomic wfcs
  @ DRIVER MODE: Message from server: STATUS
  @ DRIVER MODE: Message from server: POSDATA
  @ DRIVER MODE: Reading and sharing cell 
  @ DRIVER MODE: Reading and sharing positions 
  @ DRIVER MODE: Received positions 

     total cpu time spent up to now is       11.2 secs

     Self-consistent Calculation

     iteration #  1     ecut=    29.40 Ry     beta= 0.05
     Davidson diagonalization with overlap
     c_bands:  2 eigenvalues not converged
     c_bands:  2 eigenvalues not converged
     c_bands:  4 eigenvalues not converged
     c_bands:  3 eigenvalues not converged
     c_bands:  3 eigenvalues not converged
     c_bands:  3 eigenvalues not converged
     c_bands:  5 eigenvalues not converged
     c_bands:  4 eigenvalues not converged
     c_bands:  5 eigenvalues not converged
     ethr =  1.00E-05,  avg # of iterations = 22.0

     negative rho (up, down):  7.501E-03 0.000E+00
 
     Adding external electric field

     Computed dipole along edir(3) : 
        Dipole               48.7311 Ry au,        123.8622 Debye
        Dipole field          0.0920 Ry au, 
 
        Potential amp.       -8.5248 Ry
        Total length         46.3494 bohr
 

     total cpu time spent up to now is       53.4 secs

     total energy              =   -2445.25879917 Ry
     estimated scf accuracy    <    5721.84823344 Ry

     iteration #  2     ecut=    29.40 Ry     beta= 0.05
     Davidson diagonalization with overlap
     ethr =  1.00E-02,  avg # of iterations = 22.0

     negative rho (up, down):  1.226E-03 0.000E+00
 
     Adding external electric field

     Computed dipole along edir(3) : 
        Dipole               -3.1020 Ry au,         -7.8846 Debye
        Dipole field         -0.0059 Ry au, 
 
        Potential amp.        0.5427 Ry
        Total length         46.3494 bohr
 

     total cpu time spent up to now is      131.1 secs

     total energy              =   -2421.34024301 Ry
     estimated scf accuracy    <   74873.37360898 Ry

     iteration #  3     ecut=    29.40 Ry     beta= 0.05
     Davidson diagonalization with overlap
     ethr =  1.00E-02,  avg # of iterations = 16.7

     negative rho (up, down):  1.294E-03 0.000E+00
 
     Adding external electric field

     Computed dipole along edir(3) : 
        Dipole               -5.1502 Ry au,        -13.0906 Debye
        Dipole field         -0.0097 Ry au, 
 
        Potential amp.        0.9010 Ry
        Total length         46.3494 bohr
 

     total cpu time spent up to now is      179.6 secs

     total energy              =   -2943.26394341 Ry
     estimated scf accuracy    <    5318.93639590 Ry

     iteration #  4     ecut=    29.40 Ry     beta= 0.05
     Davidson diagonalization with overlap
     ethr =  1.00E-02,  avg # of iterations = 11.3

     negative rho (up, down):  1.319E-03 0.000E+00
 
     Adding external electric field

     Computed dipole along edir(3) : 
        Dipole               -6.1716 Ry au,        -15.6865 Debye
        Dipole field         -0.0116 Ry au, 
 
        Potential amp.        1.0796 Ry
        Total length         46.3494 bohr
 

     total cpu time spent up to now is      198.6 secs

     total energy              =   -2941.48082654 Ry
     estimated scf accuracy    <    2104.15662187 Ry

     iteration #  5     ecut=    29.40 Ry     beta= 0.05
     Davidson diagonalization with overlap
     c_bands:  1 eigenvalues not converged
     c_bands:  2 eigenvalues not converged
     c_bands:  3 eigenvalues not converged
     c_bands:  2 eigenvalues not converged
     ethr =  1.00E-02,  avg # of iterations = 14.1

     negative rho (up, down):  1.320E-03 0.000E+00
 
     Adding external electric field

     Computed dipole along edir(3) : 
        Dipole               -5.1381 Ry au,        -13.0597 Debye
        Dipole field         -0.0097 Ry au, 
 
        Potential amp.        0.8988 Ry
        Total length         46.3494 bohr
 

     total cpu time spent up to now is      215.6 secs

     total energy              =   -2954.33936845 Ry
     estimated scf accuracy    <     267.21119421 Ry

     iteration #  6     ecut=    29.40 Ry     beta= 0.05
     Davidson diagonalization with overlap
     ethr =  1.00E-02,  avg # of iterations =  1.3

     negative rho (up, down):  1.317E-03 0.000E+00
 
     Adding external electric field

     Computed dipole along edir(3) : 
        Dipole               -4.4808 Ry au,        -11.3891 Debye
        Dipole field         -0.0085 Ry au, 
 
        Potential amp.        0.7839 Ry
        Total length         46.3494 bohr
 

     total cpu time spent up to now is      225.6 secs

     total energy              =   -2953.68434652 Ry
     estimated scf accuracy    <     233.94700860 Ry

     iteration #  7     ecut=    29.40 Ry     beta= 0.05
     Davidson diagonalization with overlap
     ethr =  1.00E-02,  avg # of iterations =  1.6

     negative rho (up, down):  1.328E-03 0.000E+00
 
     Adding external electric field

     Computed dipole along edir(3) : 
        Dipole               -3.3509 Ry au,         -8.5171 Debye
        Dipole field         -0.0063 Ry au, 
 
        Potential amp.        0.5862 Ry
        Total length         46.3494 bohr
 

     total cpu time spent up to now is      235.6 secs

     total energy              =   -2952.29445125 Ry
     estimated scf accuracy    <     241.72793712 Ry

     iteration #  8     ecut=    29.40 Ry     beta= 0.05
     Davidson diagonalization with overlap
     ethr =  1.00E-02,  avg # of iterations =  3.0

     negative rho (up, down):  1.484E-03 0.000E+00
 
     Adding external electric field

     Computed dipole along edir(3) : 
        Dipole                2.3500 Ry au,          5.9731 Debye
        Dipole field          0.0044 Ry au, 
 
        Potential amp.       -0.4111 Ry
        Total length         46.3494 bohr
 

     total cpu time spent up to now is      246.3 secs

     total energy              =   -2945.15518965 Ry
     estimated scf accuracy    <     220.22069534 Ry

     iteration #  9     ecut=    29.40 Ry     beta= 0.05
     Davidson diagonalization with overlap
     ethr =  1.00E-02,  avg # of iterations =  9.5

     negative rho (up, down):  1.450E-03 0.000E+00
 
     Adding external electric field

     Computed dipole along edir(3) : 
        Dipole                0.2225 Ry au,          0.5655 Debye
        Dipole field          0.0004 Ry au, 
 
        Potential amp.       -0.0389 Ry
        Total length         46.3494 bohr
 

     total cpu time spent up to now is      262.6 secs

     total energy              =   -2954.96622698 Ry
     estimated scf accuracy    <     218.60912713 Ry

     iteration # 10     ecut=    29.40 Ry     beta= 0.05
     Davidson diagonalization with overlap
     ethr =  1.00E-02,  avg # of iterations =  2.6

     negative rho (up, down):  1.577E-03 0.000E+00
 
     Adding external electric field

     Computed dipole along edir(3) : 
        Dipole                5.2941 Ry au,         13.4562 Debye
        Dipole field          0.0100 Ry au, 
 
        Potential amp.       -0.9261 Ry
        Total length         46.3494 bohr
 

     total cpu time spent up to now is      273.3 secs

     total energy              =   -2960.46234202 Ry
     estimated scf accuracy    <     115.80714090 Ry

     iteration # 11     ecut=    29.40 Ry     beta= 0.05
     Davidson diagonalization with overlap
     c_bands:  5 eigenvalues not converged
     ethr =  1.00E-02,  avg # of iterations = 12.8

     negative rho (up, down):  1.493E-03 0.000E+00
 
     Adding external electric field

     Computed dipole along edir(3) : 
        Dipole                5.0942 Ry au,         12.9482 Debye
        Dipole field          0.0096 Ry au, 
 
        Potential amp.       -0.8912 Ry
        Total length         46.3494 bohr
 

     total cpu time spent up to now is      290.8 secs

     total energy              =   -2969.24319839 Ry
     estimated scf accuracy    <     890.96203860 Ry

     iteration # 12     ecut=    29.40 Ry     beta= 0.05
     Davidson diagonalization with overlap
     ethr =  1.00E-02,  avg # of iterations =  5.4

     negative rho (up, down):  1.509E-03 0.000E+00
 
     Adding external electric field

     Computed dipole along edir(3) : 
        Dipole                3.2710 Ry au,          8.3141 Debye
        Dipole field          0.0062 Ry au, 
 
        Potential amp.       -0.5722 Ry
        Total length         46.3494 bohr
 

     total cpu time spent up to now is      302.4 secs

     total energy              =   -2960.63751553 Ry
     estimated scf accuracy    <    1348.07226000 Ry

     iteration # 13     ecut=    29.40 Ry     beta= 0.05
     Davidson diagonalization with overlap
     ethr =  1.00E-02,  avg # of iterations =  2.2

     negative rho (up, down):  2.702E-03 0.000E+00
 
     Adding external electric field

     Computed dipole along edir(3) : 
        Dipole               -3.1361 Ry au,         -7.9712 Debye
        Dipole field         -0.0059 Ry au, 
 
        Potential amp.        0.5486 Ry
        Total length         46.3494 bohr
 

     total cpu time spent up to now is      313.2 secs

     total energy              =   -2938.00719884 Ry
     estimated scf accuracy    <     570.19011003 Ry

     iteration # 14     ecut=    29.40 Ry     beta= 0.05
     Davidson diagonalization with overlap
     ethr =  1.00E-02,  avg # of iterations =  7.5

     negative rho (up, down):  2.939E-03 0.000E+00
 
     Adding external electric field

     Computed dipole along edir(3) : 
        Dipole               -1.5842 Ry au,         -4.0266 Debye
        Dipole field         -0.0030 Ry au, 
 
        Potential amp.        0.2771 Ry
        Total length         46.3494 bohr
 

     total cpu time spent up to now is      326.8 secs

     total energy              =   -2955.78660041 Ry
     estimated scf accuracy    <       6.10122382 Ry

     iteration # 15     ecut=    29.40 Ry     beta= 0.05
     Davidson diagonalization with overlap
     ethr =  1.53E-03,  avg # of iterations =  4.8

     negative rho (up, down):  4.858E-03 0.000E+00
 
     Adding external electric field

     Computed dipole along edir(3) : 
        Dipole                3.5987 Ry au,          9.1471 Debye
        Dipole field          0.0068 Ry au, 
 
        Potential amp.       -0.6295 Ry
        Total length         46.3494 bohr
 

     total cpu time spent up to now is      338.7 secs

     total energy              =   -2955.46209673 Ry
     estimated scf accuracy    <       4.65781160 Ry

     iteration # 16     ecut=    29.40 Ry     beta= 0.05
     Davidson diagonalization with overlap
     ethr =  1.17E-03,  avg # of iterations = 16.2

     negative rho (up, down):  5.801E-03 0.000E+00
 
     Adding external electric field

     Computed dipole along edir(3) : 
        Dipole                2.1936 Ry au,          5.5756 Debye
        Dipole field          0.0041 Ry au, 
 
        Potential amp.       -0.3837 Ry
        Total length         46.3494 bohr
 

     total cpu time spent up to now is      360.3 secs

     total energy              =   -2956.44878088 Ry
     estimated scf accuracy    <     343.79654728 Ry

     iteration # 17     ecut=    29.40 Ry     beta= 0.05
     Davidson diagonalization with overlap
     ethr =  1.17E-03,  avg # of iterations =  5.3

     negative rho (up, down):  3.977E-03 0.000E+00
 
     Adding external electric field

     Computed dipole along edir(3) : 
        Dipole                0.0984 Ry au,          0.2502 Debye
        Dipole field          0.0002 Ry au, 
 
        Potential amp.       -0.0172 Ry
        Total length         46.3494 bohr
 

     total cpu time spent up to now is      371.7 secs

     total energy              =   -2953.74872515 Ry
     estimated scf accuracy    <     149.64730921 Ry

     iteration # 18     ecut=    29.40 Ry     beta= 0.05
     Davidson diagonalization with overlap
     c_bands:  2 eigenvalues not converged
     c_bands:  3 eigenvalues not converged
     ethr =  1.17E-03,  avg # of iterations = 15.8

     negative rho (up, down):  6.115E-03 0.000E+00
 
     Adding external electric field

     Computed dipole along edir(3) : 
        Dipole                0.2845 Ry au,          0.7232 Debye
        Dipole field          0.0005 Ry au, 
 
        Potential amp.       -0.0498 Ry
        Total length         46.3494 bohr
 

     total cpu time spent up to now is      389.0 secs

     total energy              =   -2955.50439820 Ry
     estimated scf accuracy    <       2.91424426 Ry

     iteration # 19     ecut=    29.40 Ry     beta= 0.05
     Davidson diagonalization with overlap
     ethr =  7.30E-04,  avg # of iterations =  2.9

     negative rho (up, down):  1.026E-02 0.000E+00
 
     Adding external electric field

     Computed dipole along edir(3) : 
        Dipole                0.6426 Ry au,          1.6334 Debye
        Dipole field          0.0012 Ry au, 
 
        Potential amp.       -0.1124 Ry
        Total length         46.3494 bohr
 

     total cpu time spent up to now is      399.9 secs

     total energy              =   -2955.37570022 Ry
     estimated scf accuracy    <       1.98718986 Ry

     iteration # 20     ecut=    29.40 Ry     beta= 0.05
     Davidson diagonalization with overlap
     ethr =  4.98E-04,  avg # of iterations =  3.8

     negative rho (up, down):  4.609E-02 0.000E+00
 
     Adding external electric field

     Computed dipole along edir(3) : 
        Dipole                1.5288 Ry au,          3.8858 Debye
        Dipole field          0.0029 Ry au, 
 
        Potential amp.       -0.2674 Ry
        Total length         46.3494 bohr
 

     total cpu time spent up to now is      411.1 secs

     total energy              =   -2955.09977662 Ry
     estimated scf accuracy    <       1.33225258 Ry

     iteration # 21     ecut=    29.40 Ry     beta= 0.05
     Davidson diagonalization with overlap
     c_bands:  4 eigenvalues not converged
     c_bands:  2 eigenvalues not converged
     c_bands:  2 eigenvalues not converged
     c_bands:  5 eigenvalues not converged
     c_bands:  4 eigenvalues not converged
     c_bands:  2 eigenvalues not converged
     c_bands:  2 eigenvalues not converged
     c_bands:  3 eigenvalues not converged
     ethr =  3.34E-04,  avg # of iterations = 20.0

     negative rho (up, down):  3.935E-02 0.000E+00
 
     Adding external electric field

     Computed dipole along edir(3) : 
        Dipole                1.0417 Ry au,          2.6478 Debye
        Dipole field          0.0020 Ry au, 
 
        Potential amp.       -0.1822 Ry
        Total length         46.3494 bohr
 

     total cpu time spent up to now is      430.7 secs

     total energy              =   -2955.32894982 Ry
     estimated scf accuracy    <       1.13175179 Ry

     iteration # 22     ecut=    29.40 Ry     beta= 0.05
     Davidson diagonalization with overlap
     ethr =  2.84E-04,  avg # of iterations =  3.7

     negative rho (up, down):  3.936E-02 0.000E+00
 
     Adding external electric field

     Computed dipole along edir(3) : 
        Dipole                1.0414 Ry au,          2.6470 Debye
        Dipole field          0.0020 Ry au, 
 
        Potential amp.       -0.1822 Ry
        Total length         46.3494 bohr
 

     total cpu time spent up to now is      441.5 secs

     total energy              =   -2955.35932428 Ry
     estimated scf accuracy    <       1.22017353 Ry

     iteration # 23     ecut=    29.40 Ry     beta= 0.05
     Davidson diagonalization with overlap
     ethr =  2.84E-04,  avg # of iterations =  1.0

     negative rho (up, down):  3.909E-02 0.000E+00
 
     Adding external electric field

     Computed dipole along edir(3) : 
        Dipole                1.1693 Ry au,          2.9722 Debye
        Dipole field          0.0022 Ry au, 
 
        Potential amp.       -0.2046 Ry
        Total length         46.3494 bohr
 

     total cpu time spent up to now is      451.2 secs

     total energy              =   -2955.35296752 Ry
     estimated scf accuracy    <       1.23893585 Ry

     iteration # 24     ecut=    29.40 Ry     beta= 0.05
     Davidson diagonalization with overlap
     ethr =  2.84E-04,  avg # of iterations =  1.0

     negative rho (up, down):  4.079E-02 0.000E+00
 
     Adding external electric field

     Computed dipole along edir(3) : 
        Dipole                1.5723 Ry au,          3.9963 Debye
        Dipole field          0.0030 Ry au, 
 
        Potential amp.       -0.2750 Ry
        Total length         46.3494 bohr
 

     total cpu time spent up to now is      461.0 secs

     total energy              =   -2955.34401132 Ry
     estimated scf accuracy    <       1.21537022 Ry

     iteration # 25     ecut=    29.40 Ry     beta= 0.05
     Davidson diagonalization with overlap
     ethr =  2.84E-04,  avg # of iterations =  1.0

     negative rho (up, down):  3.984E-02 0.000E+00
 
     Adding external electric field

     Computed dipole along edir(3) : 
        Dipole                0.9324 Ry au,          2.3699 Debye
        Dipole field          0.0018 Ry au, 
 
        Potential amp.       -0.1631 Ry
        Total length         46.3494 bohr
 

     total cpu time spent up to now is      470.7 secs

     total energy              =   -2955.14075093 Ry
     estimated scf accuracy    <       1.03321522 Ry

     iteration # 26     ecut=    29.40 Ry     beta= 0.05
     Davidson diagonalization with overlap
     ethr =  2.59E-04,  avg # of iterations = 15.6

     negative rho (up, down):  3.550E-02 0.000E+00
 
     Adding external electric field

     Computed dipole along edir(3) : 
        Dipole                1.2396 Ry au,          3.1507 Debye
        Dipole field          0.0023 Ry au, 
 
        Potential amp.       -0.2168 Ry
        Total length         46.3494 bohr
 

     total cpu time spent up to now is      486.7 secs

     total energy              =   -2955.24030230 Ry
     estimated scf accuracy    <       0.40053726 Ry

     iteration # 27     ecut=    29.40 Ry     beta= 0.05
     Davidson diagonalization with overlap
     c_bands:  1 eigenvalues not converged
     ethr =  1.00E-04,  avg # of iterations = 11.3

     negative rho (up, down):  2.579E-02 0.000E+00
 
     Adding external electric field

     Computed dipole along edir(3) : 
        Dipole                1.1721 Ry au,          2.9793 Debye
        Dipole field          0.0022 Ry au, 
 
        Potential amp.       -0.2050 Ry
        Total length         46.3494 bohr
 

     total cpu time spent up to now is      500.5 secs

     total energy              =   -2955.25459491 Ry
     estimated scf accuracy    <       0.48663441 Ry

     iteration # 28     ecut=    29.40 Ry     beta= 0.05
     Davidson diagonalization with overlap
     ethr =  1.00E-04,  avg # of iterations =  7.7

     negative rho (up, down):  1.212E-02 0.000E+00
 
     Adding external electric field

     Computed dipole along edir(3) : 
        Dipole                0.6958 Ry au,          1.7684 Debye
        Dipole field          0.0013 Ry au, 
 
        Potential amp.       -0.1217 Ry
        Total length         46.3494 bohr
 

     total cpu time spent up to now is      513.0 secs

     total energy              =   -2955.21383053 Ry
     estimated scf accuracy    <       0.64745041 Ry

     iteration # 29     ecut=    29.40 Ry     beta= 0.05
     Davidson diagonalization with overlap
     c_bands:  1 eigenvalues not converged
     ethr =  1.00E-04,  avg # of iterations =  4.9

     negative rho (up, down):  8.369E-03 0.000E+00
 
     Adding external electric field

     Computed dipole along edir(3) : 
        Dipole                0.9009 Ry au,          2.2899 Debye
        Dipole field          0.0017 Ry au, 
 
        Potential amp.       -0.1576 Ry
        Total length         46.3494 bohr
 

     total cpu time spent up to now is      524.5 secs

     total energy              =   -2955.21583816 Ry
     estimated scf accuracy    <       0.27381605 Ry

     iteration # 30     ecut=    29.40 Ry     beta= 0.05
     Davidson diagonalization with overlap
     c_bands:  1 eigenvalues not converged
     c_bands:  5 eigenvalues not converged
     ethr =  6.86E-05,  avg # of iterations = 10.5

     negative rho (up, down):  4.610E-03 0.000E+00
 
     Adding external electric field

     Computed dipole along edir(3) : 
        Dipole                0.6248 Ry au,          1.5881 Debye
        Dipole field          0.0012 Ry au, 
 
        Potential amp.       -0.1093 Ry
        Total length         46.3494 bohr
 

     total cpu time spent up to now is      537.7 secs

     total energy              =   -2955.21305671 Ry
     estimated scf accuracy    <       0.12577956 Ry

     iteration # 31     ecut=    29.40 Ry     beta= 0.05
     Davidson diagonalization with overlap
     c_bands:  1 eigenvalues not converged
     c_bands:  4 eigenvalues not converged
     c_bands:  1 eigenvalues not converged
     c_bands:  1 eigenvalues not converged
     c_bands:  1 eigenvalues not converged
     c_bands:  1 eigenvalues not converged
     ethr =  3.15E-05,  avg # of iterations = 17.8

     negative rho (up, down):  4.019E-03 0.000E+00
 
     Adding external electric field

     Computed dipole along edir(3) : 
        Dipole                0.6001 Ry au,          1.5254 Debye
        Dipole field          0.0011 Ry au, 
 
        Potential amp.       -0.1050 Ry
        Total length         46.3494 bohr
 

     total cpu time spent up to now is      554.8 secs

     total energy              =   -2955.22014851 Ry
     estimated scf accuracy    <       0.05363430 Ry

     iteration # 32     ecut=    29.40 Ry     beta= 0.05
     Davidson diagonalization with overlap
     c_bands:  1 eigenvalues not converged
     ethr =  1.34E-05,  avg # of iterations = 10.2

     negative rho (up, down):  4.944E-03 0.000E+00
 
     Adding external electric field

     Computed dipole along edir(3) : 
        Dipole                0.9560 Ry au,          2.4300 Debye
        Dipole field          0.0018 Ry au, 
 
        Potential amp.       -0.1672 Ry
        Total length         46.3494 bohr
 

     total cpu time spent up to now is      567.5 secs

     total energy              =   -2955.21348555 Ry
     estimated scf accuracy    <       0.05680911 Ry

     iteration # 33     ecut=    29.40 Ry     beta= 0.05
     Davidson diagonalization with overlap
     c_bands:  2 eigenvalues not converged
     c_bands:  3 eigenvalues not converged
     c_bands:  1 eigenvalues not converged
     c_bands:  2 eigenvalues not converged
     ethr =  1.34E-05,  avg # of iterations = 16.9

     negative rho (up, down):  5.061E-03 0.000E+00
 
     Adding external electric field

     Computed dipole along edir(3) : 
        Dipole                0.8760 Ry au,          2.2265 Debye
        Dipole field          0.0017 Ry au, 
 
        Potential amp.       -0.1532 Ry
        Total length         46.3494 bohr
 

     total cpu time spent up to now is      585.7 secs

     total energy              =   -2955.21590497 Ry
     estimated scf accuracy    <       0.10603452 Ry

     iteration # 34     ecut=    29.40 Ry     beta= 0.05
     Davidson diagonalization with overlap
     ethr =  1.34E-05,  avg # of iterations =  6.6

     negative rho (up, down):  3.906E-03 0.000E+00
 
     Adding external electric field

     Computed dipole along edir(3) : 
        Dipole                0.8393 Ry au,          2.1334 Debye
        Dipole field          0.0016 Ry au, 
 
        Potential amp.       -0.1468 Ry
        Total length         46.3494 bohr
 

     total cpu time spent up to now is      597.9 secs

     total energy              =   -2955.21173784 Ry
     estimated scf accuracy    <       0.12616177 Ry

     iteration # 35     ecut=    29.40 Ry     beta= 0.05
     Davidson diagonalization with overlap
     c_bands:  3 eigenvalues not converged
     ethr =  1.34E-05,  avg # of iterations = 14.5

     negative rho (up, down):  3.722E-03 0.000E+00
 
     Adding external electric field

     Computed dipole along edir(3) : 
        Dipole                0.8510 Ry au,          2.1630 Debye
        Dipole field          0.0016 Ry au, 
 
        Potential amp.       -0.1489 Ry
        Total length         46.3494 bohr
 

     total cpu time spent up to now is      613.0 secs

     total energy              =   -2955.21429641 Ry
     estimated scf accuracy    <       0.04557065 Ry

     iteration # 36     ecut=    29.40 Ry     beta= 0.05
     Davidson diagonalization with overlap
     ethr =  1.14E-05,  avg # of iterations =  6.1

     negative rho (up, down):  3.956E-03 0.000E+00
 
     Adding external electric field

     Computed dipole along edir(3) : 
        Dipole                0.8960 Ry au,          2.2773 Debye
        Dipole field          0.0017 Ry au, 
 
        Potential amp.       -0.1567 Ry
        Total length         46.3494 bohr
 

     total cpu time spent up to now is      624.9 secs

     total energy              =   -2955.21676699 Ry
     estimated scf accuracy    <       0.02897049 Ry

     iteration # 37     ecut=    29.40 Ry     beta= 0.05
     Davidson diagonalization with overlap
     c_bands:  1 eigenvalues not converged
     c_bands:  1 eigenvalues not converged
     c_bands:  1 eigenvalues not converged
     ethr =  7.26E-06,  avg # of iterations = 15.1

     negative rho (up, down):  3.819E-03 0.000E+00
 
     Adding external electric field

     Computed dipole along edir(3) : 
        Dipole                0.8487 Ry au,          2.1572 Debye
        Dipole field          0.0016 Ry au, 
 
        Potential amp.       -0.1485 Ry
        Total length         46.3494 bohr
 

     total cpu time spent up to now is      641.5 secs

     total energy              =   -2955.21039633 Ry
     estimated scf accuracy    <       0.07293457 Ry

     iteration # 38     ecut=    29.40 Ry     beta= 0.05
     Davidson diagonalization with overlap
     c_bands:  1 eigenvalues not converged
     c_bands:  2 eigenvalues not converged
     c_bands:  2 eigenvalues not converged
     c_bands:  4 eigenvalues not converged
     c_bands:  4 eigenvalues not converged
     c_bands:  1 eigenvalues not converged
     c_bands:  1 eigenvalues not converged
     ethr =  7.26E-06,  avg # of iterations = 18.8

     negative rho (up, down):  4.113E-03 0.000E+00
 
     Adding external electric field

     Computed dipole along edir(3) : 
        Dipole                0.9052 Ry au,          2.3007 Debye
        Dipole field          0.0017 Ry au, 
 
        Potential amp.       -0.1583 Ry
        Total length         46.3494 bohr
 

     total cpu time spent up to now is      662.2 secs

     total energy              =   -2955.21431147 Ry
     estimated scf accuracy    <       0.01629619 Ry

     iteration # 39     ecut=    29.40 Ry     beta= 0.05
     Davidson diagonalization with overlap
     c_bands:  1 eigenvalues not converged
     c_bands:  1 eigenvalues not converged
     c_bands:  1 eigenvalues not converged
     c_bands:  2 eigenvalues not converged
     ethr =  4.08E-06,  avg # of iterations = 17.3

     negative rho (up, down):  4.644E-03 0.000E+00
 
     Adding external electric field

     Computed dipole along edir(3) : 
        Dipole                0.9872 Ry au,          2.5092 Debye
        Dipole field          0.0019 Ry au, 
 
        Potential amp.       -0.1727 Ry
        Total length         46.3494 bohr
 

     total cpu time spent up to now is      678.4 secs

     total energy              =   -2955.21489612 Ry
     estimated scf accuracy    <       0.00879152 Ry

     iteration # 40     ecut=    29.40 Ry     beta= 0.05
     Davidson diagonalization with overlap
     c_bands:  1 eigenvalues not converged
     ethr =  2.20E-06,  avg # of iterations = 11.1

     negative rho (up, down):  5.441E-03 0.000E+00
 
     Adding external electric field

     Computed dipole along edir(3) : 
        Dipole                1.1101 Ry au,          2.8217 Debye
        Dipole field          0.0021 Ry au, 
 
        Potential amp.       -0.1942 Ry
        Total length         46.3494 bohr
 

     total cpu time spent up to now is      691.9 secs

     total energy              =   -2955.21537304 Ry
     estimated scf accuracy    <       0.00402758 Ry

     iteration # 41     ecut=    29.40 Ry     beta= 0.05
     Davidson diagonalization with overlap
     c_bands:  1 eigenvalues not converged
     ethr =  1.01E-06,  avg # of iterations = 13.1

     negative rho (up, down):  5.289E-03 0.000E+00
 
     Adding external electric field

     Computed dipole along edir(3) : 
        Dipole                1.1120 Ry au,          2.8265 Debye
        Dipole field          0.0021 Ry au, 
 
        Potential amp.       -0.1945 Ry
        Total length         46.3494 bohr
 

     total cpu time spent up to now is      707.0 secs

     total energy              =   -2955.21545995 Ry
     estimated scf accuracy    <       0.00314480 Ry

     iteration # 42     ecut=    29.40 Ry     beta= 0.05
     Davidson diagonalization with overlap
     ethr =  7.88E-07,  avg # of iterations =  6.4

     negative rho (up, down):  5.382E-03 0.000E+00
 
     Adding external electric field

     Computed dipole along edir(3) : 
        Dipole                1.1585 Ry au,          2.9446 Debye
        Dipole field          0.0022 Ry au, 
 
        Potential amp.       -0.2027 Ry
        Total length         46.3494 bohr
 

     total cpu time spent up to now is      718.8 secs

     total energy              =   -2955.21510038 Ry
     estimated scf accuracy    <       0.00194810 Ry

     iteration # 43     ecut=    29.40 Ry     beta= 0.05
     Davidson diagonalization with overlap
     c_bands:  1 eigenvalues not converged
     c_bands:  2 eigenvalues not converged
     ethr =  4.88E-07,  avg # of iterations = 16.2

     negative rho (up, down):  6.950E-03 0.000E+00
 
     Adding external electric field

     Computed dipole along edir(3) : 
        Dipole                1.2394 Ry au,          3.1503 Debye
        Dipole field          0.0023 Ry au, 
 
        Potential amp.       -0.2168 Ry
        Total length         46.3494 bohr
 

     total cpu time spent up to now is      737.6 secs

     total energy              =   -2955.21490754 Ry
     estimated scf accuracy    <       0.00415536 Ry

     iteration # 44     ecut=    29.40 Ry     beta= 0.05
     Davidson diagonalization with overlap
     ethr =  4.88E-07,  avg # of iterations = 11.0

     negative rho (up, down):  7.236E-03 0.000E+00
 
     Adding external electric field

     Computed dipole along edir(3) : 
        Dipole                1.2549 Ry au,          3.1895 Debye
        Dipole field          0.0024 Ry au, 
 
        Potential amp.       -0.2195 Ry
        Total length         46.3494 bohr
 

     total cpu time spent up to now is      753.0 secs

     total energy              =   -2955.21541396 Ry
     estimated scf accuracy    <       0.00089302 Ry

     iteration # 45     ecut=    29.40 Ry     beta= 0.05
     Davidson diagonalization with overlap
     ethr =  2.24E-07,  avg # of iterations =  2.3

     negative rho (up, down):  7.652E-03 0.000E+00
 
     Adding external electric field

     Computed dipole along edir(3) : 
        Dipole                1.2642 Ry au,          3.2134 Debye
        Dipole field          0.0024 Ry au, 
 
        Potential amp.       -0.2212 Ry
        Total length         46.3494 bohr
 

     total cpu time spent up to now is      763.7 secs

     total energy              =   -2955.21544470 Ry
     estimated scf accuracy    <       0.00044810 Ry

     iteration # 46     ecut=    29.40 Ry     beta= 0.05
     Davidson diagonalization with overlap
     ethr =  1.12E-07,  avg # of iterations = 12.2

     negative rho (up, down):  8.530E-03 0.000E+00
 
     Adding external electric field

     Computed dipole along edir(3) : 
        Dipole                1.2868 Ry au,          3.2707 Debye
        Dipole field          0.0024 Ry au, 
 
        Potential amp.       -0.2251 Ry
        Total length         46.3494 bohr
 

     total cpu time spent up to now is      778.1 secs

     total energy              =   -2955.21543467 Ry
     estimated scf accuracy    <       0.00039368 Ry

     iteration # 47     ecut=    29.40 Ry     beta= 0.05
     Davidson diagonalization with overlap
     c_bands:  1 eigenvalues not converged
     ethr =  9.87E-08,  avg # of iterations = 11.0

     negative rho (up, down):  8.705E-03 0.000E+00
 
     Adding external electric field

     Computed dipole along edir(3) : 
        Dipole                1.2920 Ry au,          3.2839 Debye
        Dipole field          0.0024 Ry au, 
 
        Potential amp.       -0.2260 Ry
        Total length         46.3494 bohr
 

     total cpu time spent up to now is      792.3 secs

     total energy              =   -2955.21548859 Ry
     estimated scf accuracy    <       0.00010869 Ry

     iteration # 48     ecut=    29.40 Ry     beta= 0.05
     Davidson diagonalization with overlap
     ethr =  2.72E-08,  avg # of iterations =  8.0

     negative rho (up, down):  9.347E-03 0.000E+00
 
     Adding external electric field

     Computed dipole along edir(3) : 
        Dipole                1.3105 Ry au,          3.3309 Debye
        Dipole field          0.0025 Ry au, 
 
        Potential amp.       -0.2292 Ry
        Total length         46.3494 bohr
 

     total cpu time spent up to now is      804.6 secs

     total energy              =   -2955.21549716 Ry
     estimated scf accuracy    <       0.00008807 Ry

     iteration # 49     ecut=    29.40 Ry     beta= 0.05
     Davidson diagonalization with overlap
     ethr =  2.21E-08,  avg # of iterations = 11.6

     negative rho (up, down):  1.026E-02 0.000E+00
 
     Adding external electric field

     Computed dipole along edir(3) : 
        Dipole                1.3243 Ry au,          3.3659 Debye
        Dipole field          0.0025 Ry au, 
 
        Potential amp.       -0.2317 Ry
        Total length         46.3494 bohr
 

     total cpu time spent up to now is      819.4 secs

     total energy              =   -2955.21551733 Ry
     estimated scf accuracy    <       0.00003477 Ry

     iteration # 50     ecut=    29.40 Ry     beta= 0.05
     Davidson diagonalization with overlap
     c_bands:  1 eigenvalues not converged
     ethr =  8.71E-09,  avg # of iterations =  9.7

     negative rho (up, down):  1.027E-02 0.000E+00
 
     Adding external electric field

     Computed dipole along edir(3) : 
        Dipole                1.3248 Ry au,          3.3674 Debye
        Dipole field          0.0025 Ry au, 
 
        Potential amp.       -0.2318 Ry
        Total length         46.3494 bohr
 

     total cpu time spent up to now is      835.1 secs

     total energy              =   -2955.21553202 Ry
     estimated scf accuracy    <       0.00002924 Ry

     iteration # 51     ecut=    29.40 Ry     beta= 0.05
     Davidson diagonalization with overlap
     ethr =  7.33E-09,  avg # of iterations =  5.4

     negative rho (up, down):  1.032E-02 0.000E+00
 
     Adding external electric field

     Computed dipole along edir(3) : 
        Dipole                1.3259 Ry au,          3.3700 Debye
        Dipole field          0.0025 Ry au, 
 
        Potential amp.       -0.2319 Ry
        Total length         46.3494 bohr
 

     total cpu time spent up to now is      846.7 secs

     total energy              =   -2955.21554276 Ry
     estimated scf accuracy    <       0.00001400 Ry

     iteration # 52     ecut=    29.40 Ry     beta= 0.05
     Davidson diagonalization with overlap
     c_bands:  1 eigenvalues not converged
     ethr =  3.51E-09,  avg # of iterations = 11.8

     negative rho (up, down):  1.049E-02 0.000E+00
 
     Adding external electric field

     Computed dipole along edir(3) : 
        Dipole                1.3242 Ry au,          3.3658 Debye
        Dipole field          0.0025 Ry au, 
 
        Potential amp.       -0.2316 Ry
        Total length         46.3494 bohr
 

     total cpu time spent up to now is      862.4 secs

     total energy              =   -2955.21555204 Ry
     estimated scf accuracy    <       0.00001214 Ry

     iteration # 53     ecut=    29.40 Ry     beta= 0.05
     Davidson diagonalization with overlap
     ethr =  3.04E-09,  avg # of iterations = 11.2

     negative rho (up, down):  1.072E-02 0.000E+00
 
     Adding external electric field

     Computed dipole along edir(3) : 
        Dipole                1.3272 Ry au,          3.3733 Debye
        Dipole field          0.0025 Ry au, 
 
        Potential amp.       -0.2322 Ry
        Total length         46.3494 bohr
 

     total cpu time spent up to now is      878.9 secs

     total energy              =   -2955.21556124 Ry
     estimated scf accuracy    <       0.00001972 Ry

     iteration # 54     ecut=    29.40 Ry     beta= 0.05
     Davidson diagonalization with overlap
     c_bands:  1 eigenvalues not converged
     ethr =  3.04E-09,  avg # of iterations = 10.0

     negative rho (up, down):  1.079E-02 0.000E+00
 
     Adding external electric field

     Computed dipole along edir(3) : 
        Dipole                1.3277 Ry au,          3.3746 Debye
        Dipole field          0.0025 Ry au, 
 
        Potential amp.       -0.2323 Ry
        Total length         46.3494 bohr
 

     total cpu time spent up to now is      892.6 secs

     total energy              =   -2955.21557064 Ry
     estimated scf accuracy    <       0.00000228 Ry

     iteration # 55     ecut=    29.40 Ry     beta= 0.05
     Davidson diagonalization with overlap
     c_bands:  1 eigenvalues not converged
     c_bands:  2 eigenvalues not converged
     ethr =  5.72E-10,  avg # of iterations = 16.3

     negative rho (up, down):  1.078E-02 0.000E+00
 
     Adding external electric field

     Computed dipole along edir(3) : 
        Dipole                1.3276 Ry au,          3.3744 Debye
        Dipole field          0.0025 Ry au, 
 
        Potential amp.       -0.2322 Ry
        Total length         46.3494 bohr
 

     total cpu time spent up to now is      914.4 secs

     total energy              =   -2955.21557912 Ry
     estimated scf accuracy    <       0.00000324 Ry

     iteration # 56     ecut=    29.40 Ry     beta= 0.05
     Davidson diagonalization with overlap
     ethr =  5.72E-10,  avg # of iterations =  1.1

     negative rho (up, down):  1.080E-02 0.000E+00
 
     Adding external electric field

     Computed dipole along edir(3) : 
        Dipole                1.3273 Ry au,          3.3737 Debye
        Dipole field          0.0025 Ry au, 
 
        Potential amp.       -0.2322 Ry
        Total length         46.3494 bohr
 

     total cpu time spent up to now is      924.1 secs

     total energy              =   -2955.21558559 Ry
     estimated scf accuracy    <       0.00000346 Ry

     iteration # 57     ecut=    29.40 Ry     beta= 0.05
     Davidson diagonalization with overlap
     ethr =  5.72E-10,  avg # of iterations =  5.9

     negative rho (up, down):  1.083E-02 0.000E+00
 
     Adding external electric field

     Computed dipole along edir(3) : 
        Dipole                1.3276 Ry au,          3.3745 Debye
        Dipole field          0.0025 Ry au, 
 
        Potential amp.       -0.2323 Ry
        Total length         46.3494 bohr
 

     total cpu time spent up to now is      936.0 secs

     total energy              =   -2955.21559144 Ry
     estimated scf accuracy    <       0.00000256 Ry

     iteration # 58     ecut=    29.40 Ry     beta= 0.05
     Davidson diagonalization with overlap
     c_bands:  1 eigenvalues not converged
     ethr =  5.72E-10,  avg # of iterations = 10.2

     negative rho (up, down):  1.087E-02 0.000E+00
 
     Adding external electric field

     Computed dipole along edir(3) : 
        Dipole                1.3278 Ry au,          3.3750 Debye
        Dipole field          0.0025 Ry au, 
 
        Potential amp.       -0.2323 Ry
        Total length         46.3494 bohr
 

     total cpu time spent up to now is      949.2 secs

     total energy              =   -2955.21559693 Ry
     estimated scf accuracy    <       0.00000124 Ry

     iteration # 59     ecut=    29.40 Ry     beta= 0.05
     Davidson diagonalization with overlap
     ethr =  3.10E-10,  avg # of iterations = 10.8

     negative rho (up, down):  1.096E-02 0.000E+00
 
     Adding external electric field

     Computed dipole along edir(3) : 
        Dipole                1.3284 Ry au,          3.3765 Debye
        Dipole field          0.0025 Ry au, 
 
        Potential amp.       -0.2324 Ry
        Total length         46.3494 bohr
 

     total cpu time spent up to now is      963.1 secs

     total energy              =   -2955.21560197 Ry
     estimated scf accuracy    <       0.00000056 Ry

     iteration # 60     ecut=    29.40 Ry     beta= 0.05
     Davidson diagonalization with overlap
     ethr =  1.39E-10,  avg # of iterations = 12.7

     negative rho (up, down):  1.097E-02 0.000E+00
 
     Adding external electric field

     Computed dipole along edir(3) : 
        Dipole                1.3283 Ry au,          3.3763 Debye
        Dipole field          0.0025 Ry au, 
 
        Potential amp.       -0.2324 Ry
        Total length         46.3494 bohr
 

     total cpu time spent up to now is      980.9 secs

     total energy              =   -2955.21560658 Ry
     estimated scf accuracy    <       0.00000029 Ry

     iteration # 61     ecut=    29.40 Ry     beta= 0.05
     Davidson diagonalization with overlap
     ethr =  7.39E-11,  avg # of iterations =  6.5

     negative rho (up, down):  1.096E-02 0.000E+00
 
     Adding external electric field

     Computed dipole along edir(3) : 
        Dipole                1.3280 Ry au,          3.3755 Debye
        Dipole field          0.0025 Ry au, 
 
        Potential amp.       -0.2323 Ry
        Total length         46.3494 bohr
 

     total cpu time spent up to now is      993.1 secs

     total energy              =   -2955.21561065 Ry
     estimated scf accuracy    <       0.00000019 Ry

     iteration # 62     ecut=    29.40 Ry     beta= 0.05
     Davidson diagonalization with overlap
     ethr =  4.76E-11,  avg # of iterations = 10.1

     negative rho (up, down):  1.099E-02 0.000E+00
 
     Adding external electric field

     Computed dipole along edir(3) : 
        Dipole                1.3284 Ry au,          3.3765 Debye
        Dipole field          0.0025 Ry au, 
 
        Potential amp.       -0.2324 Ry
        Total length         46.3494 bohr
 

     total cpu time spent up to now is     1009.4 secs

     total energy              =   -2955.21561433 Ry
     estimated scf accuracy    <       0.00000018 Ry

     iteration # 63     ecut=    29.40 Ry     beta= 0.05
     Davidson diagonalization with overlap
     ethr =  4.42E-11,  avg # of iterations =  6.5

     negative rho (up, down):  1.101E-02 0.000E+00
 
     Adding external electric field

     Computed dipole along edir(3) : 
        Dipole                1.3286 Ry au,          3.3769 Debye
        Dipole field          0.0025 Ry au, 
 
        Potential amp.       -0.2324 Ry
        Total length         46.3494 bohr
 

     total cpu time spent up to now is     1021.6 secs

     total energy              =   -2955.21561764 Ry
     estimated scf accuracy    <       0.00000010 Ry

     iteration # 64     ecut=    29.40 Ry     beta= 0.05
     Davidson diagonalization with overlap
     ethr =  2.56E-11,  avg # of iterations =  8.9

     negative rho (up, down):  1.101E-02 0.000E+00
 
     Adding external electric field

     Computed dipole along edir(3) : 
        Dipole                1.3285 Ry au,          3.3767 Debye
        Dipole field          0.0025 Ry au, 
 
        Potential amp.       -0.2324 Ry
        Total length         46.3494 bohr
 

     total cpu time spent up to now is     1036.8 secs

     total energy              =   -2955.21562065 Ry
     estimated scf accuracy    <       0.00000010 Ry

     iteration # 65     ecut=    29.40 Ry     beta= 0.05
     Davidson diagonalization with overlap
     ethr =  2.51E-11,  avg # of iterations =  8.3

     negative rho (up, down):  1.109E-02 0.000E+00
 
     Adding external electric field

     Computed dipole along edir(3) : 
        Dipole                1.3292 Ry au,          3.3784 Debye
        Dipole field          0.0025 Ry au, 
 
        Potential amp.       -0.2325 Ry
        Total length         46.3494 bohr
 

     total cpu time spent up to now is     1051.5 secs

     End of self-consistent calculation

          k = 0.0000 0.0000 0.0000 ( 18029 PWs)   bands (ev):

   -55.4949 -55.4861 -55.4609 -55.4500 -55.4052 -55.3363 -55.3331 -55.2992
   -55.2984 -55.2653 -55.2570 -55.2233 -55.0647 -54.7920 -54.4665 -54.4325
   -32.0443 -31.9763 -31.8499 -31.8348 -31.8142 -31.7986 -31.7880 -31.7481
   -31.7362 -31.7360 -31.7093 -31.7017 -31.6685 -31.6471 -31.6385 -31.6353
   -31.6282 -31.5982 -31.5764 -31.5522 -31.5444 -31.5399 -31.5241 -31.5012
   -31.4935 -31.4886 -31.4852 -31.4770 -31.4602 -31.4577 -31.4518 -31.4483
   -31.4346 -31.4294 -31.4104 -31.4061 -31.3697 -31.3298 -31.2343 -31.0638
   -31.0593 -30.9899 -30.8734 -30.7857 -30.7633 -30.6901 -30.6036 -30.4926
   -18.5825 -16.2530 -15.9712 -15.7915 -15.6487 -15.6163 -15.5284 -15.3305
   -15.2049 -15.1895 -15.0852 -15.0532 -15.0287 -15.0220 -14.9938 -14.9900
   -14.9345 -14.9272 -14.9185 -14.9055 -14.8466 -14.8224 -14.7814 -14.6913
   -14.6669 -14.6515 -14.6242 -14.5415 -14.5359 -14.0935 -13.6344 -12.9694
   -12.8532  -8.4771  -6.3859  -3.9167  -3.6234  -3.4495  -3.4113  -3.3968
    -3.3462  -3.0958  -3.0781  -2.8470  -2.7088  -2.6970  -2.6787  -2.6660
    -2.6484  -2.6299  -2.4168  -2.3928  -2.3252  -2.3093  -2.2875  -2.2790
    -2.2728  -2.2631  -2.2596  -2.2149  -2.1598  -2.0469  -2.0282  -1.9217
    -1.8779  -1.8531  -1.8040  -1.7596  -1.7535  -1.7435  -1.7236  -1.7121
    -1.6894  -1.6717  -1.5366  -1.4738  -1.3414  -1.2955  -1.2879  -1.0942
    -1.0578  -0.9642  -0.9371  -0.9207  -0.9125  -0.8804  -0.7986  -0.7067
    -0.6531  -0.6409  -0.5873  -0.5082  -0.4941  -0.4006  -0.3856  -0.3797
    -0.3282  -0.2634  -0.2535  -0.2446  -0.1988  -0.1317  -0.0553   0.0199
     0.0724   0.0932   0.1204   0.1994   0.2283   0.3229   0.3442   0.3905
     0.3961   0.4423   0.4843   0.4930   0.4986   0.5146   0.5343   0.6818
     0.7898   0.8449   0.8794   0.8894   1.0466   1.0821   1.1700   1.2570
     1.4824   1.5550   1.6500   1.7483   1.7998   2.1258   2.1711   3.6486
     3.7276   3.7815   3.7906   3.8863   3.8936   4.0981   4.1074   4.1186
     4.1904

          k = 0.0000 0.0419 0.0000 ( 17933 PWs)   bands (ev):

   -55.4899 -55.4807 -55.4658 -55.4552 -55.4029 -55.3385 -55.3280 -55.3033
   -55.2941 -55.2701 -55.2520 -55.2281 -55.0642 -54.7924 -54.4615 -54.4374
   -31.9869 -31.9223 -31.8023 -31.7962 -31.7833 -31.7802 -31.7741 -31.7426
   -31.7206 -31.7125 -31.6963 -31.6953 -31.6743 -31.6701 -31.6549 -31.6476
   -31.6333 -31.6240 -31.5661 -31.5632 -31.5398 -31.5363 -31.5302 -31.5142
   -31.5051 -31.5013 -31.4987 -31.4882 -31.4838 -31.4748 -31.4638 -31.4578
   -31.4423 -31.4307 -31.4303 -31.4257 -31.4135 -31.3289 -31.2313 -31.0887
   -31.0599 -31.0049 -30.8193 -30.7823 -30.7663 -30.6775 -30.6162 -30.5497
   -18.5824 -16.1174 -15.8517 -15.6810 -15.5413 -15.5181 -15.4908 -15.3778
   -15.2761 -15.2448 -15.1085 -15.1027 -15.0290 -15.0099 -14.9978 -14.9707
   -14.9649 -14.9462 -14.9427 -14.8789 -14.8706 -14.8289 -14.7520 -14.7420
   -14.7065 -14.6843 -14.6827 -14.5980 -14.5500 -14.1653 -13.6479 -12.9736
   -12.8927  -8.4771  -6.3856  -3.9235  -3.4327  -3.2846  -3.2442  -3.2207
    -3.1872  -2.9370  -2.8745  -2.7922  -2.7538  -2.6794  -2.6192  -2.5758
    -2.5446  -2.5262  -2.4649  -2.4618  -2.4361  -2.4148  -2.3768  -2.3593
    -2.3392  -2.2885  -2.2414  -2.2283  -2.1786  -2.1677  -2.1503  -2.1232
    -1.9944  -1.9825  -1.9489  -1.9089  -1.8595  -1.7696  -1.7436  -1.7235
    -1.6422  -1.5727  -1.4659  -1.4179  -1.2688  -1.2300  -1.1643  -1.1404
    -1.0884  -0.9706  -0.8608  -0.8269  -0.8030  -0.7303  -0.7040  -0.6043
    -0.5468  -0.5175  -0.4440  -0.4353  -0.4158  -0.4105  -0.3876  -0.3800
    -0.3409  -0.3023  -0.2472  -0.2150  -0.1841  -0.1521  -0.0809  -0.0529
     0.0035   0.0147   0.0409   0.0532   0.2046   0.2399   0.2670   0.2964
     0.3273   0.3580   0.3798   0.4212   0.4775   0.5319   0.5532   0.6237
     0.6995   0.7644   0.7887   0.8464   0.8600   0.8941   1.0343   1.1746
     1.1886   1.5204   1.7256   1.7447   1.8293   2.0797   2.0832   3.8383
     3.8618   3.8985   3.9423   3.9981   4.0482   4.0904   4.1195   4.1774
     4.1925

          k = 0.0000-0.0839 0.0000 ( 17884 PWs)   bands (ev):

   -55.4782 -55.4774 -55.4681 -55.4678 -55.4005 -55.3408 -55.3180 -55.3133
   -55.2830 -55.2811 -55.2404 -55.2397 -55.0637 -54.7928 -54.4495 -54.4493
   -31.8481 -31.8463 -31.7903 -31.7898 -31.7816 -31.7737 -31.7729 -31.7572
   -31.6965 -31.6953 -31.6724 -31.6711 -31.6630 -31.6493 -31.6429 -31.6289
   -31.6081 -31.6001 -31.5993 -31.5991 -31.5934 -31.5624 -31.5597 -31.5517
   -31.5314 -31.5311 -31.5193 -31.5181 -31.5101 -31.4956 -31.4735 -31.4732
   -31.4557 -31.4516 -31.4217 -31.4217 -31.3998 -31.3280 -31.2294 -31.1267
   -31.0598 -31.0160 -30.7741 -30.7740 -30.6864 -30.6862 -30.6469 -30.6469
   -18.5824 -15.7795 -15.7675 -15.5752 -15.5693 -15.4327 -15.4233 -15.3242
   -15.3080 -15.2800 -15.2540 -15.2152 -15.2135 -15.0520 -15.0466 -14.8809
   -14.8718 -14.8703 -14.8647 -14.8505 -14.8371 -14.8348 -14.8256 -14.8235
   -14.7480 -14.7404 -14.7284 -14.6953 -14.5307 -14.2696 -13.6605 -12.9555
   -12.9553  -8.4772  -6.3854  -3.9316  -3.0038  -2.9694  -2.8917  -2.8830
    -2.8823  -2.8724  -2.8637  -2.8473  -2.7826  -2.7824  -2.7243  -2.6145
    -2.6101  -2.6000  -2.5765  -2.5442  -2.5197  -2.4653  -2.4381  -2.4334
    -2.4136  -2.3337  -2.2983  -2.2888  -2.2400  -2.2166  -2.1566  -2.1253
    -2.0848  -2.0547  -1.9500  -1.8827  -1.8655  -1.8489  -1.8225  -1.5534
    -1.5017  -1.3940  -1.3555  -1.3242  -1.2119  -1.1846  -1.1316  -1.0890
    -1.0013  -0.9284  -0.9227  -0.8867  -0.8711  -0.8429  -0.8093  -0.7154
    -0.6796  -0.6736  -0.6221  -0.5788  -0.4210  -0.3615  -0.2989  -0.2152
    -0.1786  -0.1456  -0.1274  -0.1216  -0.0988  -0.0771  -0.0549  -0.0216
     0.0244   0.0611   0.0771   0.0885   0.1230   0.1472   0.1899   0.2255
     0.2393   0.2565   0.3066   0.3247   0.3593   0.3756   0.4085   0.4906
     0.5152   0.5888   0.7541   0.7561   0.7618   0.7865   1.1030   1.1421
     1.2078   1.2476   1.7099   1.8881   1.8885   2.0168   2.0175   3.9229
     3.9500   3.9808   4.0032   4.0783   4.0876   4.1584   4.1906   4.2394
     4.2453

          k = 0.0380 0.0000 0.0000 ( 17913 PWs)   bands (ev):

   -55.4948 -55.4859 -55.4608 -55.4499 -55.4051 -55.3362 -55.3330 -55.2989
   -55.2983 -55.2652 -55.2570 -55.2232 -55.0646 -54.7919 -54.4664 -54.4324
   -32.0444 -31.9771 -31.8514 -31.8410 -31.8140 -31.7988 -31.7878 -31.7528
   -31.7362 -31.7358 -31.7046 -31.6905 -31.6684 -31.6442 -31.6312 -31.6305
   -31.6278 -31.5979 -31.5607 -31.5560 -31.5520 -31.5397 -31.5271 -31.4977
   -31.4928 -31.4882 -31.4783 -31.4771 -31.4600 -31.4574 -31.4555 -31.4512
   -31.4480 -31.4293 -31.4105 -31.4052 -31.3699 -31.3323 -31.2341 -31.0638
   -31.0596 -30.9897 -30.8729 -30.7891 -30.7613 -30.6899 -30.6035 -30.4924
   -18.5824 -16.1845 -15.8846 -15.7104 -15.6285 -15.5459 -15.5274 -15.3747
   -15.2024 -15.1951 -15.1866 -15.1835 -15.1506 -15.1025 -15.0803 -15.0354
   -15.0121 -14.8730 -14.8487 -14.8042 -14.7565 -14.7430 -14.7367 -14.6944
   -14.6848 -14.6758 -14.6627 -14.6205 -14.5231 -14.0907 -13.6299 -12.9662
   -12.8528  -8.4800  -6.3868  -3.9657  -3.5557  -3.2371  -3.1849  -3.1267
    -3.1161  -3.0636  -3.0244  -2.9651  -2.8450  -2.7354  -2.7283  -2.6955
    -2.6087  -2.5684  -2.5071  -2.4633  -2.4158  -2.3655  -2.2711  -2.2666
    -2.2178  -2.2042  -2.1353  -2.0975  -2.0729  -2.0316  -1.9985  -1.9509
    -1.8824  -1.8354  -1.8293  -1.7644  -1.7186  -1.6981  -1.6607  -1.5373
    -1.5123  -1.4767  -1.4240  -1.3830  -1.3624  -1.3091  -1.2797  -1.1746
    -1.0908  -1.0633  -1.0454  -0.9510  -0.9262  -0.8980  -0.7955  -0.7780
    -0.7676  -0.7345  -0.6733  -0.6273  -0.5205  -0.4005  -0.3973  -0.3641
    -0.3515  -0.3234  -0.2970  -0.2546  -0.2181  -0.1423  -0.0731  -0.0159
     0.0386   0.0788   0.1299   0.1590   0.2202   0.2412   0.2697   0.3030
     0.3226   0.3587   0.3702   0.3863   0.3991   0.4311   0.5860   0.6409
     0.6959   0.7168   0.8108   0.8706   0.9161   0.9643   1.1407   1.2032
     1.4855   1.5154   1.5669   1.7179   1.7971   2.0144   2.0883   3.6866
     3.7028   3.9857   4.0041   4.0240   4.0548   4.0728   4.0978   4.1235
     4.1506

          k = 0.0380 0.0419 0.0000 ( 17878 PWs)   bands (ev):

   -55.4898 -55.4806 -55.4657 -55.4552 -55.4028 -55.3384 -55.3280 -55.3033
   -55.2939 -55.2701 -55.2520 -55.2281 -55.0641 -54.7923 -54.4614 -54.4374
   -31.9870 -31.9231 -31.8022 -31.7976 -31.7879 -31.7831 -31.7742 -31.7426
   -31.7205 -31.7127 -31.7004 -31.6838 -31.6742 -31.6705 -31.6550 -31.6369
   -31.6308 -31.6201 -31.5657 -31.5542 -31.5459 -31.5357 -31.5299 -31.5148
   -31.5039 -31.5030 -31.4879 -31.4875 -31.4835 -31.4749 -31.4637 -31.4583
   -31.4520 -31.4419 -31.4298 -31.4214 -31.4180 -31.3311 -31.2312 -31.0886
   -31.0606 -31.0048 -30.8189 -30.7849 -30.7653 -30.6774 -30.6163 -30.5496
   -18.5824 -16.0557 -15.7718 -15.6066 -15.5233 -15.4924 -15.4437 -15.3776
   -15.3104 -15.2461 -15.1484 -15.1465 -15.1089 -15.1004 -15.0703 -14.9832
   -14.9713 -14.9437 -14.9061 -14.8719 -14.8169 -14.8022 -14.7747 -14.7384
   -14.7342 -14.7166 -14.6879 -14.6510 -14.5398 -14.1633 -13.6445 -12.9713
   -12.8930  -8.4794  -6.3865  -3.9472  -3.3793  -3.0688  -3.0245  -2.9766
    -2.9450  -2.8730  -2.8687  -2.8065  -2.7861  -2.6838  -2.6165  -2.5815
    -2.5255  -2.5025  -2.4721  -2.4152  -2.3839  -2.3751  -2.3559  -2.3006
    -2.2762  -2.2504  -2.2162  -2.2012  -2.1991  -2.1422  -2.1162  -2.1104
    -2.0381  -1.9757  -1.9514  -1.8515  -1.8004  -1.7744  -1.6944  -1.6356
    -1.5621  -1.5005  -1.4762  -1.4494  -1.2648  -1.2283  -1.1909  -1.1024
    -1.0398  -0.9466  -0.9345  -0.9093  -0.8208  -0.7980  -0.7718  -0.7396
    -0.6603  -0.6256  -0.6116  -0.5558  -0.4854  -0.4505  -0.4236  -0.4099
    -0.3841  -0.3309  -0.2969  -0.2524  -0.2111  -0.1899  -0.1712  -0.1514
    -0.1128  -0.0732  -0.0576   0.0057   0.0462   0.0879   0.1783   0.2045
     0.2145   0.2626   0.3132   0.4042   0.4447   0.4741   0.5869   0.6470
     0.6987   0.7465   0.8216   0.8694   0.9010   0.9378   0.9603   1.0978
     1.1628   1.4582   1.7336   1.7556   1.8339   2.0022   2.0639   3.8272
     3.8963   3.9276   4.0040   4.0677   4.0886   4.1534   4.1834   4.2109
     4.2380

          k = 0.0380-0.0839 0.0000 ( 17916 PWs)   bands (ev):

   -55.4782 -55.4774 -55.4681 -55.4678 -55.4005 -55.3408 -55.3180 -55.3133
   -55.2830 -55.2811 -55.2405 -55.2398 -55.0637 -54.7929 -54.4495 -54.4493
   -31.8483 -31.8466 -31.7911 -31.7906 -31.7817 -31.7737 -31.7729 -31.7573
   -31.6973 -31.6956 -31.6831 -31.6800 -31.6640 -31.6308 -31.6304 -31.6264
   -31.6056 -31.5997 -31.5989 -31.5982 -31.5941 -31.5737 -31.5713 -31.5491
   -31.5270 -31.5256 -31.5106 -31.5077 -31.5075 -31.4957 -31.4735 -31.4731
   -31.4558 -31.4517 -31.4335 -31.4333 -31.3995 -31.3302 -31.2294 -31.1265
   -31.0608 -31.0160 -30.7751 -30.7750 -30.6863 -30.6861 -30.6469 -30.6469
   -18.5823 -15.7440 -15.7246 -15.5240 -15.5178 -15.3963 -15.3895 -15.2898
   -15.2813 -15.2632 -15.2471 -15.1877 -15.1813 -15.0660 -15.0602 -14.9675
   -14.9514 -14.9187 -14.9125 -14.9012 -14.8982 -14.8528 -14.8440 -14.8087
   -14.7882 -14.7795 -14.7306 -14.6711 -14.5247 -14.2661 -13.6581 -12.9553
   -12.9551  -8.4790  -6.3864  -3.9301  -2.9982  -2.9599  -2.8347  -2.7592
    -2.7436  -2.7274  -2.6773  -2.6620  -2.6214  -2.5927  -2.5710  -2.5586
    -2.5439  -2.5016  -2.4904  -2.4612  -2.4303  -2.4135  -2.3943  -2.3329
    -2.3254  -2.3159  -2.2959  -2.2551  -2.2092  -2.2020  -2.1780  -2.1364
    -2.1059  -2.0752  -2.0201  -1.9632  -1.8040  -1.6128  -1.5879  -1.5777
    -1.4712  -1.4074  -1.3871  -1.3407  -1.3292  -1.2798  -1.2488  -1.2270
    -1.1939  -1.1436  -1.1231  -1.0692  -0.9929  -0.9602  -0.9204  -0.7653
    -0.7033  -0.6601  -0.6204  -0.5178  -0.4975  -0.4353  -0.4202  -0.4152
    -0.3462  -0.2893  -0.2592  -0.2460  -0.2285  -0.2060  -0.1838  -0.1454
    -0.1047  -0.0925  -0.0652  -0.0413  -0.0317   0.0486   0.0806   0.1357
     0.1604   0.2290   0.3407   0.3636   0.4648   0.5242   0.6019   0.6086
     0.6493   0.6637   0.6829   0.7288   0.8663   0.8900   1.0492   1.0629
     1.1909   1.2485   1.7314   1.9013   1.9018   2.0058   2.0066   3.9011
     3.9153   3.9959   4.0175   4.0628   4.0714   4.2137   4.2448   4.2705
     4.2747

          k = 0.0380-0.0419 0.0000 ( 17876 PWs)   bands (ev):

   -55.4898 -55.4806 -55.4657 -55.4552 -55.4028 -55.3384 -55.3280 -55.3033
   -55.2939 -55.2701 -55.2520 -55.2281 -55.0641 -54.7923 -54.4614 -54.4374
   -31.9870 -31.9231 -31.8022 -31.7976 -31.7879 -31.7831 -31.7742 -31.7425
   -31.7205 -31.7127 -31.7004 -31.6842 -31.6738 -31.6704 -31.6550 -31.6371
   -31.6308 -31.6201 -31.5657 -31.5538 -31.5459 -31.5362 -31.5299 -31.5146
   -31.5042 -31.5029 -31.4880 -31.4873 -31.4835 -31.4749 -31.4637 -31.4581
   -31.4522 -31.4418 -31.4298 -31.4215 -31.4180 -31.3312 -31.2312 -31.0885
   -31.0606 -31.0048 -30.8189 -30.7849 -30.7653 -30.6774 -30.6163 -30.5496
   -18.5824 -16.0555 -15.7718 -15.6069 -15.5224 -15.4928 -15.4432 -15.3789
   -15.3103 -15.2466 -15.1470 -15.1448 -15.1095 -15.1010 -15.0705 -14.9838
   -14.9718 -14.9463 -14.9043 -14.8716 -14.8166 -14.8041 -14.7730 -14.7383
   -14.7332 -14.7168 -14.6882 -14.6512 -14.5399 -14.1631 -13.6446 -12.9713
   -12.8930  -8.4795  -6.3865  -3.9457  -3.3800  -3.0669  -3.0243  -2.9773
    -2.9443  -2.8710  -2.8676  -2.8121  -2.7847  -2.6803  -2.6203  -2.5829
    -2.5303  -2.5041  -2.4709  -2.4150  -2.3836  -2.3729  -2.3389  -2.3085
    -2.2800  -2.2380  -2.2164  -2.2004  -2.1931  -2.1440  -2.1270  -2.0944
    -2.0385  -1.9765  -1.9512  -1.8637  -1.8098  -1.7536  -1.6912  -1.6301
    -1.5502  -1.4942  -1.4822  -1.4427  -1.2931  -1.2396  -1.1947  -1.1187
    -1.0480  -0.9513  -0.9285  -0.9086  -0.8235  -0.8088  -0.7750  -0.7258
    -0.6576  -0.6262  -0.6136  -0.5603  -0.4994  -0.4558  -0.4215  -0.4101
    -0.3897  -0.3378  -0.2974  -0.2764  -0.2177  -0.1961  -0.1730  -0.1434
    -0.1197  -0.0882  -0.0255   0.0142   0.0606   0.0965   0.1782   0.2025
     0.2143   0.2688   0.3109   0.4352   0.4497   0.4770   0.6116   0.6398
     0.6933   0.7488   0.8261   0.8593   0.9058   0.9302   0.9625   1.1006
     1.1640   1.4598   1.7371   1.7556   1.8337   2.0020   2.0645   3.8280
     3.8953   3.9236   4.0231   4.0490   4.0733   4.1410   4.1895   4.2034
     4.2309

          k =-0.0760-0.0000 0.0000 ( 17886 PWs)   bands (ev):

   -55.4948 -55.4858 -55.4608 -55.4499 -55.4050 -55.3362 -55.3330 -55.2987
   -55.2983 -55.2651 -55.2571 -55.2232 -55.0646 -54.7919 -54.4664 -54.4324
   -32.0446 -31.9780 -31.8529 -31.8469 -31.8139 -31.7989 -31.7876 -31.7574
   -31.7363 -31.7357 -31.7041 -31.6695 -31.6684 -31.6414 -31.6277 -31.6258
   -31.6248 -31.5979 -31.5825 -31.5523 -31.5396 -31.5297 -31.5123 -31.5004
   -31.4950 -31.4927 -31.4873 -31.4773 -31.4721 -31.4599 -31.4574 -31.4508
   -31.4480 -31.4292 -31.4113 -31.4046 -31.3704 -31.3352 -31.2341 -31.0640
   -31.0601 -30.9896 -30.8725 -30.7923 -30.7600 -30.6899 -30.6034 -30.4924
   -18.5824 -16.0987 -15.7882 -15.6310 -15.5798 -15.5295 -15.4828 -15.3440
   -15.2755 -15.2666 -15.2078 -15.1991 -15.1855 -15.1850 -15.1706 -15.1463
   -15.0556 -14.8512 -14.8336 -14.8204 -14.8089 -14.7640 -14.7373 -14.6875
   -14.6657 -14.6473 -14.6438 -14.5746 -14.5199 -14.0885 -13.6257 -12.9632
   -12.8525  -8.4830  -6.3879  -3.9988  -3.5367  -3.1630  -3.0949  -3.0491
    -2.8862  -2.8834  -2.8442  -2.8225  -2.7711  -2.7520  -2.7377  -2.7065
    -2.6997  -2.5240  -2.4960  -2.4160  -2.3731  -2.2919  -2.2558  -2.2401
    -2.1414  -2.1318  -2.0575  -2.0545  -1.9939  -1.9889  -1.9204  -1.8727
    -1.8222  -1.7985  -1.7864  -1.7528  -1.7219  -1.7188  -1.6658  -1.6466
    -1.6225  -1.5830  -1.5072  -1.3099  -1.2993  -1.2931  -1.1462  -1.1328
    -1.1050  -1.0845  -1.0746  -1.0609  -0.9765  -0.9561  -0.8729  -0.8503
    -0.8211  -0.7690  -0.7217  -0.6972  -0.6486  -0.6454  -0.5728  -0.4002
    -0.3701  -0.3402  -0.3241  -0.2405  -0.1774  -0.1632  -0.1421  -0.1071
    -0.0377  -0.0084   0.0164   0.0761   0.1054   0.1880   0.2301   0.2494
     0.2758   0.3144   0.3252   0.3606   0.4125   0.4891   0.5243   0.5662
     0.6218   0.7629   0.7712   0.8169   0.9949   1.0074   1.1281   1.2030
     1.2521   1.4976   1.5880   1.6936   1.7923   1.8851   2.0326   3.6861
     3.6933   3.8097   3.9299   3.9771   4.0571   4.0972   4.1499   4.1705
     4.1892

          k =-0.0760 0.0419 0.0000 ( 17914 PWs)   bands (ev):

   -55.4898 -55.4806 -55.4658 -55.4552 -55.4029 -55.3384 -55.3280 -55.3033
   -55.2938 -55.2701 -55.2521 -55.2282 -55.0642 -54.7924 -54.4614 -54.4374
   -31.9874 -31.9241 -31.8024 -31.7991 -31.7950 -31.7831 -31.7744 -31.7425
   -31.7205 -31.7129 -31.7054 -31.6749 -31.6710 -31.6675 -31.6552 -31.6287
   -31.6271 -31.6165 -31.5710 -31.5656 -31.5358 -31.5299 -31.5155 -31.5136
   -31.5057 -31.5033 -31.4906 -31.4869 -31.4829 -31.4754 -31.4733 -31.4636
   -31.4558 -31.4413 -31.4295 -31.4244 -31.4213 -31.3337 -31.2312 -31.0886
   -31.0615 -31.0048 -30.8187 -30.7877 -30.7646 -30.6774 -30.6163 -30.5496
   -18.5824 -15.9795 -15.6750 -15.5425 -15.4913 -15.4731 -15.3934 -15.3793
   -15.2472 -15.2392 -15.2282 -15.1768 -15.1549 -15.1456 -15.1185 -15.1012
   -15.0503 -14.9235 -14.9035 -14.8868 -14.8705 -14.8170 -14.7742 -14.7571
   -14.7443 -14.6921 -14.6659 -14.6471 -14.5364 -14.1616 -13.6415 -12.9692
   -12.8933  -8.4819  -6.3876  -3.9628  -3.3665  -3.0001  -2.8759  -2.8236
    -2.7961  -2.7448  -2.6847  -2.6427  -2.6062  -2.5836  -2.5647  -2.5374
    -2.4954  -2.4788  -2.4521  -2.4356  -2.4144  -2.3588  -2.3045  -2.2682
    -2.2498  -2.2119  -2.1936  -2.1797  -2.1527  -2.0963  -2.0738  -1.9807
    -1.9688  -1.9653  -1.9486  -1.8532  -1.7408  -1.7066  -1.6228  -1.6147
    -1.5791  -1.5311  -1.4630  -1.4439  -1.2785  -1.2532  -1.1418  -1.0995
    -1.0527  -1.0447  -0.9822  -0.9694  -0.9265  -0.8984  -0.8191  -0.8029
    -0.7746  -0.7287  -0.7167  -0.7048  -0.6555  -0.6327  -0.5941  -0.5377
    -0.5114  -0.4852  -0.4294  -0.4092  -0.3346  -0.2979  -0.2595  -0.2261
    -0.2123  -0.1772  -0.1201  -0.0846  -0.0405  -0.0057   0.0958   0.1683
     0.2043   0.2226   0.3424   0.4149   0.5038   0.5439   0.5920   0.7036
     0.7433   0.8152   0.8569   0.8974   0.9592   0.9695   1.0323   1.0825
     1.1085   1.3059   1.7435   1.7704   1.8371   1.9257   2.0532   3.8141
     3.8717   3.8938   3.9610   3.9762   4.0061   4.1310   4.1648   4.2159
     4.2731

          k =-0.0760-0.0839 0.0000 ( 17948 PWs)   bands (ev):

   -55.4782 -55.4774 -55.4681 -55.4678 -55.4005 -55.3409 -55.3181 -55.3133
   -55.2829 -55.2810 -55.2405 -55.2399 -55.0637 -54.7929 -54.4495 -54.4493
   -31.8486 -31.8469 -31.7918 -31.7913 -31.7818 -31.7737 -31.7730 -31.7575
   -31.6982 -31.6959 -31.6894 -31.6855 -31.6645 -31.6319 -31.6152 -31.6117
   -31.6035 -31.5996 -31.5977 -31.5970 -31.5941 -31.5809 -31.5786 -31.5464
   -31.5365 -31.5348 -31.5104 -31.4957 -31.4791 -31.4787 -31.4732 -31.4728
   -31.4560 -31.4558 -31.4552 -31.4515 -31.3993 -31.3325 -31.2294 -31.1265
   -31.0618 -31.0160 -30.7760 -30.7759 -30.6863 -30.6861 -30.6469 -30.6469
   -18.5823 -15.7042 -15.6719 -15.4336 -15.4276 -15.4177 -15.4031 -15.2615
   -15.2066 -15.1981 -15.1914 -15.1654 -15.1446 -15.0915 -15.0652 -15.0269
   -15.0213 -15.0157 -15.0129 -14.9508 -14.9449 -14.9237 -14.9164 -14.8025
   -14.7998 -14.7984 -14.7271 -14.6568 -14.5205 -14.2629 -13.6559 -12.9551
   -12.9548  -8.4809  -6.3874  -3.9282  -2.9977  -2.9602  -2.8130  -2.7222
    -2.6745  -2.6604  -2.6428  -2.5654  -2.4139  -2.4047  -2.3886  -2.3714
    -2.3572  -2.3198  -2.3134  -2.3009  -2.2880  -2.2808  -2.2628  -2.2266
    -2.1882  -2.1605  -2.1526  -2.1430  -2.1184  -2.1063  -2.0809  -2.0755
    -2.0410  -2.0328  -2.0166  -1.9925  -1.7368  -1.7119  -1.6935  -1.6231
    -1.6159  -1.5837  -1.5748  -1.5558  -1.5426  -1.4900  -1.3913  -1.2247
    -1.1913  -1.1845  -1.1644  -1.0997  -1.0781  -0.9283  -0.9015  -0.8825
    -0.8447  -0.7955  -0.7634  -0.7242  -0.6885  -0.6523  -0.5904  -0.5830
    -0.5026  -0.4538  -0.4529  -0.4274  -0.4196  -0.3567  -0.2777  -0.2589
    -0.2480  -0.2066  -0.1937  -0.1119  -0.0891   0.0085   0.0231   0.0862
     0.1189   0.1913   0.3901   0.4901   0.5492   0.5755   0.6288   0.7235
     0.7788   0.7908   0.8259   0.8309   0.8926   0.9328   1.0478   1.0549
     1.1224   1.2248   1.7502   1.9195   1.9203   1.9908   1.9910   3.9094
     3.9163   3.9671   3.9958   4.1483   4.1530   4.1756   4.1765   4.2971
     4.3152

     the Fermi energy is     3.6415 ev

!    total energy              =   -2955.21564802 Ry
     estimated scf accuracy    <       0.00000006 Ry
     smearing contrib. (-TS)   =      -0.02205073 Ry
     internal energy E=F+TS    =   -2955.19359729 Ry

     The total energy is F=E-TS. E is the sum of the following terms:
     one-electron contribution =  -23379.94929612 Ry
     hartree contribution      =   11781.87848319 Ry
     xc contribution           =    -489.67933254 Ry
     ewald contribution        =    9132.55321424 Ry
     electric field correction =       0.00333394 Ry

     convergence has been achieved in  65 iterations

     Forces acting on atoms (cartesian axes, Ry/au):

     atom    1 type  1   force =     0.00012474   -0.00020191    0.09689794
     atom    2 type  1   force =     0.00004072   -0.00047346   -0.17494020
     atom    3 type  2   force =     0.00013040    0.00001858   -0.02538092
     atom    4 type  2   force =    -0.00003093   -0.00126779    0.05223791
     atom    5 type  2   force =    -0.01216675    0.00000731    0.00288677
     atom    6 type  2   force =     0.01361689    0.00055313    0.00225857
     atom    7 type  1   force =     0.00059396    0.00031224   -0.01252653
     atom    8 type  1   force =     0.00044401    0.00707318    0.03083098
     atom    9 type  2   force =     0.00032291    0.00016607    0.00045459
     atom   10 type  2   force =    -0.00271482    0.00207491   -0.01688336
     atom   11 type  2   force =     0.00019006   -0.00037896    0.00012442
     atom   12 type  2   force =     0.00006530   -0.00038461    0.00022684
     atom   13 type  1   force =    -0.00019344    0.00036361    0.00011664
     atom   14 type  1   force =    -0.00012583    0.00033343   -0.00036737
     atom   15 type  2   force =    -0.00000008   -0.00115434    0.00024092
     atom   16 type  2   force =     0.00014480    0.00036460    0.00128919
     atom   17 type  2   force =    -0.00048828   -0.00042721    0.00015314
     atom   18 type  2   force =     0.00051206   -0.00038845    0.00001434
     atom   19 type  1   force =     0.00019450   -0.00061638    0.00033688
     atom   20 type  1   force =    -0.00044926    0.00037688    0.00022698
     atom   21 type  2   force =     0.00005920   -0.00002035    0.10301035
     atom   22 type  2   force =     0.00013491   -0.00226520    0.00031108
     atom   23 type  2   force =    -0.07167845   -0.00015659   -0.02781003
     atom   24 type  2   force =     0.07157475    0.00034319   -0.02786761
     atom   25 type  1   force =     0.00008620   -0.00016498    0.09667066
     atom   26 type  1   force =     0.00009305   -0.00024752   -0.17505389
     atom   27 type  2   force =     0.00012038   -0.00011182   -0.02444914
     atom   28 type  2   force =     0.00003893   -0.00101575    0.05207156
     atom   29 type  2   force =    -0.01236159    0.00067158    0.00265203
     atom   30 type  2   force =     0.01368294    0.00106185    0.00203371
     atom   31 type  1   force =     0.00049189    0.00306709   -0.01333787
     atom   32 type  1   force =     0.00031063   -0.00928819    0.03126917
     atom   33 type  2   force =    -0.00012714    0.00015696    0.00079252
     atom   34 type  2   force =    -0.00202428    0.00179025   -0.02555800
     atom   35 type  2   force =     0.00026612    0.00020422    0.00034919
     atom   36 type  2   force =     0.00022351    0.00012249    0.00033582
     atom   37 type  1   force =    -0.00026719   -0.00066913    0.00008642
     atom   38 type  1   force =    -0.00008518    0.00002976   -0.00021781
     atom   39 type  2   force =     0.00004131   -0.00060955    0.00000572
     atom   40 type  2   force =     0.00024645    0.00004419   -0.00009096
     atom   41 type  2   force =    -0.00018450    0.00002827    0.00013335
     atom   42 type  2   force =     0.00021944   -0.00015960   -0.00023787
     atom   43 type  1   force =    -0.00033865    0.00073613   -0.00074075
     atom   44 type  1   force =    -0.00043154   -0.00078290    0.00106134
     atom   45 type  2   force =     0.00004045   -0.00004615    0.10305205
     atom   46 type  2   force =    -0.07167201   -0.00005845   -0.02780861
     atom   47 type  2   force =     0.07159235    0.00035961   -0.02787570
     atom   48 type  3   force =     0.00010511   -0.00085498    0.00020289
     atom   49 type  4   force =     0.00018865    0.00411686   -0.00023423
     atom   50 type  5   force =    -0.00029444   -0.00230927    0.00082049
     atom   51 type  3   force =    -0.00104054   -0.00009610   -0.00035724
     atom   52 type  3   force =     0.00063991   -0.00063720   -0.00048699
     atom   53 type  3   force =     0.00063694    0.00047046    0.00053921
     atom   54 type  2   force =    -0.00066340   -0.00006579   -0.00026011
     atom   55 type  3   force =    -0.00056918   -0.00001897   -0.00045039
     atom   56 type  3   force =     0.00073397    0.00002476   -0.00075809

     Total force =     0.368287     Total SCF correction =     0.000794
  @ DRIVER MODE: Message from server: STATUS
  @ DRIVER MODE: Message from server: GETFORCE
  @ DRIVER MODE: Returning v,forces,stress,ensemble 

     Writing output data file ./calc.save/
  @ DRIVER MODE: Message from server: EXIT
  @ DRIVE MODE: Exiting  
 
     init_run     :     10.70s CPU     10.92s WALL (       1 calls)
     electrons    :   1025.41s CPU   1040.32s WALL (       1 calls)
     forces       :      2.38s CPU      2.46s WALL (       1 calls)

     Called by init_run:
     wfcinit      :      4.74s CPU      4.81s WALL (       1 calls)
     potinit      :      5.31s CPU      5.36s WALL (       1 calls)
     hinit0       :      0.30s CPU      0.31s WALL (       1 calls)

     Called by electrons:
     c_bands      :    874.27s CPU    880.58s WALL (      65 calls)
     sum_band     :    102.71s CPU    106.14s WALL (      65 calls)
     v_of_rho     :     36.78s CPU     38.63s WALL (      66 calls)
     newd         :     14.91s CPU     18.17s WALL (      66 calls)
     mix_rho      :      1.33s CPU      1.38s WALL (      65 calls)
     vdW_kernel   :      4.54s CPU      4.55s WALL (       1 calls)

     Called by c_bands:
     init_us_2    :      6.13s CPU      6.17s WALL (    1320 calls)
     cegterg      :    856.87s CPU    862.88s WALL (     663 calls)

     Called by *egterg:
     cdiaghg      :    144.06s CPU    144.75s WALL (    6953 calls)
     h_psi        :    454.71s CPU    458.87s WALL (    6964 calls)
     s_psi        :     61.23s CPU     61.42s WALL (    6964 calls)
     g_psi        :      1.64s CPU      1.65s WALL (    6291 calls)

     Called by h_psi:
     h_psi:calbec :     57.37s CPU     57.68s WALL (    6964 calls)
     vloc_psi     :    332.75s CPU    336.06s WALL (    6964 calls)
     add_vuspsi   :     61.56s CPU     61.89s WALL (    6964 calls)

     General routines
     calbec       :     75.68s CPU     76.04s WALL (    7654 calls)
     fft          :     18.45s CPU     18.59s WALL (    4158 calls)
     ffts         :      0.12s CPU      0.12s WALL (     131 calls)
     fftw         :    372.68s CPU    376.36s WALL (  893092 calls)
     interpolate  :      0.37s CPU      0.38s WALL (      66 calls)
     davcio       :      0.00s CPU      0.23s WALL (      10 calls)
 
     Parallel routines
 
     PWSCF        :  17m18.78s CPU  17m34.60s WALL

 
   This run was terminated on:  18:44:56  15Sep2021            

=------------------------------------------------------------------------------=
   JOB DONE.
=------------------------------------------------------------------------------=
