
     Program PWSCF v.6.8 starts on 11Oct2021 at 21:53:37 

     This program is part of the open-source Quantum ESPRESSO suite
     for quantum simulation of materials; please cite
         "P. Giannozzi et al., J. Phys.:Condens. Matter 21 395502 (2009);
         "P. Giannozzi et al., J. Phys.:Condens. Matter 29 465901 (2017);
         "P. Giannozzi et al., J. Chem. Phys. 152 154105 (2020);
          URL http://www.quantum-espresso.org", 
     in publications or presentations arising from this work. More details at
     http://www.quantum-espresso.org/quote

     Parallel version (MPI), running on     4 processors

     MPI processes distributed on     1 nodes
     R & G space division:  proc/nbgrp/npool/nimage =       4
     163277 MiB available memory on the printing compute node when the environment starts
 
     Reading input from /storage/home/hcoda1/3/ntian30/research/carbon/ACS_sus_calc/ads_slab/HNNH2/ACS_sus_calc.log/pw.inp
Warning: card &CELL ignored
Warning: card   CELL_DYNAMICS='IPI', ignored
Warning: card / ignored

     Current dimensions of program PWSCF are:
     Max number of different atomic species (ntypx) = 10
     Max number of k-points (npk) =  40000
     Max angular momentum in pseudopotentials (lmaxx) =  4
     Presently no symmetry can be used with electric field

     Message from routine cell_base_init:
     DEPRECATED: use true lattice parameter, not A to a.u. conversion factor

     **************************************************************************
     Initializing libbeef V0.1.2 with the BEEF-vdW functional.
     Citation: Wellendorff et al., PRB 85, 235149 (2012).
     **************************************************************************


     IMPORTANT: XC functional enforced from input :
     Exchange-correlation= BEEF-VDW
                           (   1   4  43  14   2   0   0)
     Any further DFT definition will be discarded
     Please, verify this is what you really want


     Subspace diagonalization in iterative solution of the eigenvalue problem:
     one sub-group per band group will be used
     scalapack distributed-memory algorithm (size of sub-group:  2*  2 procs)

  @ DRIVER MODE: Connecting to 
 qe_1139763_3174294.sched-torque.pace.gatech.eduvsalvn2j_scratch
  using UNIX socket
  @ DRIVER MODE: Message from server: STATUS
  @ DRIVER MODE: Message from server: INIT
  @ DRIVER MODE: Receiving replica           0          -1
  @ DRIVER MODE: Receiving encoded integer          25
  @ DRIVER MODE:  SCF:  T  FORCE:  T  STRESS:  F  VC:  F  ENSEMBLE:  F
  @ DRIVER MODE:  SCF:  T  FORCE:  T  STRESS:  F  VC:  F  ENSEMBLE:  F
 
     Parallelization info
     --------------------
     sticks:   dense  smooth     PW     G-vecs:    dense   smooth      PW
     Min         818     329     94               141714    35854    5493
     Max         820     330     95               141715    35857    5499
     Sum        3275    1317    379               566857   143421   21985
 
     Using Slab Decomposition
 


     bravais-lattice index     =            0
     lattice parameter (alat)  =       1.8897  a.u.
     unit-cell volume          =    6658.9804 (a.u.)^3
     number of atoms/cell      =           52
     number of atomic types    =            4
     number of electrons       =       391.00
     number of Kohn-Sham states=          205
     kinetic-energy cutoff     =      29.3995  Ry
     charge density cutoff     =     293.9946  Ry
     scf convergence threshold =      7.3E-08
     mixing beta               =       0.0500
     number of iterations used =            8  plain     mixing
     Exchange-correlation= BEEF-VDW
                           (   1   4  43  14   2   0   0)

     celldm(1)=   1.889726  celldm(2)=   0.000000  celldm(3)=   0.000000
     celldm(4)=   0.000000  celldm(5)=   0.000000  celldm(6)=   0.000000

     crystal axes: (cart. coord. in units of alat)
               a(1) = (   6.579727   0.000000   0.000000 )  
               a(2) = (  -0.000775   5.961596   0.000000 )  
               a(3) = (   0.000000   0.000000  25.155947 )  

     reciprocal axes: (cart. coord. in units 2 pi/alat)
               b(1) = (  0.151982  0.000020  0.000000 )  
               b(2) = (  0.000000  0.167740  0.000000 )  
               b(3) = (  0.000000  0.000000  0.039752 )  


     PseudoPot. # 1 for Ti read from file:
     /storage/coda1/p-amedford6/0/shared/rich_project_chbe-medford/medford-share/data/pseudos_module/espresso/nninc/pbe/van/Ti.UPF
     MD5 check sum: 8e4df49b7f0d34bbd5052bf3f5ea0213
     Pseudo is Ultrasoft, Zval = 12.0
     Generated by new atomic code, or converted to UPF format
     Using radial grid of  851 points,  6 beta functions with: 
                l(1) =   0
                l(2) =   0
                l(3) =   1
                l(4) =   1
                l(5) =   2
                l(6) =   2
     Q(r) pseudized with  8 coefficients,  rinner =    1.000   1.000   1.000
                                                       1.000   1.000

     PseudoPot. # 2 for O  read from file:
     /storage/coda1/p-amedford6/0/shared/rich_project_chbe-medford/medford-share/data/pseudos_module/espresso/nninc/pbe/van/O.UPF
     MD5 check sum: 78c19812648e8988a0fe644b0f25305e
     Pseudo is Ultrasoft, Zval =  6.0
     Generated by new atomic code, or converted to UPF format
     Using radial grid of  737 points,  4 beta functions with: 
                l(1) =   0
                l(2) =   0
                l(3) =   1
                l(4) =   1
     Q(r) pseudized with  8 coefficients,  rinner =    0.800   0.800   0.800


     PseudoPot. # 3 for H  read from file:
     /storage/coda1/p-amedford6/0/shared/rich_project_chbe-medford/medford-share/data/pseudos_module/espresso/nninc/pbe/van/H.UPF
     MD5 check sum: b5ee9d7bfd3a09ee7748110bda690ff7
     Pseudo is Ultrasoft, Zval =  1.0
     Generated by new atomic code, or converted to UPF format
     Using radial grid of  615 points,  1 beta functions with: 
                l(1) =   0
     Q(r) pseudized with  8 coefficients,  rinner =    0.800

     PseudoPot. # 4 for N  read from file:
     /storage/coda1/p-amedford6/0/shared/rich_project_chbe-medford/medford-share/data/pseudos_module/espresso/nninc/pbe/van/N.UPF
     MD5 check sum: 90d10febe142ad51ac9d5be1deb811c4
     Pseudo is Ultrasoft, Zval =  5.0
     Generated by new atomic code, or converted to UPF format
     Using radial grid of  729 points,  4 beta functions with: 
                l(1) =   0
                l(2) =   0
                l(3) =   1
                l(4) =   1
     Q(r) pseudized with  8 coefficients,  rinner =    0.800   0.800   0.800


     atomic species   valence    mass     pseudopotential
        Ti1           12.00    47.86700     Ti( 1.00)
        O1             6.00    15.99900     O ( 1.00)
        H1             1.00     1.00800     H ( 1.00)
        N1             5.00    14.00700     N ( 1.00)

     No symmetry found



   Cartesian axes

     site n.     atom                  positions (alat units)
         1           Ti1 tau(   1) = (   0.0004258   2.9801865   6.0000000  )
         2           Ti1 tau(   2) = (   3.2906075   1.4906267   6.0002472  )
         3           O1  tau(   3) = (   0.0006271   0.0005054   7.9858123  )
         4           O1  tau(   4) = (   3.2906025   0.0005020   7.3038282  )
         5           O1  tau(   5) = (   4.5942328   1.4918067   9.2879030  )
         6           O1  tau(   6) = (   1.9868534   1.4903216   9.2879459  )
         7           Ti1 tau(   7) = (   3.2908112   2.9011704   9.1816539  )
         8           Ti1 tau(   8) = (   0.0014763   1.4060218   9.2969173  )
         9           O1  tau(   9) = (   3.2834636   5.9536718  11.3427651  )
        10           O1  tau(  10) = (   6.5788821   5.9518561  10.6083680  )
        11           O1  tau(  11) = (   1.2890473   1.4788594  12.6512550  )
        12           O1  tau(  12) = (   5.2768558   1.4824746  12.6415477  )
        13           Ti1 tau(  13) = (   6.5636691   2.9599532  12.7907335  )
        14           Ti1 tau(  14) = (   3.2780346   1.4769099  12.4944687  )
        15           O1  tau(  15) = (   6.5512709   5.9430013  14.6697103  )
        16           O1  tau(  16) = (   3.2864993   5.9466181  13.9536888  )
        17           O1  tau(  17) = (   4.5254155   1.4925735  16.1175678  )
        18           O1  tau(  18) = (   2.0219265   1.4857223  16.1066840  )
        19           Ti1 tau(  19) = (   3.2748212   2.9638608  15.7151074  )
        20           Ti1 tau(  20) = (   0.0132411   1.3635913  16.0610475  )
        21           O1  tau(  21) = (   3.2904802   0.0005063   4.7018136  )
        22           O1  tau(  22) = (   0.0080068   5.9463817  17.2233334  )
        23           O1  tau(  23) = (   1.3043587   1.4918075   6.0039043  )
        24           O1  tau(  24) = (   5.2767064   1.4903225   6.0039473  )
        25           Ti1 tau(  25) = (   0.0000382   5.9609847   6.0000000  )
        26           Ti1 tau(  26) = (   3.2902200   4.4714249   6.0002472  )
        27           O1  tau(  27) = (   0.0002396   2.9813036   7.9858123  )
        28           O1  tau(  28) = (   3.2902150   2.9813002   7.3038282  )
        29           O1  tau(  29) = (   4.5938453   4.4726049   9.2879030  )
        30           O1  tau(  30) = (   1.9864658   4.4711199   9.2879459  )
        31           Ti1 tau(  31) = (   3.2900885   5.8829342   9.1674613  )
        32           Ti1 tau(  32) = (   0.0010402   4.3495341   9.3648894  )
        33           O1  tau(  33) = (   3.2817592   2.9670725  11.3391535  )
        34           O1  tau(  34) = (   0.0014813   2.9655947  10.5838815  )
        35           O1  tau(  35) = (   1.2904457   4.4616386  12.6390961  )
        36           O1  tau(  36) = (   5.2753745   4.4574550  12.6308120  )
        37           Ti1 tau(  37) = (   6.5724122   5.9422659  12.5862661  )
        38           Ti1 tau(  38) = (   3.2782235   4.4569240  12.4854273  )
        39           O1  tau(  39) = (   6.5661373   2.9844695  14.6936362  )
        40           O1  tau(  40) = (   3.2824333   2.9713950  13.9250383  )
        41           O1  tau(  41) = (   4.5250662   4.4369383  16.1185980  )
        42           O1  tau(  42) = (   2.0183575   4.4404105  16.1194212  )
        43           Ti1 tau(  43) = (   3.2987276   5.9481038  15.7451531  )
        44           Ti1 tau(  44) = (   0.0021247   4.5059556  16.0057258  )
        45           O1  tau(  45) = (   3.2900926   2.9813045   4.7018136  )
        46           O1  tau(  46) = (   1.3039711   4.4726057   6.0039043  )
        47           O1  tau(  47) = (   5.2763189   4.4711207   6.0039473  )
        48           H1  tau(  48) = (   5.5811061   2.9907737  17.8912486  )
        49           N1  tau(  49) = (   6.5221854   2.9791106  17.4969217  )
        50           N1  tau(  50) = (   0.8249900   2.9790587  18.6202786  )
        51           H1  tau(  51) = (   1.2023370   2.0403039  18.7650705  )
        52           H1  tau(  52) = (   1.6021741   3.6112164  18.4363779  )

     number of k points=    10  Fermi-Dirac smearing, width (Ry)=  0.0073
                       cart. coord. in units 2pi/alat
        k(    1) = (   0.0000000   0.0000000   0.0000000), wk =   0.1250000
        k(    2) = (   0.0000000   0.0419351   0.0000000), wk =   0.2500000
        k(    3) = (   0.0000000  -0.0838702   0.0000000), wk =   0.1250000
        k(    4) = (   0.0379955   0.0000049   0.0000000), wk =   0.2500000
        k(    5) = (   0.0379955   0.0419400   0.0000000), wk =   0.2500000
        k(    6) = (   0.0379955  -0.0838652   0.0000000), wk =   0.2500000
        k(    7) = (   0.0379955  -0.0419301   0.0000000), wk =   0.2500000
        k(    8) = (  -0.0759910  -0.0000099   0.0000000), wk =   0.1250000
        k(    9) = (  -0.0759910   0.0419252   0.0000000), wk =   0.2500000
        k(   10) = (  -0.0759910  -0.0838800   0.0000000), wk =   0.1250000

     Dense  grid:   566857 G-vectors     FFT dimensions: (  72,  64, 270)

     Smooth grid:   143421 G-vectors     FFT dimensions: (  45,  40, 180)

     Estimated max dynamical RAM per process >     890.43 MB

     Estimated total dynamical RAM >       3.48 GB

     Initial potential from superposition of free atoms

     starting charge  374.99920, renormalised to  391.00000

     negative rho (up, down):  1.957E-02 0.000E+00


     %%%%%%%%%%%%%%%%%%%%%%%%%%%%%%%%%%%%%%%%%%%%%%%%%%%%%%%%%%%%%%%%%%%%%%%%
     %                                                                      %
     % You are using vdW-DF, which was implemented by the Thonhauser group. %
     % Please cite the following two papers that made this development      %
     % possible and the two reviews that describe the various versions:     %
     %                                                                      %
     %   T. Thonhauser et al., PRL 115, 136402 (2015).                      %
     %   T. Thonhauser et al., PRB 76, 125112 (2007).                       %
     %   K. Berland et al., Rep. Prog. Phys. 78, 066501 (2015).             %
     %   D.C. Langreth et al., J. Phys.: Condens. Matter 21, 084203 (2009). %
     %                                                                      %
     %                                                                      %
     % If you are calculating the stress with vdW-DF, please also cite:     %
     %                                                                      %
     %   R. Sabatini et al., J. Phys.: Condens. Matter 24, 424209 (2012).   %
     %                                                                      %
     %%%%%%%%%%%%%%%%%%%%%%%%%%%%%%%%%%%%%%%%%%%%%%%%%%%%%%%%%%%%%%%%%%%%%%%%


 
     Adding external electric field

     Computed dipole along edir(3) : 
        Dipole               -5.4427 Ry au,        -13.8339 Debye
        Dipole field         -0.0103 Ry au, 
 
        Potential amp.        0.9521 Ry
        Total length         46.3494 bohr
 
     Starting wfcs are  295 atomic wfcs
  @ DRIVER MODE: Message from server: STATUS
  @ DRIVER MODE: Message from server: POSDATA
  @ DRIVER MODE: Reading and sharing cell 
  @ DRIVER MODE: Reading and sharing positions 
  @ DRIVER MODE: Received positions 

     total cpu time spent up to now is      153.1 secs

     Self-consistent Calculation

     iteration #  1     ecut=    29.40 Ry     beta= 0.05
     Davidson diagonalization with overlap
     ethr =  1.00E-02,  avg # of iterations =  2.0

     negative rho (up, down):  1.939E-02 0.000E+00
 
     Adding external electric field

     Computed dipole along edir(3) : 
        Dipole               23.9376 Ry au,         60.8432 Debye
        Dipole field          0.0452 Ry au, 
 
        Potential amp.       -4.1875 Ry
        Total length         46.3494 bohr
 

     total cpu time spent up to now is      298.1 secs

     total energy              =   -2799.00082549 Ry
     estimated scf accuracy    <    1410.51363445 Ry

     iteration #  2     ecut=    29.40 Ry     beta= 0.05
     Davidson diagonalization with overlap
     ethr =  1.00E-02,  avg # of iterations = 17.0

     negative rho (up, down):  8.331E-03 0.000E+00
 
     Adding external electric field

     Computed dipole along edir(3) : 
        Dipole               -2.4165 Ry au,         -6.1422 Debye
        Dipole field         -0.0046 Ry au, 
 
        Potential amp.        0.4227 Ry
        Total length         46.3494 bohr
 

     total cpu time spent up to now is      498.9 secs

     total energy              =   -2660.85976727 Ry
     estimated scf accuracy    <   34158.06093152 Ry

     iteration #  3     ecut=    29.40 Ry     beta= 0.05
     Davidson diagonalization with overlap
     c_bands:  3 eigenvalues not converged
     ethr =  1.00E-02,  avg # of iterations = 15.6

     negative rho (up, down):  8.348E-03 0.000E+00
 
     Adding external electric field

     Computed dipole along edir(3) : 
        Dipole               -3.3671 Ry au,         -8.5584 Debye
        Dipole field         -0.0064 Ry au, 
 
        Potential amp.        0.5890 Ry
        Total length         46.3494 bohr
 

     total cpu time spent up to now is      585.6 secs

     total energy              =   -2916.35168382 Ry
     estimated scf accuracy    <    1038.88395004 Ry

     iteration #  4     ecut=    29.40 Ry     beta= 0.05
     Davidson diagonalization with overlap
     ethr =  1.00E-02,  avg # of iterations =  7.7

     negative rho (up, down):  8.416E-03 0.000E+00
 
     Adding external electric field

     Computed dipole along edir(3) : 
        Dipole               -4.2613 Ry au,        -10.8311 Debye
        Dipole field         -0.0080 Ry au, 
 
        Potential amp.        0.7454 Ry
        Total length         46.3494 bohr
 

     total cpu time spent up to now is     1177.4 secs

     total energy              =   -2913.71558979 Ry
     estimated scf accuracy    <     631.77098370 Ry

     iteration #  5     ecut=    29.40 Ry     beta= 0.05
     Davidson diagonalization with overlap
     ethr =  1.00E-02,  avg # of iterations =  8.3

     negative rho (up, down):  8.270E-03 0.000E+00
 
     Adding external electric field

     Computed dipole along edir(3) : 
        Dipole               -4.0219 Ry au,        -10.2225 Debye
        Dipole field         -0.0076 Ry au, 
 
        Potential amp.        0.7036 Ry
        Total length         46.3494 bohr
 

     total cpu time spent up to now is     1269.2 secs

     total energy              =   -2929.40207773 Ry
     estimated scf accuracy    <      11.62195407 Ry

     iteration #  6     ecut=    29.40 Ry     beta= 0.05
     Davidson diagonalization with overlap
     ethr =  2.97E-03,  avg # of iterations =  2.8

     negative rho (up, down):  8.241E-03 0.000E+00
 
     Adding external electric field

     Computed dipole along edir(3) : 
        Dipole               -3.1606 Ry au,         -8.0333 Debye
        Dipole field         -0.0060 Ry au, 
 
        Potential amp.        0.5529 Ry
        Total length         46.3494 bohr
 

     total cpu time spent up to now is     1311.9 secs

     total energy              =   -2928.30687693 Ry
     estimated scf accuracy    <      11.01339921 Ry

     iteration #  7     ecut=    29.40 Ry     beta= 0.05
     Davidson diagonalization with overlap
     ethr =  2.82E-03,  avg # of iterations =  1.9

     negative rho (up, down):  8.394E-03 0.000E+00
 
     Adding external electric field

     Computed dipole along edir(3) : 
        Dipole               -1.3441 Ry au,         -3.4164 Debye
        Dipole field         -0.0025 Ry au, 
 
        Potential amp.        0.2351 Ry
        Total length         46.3494 bohr
 

     total cpu time spent up to now is     1470.7 secs

     total energy              =   -2926.58181014 Ry
     estimated scf accuracy    <       6.77502954 Ry

     iteration #  8     ecut=    29.40 Ry     beta= 0.05
     Davidson diagonalization with overlap
     ethr =  1.73E-03,  avg # of iterations = 14.1

     negative rho (up, down):  8.332E-03 0.000E+00
 
     Adding external electric field

     Computed dipole along edir(3) : 
        Dipole               -1.3608 Ry au,         -3.4589 Debye
        Dipole field         -0.0026 Ry au, 
 
        Potential amp.        0.2381 Ry
        Total length         46.3494 bohr
 

     total cpu time spent up to now is     2152.3 secs

     total energy              =   -2930.49405306 Ry
     estimated scf accuracy    <     205.22598995 Ry

     iteration #  9     ecut=    29.40 Ry     beta= 0.05
     Davidson diagonalization with overlap
     ethr =  1.73E-03,  avg # of iterations =  1.0

     negative rho (up, down):  8.164E-03 0.000E+00
 
     Adding external electric field

     Computed dipole along edir(3) : 
        Dipole               -2.6434 Ry au,         -6.7187 Debye
        Dipole field         -0.0050 Ry au, 
 
        Potential amp.        0.4624 Ry
        Total length         46.3494 bohr
 

     total cpu time spent up to now is     2279.6 secs

     total energy              =   -2924.50766632 Ry
     estimated scf accuracy    <     208.07011896 Ry

     iteration # 10     ecut=    29.40 Ry     beta= 0.05
     Davidson diagonalization with overlap
     ethr =  1.73E-03,  avg # of iterations = 13.5

     negative rho (up, down):  8.222E-03 0.000E+00
 
     Adding external electric field

     Computed dipole along edir(3) : 
        Dipole               -1.7915 Ry au,         -4.5537 Debye
        Dipole field         -0.0034 Ry au, 
 
        Potential amp.        0.3134 Ry
        Total length         46.3494 bohr
 

     total cpu time spent up to now is     2317.3 secs

     total energy              =   -2927.71688347 Ry
     estimated scf accuracy    <       2.04710471 Ry

     iteration # 11     ecut=    29.40 Ry     beta= 0.05
     Davidson diagonalization with overlap
     ethr =  5.24E-04,  avg # of iterations =  7.8

     negative rho (up, down):  8.200E-03 0.000E+00
 
     Adding external electric field

     Computed dipole along edir(3) : 
        Dipole               -1.7988 Ry au,         -4.5722 Debye
        Dipole field         -0.0034 Ry au, 
 
        Potential amp.        0.3147 Ry
        Total length         46.3494 bohr
 

     total cpu time spent up to now is     2591.7 secs

     total energy              =   -2927.74004145 Ry
     estimated scf accuracy    <       4.36953668 Ry

     iteration # 12     ecut=    29.40 Ry     beta= 0.05
     Davidson diagonalization with overlap
     ethr =  5.24E-04,  avg # of iterations =  1.3

     negative rho (up, down):  8.273E-03 0.000E+00
 
     Adding external electric field

     Computed dipole along edir(3) : 
        Dipole               -1.6538 Ry au,         -4.2036 Debye
        Dipole field         -0.0031 Ry au, 
 
        Potential amp.        0.2893 Ry
        Total length         46.3494 bohr
 

     total cpu time spent up to now is     2731.0 secs

     total energy              =   -2927.67249080 Ry
     estimated scf accuracy    <       1.28390467 Ry

     iteration # 13     ecut=    29.40 Ry     beta= 0.05
     Davidson diagonalization with overlap
     ethr =  3.28E-04,  avg # of iterations =  6.1

     negative rho (up, down):  8.444E-03 0.000E+00
 
     Adding external electric field

     Computed dipole along edir(3) : 
        Dipole               -1.1054 Ry au,         -2.8096 Debye
        Dipole field         -0.0021 Ry au, 
 
        Potential amp.        0.1934 Ry
        Total length         46.3494 bohr
 

     total cpu time spent up to now is     3206.4 secs

     total energy              =   -2927.73201369 Ry
     estimated scf accuracy    <       0.76914579 Ry

     iteration # 14     ecut=    29.40 Ry     beta= 0.05
     Davidson diagonalization with overlap
     ethr =  1.97E-04,  avg # of iterations = 15.0

     negative rho (up, down):  8.331E-03 0.000E+00
 
     Adding external electric field

     Computed dipole along edir(3) : 
        Dipole               -1.0595 Ry au,         -2.6929 Debye
        Dipole field         -0.0020 Ry au, 
 
        Potential amp.        0.1853 Ry
        Total length         46.3494 bohr
 

     total cpu time spent up to now is     3248.3 secs

     total energy              =   -2927.75766837 Ry
     estimated scf accuracy    <       0.98708139 Ry

     iteration # 15     ecut=    29.40 Ry     beta= 0.05
     Davidson diagonalization with overlap
     ethr =  1.97E-04,  avg # of iterations =  5.3

     negative rho (up, down):  8.654E-03 0.000E+00
 
     Adding external electric field

     Computed dipole along edir(3) : 
        Dipole               -0.5764 Ry au,         -1.4649 Debye
        Dipole field         -0.0011 Ry au, 
 
        Potential amp.        0.1008 Ry
        Total length         46.3494 bohr
 

     total cpu time spent up to now is     3275.4 secs

     total energy              =   -2927.60793705 Ry
     estimated scf accuracy    <       0.81141401 Ry

     iteration # 16     ecut=    29.40 Ry     beta= 0.05
     Davidson diagonalization with overlap
     c_bands:  1 eigenvalues not converged
     c_bands:  2 eigenvalues not converged
     c_bands:  1 eigenvalues not converged
     c_bands:  5 eigenvalues not converged
     ethr =  1.97E-04,  avg # of iterations = 17.0

     negative rho (up, down):  8.524E-03 0.000E+00
 
     Adding external electric field

     Computed dipole along edir(3) : 
        Dipole               -0.5860 Ry au,         -1.4894 Debye
        Dipole field         -0.0011 Ry au, 
 
        Potential amp.        0.1025 Ry
        Total length         46.3494 bohr
 

     total cpu time spent up to now is     3317.9 secs

     total energy              =   -2927.73340681 Ry
     estimated scf accuracy    <       1.02906905 Ry

     iteration # 17     ecut=    29.40 Ry     beta= 0.05
     Davidson diagonalization with overlap
     ethr =  1.97E-04,  avg # of iterations =  1.6

     negative rho (up, down):  8.364E-03 0.000E+00
 
     Adding external electric field

     Computed dipole along edir(3) : 
        Dipole               -0.6654 Ry au,         -1.6914 Debye
        Dipole field         -0.0013 Ry au, 
 
        Potential amp.        0.1164 Ry
        Total length         46.3494 bohr
 

     total cpu time spent up to now is     3477.0 secs

     total energy              =   -2927.69289563 Ry
     estimated scf accuracy    <       0.75100929 Ry

     iteration # 18     ecut=    29.40 Ry     beta= 0.05
     Davidson diagonalization with overlap
     c_bands:  1 eigenvalues not converged
     ethr =  1.92E-04,  avg # of iterations =  6.7

     negative rho (up, down):  8.526E-03 0.000E+00
 
     Adding external electric field

     Computed dipole along edir(3) : 
        Dipole               -0.2149 Ry au,         -0.5461 Debye
        Dipole field         -0.0004 Ry au, 
 
        Potential amp.        0.0376 Ry
        Total length         46.3494 bohr
 

     total cpu time spent up to now is     3918.0 secs

     total energy              =   -2927.78964167 Ry
     estimated scf accuracy    <       0.50911065 Ry

     iteration # 19     ecut=    29.40 Ry     beta= 0.05
     Davidson diagonalization with overlap
     c_bands:  2 eigenvalues not converged
     c_bands:  3 eigenvalues not converged
     c_bands:  1 eigenvalues not converged
     c_bands:  1 eigenvalues not converged
     c_bands:  2 eigenvalues not converged
     c_bands:  2 eigenvalues not converged
     c_bands:  1 eigenvalues not converged
     ethr =  1.30E-04,  avg # of iterations = 19.5

     negative rho (up, down):  9.034E-03 0.000E+00
 
     Adding external electric field

     Computed dipole along edir(3) : 
        Dipole                0.4021 Ry au,          1.0221 Debye
        Dipole field          0.0008 Ry au, 
 
        Potential amp.       -0.0703 Ry
        Total length         46.3494 bohr
 

     total cpu time spent up to now is     4277.7 secs

     total energy              =   -2927.63118276 Ry
     estimated scf accuracy    <       1.06805856 Ry

     iteration # 20     ecut=    29.40 Ry     beta= 0.05
     Davidson diagonalization with overlap
     c_bands:  1 eigenvalues not converged
     c_bands:  1 eigenvalues not converged
     ethr =  1.30E-04,  avg # of iterations = 12.3

     negative rho (up, down):  9.053E-03 0.000E+00
 
     Adding external electric field

     Computed dipole along edir(3) : 
        Dipole                0.5089 Ry au,          1.2934 Debye
        Dipole field          0.0010 Ry au, 
 
        Potential amp.       -0.0890 Ry
        Total length         46.3494 bohr
 

     total cpu time spent up to now is     4381.6 secs

     total energy              =   -2927.72392584 Ry
     estimated scf accuracy    <       0.48317415 Ry

     iteration # 21     ecut=    29.40 Ry     beta= 0.05
     Davidson diagonalization with overlap
     ethr =  1.24E-04,  avg # of iterations =  1.5

     negative rho (up, down):  9.289E-03 0.000E+00
 
     Adding external electric field

     Computed dipole along edir(3) : 
        Dipole                0.6075 Ry au,          1.5440 Debye
        Dipole field          0.0011 Ry au, 
 
        Potential amp.       -0.1063 Ry
        Total length         46.3494 bohr
 

     total cpu time spent up to now is     4406.5 secs

     total energy              =   -2927.69602895 Ry
     estimated scf accuracy    <       0.43291581 Ry

     iteration # 22     ecut=    29.40 Ry     beta= 0.05
     Davidson diagonalization with overlap
     ethr =  1.11E-04,  avg # of iterations =  6.1

     negative rho (up, down):  9.380E-03 0.000E+00
 
     Adding external electric field

     Computed dipole along edir(3) : 
        Dipole                0.6367 Ry au,          1.6182 Debye
        Dipole field          0.0012 Ry au, 
 
        Potential amp.       -0.1114 Ry
        Total length         46.3494 bohr
 

     total cpu time spent up to now is     4598.4 secs

     total energy              =   -2927.72265822 Ry
     estimated scf accuracy    <       0.37921673 Ry

     iteration # 23     ecut=    29.40 Ry     beta= 0.05
     Davidson diagonalization with overlap
     ethr =  9.70E-05,  avg # of iterations =  1.8

     negative rho (up, down):  9.219E-03 0.000E+00
 
     Adding external electric field

     Computed dipole along edir(3) : 
        Dipole                0.6718 Ry au,          1.7074 Debye
        Dipole field          0.0013 Ry au, 
 
        Potential amp.       -0.1175 Ry
        Total length         46.3494 bohr
 

     total cpu time spent up to now is     4947.0 secs

     total energy              =   -2927.73125831 Ry
     estimated scf accuracy    <       0.36761337 Ry

     iteration # 24     ecut=    29.40 Ry     beta= 0.05
     Davidson diagonalization with overlap
     ethr =  9.40E-05,  avg # of iterations =  1.1

     negative rho (up, down):  9.211E-03 0.000E+00
 
     Adding external electric field

     Computed dipole along edir(3) : 
        Dipole                0.6524 Ry au,          1.6582 Debye
        Dipole field          0.0012 Ry au, 
 
        Potential amp.       -0.1141 Ry
        Total length         46.3494 bohr
 

     total cpu time spent up to now is     5109.7 secs

     total energy              =   -2927.73278321 Ry
     estimated scf accuracy    <       0.45124977 Ry

     iteration # 25     ecut=    29.40 Ry     beta= 0.05
     Davidson diagonalization with overlap
     ethr =  9.40E-05,  avg # of iterations =  2.3

     negative rho (up, down):  9.253E-03 0.000E+00
 
     Adding external electric field

     Computed dipole along edir(3) : 
        Dipole                0.5258 Ry au,          1.3365 Debye
        Dipole field          0.0010 Ry au, 
 
        Potential amp.       -0.0920 Ry
        Total length         46.3494 bohr
 

     total cpu time spent up to now is     5162.8 secs

     total energy              =   -2927.72018971 Ry
     estimated scf accuracy    <       0.46162807 Ry

     iteration # 26     ecut=    29.40 Ry     beta= 0.05
     Davidson diagonalization with overlap
     c_bands:  1 eigenvalues not converged
     c_bands:  3 eigenvalues not converged
     ethr =  9.40E-05,  avg # of iterations = 11.5

     negative rho (up, down):  9.202E-03 0.000E+00
 
     Adding external electric field

     Computed dipole along edir(3) : 
        Dipole                0.3968 Ry au,          1.0086 Debye
        Dipole field          0.0007 Ry au, 
 
        Potential amp.       -0.0694 Ry
        Total length         46.3494 bohr
 

     total cpu time spent up to now is     5216.2 secs

     total energy              =   -2927.70741213 Ry
     estimated scf accuracy    <       0.17013648 Ry

     iteration # 27     ecut=    29.40 Ry     beta= 0.05
     Davidson diagonalization with overlap
     c_bands:  5 eigenvalues not converged
     c_bands:  3 eigenvalues not converged
     c_bands:  3 eigenvalues not converged
     c_bands:  1 eigenvalues not converged
     ethr =  4.35E-05,  avg # of iterations = 14.8

     negative rho (up, down):  9.187E-03 0.000E+00
 
     Adding external electric field

     Computed dipole along edir(3) : 
        Dipole                0.3617 Ry au,          0.9193 Debye
        Dipole field          0.0007 Ry au, 
 
        Potential amp.       -0.0633 Ry
        Total length         46.3494 bohr
 

     total cpu time spent up to now is     5251.2 secs

     total energy              =   -2927.69606400 Ry
     estimated scf accuracy    <       0.09163132 Ry

     iteration # 28     ecut=    29.40 Ry     beta= 0.05
     Davidson diagonalization with overlap
     c_bands:  1 eigenvalues not converged
     ethr =  2.34E-05,  avg # of iterations = 10.6

     negative rho (up, down):  9.454E-03 0.000E+00
 
     Adding external electric field

     Computed dipole along edir(3) : 
        Dipole                0.1773 Ry au,          0.4506 Debye
        Dipole field          0.0003 Ry au, 
 
        Potential amp.       -0.0310 Ry
        Total length         46.3494 bohr
 

     total cpu time spent up to now is     5284.3 secs

     total energy              =   -2927.70128175 Ry
     estimated scf accuracy    <       0.08155492 Ry

     iteration # 29     ecut=    29.40 Ry     beta= 0.05
     Davidson diagonalization with overlap
     c_bands:  1 eigenvalues not converged
     c_bands:  3 eigenvalues not converged
     c_bands:  3 eigenvalues not converged
     c_bands:  1 eigenvalues not converged
     c_bands:  4 eigenvalues not converged
     c_bands:  3 eigenvalues not converged
     c_bands:  2 eigenvalues not converged
     ethr =  2.09E-05,  avg # of iterations = 18.0

     negative rho (up, down):  9.822E-03 0.000E+00
 
     Adding external electric field

     Computed dipole along edir(3) : 
        Dipole                0.1687 Ry au,          0.4287 Debye
        Dipole field          0.0003 Ry au, 
 
        Potential amp.       -0.0295 Ry
        Total length         46.3494 bohr
 

     total cpu time spent up to now is     5323.4 secs

     total energy              =   -2927.72352345 Ry
     estimated scf accuracy    <       0.33839301 Ry

     iteration # 30     ecut=    29.40 Ry     beta= 0.05
     Davidson diagonalization with overlap
     c_bands:  3 eigenvalues not converged
     c_bands:  1 eigenvalues not converged
     c_bands:  2 eigenvalues not converged
     c_bands:  1 eigenvalues not converged
     c_bands:  1 eigenvalues not converged
     c_bands:  1 eigenvalues not converged
     ethr =  2.09E-05,  avg # of iterations = 17.5

     negative rho (up, down):  1.053E-02 0.000E+00
 
     Adding external electric field

     Computed dipole along edir(3) : 
        Dipole                0.1804 Ry au,          0.4585 Debye
        Dipole field          0.0003 Ry au, 
 
        Potential amp.       -0.0316 Ry
        Total length         46.3494 bohr
 

     total cpu time spent up to now is     5362.0 secs

     total energy              =   -2927.75672919 Ry
     estimated scf accuracy    <       0.68421534 Ry

     iteration # 31     ecut=    29.40 Ry     beta= 0.05
     Davidson diagonalization with overlap
     c_bands:  2 eigenvalues not converged
     c_bands:  5 eigenvalues not converged
     ethr =  2.09E-05,  avg # of iterations = 12.9

     negative rho (up, down):  1.337E-02 0.000E+00
 
     Adding external electric field

     Computed dipole along edir(3) : 
        Dipole                0.1470 Ry au,          0.3736 Debye
        Dipole field          0.0003 Ry au, 
 
        Potential amp.       -0.0257 Ry
        Total length         46.3494 bohr
 

     total cpu time spent up to now is     5503.2 secs

     total energy              =   -2927.76131999 Ry
     estimated scf accuracy    <       0.87966371 Ry

     iteration # 32     ecut=    29.40 Ry     beta= 0.05
     Davidson diagonalization with overlap
     c_bands:  4 eigenvalues not converged
     c_bands:  2 eigenvalues not converged
     c_bands:  3 eigenvalues not converged
     c_bands:  3 eigenvalues not converged
     ethr =  2.09E-05,  avg # of iterations = 16.2

     negative rho (up, down):  1.590E-02 0.000E+00
 
     Adding external electric field

     Computed dipole along edir(3) : 
        Dipole                0.2171 Ry au,          0.5518 Debye
        Dipole field          0.0004 Ry au, 
 
        Potential amp.       -0.0380 Ry
        Total length         46.3494 bohr
 

     total cpu time spent up to now is     5542.4 secs

     total energy              =   -2927.73648014 Ry
     estimated scf accuracy    <       0.89629407 Ry

     iteration # 33     ecut=    29.40 Ry     beta= 0.05
     Davidson diagonalization with overlap
     c_bands:  3 eigenvalues not converged
     ethr =  2.09E-05,  avg # of iterations = 10.3

     negative rho (up, down):  1.444E-02 0.000E+00
 
     Adding external electric field

     Computed dipole along edir(3) : 
        Dipole                0.2814 Ry au,          0.7153 Debye
        Dipole field          0.0005 Ry au, 
 
        Potential amp.       -0.0492 Ry
        Total length         46.3494 bohr
 

     total cpu time spent up to now is     5573.1 secs

     total energy              =   -2927.72019992 Ry
     estimated scf accuracy    <       0.66670573 Ry

     iteration # 34     ecut=    29.40 Ry     beta= 0.05
     Davidson diagonalization with overlap
     c_bands:  1 eigenvalues not converged
     c_bands:  1 eigenvalues not converged
     c_bands:  1 eigenvalues not converged
     c_bands:  3 eigenvalues not converged
     c_bands:  3 eigenvalues not converged
     c_bands:  1 eigenvalues not converged
     ethr =  2.09E-05,  avg # of iterations = 15.9

     negative rho (up, down):  1.408E-02 0.000E+00
 
     Adding external electric field

     Computed dipole along edir(3) : 
        Dipole                0.2454 Ry au,          0.6238 Debye
        Dipole field          0.0005 Ry au, 
 
        Potential amp.       -0.0429 Ry
        Total length         46.3494 bohr
 

     total cpu time spent up to now is     5613.3 secs

     total energy              =   -2927.72343350 Ry
     estimated scf accuracy    <       0.37848382 Ry

     iteration # 35     ecut=    29.40 Ry     beta= 0.05
     Davidson diagonalization with overlap
     ethr =  2.09E-05,  avg # of iterations =  4.4

     negative rho (up, down):  1.371E-02 0.000E+00
 
     Adding external electric field

     Computed dipole along edir(3) : 
        Dipole                0.2338 Ry au,          0.5942 Debye
        Dipole field          0.0004 Ry au, 
 
        Potential amp.       -0.0409 Ry
        Total length         46.3494 bohr
 

     total cpu time spent up to now is     5643.4 secs

     total energy              =   -2927.71996821 Ry
     estimated scf accuracy    <       0.39883431 Ry

     iteration # 36     ecut=    29.40 Ry     beta= 0.05
     Davidson diagonalization with overlap
     ethr =  2.09E-05,  avg # of iterations =  1.9

     negative rho (up, down):  1.196E-02 0.000E+00
 
     Adding external electric field

     Computed dipole along edir(3) : 
        Dipole                0.2929 Ry au,          0.7445 Debye
        Dipole field          0.0006 Ry au, 
 
        Potential amp.       -0.0512 Ry
        Total length         46.3494 bohr
 

     total cpu time spent up to now is     5727.5 secs

     total energy              =   -2927.70950525 Ry
     estimated scf accuracy    <       0.35297445 Ry

     iteration # 37     ecut=    29.40 Ry     beta= 0.05
     Davidson diagonalization with overlap
     c_bands:  1 eigenvalues not converged
     c_bands:  3 eigenvalues not converged
     c_bands:  3 eigenvalues not converged
     c_bands:  3 eigenvalues not converged
     c_bands:  3 eigenvalues not converged
     ethr =  2.09E-05,  avg # of iterations = 14.8

     negative rho (up, down):  9.788E-03 0.000E+00
 
     Adding external electric field

     Computed dipole along edir(3) : 
        Dipole                0.3704 Ry au,          0.9415 Debye
        Dipole field          0.0007 Ry au, 
 
        Potential amp.       -0.0648 Ry
        Total length         46.3494 bohr
 

     total cpu time spent up to now is     6014.9 secs

     total energy              =   -2927.69968351 Ry
     estimated scf accuracy    <       0.15880478 Ry

     iteration # 38     ecut=    29.40 Ry     beta= 0.05
     Davidson diagonalization with overlap
     c_bands:  2 eigenvalues not converged
     c_bands:  4 eigenvalues not converged
     c_bands:  2 eigenvalues not converged
     c_bands:  1 eigenvalues not converged
     c_bands:  4 eigenvalues not converged
     c_bands:  2 eigenvalues not converged
     c_bands:  4 eigenvalues not converged
     c_bands:  4 eigenvalues not converged
     c_bands:  1 eigenvalues not converged
     c_bands:  2 eigenvalues not converged
     ethr =  2.09E-05,  avg # of iterations = 20.0

     negative rho (up, down):  1.080E-02 0.000E+00
 
     Adding external electric field

     Computed dipole along edir(3) : 
        Dipole                0.3460 Ry au,          0.8794 Debye
        Dipole field          0.0007 Ry au, 
 
        Potential amp.       -0.0605 Ry
        Total length         46.3494 bohr
 

     total cpu time spent up to now is     6323.6 secs

     total energy              =   -2927.70843792 Ry
     estimated scf accuracy    <       0.08265997 Ry

     iteration # 39     ecut=    29.40 Ry     beta= 0.05
     Davidson diagonalization with overlap
     ethr =  2.09E-05,  avg # of iterations =  7.9

     negative rho (up, down):  1.429E-02 0.000E+00
 
     Adding external electric field

     Computed dipole along edir(3) : 
        Dipole                0.3517 Ry au,          0.8940 Debye
        Dipole field          0.0007 Ry au, 
 
        Potential amp.       -0.0615 Ry
        Total length         46.3494 bohr
 

     total cpu time spent up to now is     6710.9 secs

     total energy              =   -2927.70860436 Ry
     estimated scf accuracy    <       0.02813564 Ry

     iteration # 40     ecut=    29.40 Ry     beta= 0.05
     Davidson diagonalization with overlap
     c_bands:  2 eigenvalues not converged
     c_bands:  1 eigenvalues not converged
     c_bands:  1 eigenvalues not converged
     c_bands:  2 eigenvalues not converged
     ethr =  7.20E-06,  avg # of iterations = 18.0

     negative rho (up, down):  1.602E-02 0.000E+00
 
     Adding external electric field

     Computed dipole along edir(3) : 
        Dipole                0.3853 Ry au,          0.9794 Debye
        Dipole field          0.0007 Ry au, 
 
        Potential amp.       -0.0674 Ry
        Total length         46.3494 bohr
 

     total cpu time spent up to now is     7529.1 secs

     total energy              =   -2927.71195262 Ry
     estimated scf accuracy    <       0.05940044 Ry

     iteration # 41     ecut=    29.40 Ry     beta= 0.05
     Davidson diagonalization with overlap
     c_bands:  1 eigenvalues not converged
     c_bands:  1 eigenvalues not converged
     c_bands:  1 eigenvalues not converged
     ethr =  7.20E-06,  avg # of iterations = 16.6

     negative rho (up, down):  1.374E-02 0.000E+00
 
     Adding external electric field

     Computed dipole along edir(3) : 
        Dipole                0.3151 Ry au,          0.8009 Debye
        Dipole field          0.0006 Ry au, 
 
        Potential amp.       -0.0551 Ry
        Total length         46.3494 bohr
 

     total cpu time spent up to now is     7619.5 secs

     total energy              =   -2927.71062953 Ry
     estimated scf accuracy    <       0.08409678 Ry

     iteration # 42     ecut=    29.40 Ry     beta= 0.05
     Davidson diagonalization with overlap
     ethr =  7.20E-06,  avg # of iterations =  9.6

     negative rho (up, down):  1.244E-02 0.000E+00
 
     Adding external electric field

     Computed dipole along edir(3) : 
        Dipole                0.3141 Ry au,          0.7984 Debye
        Dipole field          0.0006 Ry au, 
 
        Potential amp.       -0.0549 Ry
        Total length         46.3494 bohr
 

     total cpu time spent up to now is     8146.5 secs

     total energy              =   -2927.70919987 Ry
     estimated scf accuracy    <       0.10051285 Ry

     iteration # 43     ecut=    29.40 Ry     beta= 0.05
     Davidson diagonalization with overlap
     c_bands:  1 eigenvalues not converged
     ethr =  7.20E-06,  avg # of iterations = 11.6

     negative rho (up, down):  1.239E-02 0.000E+00
 
     Adding external electric field

     Computed dipole along edir(3) : 
        Dipole                0.3040 Ry au,          0.7727 Debye
        Dipole field          0.0006 Ry au, 
 
        Potential amp.       -0.0532 Ry
        Total length         46.3494 bohr
 

     total cpu time spent up to now is     8454.6 secs

     total energy              =   -2927.71042769 Ry
     estimated scf accuracy    <       0.02454869 Ry

     iteration # 44     ecut=    29.40 Ry     beta= 0.05
     Davidson diagonalization with overlap
     ethr =  6.28E-06,  avg # of iterations =  1.4

     negative rho (up, down):  1.225E-02 0.000E+00
 
     Adding external electric field

     Computed dipole along edir(3) : 
        Dipole                0.3138 Ry au,          0.7976 Debye
        Dipole field          0.0006 Ry au, 
 
        Potential amp.       -0.0549 Ry
        Total length         46.3494 bohr
 

     total cpu time spent up to now is     8479.3 secs

     total energy              =   -2927.70966538 Ry
     estimated scf accuracy    <       0.02331273 Ry

     iteration # 45     ecut=    29.40 Ry     beta= 0.05
     Davidson diagonalization with overlap
     c_bands:  1 eigenvalues not converged
     c_bands:  2 eigenvalues not converged
     ethr =  5.96E-06,  avg # of iterations = 10.4

     negative rho (up, down):  1.649E-02 0.000E+00
 
     Adding external electric field

     Computed dipole along edir(3) : 
        Dipole                0.3937 Ry au,          1.0006 Debye
        Dipole field          0.0007 Ry au, 
 
        Potential amp.       -0.0689 Ry
        Total length         46.3494 bohr
 

     total cpu time spent up to now is     8509.2 secs

     total energy              =   -2927.70869414 Ry
     estimated scf accuracy    <       0.00725681 Ry

     iteration # 46     ecut=    29.40 Ry     beta= 0.05
     Davidson diagonalization with overlap
     c_bands:  1 eigenvalues not converged
     c_bands:  4 eigenvalues not converged
     c_bands:  1 eigenvalues not converged
     c_bands:  1 eigenvalues not converged
     c_bands:  3 eigenvalues not converged
     c_bands:  1 eigenvalues not converged
     c_bands:  1 eigenvalues not converged
     ethr =  1.86E-06,  avg # of iterations = 19.6

     negative rho (up, down):  1.586E-02 0.000E+00
 
     Adding external electric field

     Computed dipole along edir(3) : 
        Dipole                0.4245 Ry au,          1.0790 Debye
        Dipole field          0.0008 Ry au, 
 
        Potential amp.       -0.0743 Ry
        Total length         46.3494 bohr
 

     total cpu time spent up to now is     8650.3 secs

     total energy              =   -2927.70998327 Ry
     estimated scf accuracy    <       0.04126889 Ry

     iteration # 47     ecut=    29.40 Ry     beta= 0.05
     Davidson diagonalization with overlap
     c_bands:  1 eigenvalues not converged
     c_bands:  1 eigenvalues not converged
     c_bands:  1 eigenvalues not converged
     ethr =  1.86E-06,  avg # of iterations = 14.6

     negative rho (up, down):  1.577E-02 0.000E+00
 
     Adding external electric field

     Computed dipole along edir(3) : 
        Dipole                0.4290 Ry au,          1.0904 Debye
        Dipole field          0.0008 Ry au, 
 
        Potential amp.       -0.0750 Ry
        Total length         46.3494 bohr
 

     total cpu time spent up to now is     8747.0 secs

     total energy              =   -2927.71047630 Ry
     estimated scf accuracy    <       0.00620927 Ry

     iteration # 48     ecut=    29.40 Ry     beta= 0.05
     Davidson diagonalization with overlap
     c_bands:  1 eigenvalues not converged
     c_bands:  1 eigenvalues not converged
     ethr =  1.59E-06,  avg # of iterations =  7.9

     negative rho (up, down):  1.693E-02 0.000E+00
 
     Adding external electric field

     Computed dipole along edir(3) : 
        Dipole                0.4663 Ry au,          1.1851 Debye
        Dipole field          0.0009 Ry au, 
 
        Potential amp.       -0.0816 Ry
        Total length         46.3494 bohr
 

     total cpu time spent up to now is     8774.9 secs

     total energy              =   -2927.70960199 Ry
     estimated scf accuracy    <       0.00785929 Ry

     iteration # 49     ecut=    29.40 Ry     beta= 0.05
     Davidson diagonalization with overlap
     c_bands:  1 eigenvalues not converged
     ethr =  1.59E-06,  avg # of iterations = 15.8

     negative rho (up, down):  1.778E-02 0.000E+00
 
     Adding external electric field

     Computed dipole along edir(3) : 
        Dipole                0.4537 Ry au,          1.1533 Debye
        Dipole field          0.0009 Ry au, 
 
        Potential amp.       -0.0794 Ry
        Total length         46.3494 bohr
 

     total cpu time spent up to now is     8969.4 secs

     total energy              =   -2927.71046864 Ry
     estimated scf accuracy    <       0.00159198 Ry

     iteration # 50     ecut=    29.40 Ry     beta= 0.05
     Davidson diagonalization with overlap
     ethr =  4.07E-07,  avg # of iterations =  8.7

     negative rho (up, down):  1.767E-02 0.000E+00
 
     Adding external electric field

     Computed dipole along edir(3) : 
        Dipole                0.4529 Ry au,          1.1512 Debye
        Dipole field          0.0009 Ry au, 
 
        Potential amp.       -0.0792 Ry
        Total length         46.3494 bohr
 

     total cpu time spent up to now is     9067.8 secs

     total energy              =   -2927.71058424 Ry
     estimated scf accuracy    <       0.00079082 Ry

     iteration # 51     ecut=    29.40 Ry     beta= 0.05
     Davidson diagonalization with overlap
     ethr =  2.02E-07,  avg # of iterations =  7.5

     negative rho (up, down):  1.760E-02 0.000E+00
 
     Adding external electric field

     Computed dipole along edir(3) : 
        Dipole                0.4561 Ry au,          1.1593 Debye
        Dipole field          0.0009 Ry au, 
 
        Potential amp.       -0.0798 Ry
        Total length         46.3494 bohr
 

     total cpu time spent up to now is     9096.9 secs

     total energy              =   -2927.71055412 Ry
     estimated scf accuracy    <       0.00068547 Ry

     iteration # 52     ecut=    29.40 Ry     beta= 0.05
     Davidson diagonalization with overlap
     ethr =  1.75E-07,  avg # of iterations =  9.4

     negative rho (up, down):  1.787E-02 0.000E+00
 
     Adding external electric field

     Computed dipole along edir(3) : 
        Dipole                0.4654 Ry au,          1.1829 Debye
        Dipole field          0.0009 Ry au, 
 
        Potential amp.       -0.0814 Ry
        Total length         46.3494 bohr
 

     total cpu time spent up to now is     9280.5 secs

     total energy              =   -2927.71053840 Ry
     estimated scf accuracy    <       0.00032007 Ry

     iteration # 53     ecut=    29.40 Ry     beta= 0.05
     Davidson diagonalization with overlap
     ethr =  8.19E-08,  avg # of iterations = 11.4

     negative rho (up, down):  1.851E-02 0.000E+00
 
     Adding external electric field

     Computed dipole along edir(3) : 
        Dipole                0.4620 Ry au,          1.1743 Debye
        Dipole field          0.0009 Ry au, 
 
        Potential amp.       -0.0808 Ry
        Total length         46.3494 bohr
 

     total cpu time spent up to now is     9364.9 secs

     total energy              =   -2927.71062669 Ry
     estimated scf accuracy    <       0.00027878 Ry

     iteration # 54     ecut=    29.40 Ry     beta= 0.05
     Davidson diagonalization with overlap
     ethr =  7.13E-08,  avg # of iterations =  6.5

     negative rho (up, down):  1.920E-02 0.000E+00
 
     Adding external electric field

     Computed dipole along edir(3) : 
        Dipole                0.4697 Ry au,          1.1939 Debye
        Dipole field          0.0009 Ry au, 
 
        Potential amp.       -0.0822 Ry
        Total length         46.3494 bohr
 

     total cpu time spent up to now is     9450.5 secs

     total energy              =   -2927.71065437 Ry
     estimated scf accuracy    <       0.00017399 Ry

     iteration # 55     ecut=    29.40 Ry     beta= 0.05
     Davidson diagonalization with overlap
     ethr =  4.45E-08,  avg # of iterations = 11.1

     negative rho (up, down):  1.920E-02 0.000E+00
 
     Adding external electric field

     Computed dipole along edir(3) : 
        Dipole                0.4775 Ry au,          1.2137 Debye
        Dipole field          0.0009 Ry au, 
 
        Potential amp.       -0.0835 Ry
        Total length         46.3494 bohr
 

     total cpu time spent up to now is     9491.4 secs

     total energy              =   -2927.71067274 Ry
     estimated scf accuracy    <       0.00004111 Ry

     iteration # 56     ecut=    29.40 Ry     beta= 0.05
     Davidson diagonalization with overlap
     ethr =  1.05E-08,  avg # of iterations = 10.4

     negative rho (up, down):  1.922E-02 0.000E+00
 
     Adding external electric field

     Computed dipole along edir(3) : 
        Dipole                0.4759 Ry au,          1.2096 Debye
        Dipole field          0.0009 Ry au, 
 
        Potential amp.       -0.0833 Ry
        Total length         46.3494 bohr
 

     total cpu time spent up to now is     9529.1 secs

     total energy              =   -2927.71068463 Ry
     estimated scf accuracy    <       0.00001838 Ry

     iteration # 57     ecut=    29.40 Ry     beta= 0.05
     Davidson diagonalization with overlap
     ethr =  4.70E-09,  avg # of iterations = 12.7

     negative rho (up, down):  1.922E-02 0.000E+00
 
     Adding external electric field

     Computed dipole along edir(3) : 
        Dipole                0.4741 Ry au,          1.2050 Debye
        Dipole field          0.0009 Ry au, 
 
        Potential amp.       -0.0829 Ry
        Total length         46.3494 bohr
 

     total cpu time spent up to now is     9562.3 secs

     total energy              =   -2927.71069028 Ry
     estimated scf accuracy    <       0.00001461 Ry

     iteration # 58     ecut=    29.40 Ry     beta= 0.05
     Davidson diagonalization with overlap
     ethr =  3.74E-09,  avg # of iterations =  5.8

     negative rho (up, down):  1.925E-02 0.000E+00
 
     Adding external electric field

     Computed dipole along edir(3) : 
        Dipole                0.4758 Ry au,          1.2093 Debye
        Dipole field          0.0009 Ry au, 
 
        Potential amp.       -0.0832 Ry
        Total length         46.3494 bohr
 

     total cpu time spent up to now is     9590.0 secs

     total energy              =   -2927.71069717 Ry
     estimated scf accuracy    <       0.00001074 Ry

     iteration # 59     ecut=    29.40 Ry     beta= 0.05
     Davidson diagonalization with overlap
     c_bands:  1 eigenvalues not converged
     ethr =  2.75E-09,  avg # of iterations = 14.3

     negative rho (up, down):  1.936E-02 0.000E+00
 
     Adding external electric field

     Computed dipole along edir(3) : 
        Dipole                0.4774 Ry au,          1.2135 Debye
        Dipole field          0.0009 Ry au, 
 
        Potential amp.       -0.0835 Ry
        Total length         46.3494 bohr
 

     total cpu time spent up to now is     9730.1 secs

     total energy              =   -2927.71070451 Ry
     estimated scf accuracy    <       0.00000524 Ry

     iteration # 60     ecut=    29.40 Ry     beta= 0.05
     Davidson diagonalization with overlap
     ethr =  1.34E-09,  avg # of iterations =  6.8

     negative rho (up, down):  1.934E-02 0.000E+00
 
     Adding external electric field

     Computed dipole along edir(3) : 
        Dipole                0.4767 Ry au,          1.2116 Debye
        Dipole field          0.0009 Ry au, 
 
        Potential amp.       -0.0834 Ry
        Total length         46.3494 bohr
 

     total cpu time spent up to now is     9758.4 secs

     total energy              =   -2927.71070835 Ry
     estimated scf accuracy    <       0.00000382 Ry

     iteration # 61     ecut=    29.40 Ry     beta= 0.05
     Davidson diagonalization with overlap
     ethr =  9.76E-10,  avg # of iterations = 14.1

     negative rho (up, down):  1.932E-02 0.000E+00
 
     Adding external electric field

     Computed dipole along edir(3) : 
        Dipole                0.4756 Ry au,          1.2089 Debye
        Dipole field          0.0009 Ry au, 
 
        Potential amp.       -0.0832 Ry
        Total length         46.3494 bohr
 

     total cpu time spent up to now is     9869.9 secs

     total energy              =   -2927.71071224 Ry
     estimated scf accuracy    <       0.00000320 Ry

     iteration # 62     ecut=    29.40 Ry     beta= 0.05
     Davidson diagonalization with overlap
     ethr =  8.19E-10,  avg # of iterations = 13.2

     negative rho (up, down):  1.934E-02 0.000E+00
 
     Adding external electric field

     Computed dipole along edir(3) : 
        Dipole                0.4758 Ry au,          1.2093 Debye
        Dipole field          0.0009 Ry au, 
 
        Potential amp.       -0.0832 Ry
        Total length         46.3494 bohr
 

     total cpu time spent up to now is     9954.0 secs

     total energy              =   -2927.71071585 Ry
     estimated scf accuracy    <       0.00000160 Ry

     iteration # 63     ecut=    29.40 Ry     beta= 0.05
     Davidson diagonalization with overlap
     ethr =  4.10E-10,  avg # of iterations = 11.3

     negative rho (up, down):  1.934E-02 0.000E+00
 
     Adding external electric field

     Computed dipole along edir(3) : 
        Dipole                0.4760 Ry au,          1.2098 Debye
        Dipole field          0.0009 Ry au, 
 
        Potential amp.       -0.0833 Ry
        Total length         46.3494 bohr
 

     total cpu time spent up to now is    10042.3 secs

     total energy              =   -2927.71071883 Ry
     estimated scf accuracy    <       0.00000074 Ry

     iteration # 64     ecut=    29.40 Ry     beta= 0.05
     Davidson diagonalization with overlap
     ethr =  1.88E-10,  avg # of iterations =  6.5

     negative rho (up, down):  1.933E-02 0.000E+00
 
     Adding external electric field

     Computed dipole along edir(3) : 
        Dipole                0.4755 Ry au,          1.2087 Debye
        Dipole field          0.0009 Ry au, 
 
        Potential amp.       -0.0832 Ry
        Total length         46.3494 bohr
 

     total cpu time spent up to now is    10080.1 secs

     total energy              =   -2927.71072152 Ry
     estimated scf accuracy    <       0.00000037 Ry

     iteration # 65     ecut=    29.40 Ry     beta= 0.05
     Davidson diagonalization with overlap
     ethr =  9.41E-11,  avg # of iterations = 12.6

     negative rho (up, down):  1.931E-02 0.000E+00
 
     Adding external electric field

     Computed dipole along edir(3) : 
        Dipole                0.4752 Ry au,          1.2079 Debye
        Dipole field          0.0009 Ry au, 
 
        Potential amp.       -0.0831 Ry
        Total length         46.3494 bohr
 

     total cpu time spent up to now is    10119.0 secs

     total energy              =   -2927.71072387 Ry
     estimated scf accuracy    <       0.00000017 Ry

     iteration # 66     ecut=    29.40 Ry     beta= 0.05
     Davidson diagonalization with overlap
     ethr =  4.28E-11,  avg # of iterations = 13.4

     negative rho (up, down):  1.930E-02 0.000E+00
 
     Adding external electric field

     Computed dipole along edir(3) : 
        Dipole                0.4751 Ry au,          1.2075 Debye
        Dipole field          0.0009 Ry au, 
 
        Potential amp.       -0.0831 Ry
        Total length         46.3494 bohr
 

     total cpu time spent up to now is    10151.6 secs

     total energy              =   -2927.71072599 Ry
     estimated scf accuracy    <       0.00000012 Ry

     iteration # 67     ecut=    29.40 Ry     beta= 0.05
     Davidson diagonalization with overlap
     ethr =  3.04E-11,  avg # of iterations =  2.5

     negative rho (up, down):  1.933E-02 0.000E+00
 
     Adding external electric field

     Computed dipole along edir(3) : 
        Dipole                0.4737 Ry au,          1.2040 Debye
        Dipole field          0.0009 Ry au, 
 
        Potential amp.       -0.0829 Ry
        Total length         46.3494 bohr
 

     total cpu time spent up to now is    10177.6 secs

     End of self-consistent calculation

          k = 0.0000 0.0000 0.0000 ( 18029 PWs)   bands (ev):

   -56.1402 -56.1229 -56.1046 -56.0866 -56.0414 -56.0058 -55.9648 -55.9479
   -55.8959 -55.8816 -55.8539 -55.8178 -55.7736 -55.7644 -55.0678 -55.0338
   -32.6887 -32.5981 -32.4758 -32.4708 -32.4542 -32.4254 -32.4002 -32.3794
   -32.3675 -32.3448 -32.3411 -32.3386 -32.3293 -32.3035 -32.3002 -32.2779
   -32.2723 -32.2535 -32.2214 -32.2095 -32.2053 -32.1875 -32.1558 -32.1485
   -32.1449 -32.1326 -32.1283 -32.1021 -32.0952 -32.0901 -32.0864 -32.0721
   -32.0588 -32.0364 -32.0177 -32.0032 -31.9859 -31.9691 -31.9667 -31.9553
   -31.9552 -31.9021 -31.4746 -31.3868 -31.3639 -31.2910 -31.2047 -31.0939
   -16.8938 -16.7252 -16.5231 -16.3974 -16.2520 -16.2321 -16.1686 -15.8821
   -15.8223 -15.7571 -15.7489 -15.7191 -15.7163 -15.6568 -15.6456 -15.6202
   -15.5712 -15.5435 -15.5245 -15.5012 -15.4891 -15.4376 -15.4202 -15.3837
   -15.3262 -15.2733 -15.2169 -15.1443 -15.1054 -15.0567 -13.5710 -13.4552
   -11.2494  -5.3120  -4.6874  -4.2352  -4.1300  -4.0418  -3.9890  -3.9193
    -3.7831  -3.7058  -3.5735  -3.3249  -3.2858  -3.2763  -3.2428  -3.1974
    -3.0197  -2.9772  -2.9378  -2.9090  -2.9053  -2.8801  -2.8598  -2.8299
    -2.8219  -2.8195  -2.7078  -2.6321  -2.5499  -2.5366  -2.4618  -2.4199
    -2.4079  -2.3856  -2.3422  -2.3325  -2.3134  -2.2927  -2.2655  -2.1638
    -2.1395  -2.0456  -1.9701  -1.8867  -1.7619  -1.7084  -1.6894  -1.5755
    -1.5047  -1.5026  -1.4644  -1.4405  -1.4060  -1.3281  -1.2974  -1.2337
    -1.1558  -1.1128  -1.0406  -1.0152  -0.9983  -0.9616  -0.8871  -0.8407
    -0.8380  -0.8236  -0.6191  -0.5918  -0.5815  -0.5478  -0.4380  -0.3678
    -0.3472  -0.3202  -0.2964  -0.2771  -0.2258  -0.1434  -0.1136  -0.1059
    -0.0817   0.0055   0.0767   0.0840   0.1096   0.2167   0.2367   0.3539
     0.4154   0.5802   0.6199   0.6924   0.8761   0.9523   0.9963   1.1475
     1.5332   1.5861   1.5979   3.0469   3.0761   3.1098   3.1258   3.2674
     3.3763   3.3791   3.4840   3.4876   3.5504

          k = 0.0000 0.0419 0.0000 ( 17933 PWs)   bands (ev):

   -56.1355 -56.1176 -56.1092 -56.0918 -56.0393 -56.0033 -55.9667 -55.9503
   -55.8948 -55.8802 -55.8494 -55.8223 -55.7749 -55.7654 -55.0627 -55.0387
   -32.6314 -32.5444 -32.4440 -32.4235 -32.4215 -32.4188 -32.3974 -32.3834
   -32.3602 -32.3276 -32.3179 -32.3154 -32.3076 -32.3001 -32.2899 -32.2813
   -32.2777 -32.2662 -32.2638 -32.2231 -32.2005 -32.1834 -32.1714 -32.1611
   -32.1460 -32.1423 -32.1376 -32.1321 -32.1251 -32.0945 -32.0820 -32.0680
   -32.0623 -32.0485 -32.0236 -32.0164 -32.0110 -32.0073 -31.9915 -31.9839
   -31.9514 -31.9312 -31.4205 -31.3833 -31.3670 -31.2785 -31.2172 -31.1510
   -16.7741 -16.6708 -16.4148 -16.3121 -16.1638 -16.1310 -16.1271 -16.0026
   -15.8500 -15.8316 -15.7351 -15.6909 -15.6898 -15.6779 -15.6630 -15.6006
   -15.5610 -15.5567 -15.5272 -15.5104 -15.4712 -15.4644 -15.4332 -15.4234
   -15.3555 -15.3291 -15.2757 -15.2047 -15.1613 -15.1401 -13.5753 -13.4947
   -11.2521  -5.3115  -4.6736  -4.0455  -3.9962  -3.8800  -3.8111  -3.7625
    -3.6843  -3.4552  -3.4270  -3.3792  -3.2811  -3.1911  -3.1434  -3.1147
    -3.0909  -3.0654  -3.0328  -2.9990  -2.9967  -2.9330  -2.9043  -2.8830
    -2.8434  -2.8077  -2.7863  -2.7716  -2.7080  -2.6312  -2.5878  -2.5557
    -2.4951  -2.4892  -2.4620  -2.3495  -2.3453  -2.2973  -2.2123  -2.1528
    -2.0684  -1.9045  -1.8947  -1.7715  -1.7543  -1.7302  -1.5741  -1.4890
    -1.4571  -1.4391  -1.3512  -1.3177  -1.2611  -1.2290  -1.1816  -1.1361
    -1.1097  -1.0463  -1.0340  -1.0235  -0.9938  -0.9222  -0.9015  -0.8256
    -0.8048  -0.7935  -0.7366  -0.6092  -0.5929  -0.5804  -0.5506  -0.5108
    -0.4358  -0.4074  -0.4025  -0.3563  -0.2905  -0.2168  -0.1936  -0.1617
    -0.1506  -0.0772  -0.0440  -0.0332   0.0485   0.1220   0.2394   0.2538
     0.3009   0.3438   0.5380   0.5715   0.6143   0.8655   1.1444   1.2250
     1.4808   1.4987   1.5850   3.1611   3.2379   3.2946   3.3386   3.3766
     3.4181   3.4285   3.4771   3.5262   3.5415

          k = 0.0000-0.0839 0.0000 ( 17884 PWs)   bands (ev):

   -56.1278 -56.1169 -56.1066 -56.1026 -56.0372 -56.0005 -55.9687 -55.9530
   -55.8937 -55.8787 -55.8423 -55.8294 -55.7762 -55.7664 -55.0509 -55.0504
   -32.4938 -32.4898 -32.4290 -32.4202 -32.4138 -32.4075 -32.3995 -32.3916
   -32.3297 -32.3282 -32.3119 -32.2968 -32.2946 -32.2858 -32.2759 -32.2637
   -32.2603 -32.2559 -32.2527 -32.2495 -32.2158 -32.1905 -32.1899 -32.1781
   -32.1622 -32.1590 -32.1459 -32.1436 -32.1233 -32.1122 -32.1108 -32.0807
   -32.0724 -32.0710 -32.0692 -32.0643 -32.0217 -32.0145 -32.0090 -32.0003
   -31.9522 -31.9485 -31.3753 -31.3746 -31.2880 -31.2873 -31.2482 -31.2474
   -16.6753 -16.4090 -16.3962 -16.1781 -16.1659 -16.0542 -16.0493 -15.9622
   -15.9532 -15.9214 -15.8865 -15.7980 -15.7832 -15.5827 -15.5786 -15.5727
   -15.5469 -15.5317 -15.4951 -15.4711 -15.4587 -15.4573 -15.4208 -15.4205
   -15.4160 -15.3763 -15.3097 -15.2985 -15.2883 -15.2846 -13.5577 -13.5570
   -11.2548  -5.3119  -4.6638  -3.7754  -3.6243  -3.5907  -3.5178  -3.4977
    -3.4940  -3.4386  -3.4087  -3.3860  -3.3641  -3.3593  -3.2313  -3.2174
    -3.2028  -3.1783  -3.1277  -3.0291  -3.0234  -2.9958  -2.9782  -2.8709
    -2.8571  -2.8488  -2.8428  -2.8133  -2.7863  -2.7109  -2.6929  -2.6052
    -2.5763  -2.5402  -2.4704  -2.4356  -2.1361  -2.1147  -2.0071  -1.9902
    -1.9645  -1.8882  -1.8189  -1.7688  -1.7096  -1.5711  -1.5308  -1.5197
    -1.4997  -1.4860  -1.4620  -1.4406  -1.3760  -1.3595  -1.3406  -1.2652
    -1.1672  -0.9552  -0.9346  -0.8603  -0.8499  -0.8394  -0.7787  -0.7396
    -0.7225  -0.7152  -0.6895  -0.6244  -0.5937  -0.5837  -0.5654  -0.5363
    -0.5278  -0.4905  -0.4754  -0.4594  -0.4155  -0.3897  -0.3660  -0.2742
    -0.2476  -0.2340  -0.2247  -0.1160  -0.0669   0.0845   0.1239   0.1625
     0.1649   0.4166   0.4542   0.5777   0.6096   0.6528   1.2832   1.2880
     1.4215   1.4256   1.5776   3.2671   3.2776   3.3105   3.3841   3.4324
     3.4772   3.4865   3.6226   3.6488   3.6699

          k = 0.0380 0.0000 0.0000 ( 17913 PWs)   bands (ev):

   -56.1401 -56.1227 -56.1045 -56.0865 -56.0412 -56.0058 -55.9647 -55.9478
   -55.8958 -55.8814 -55.8539 -55.8177 -55.7735 -55.7643 -55.0677 -55.0337
   -32.6888 -32.5989 -32.4784 -32.4763 -32.4541 -32.4252 -32.4002 -32.3792
   -32.3680 -32.3452 -32.3421 -32.3410 -32.3116 -32.3008 -32.3003 -32.2719
   -32.2665 -32.2470 -32.2211 -32.2093 -32.2057 -32.2038 -32.1545 -32.1482
   -32.1347 -32.1330 -32.1262 -32.1014 -32.0950 -32.0897 -32.0866 -32.0720
   -32.0586 -32.0447 -32.0194 -32.0020 -31.9858 -31.9675 -31.9666 -31.9611
   -31.9566 -31.9019 -31.4742 -31.3899 -31.3620 -31.2908 -31.2046 -31.0937
   -16.8256 -16.6966 -16.4430 -16.3388 -16.2599 -16.1695 -16.1361 -15.9359
   -15.8727 -15.8204 -15.8114 -15.8051 -15.7768 -15.7133 -15.6681 -15.6555
   -15.6025 -15.5905 -15.5237 -15.4538 -15.4427 -15.3821 -15.3566 -15.3328
   -15.3295 -15.2763 -15.2226 -15.1861 -15.1387 -15.0557 -13.5678 -13.4549
   -11.2510  -5.3174  -4.6884  -4.1661  -3.9798  -3.8323  -3.7325  -3.7080
    -3.6868  -3.6666  -3.5771  -3.5477  -3.3059  -3.2830  -3.2148  -3.1719
    -3.1593  -3.1038  -3.0311  -2.9468  -2.8810  -2.8364  -2.8135  -2.7611
    -2.7407  -2.6737  -2.6460  -2.6195  -2.5491  -2.4956  -2.4172  -2.4040
    -2.3687  -2.3444  -2.3097  -2.2645  -2.2209  -2.1574  -2.1291  -2.0875
    -2.0323  -2.0040  -1.9603  -1.9193  -1.8547  -1.8013  -1.6865  -1.6598
    -1.5642  -1.5256  -1.4690  -1.4411  -1.4280  -1.3778  -1.3596  -1.3454
    -1.2749  -1.1284  -1.0634  -1.0359  -1.0040  -0.9823  -0.9420  -0.9149
    -0.9057  -0.7155  -0.6883  -0.6548  -0.6405  -0.5640  -0.4587  -0.4442
    -0.3983  -0.3895  -0.3552  -0.3285  -0.3036  -0.2517  -0.2233  -0.2006
    -0.1390  -0.0631  -0.0116   0.0387   0.0956   0.1496   0.1704   0.2010
     0.2818   0.5105   0.6235   0.6881   0.8582   0.8872   0.9642   1.1166
     1.4185   1.4987   1.6068   3.1053   3.2057   3.2662   3.3055   3.3276
     3.4017   3.4278   3.4545   3.5134   3.5326

          k = 0.0380 0.0419 0.0000 ( 17878 PWs)   bands (ev):

   -56.1355 -56.1175 -56.1092 -56.0918 -56.0392 -56.0033 -55.9666 -55.9503
   -55.8948 -55.8800 -55.8494 -55.8223 -55.7748 -55.7653 -55.0627 -55.0386
   -32.6315 -32.5452 -32.4440 -32.4262 -32.4253 -32.4212 -32.3974 -32.3833
   -32.3602 -32.3283 -32.3160 -32.3082 -32.3028 -32.3003 -32.2877 -32.2853
   -32.2777 -32.2561 -32.2539 -32.2228 -32.2006 -32.1990 -32.1672 -32.1595
   -32.1494 -32.1420 -32.1406 -32.1294 -32.1156 -32.0939 -32.0821 -32.0679
   -32.0624 -32.0486 -32.0218 -32.0188 -32.0177 -32.0073 -31.9915 -31.9839
   -31.9576 -31.9311 -31.4202 -31.3857 -31.3660 -31.2783 -31.2173 -31.1509
   -16.7224 -16.6465 -16.3372 -16.2474 -16.1603 -16.1350 -16.0408 -16.0007
   -15.8825 -15.8708 -15.7749 -15.7360 -15.7283 -15.7174 -15.6817 -15.6578
   -15.6420 -15.5588 -15.5197 -15.4855 -15.4556 -15.4365 -15.4127 -15.4072
   -15.3759 -15.3271 -15.2879 -15.2349 -15.1965 -15.1396 -13.5731 -13.4950
   -11.2536  -5.3163  -4.6670  -3.9919  -3.8683  -3.6688  -3.5760  -3.5391
    -3.5266  -3.4481  -3.4148  -3.3983  -3.3052  -3.1531  -3.1369  -3.1189
    -3.0558  -3.0248  -2.9976  -2.9649  -2.9492  -2.9022  -2.8712  -2.8601
    -2.8098  -2.8001  -2.7642  -2.7004  -2.6822  -2.6571  -2.5792  -2.5661
    -2.4962  -2.4462  -2.4193  -2.3151  -2.2974  -2.2408  -2.1383  -2.1130
    -2.0416  -2.0169  -1.8522  -1.7972  -1.7298  -1.6433  -1.5945  -1.5690
    -1.5238  -1.4653  -1.4273  -1.4082  -1.3897  -1.3406  -1.2901  -1.1992
    -1.1761  -1.1302  -1.1144  -1.0868  -0.9982  -0.9774  -0.9419  -0.8891
    -0.8569  -0.8263  -0.8069  -0.7763  -0.7173  -0.7020  -0.6671  -0.5788
    -0.5621  -0.5216  -0.4807  -0.4175  -0.3718  -0.3251  -0.2809  -0.2438
    -0.1738  -0.1123  -0.0548   0.0385   0.1030   0.1379   0.2128   0.2270
     0.3105   0.3984   0.4808   0.5383   0.6274   0.8203   1.1571   1.2295
     1.4028   1.4753   1.5929   3.2045   3.2535   3.3447   3.3803   3.4074
     3.4283   3.4575   3.5245   3.5540   3.5862

          k = 0.0380-0.0839 0.0000 ( 17916 PWs)   bands (ev):

   -56.1278 -56.1169 -56.1067 -56.1026 -56.0372 -56.0006 -55.9687 -55.9530
   -55.8937 -55.8786 -55.8424 -55.8294 -55.7763 -55.7664 -55.0510 -55.0504
   -32.4941 -32.4901 -32.4291 -32.4207 -32.4141 -32.4082 -32.3995 -32.3918
   -32.3311 -32.3287 -32.3261 -32.2994 -32.2981 -32.2775 -32.2641 -32.2607
   -32.2592 -32.2517 -32.2496 -32.2389 -32.2160 -32.1910 -32.1869 -32.1816
   -32.1669 -32.1617 -32.1520 -32.1513 -32.1312 -32.1122 -32.0909 -32.0804
   -32.0726 -32.0712 -32.0643 -32.0572 -32.0219 -32.0201 -32.0170 -32.0003
   -31.9563 -31.9521 -31.3762 -31.3755 -31.2879 -31.2872 -31.2482 -31.2474
   -16.6675 -16.3781 -16.3522 -16.1237 -16.1213 -16.0116 -15.9978 -15.9319
   -15.9294 -15.9144 -15.8793 -15.7670 -15.7500 -15.6763 -15.6605 -15.6040
   -15.5972 -15.5684 -15.5493 -15.4936 -15.4905 -15.4549 -15.4434 -15.4263
   -15.4145 -15.3716 -15.3483 -15.3279 -15.2845 -15.2806 -13.5575 -13.5568
   -11.2561  -5.3113  -4.6563  -3.7361  -3.6248  -3.5792  -3.3374  -3.3181
    -3.2801  -3.2779  -3.2695  -3.2067  -3.1629  -3.1517  -3.1461  -3.1434
    -3.1197  -3.1127  -3.0503  -3.0027  -2.9753  -2.9266  -2.8983  -2.8784
    -2.8687  -2.8374  -2.8181  -2.7637  -2.7574  -2.7461  -2.7359  -2.6291
    -2.6113  -2.5152  -2.2537  -2.2209  -2.1645  -2.1386  -2.0332  -2.0248
    -1.9605  -1.9186  -1.8869  -1.8690  -1.8577  -1.8272  -1.8074  -1.7323
    -1.7019  -1.6163  -1.5763  -1.5393  -1.4268  -1.4036  -1.3021  -1.2450
    -1.1367  -1.1102  -1.0736  -1.0448  -1.0045  -0.9556  -0.8878  -0.8740
    -0.8557  -0.8356  -0.8082  -0.7620  -0.7524  -0.7358  -0.6574  -0.6448
    -0.6275  -0.6131  -0.5687  -0.5530  -0.4817  -0.3550  -0.2878  -0.2502
    -0.2301  -0.0602  -0.0390  -0.0012   0.0273   0.0914   0.1161   0.2212
     0.2470   0.3808   0.3883   0.5892   0.6203   0.6353   1.2978   1.3021
     1.4107   1.4143   1.5893   3.2199   3.2307   3.3346   3.3706   3.4439
     3.4625   3.5179   3.6421   3.6519   3.6864

          k = 0.0380-0.0419 0.0000 ( 17876 PWs)   bands (ev):

   -56.1355 -56.1175 -56.1092 -56.0918 -56.0392 -56.0033 -55.9666 -55.9503
   -55.8948 -55.8800 -55.8494 -55.8223 -55.7748 -55.7653 -55.0627 -55.0386
   -32.6315 -32.5452 -32.4440 -32.4262 -32.4253 -32.4212 -32.3974 -32.3833
   -32.3602 -32.3282 -32.3160 -32.3082 -32.3028 -32.3003 -32.2877 -32.2852
   -32.2777 -32.2559 -32.2538 -32.2228 -32.2005 -32.1991 -32.1677 -32.1596
   -32.1497 -32.1420 -32.1406 -32.1288 -32.1155 -32.0939 -32.0821 -32.0679
   -32.0624 -32.0486 -32.0219 -32.0188 -32.0177 -32.0073 -31.9915 -31.9838
   -31.9576 -31.9311 -31.4202 -31.3857 -31.3660 -31.2783 -31.2173 -31.1509
   -16.7226 -16.6465 -16.3370 -16.2472 -16.1600 -16.1353 -16.0406 -16.0007
   -15.8823 -15.8691 -15.7755 -15.7386 -15.7281 -15.7174 -15.6822 -15.6572
   -15.6420 -15.5589 -15.5190 -15.4857 -15.4555 -15.4369 -15.4124 -15.4072
   -15.3754 -15.3273 -15.2876 -15.2352 -15.1965 -15.1395 -13.5731 -13.4950
   -11.2535  -5.3112  -4.6751  -3.9920  -3.8766  -3.6692  -3.5760  -3.5382
    -3.5249  -3.4484  -3.4130  -3.3975  -3.3063  -3.1553  -3.1330  -3.1204
    -3.0524  -3.0193  -2.9943  -2.9614  -2.9514  -2.9041  -2.8715  -2.8590
    -2.8117  -2.8050  -2.7660  -2.7035  -2.6743  -2.6545  -2.5836  -2.5665
    -2.5032  -2.4406  -2.4192  -2.3321  -2.2862  -2.2396  -2.1302  -2.1119
    -2.0421  -2.0119  -1.8529  -1.7951  -1.7276  -1.6471  -1.5916  -1.5663
    -1.5247  -1.4664  -1.4281  -1.4107  -1.3856  -1.3388  -1.2881  -1.2005
    -1.1686  -1.1427  -1.1095  -1.0887  -1.0031  -0.9750  -0.9416  -0.8866
    -0.8593  -0.8196  -0.8090  -0.7804  -0.7221  -0.6991  -0.6676  -0.5799
    -0.5630  -0.5245  -0.4808  -0.4163  -0.3716  -0.3263  -0.2823  -0.2460
    -0.1753  -0.1105  -0.0537   0.0408   0.1017   0.1367   0.2109   0.2270
     0.3105   0.3979   0.4788   0.5377   0.6250   0.8216   1.1571   1.2295
     1.4026   1.4759   1.5969   3.2048   3.2533   3.3437   3.3792   3.4069
     3.4339   3.4573   3.5285   3.5545   3.5879

          k =-0.0760-0.0000 0.0000 ( 17886 PWs)   bands (ev):

   -56.1401 -56.1226 -56.1045 -56.0865 -56.0412 -56.0058 -55.9646 -55.9478
   -55.8958 -55.8812 -55.8540 -55.8177 -55.7735 -55.7643 -55.0676 -55.0337
   -32.6890 -32.5998 -32.4815 -32.4809 -32.4540 -32.4251 -32.4001 -32.3790
   -32.3687 -32.3467 -32.3444 -32.3412 -32.3004 -32.2982 -32.2838 -32.2719
   -32.2534 -32.2413 -32.2319 -32.2211 -32.2096 -32.2049 -32.1519 -32.1486
   -32.1445 -32.1337 -32.1015 -32.0951 -32.0905 -32.0896 -32.0877 -32.0719
   -32.0709 -32.0585 -32.0211 -32.0011 -31.9857 -31.9678 -31.9665 -31.9618
   -31.9606 -31.9020 -31.4738 -31.3930 -31.3607 -31.2908 -31.2045 -31.0938
   -16.7285 -16.6899 -16.3505 -16.2889 -16.1702 -16.1690 -16.0945 -15.9524
   -15.9299 -15.8908 -15.8821 -15.8599 -15.8128 -15.7765 -15.7380 -15.6743
   -15.6578 -15.5340 -15.5222 -15.4784 -15.4505 -15.4490 -15.3303 -15.3300
   -15.2969 -15.2622 -15.2404 -15.1382 -15.1355 -15.0557 -13.5648 -13.4545
   -11.2526  -5.3223  -4.6873  -4.1475  -3.9230  -3.7056  -3.6677  -3.6562
    -3.5022  -3.4798  -3.4457  -3.3496  -3.3311  -3.2825  -3.2757  -3.2342
    -3.1193  -3.0388  -2.9188  -2.8894  -2.8609  -2.7853  -2.7152  -2.6504
    -2.6167  -2.5979  -2.5939  -2.5687  -2.5173  -2.4528  -2.4115  -2.3689
    -2.3567  -2.3299  -2.3270  -2.3041  -2.2946  -2.2795  -2.2295  -2.1260
    -2.0722  -2.0166  -1.8777  -1.8745  -1.7613  -1.7535  -1.6851  -1.6691
    -1.6668  -1.5740  -1.5528  -1.5045  -1.4797  -1.4189  -1.3793  -1.3676
    -1.3624  -1.2795  -1.2221  -1.1796  -1.1086  -1.0151  -0.9786  -0.9265
    -0.8319  -0.8217  -0.7941  -0.7154  -0.6642  -0.6455  -0.6193  -0.5448
    -0.4880  -0.3969  -0.3819  -0.3574  -0.3094  -0.2933  -0.2745  -0.2517
    -0.2276  -0.0921  -0.0722  -0.0251   0.0234   0.0364   0.2341   0.3152
     0.3822   0.4779   0.6164   0.6333   0.6867   0.8931   0.9860   1.0920
     1.2827   1.4351   1.6153   3.0926   3.1151   3.2458   3.3093   3.3656
     3.4174   3.4182   3.4502   3.4810   3.5299

          k =-0.0760 0.0419 0.0000 ( 17914 PWs)   bands (ev):

   -56.1355 -56.1174 -56.1092 -56.0918 -56.0392 -56.0033 -55.9666 -55.9503
   -55.8948 -55.8799 -55.8495 -55.8223 -55.7749 -55.7653 -55.0627 -55.0387
   -32.6319 -32.5462 -32.4441 -32.4316 -32.4290 -32.4213 -32.3974 -32.3833
   -32.3602 -32.3290 -32.3160 -32.3088 -32.3007 -32.2891 -32.2857 -32.2828
   -32.2781 -32.2445 -32.2441 -32.2227 -32.2206 -32.2005 -32.1640 -32.1589
   -32.1557 -32.1451 -32.1409 -32.1327 -32.0937 -32.0841 -32.0795 -32.0737
   -32.0679 -32.0624 -32.0212 -32.0179 -32.0161 -32.0114 -31.9915 -31.9838
   -31.9647 -31.9311 -31.4200 -31.3883 -31.3653 -31.2783 -31.2173 -31.1509
   -16.6758 -16.6083 -16.2372 -16.1964 -16.1359 -16.0655 -16.0199 -15.9987
   -15.9068 -15.8681 -15.8228 -15.8075 -15.7764 -15.7667 -15.7350 -15.6534
   -15.6433 -15.6347 -15.5234 -15.5034 -15.4968 -15.4682 -15.4064 -15.3792
   -15.3655 -15.3284 -15.3011 -15.2293 -15.1951 -15.1409 -13.5710 -13.4954
   -11.2550  -5.3158  -4.6668  -3.9797  -3.8278  -3.5022  -3.4572  -3.4342
    -3.3148  -3.3115  -3.2551  -3.1776  -3.1699  -3.1304  -3.1138  -3.0945
    -3.0578  -3.0349  -2.9871  -2.9234  -2.8602  -2.8441  -2.7968  -2.7953
    -2.7749  -2.7357  -2.6888  -2.6748  -2.6649  -2.6279  -2.5630  -2.5512
    -2.4873  -2.4454  -2.4275  -2.2637  -2.2289  -2.1951  -2.1885  -2.1433
    -2.0743  -1.9666  -1.8697  -1.7524  -1.7009  -1.6712  -1.6388  -1.6264
    -1.5887  -1.5676  -1.5201  -1.4608  -1.4509  -1.4276  -1.3983  -1.3555
    -1.3140  -1.3010  -1.2471  -1.2173  -1.1907  -1.1576  -1.1476  -1.0263
    -0.9757  -0.9592  -0.9245  -0.8397  -0.8206  -0.7845  -0.7500  -0.6532
    -0.6354  -0.6187  -0.5034  -0.4415  -0.4297  -0.3629  -0.2617  -0.1726
    -0.1603  -0.1434  -0.0234   0.0345   0.0899   0.2191   0.2400   0.3204
     0.4221   0.4472   0.4790   0.5029   0.6445   0.6732   1.1735   1.2328
     1.3282   1.4606   1.6044   3.1433   3.2253   3.2801   3.3084   3.3870
     3.4018   3.4496   3.5110   3.5854   3.6280

          k =-0.0760-0.0839 0.0000 ( 17948 PWs)   bands (ev):

   -56.1278 -56.1169 -56.1066 -56.1026 -56.0372 -56.0006 -55.9687 -55.9531
   -55.8938 -55.8786 -55.8424 -55.8294 -55.7763 -55.7665 -55.0510 -55.0504
   -32.4944 -32.4903 -32.4293 -32.4212 -32.4143 -32.4089 -32.3996 -32.3921
   -32.3341 -32.3325 -32.3291 -32.3028 -32.2992 -32.2774 -32.2648 -32.2582
   -32.2506 -32.2463 -32.2316 -32.2298 -32.2153 -32.2042 -32.1899 -32.1723
   -32.1703 -32.1616 -32.1611 -32.1559 -32.1428 -32.1134 -32.0809 -32.0729
   -32.0713 -32.0642 -32.0577 -32.0530 -32.0369 -32.0229 -32.0190 -32.0002
   -31.9659 -31.9521 -31.3771 -31.3763 -31.2879 -31.2872 -31.2482 -31.2475
   -16.6602 -16.3429 -16.2975 -16.0665 -16.0509 -16.0067 -15.9298 -15.8809
   -15.8751 -15.8488 -15.8399 -15.7839 -15.7743 -15.7616 -15.7389 -15.6429
   -15.6327 -15.6296 -15.6055 -15.5400 -15.5260 -15.4983 -15.4471 -15.4403
   -15.4117 -15.3973 -15.3672 -15.3366 -15.2800 -15.2766 -13.5573 -13.5566
   -11.2574  -5.3107  -4.6484  -3.7179  -3.6272  -3.5796  -3.2798  -3.2607
    -3.2231  -3.1123  -3.0490  -3.0252  -2.9825  -2.9637  -2.9244  -2.9160
[...]
             -0.313341761928488E+02
              0.143107937451351E+02
              0.242774408100324E+02
              0.309685311834519E+02
             -0.362245320798459E+01
              0.259227692785572E+01
             -0.551511826000549E+01
             -0.265340457452714E+02
             -0.380675269125232E+02
              0.435886217336282E+02
             -0.424539806863243E+01
             -0.303026151950288E+02
              0.300147996438137E+01
             -0.141979898609507E+02
              0.497948528254964E+02
             -0.128212523514454E+02
             -0.196634383182787E+02
              0.190770405631502E+02
             -0.900648336202484E+01
              0.244192651343781E+02
              0.717431780950392E+00
              0.532995045149578E+02
              0.289543004336497E+02
              0.220259011182891E+01
             -0.204182069753347E+02
              0.150536358976258E+02
             -0.295438822855521E+02
             -0.480034323947898E+01
              0.335910599310710E+02
             -0.153343765254048E+02
             -0.246249815629794E+02
             -0.133078412443980E+02
              0.274339296643004E+02
              0.693483436720325E+01
             -0.454219286509073E+02
              0.182092835910408E+02
              0.507388968914651E+01
              0.504844381379877E+01
             -0.276190593441312E+02
              0.158758981521476E+01
              0.185210225397981E+02
              0.262390625589748E+02
              0.361433323368364E+02
              0.158270038191224E+02
              0.215304060167455E+01
             -0.296589692378525E+02
             -0.256473182932145E+02
             -0.378459475471583E+02
             -0.721195432582709E+01
              0.173792293440232E+02
             -0.133845548491711E+01
              0.281364897465310E+02
             -0.179214326839963E+02
              0.901530696220669E+01
             -0.953772414408091E+01
             -0.163892807639692E+02
              0.335517031348809E+02
              0.388337247205416E+01
              0.345012415680190E+02
              0.259514070338003E+01
              0.122032023274022E+02
             -0.988249005161106E+01
              0.333209458495984E+02
             -0.912705169838328E+01
              0.353871789032980E+00
             -0.428456296577679E+02
             -0.526100267428401E+01
              0.392289049031818E+02
              0.350404546601472E+02
              0.147956615321458E+02
             -0.912794009754904E+01
              0.307585850110530E+01
             -0.115149803582940E+02
             -0.762918676927414E+01
              0.507473496593065E+02
              0.276997324274856E+01
             -0.143904817368697E+02
             -0.594735198935454E+02
             -0.260647758711663E+02
             -0.210932248023948E+02
             -0.351958174137908E+02
             -0.318741873206002E+02
             -0.379773599925086E+02
             -0.252053753275455E+02
             -0.174746835149246E+02
             -0.271842281579981E+02
              0.257691549293707E+02
             -0.114284518120251E+02
             -0.485098791055345E+02
              0.220484991772172E+02
             -0.167197055410040E+02
             -0.446435487820566E+02
              0.533709760544477E+02
             -0.143093833678160E+02
              0.942844352602970E+01
              0.220098830018233E+02
              0.493888021492307E+01
              0.146723498901846E+02
              0.178254415332673E+01
              0.107762577851529E+00
             -0.816263890034578E+01
             -0.414784632178584E+02
              0.653224869601161E+01
             -0.685599741774764E+02
              0.390610825638154E+02
             -0.234378491874455E+02
             -0.975106678858040E+01
             -0.100685467485397E+02
              0.823915077126529E+01
             -0.939408456291827E+01
              0.148505158614327E+02
             -0.304343928378947E+02
              0.197097998400032E+02
              0.237575237583344E+02
              0.574535353780983E+01
              0.630755277152042E+01
              0.118978979713367E+02
              0.502271802659180E+01
              0.151977739477020E+02
             -0.436806444426496E+01
             -0.387461341716491E+02
              0.527061662014938E+01
             -0.136660643425205E+02
             -0.299171000136096E+01
              0.304767998520780E+02
             -0.442838631161419E+02
              0.769243173001684E+00
              0.117078509347897E+01
              0.505815025484733E+01
              0.172912042789601E+02
             -0.671333193603240E+01
              0.458630907671694E+02
              0.243029650382594E+02
             -0.847800138207186E+01
             -0.416162054790328E+01
              0.208741712326017E+01
              0.424938299232930E+02
             -0.292573063738045E+02
             -0.568982170583777E+02
              0.170231591865407E+02
             -0.676848287185743E+01
             -0.923136422440687E+01
              0.914299732216234E+01
              0.419895498963608E+02
              0.245232371343406E+02
             -0.886813993386500E+01
             -0.290784856937117E+02
             -0.472216308079922E+01
              0.156162513930873E+02
             -0.846549692151407E+01
             -0.413169983951277E+02
             -0.337086849125718E+01
             -0.528321601388377E+02
             -0.281402675952596E+02
              0.455048458810719E+02
             -0.289012461360873E+02
             -0.378686844129984E+02
             -0.285688096257396E+02
             -0.204988697966013E+02
              0.200817896790253E+02
              0.467832792298294E+02
             -0.368801910438040E+01
              0.143636871972972E+02
             -0.118201634393889E+02
             -0.386440180669844E+02
              0.260696000408353E+02
             -0.262229030942855E+02
              0.144868147443325E+02
              0.177654120179926E+02
             -0.589024076775070E+01
              0.209721298233413E+02
              0.229209878254559E+02
              0.631902222988640E+02
             -0.660989807285364E+01
             -0.288436942812977E+02
             -0.350209135859112E+02
             -0.956840727861043E+01
             -0.186643695208415E+02
              0.526443004188783E+02
             -0.244195703361718E+02
              0.645038529495992E+01
              0.272617974190106E+01
             -0.122781868207855E+02
             -0.473416025426933E+02
             -0.348406107077923E+01
              0.549624198333161E+02
              0.968464798912058E+01
              0.417707793314412E+01
             -0.322597991144319E+02
             -0.321111896700428E+02
             -0.786500230884947E+01
              0.256571821064148E+02
             -0.141605051130906E+02
              0.573726462145035E+02
             -0.270295248146678E+02
              0.104918701032737E+02
             -0.763444029513676E+01
             -0.362109559230568E+02
              0.240113380930697E+01
             -0.286086660404533E+02
             -0.412464353298516E+02
              0.620326684776717E+01
              0.107058668781426E+01
              0.291907039412546E+02
              0.131750742279559E+02
             -0.187494075587558E+02
              0.119767407911148E+02
             -0.488504232768369E+02
             -0.267227832773434E+02
              0.497788817723769E+02
              0.461617268684061E+01
             -0.592094104518600E+01
             -0.166209580020443E+02
             -0.245787305474408E+01
             -0.555094634668961E+01
              0.496928485276274E+02
              0.232332297830302E+02
             -0.660814662922212E+01
             -0.194178198952039E+01
             -0.219456925105550E+02
             -0.874806214558663E+01
             -0.351688665046350E+02
              0.275524268951818E+02
              0.390275772224169E+01
              0.576102796687684E+01
              0.100315663473049E+02
             -0.447196209816616E+01
             -0.114833574987088E+02
              0.306644968205262E+01
             -0.604345905577624E+02
             -0.864511807154730E+01
             -0.573683547806820E+01
             -0.432823128518862E+01
              0.268821622734626E+02
              0.363048964355302E+02
              0.968417805922786E+01
             -0.531522278557544E+02
              0.347300813136999E+02
             -0.119290141211225E+02
             -0.209038932872041E+02
             -0.486646183766345E+02
             -0.167636443763587E+02
              0.347090051561730E+02
              0.170216667388974E+02
              0.556254914568177E+01
              0.187994080686209E+02
             -0.326021758045130E+02
             -0.259862995285549E+02
              0.314657753686308E+02
              0.217024151049404E+02
              0.268106251084459E+02
              0.277308671399921E+01
              0.469501122204807E+01
              0.304452426760069E+02
              0.538642329543003E+02
             -0.116369869493922E+02
              0.214857848284519E+02
             -0.144888547002058E+02
             -0.244542810588124E+02
             -0.193383068355297E+02
             -0.194549001271728E+02
             -0.811316247406234E+01
             -0.265485776522099E+02
             -0.109244388055589E+02
             -0.757382004609578E+02
              0.189276592725023E+02
              0.123515784656777E+02
             -0.266316326662277E+01
             -0.216613874942141E+02
             -0.103111065591287E+02
             -0.306524194965736E+02
              0.546481119855977E+01
              0.449517627197656E+02
             -0.123448219111876E+02
             -0.940526084169667E+01
              0.117136705601434E+02
             -0.284974185655162E+02
              0.471834677843211E+02
              0.818367578487145E+01
              0.780338912768912E+01
              0.275887240188434E+02
             -0.137857736631963E+01
              0.312191913420821E+02
              0.105533506825970E+02
             -0.218320079699103E+01
              0.457326752560465E+01
             -0.351369406404072E+01
              0.368916769423741E+02
              0.477693770135085E+01
              0.101199814825653E+02
             -0.646653247209025E+01
              0.784002724328954E+01
             -0.514264225970487E+02
             -0.195834689087444E+02
             -0.271970690413356E+02
              0.263994156954193E+02
             -0.178177010730660E+02
             -0.334500592552945E+02
              0.322367433727990E+02
             -0.677505708421293E+01
              0.225571388292094E+02
             -0.501622876494565E+02
              0.103110619102628E+02
              0.289405433937469E+01
              0.344431619587044E+01
             -0.650648354642246E+01
             -0.404900589659621E+01
              0.282664051735489E+02
              0.100332257795253E+01
             -0.282945956851246E+02
             -0.104216444874110E+02
              0.122446913371356E+02
             -0.640006181589396E+02
             -0.489515735041952E+02
              0.716698265782782E+00
              0.782587053361619E+01
             -0.261553166048405E+02
             -0.105800906629355E+01
              0.585087480713705E+02
              0.155448440068876E+02
             -0.299415899563463E+02
              0.520777990717153E+01
             -0.517053518358387E+01
              0.694358124320821E+01
             -0.198056901522413E+02
              0.122393245572703E+02
              0.146439848937408E+02
             -0.385932124758199E+01
              0.620445365983045E+02
             -0.438600329304936E+01
             -0.175368367649532E+02
              0.132283616293798E+02
              0.238474266619504E+02
             -0.187393991080693E+02
             -0.102284977313692E+01
              0.543704893556525E+02
             -0.156426329380736E+01
              0.326568354248334E+02
              0.810573299665654E+01
             -0.387920281187729E+01
             -0.126328881609087E+02
              0.289875127029656E+02
             -0.310255569831785E+02
             -0.567524799769274E+00
             -0.101004923986063E+02
             -0.220291478095091E+02
              0.835076140142651E+01
              0.147611700314350E+02
              0.239730521004748E+01
             -0.204091905486393E+00
             -0.221099737606616E+02
              0.899667451077185E+01
             -0.181821856144066E+01
             -0.125840916584341E+02
             -0.111855169382169E+02
              0.914859804805258E+01
             -0.204155640893885E+01
             -0.209893667557504E+02
             -0.605165772897063E+02
              0.583962048217687E+01
              0.106841386897384E+02
             -0.269493627766848E+02
             -0.132706257336198E+02
              0.459071189559001E+02
              0.624023964016394E+01
              0.218986188237612E+02
              0.481377037995259E+01
              0.221295026386266E+02
              0.317768485768474E+01
             -0.216110568157550E+02
             -0.606093180091814E+01
              0.302122716781227E+01
              0.174840380559764E+02
              0.418534105155462E+02
              0.273339335078368E+02
              0.168663418682226E+01
              0.948376236491558E+01
              0.336292836020863E+02
              0.146810278591983E+02
             -0.384693991622397E+02
             -0.153135576012908E+02
              0.616724560692646E+01
              0.474553501590674E+01
              0.136993032030490E+02
             -0.287535913766666E+02
              0.393385277400365E+01
              0.240282932891165E+02
              0.265713317626048E+02
             -0.238821970208706E+02
              0.181314486341080E-01
             -0.123148453575894E+01
             -0.943655820897169E+01
             -0.157857547294595E+02
             -0.859582567721446E+01
             -0.490734102576055E+01
              0.562025855861935E+01
              0.234973459713330E+02
             -0.171748305945459E+02
              0.449450833959772E+02
              0.182178943655216E+02
              0.148994014611607E+02
              0.196545669247444E+02
              0.150371068471624E+02
              0.202073005167145E+02
              0.303956372906450E+02
             -0.252805635860528E+02
              0.345972473943905E+02
             -0.633749082103078E+02
              0.175899698491273E+02
             -0.594095559827973E+02
              0.463880189681282E+02
              0.418522608482677E+02
             -0.523728927325266E+01
             -0.267591903864616E+02
             -0.235892819003256E+02
             -0.305516485085106E+02
             -0.351972594558412E+02
              0.314471645487697E+02
              0.233751698481508E+02
              0.132884306973182E+02
              0.157118132537831E+02
              0.248641746297230E+02
             -0.217762373653969E+02
             -0.986877661018514E+01
              0.306368775396135E+02
             -0.725003266048950E+01
              0.296745199583408E+02
              0.414007446422285E+02
             -0.321391926525552E+01
             -0.406958694084289E+02
              0.277439616868645E+01
             -0.146306640884567E+01
             -0.567188455914857E+01
              0.610456868051585E-01
             -0.362288377012705E+02
             -0.698823255370667E+01
              0.489891727262341E+01
              0.739746434676236E+01
              0.271525434492441E+02
             -0.237442377357790E+02
              0.309357728124301E+02
             -0.221613296299614E+02
              0.142496737570991E+02
              0.224432990026481E+02
 
 BEEF-vdW xc energy contributions
           1 :   -408.161611122966     
           2 :    355.698506038471     
           3 :   -270.930565669936     
           4 :    182.317384842041     
           5 :   -112.647665826652     
           6 :    71.0296947145982     
           7 :   -53.7350480868295     
           8 :    50.6753729611259     
           9 :   -52.3753408062490     
          10 :    53.6042914011502     
          11 :   -53.1651630187920     
          12 :    51.6361217867696     
          13 :   -49.4400949732373     
          14 :    46.3218585426893     
          15 :   -41.9302091290233     
          16 :    36.4917179101008     
          17 :   -30.9316351837088     
          18 :    26.4117898535453     
          19 :   -23.7297844548681     
          20 :    22.9900253418337     
          21 :   -23.7006670338727     
          22 :    25.1144463526907     
          23 :   -26.5515170611672     
          24 :    27.5282978295827     
          25 :   -27.7313684777307     
          26 :    26.9693326403992     
          27 :   -25.2014082869605     
          28 :    22.6214267159202     
          29 :   -19.6980553175146     
          30 :    17.0684380512484     
          31 :   -47.9193046699856     
          32 :   -32.5457293265134     
  @ DRIVER MODE: Message from server: STATUS
  @ DRIVER MODE: Message from server: GETFORCE
  @ DRIVER MODE: Returning v,forces,stress,ensemble 
  @ DRIVE MODE: Returning Ensemble Energies  

     Writing config to output data dir ./calc.save/
  @ DRIVER MODE: Message from server: EXIT
  @ DRIVE MODE: Exiting  
 
     init_run     :     78.17s CPU    152.82s WALL (       1 calls)
     electrons    :  27109.12s CPU  30694.55s WALL (      15 calls)
     update_pot   :     39.52s CPU     43.74s WALL (      15 calls)
     forces       :     81.88s CPU     88.92s WALL (      15 calls)

     Called by init_run:
     wfcinit      :     63.35s CPU    125.61s WALL (       1 calls)
     potinit      :     13.67s CPU     25.27s WALL (       1 calls)
     hinit0       :      0.57s CPU      0.59s WALL (       1 calls)

     Called by electrons:
     c_bands      :  24434.79s CPU  27696.11s WALL (     353 calls)
     sum_band     :   1955.54s CPU   2167.07s WALL (     353 calls)
     v_of_rho     :    516.28s CPU    566.60s WALL (     369 calls)
     newd         :    187.79s CPU    247.79s WALL (     369 calls)
     mix_rho      :     45.26s CPU     59.90s WALL (     353 calls)
     vdW_kernel   :     11.63s CPU     22.01s WALL (       1 calls)

     Called by c_bands:
     init_us_2    :     69.91s CPU     71.62s WALL (    7220 calls)
     cegterg      :  24201.02s CPU  27451.43s WALL (    3777 calls)

     Called by *egterg:
     cdiaghg      :  10442.36s CPU  12996.85s WALL (   48096 calls)
     h_psi        :   9125.36s CPU   9707.43s WALL (   48489 calls)
     s_psi        :   1025.24s CPU   1042.41s WALL (   48489 calls)
     g_psi        :     26.72s CPU     27.00s WALL (   44702 calls)

     Called by h_psi:
     h_psi:calbec :    955.86s CPU    984.24s WALL (   48489 calls)
     vloc_psi     :   7108.54s CPU   7647.08s WALL (   48489 calls)
     add_vuspsi   :   1029.91s CPU   1043.99s WALL (   48489 calls)

     General routines
     calbec       :   1245.01s CPU   1283.75s WALL (   52619 calls)
     fft          :    355.23s CPU    368.45s WALL (   25199 calls)
     ffts         :      2.61s CPU      2.82s WALL (     722 calls)
     fftw         :   8004.06s CPU   8678.26s WALL ( 5500844 calls)
     interpolate  :      6.29s CPU      6.64s WALL (     369 calls)
     davcio       :      0.00s CPU      1.00s WALL (      10 calls)
 
     Parallel routines
 
     PWSCF        :      7h36m CPU      8h37m WALL

 
   This run was terminated on:   6:31:31  12Oct2021            

=------------------------------------------------------------------------------=
   JOB DONE.
=------------------------------------------------------------------------------=
