
     Program PWSCF v.6.7GPU starts on 22Sep2021 at 23: 1: 4 

     This program is part of the open-source Quantum ESPRESSO suite
     for quantum simulation of materials; please cite
         "P. Giannozzi et al., J. Phys.:Condens. Matter 21 395502 (2009);
         "P. Giannozzi et al., J. Phys.:Condens. Matter 29 465901 (2017);
         "P. Giannozzi et al., J. Chem. Phys. 152 154105 (2020);
          URL http://www.quantum-espresso.org", 
     in publications or presentations arising from this work. More details at
     http://www.quantum-espresso.org/quote

     Parallel version (MPI), running on    10 processors

     MPI processes distributed on     1 nodes
     R & G space division:  proc/nbgrp/npool/nimage =      10
     Reading input from /storage/home/hcoda1/3/ntian30/research/carbon/CxH_vib/H2O_calc/ads_slab/CH2NHNHH2O_b/out_0020/pw.inp
Warning: card &CELL ignored
Warning: card   CELL_DYNAMICS='IPI', ignored
Warning: card / ignored

     Current dimensions of program PWSCF are:
     Max number of different atomic species (ntypx) = 10
     Max number of k-points (npk) =  40000
     Max angular momentum in pseudopotentials (lmaxx) =  3
     Presently no symmetry can be used with electric field

     Message from routine cell_base_init:
     DEPRECATED: use true lattice parameter, not A to a.u. conversion factor

     **************************************************************************
     Initializing libbeef V0.1.2 with the BEEF-vdW functional.
     Citation: Wellendorff et al., PRB 85, 235149 (2012).
     **************************************************************************


     IMPORTANT: XC functional enforced from input :
     Exchange-correlation= BEEF-VDW
                           (   1   4  43  14   2   0   0)
     Any further DFT definition will be discarded
     Please, verify this is what you really want


     Subspace diagonalization in iterative solution of the eigenvalue problem:
     one sub-group per band group will be used
     scalapack distributed-memory algorithm (size of sub-group:  3*  3 procs)

  @ DRIVER MODE: Connecting to 
 qe_1139763_2937310.sched-torque.pace.gatech.eduxwagjlqc_scratch
  using UNIX socket
  @ DRIVER MODE: Message from server: STATUS
  @ DRIVER MODE: Message from server: INIT
  @ DRIVER MODE: Receiving replica           0          -1
  @ DRIVER MODE: Receiving encoded integer          25
  @ DRIVER MODE:  SCF:  T  FORCE:  T  STRESS:  F  VC:  F  ENSEMBLE:  F
  @ DRIVER MODE:  SCF:  T  FORCE:  T  STRESS:  F  VC:  F  ENSEMBLE:  F
 
     Parallelization info
     --------------------
     sticks:   dense  smooth     PW     G-vecs:    dense   smooth      PW
     Min         327     131     37                56683    14340    2191
     Max         328     133     38                56694    14346    2206
     Sum        3275    1317    379               566857   143421   21985
 
     Using Slab Decomposition
 


     bravais-lattice index     =            0
     lattice parameter (alat)  =       1.8897  a.u.
     unit-cell volume          =    6658.9804 (a.u.)^3
     number of atoms/cell      =           57
     number of atomic types    =            5
     number of electrons       =       404.00
     number of Kohn-Sham states=          212
     kinetic-energy cutoff     =      29.3995  Ry
     charge density cutoff     =     293.9946  Ry
     scf convergence threshold =      7.3E-08
     mixing beta               =       0.0500
     number of iterations used =            8  plain     mixing
     Exchange-correlation= BEEF-VDW
                           (   1   4  43  14   2   0   0)

     celldm(1)=   1.889726  celldm(2)=   0.000000  celldm(3)=   0.000000
     celldm(4)=   0.000000  celldm(5)=   0.000000  celldm(6)=   0.000000

     crystal axes: (cart. coord. in units of alat)
               a(1) = (   6.579727   0.000000   0.000000 )  
               a(2) = (  -0.000775   5.961596   0.000000 )  
               a(3) = (   0.000000   0.000000  25.155947 )  

     reciprocal axes: (cart. coord. in units 2 pi/alat)
               b(1) = (  0.151982  0.000020  0.000000 )  
               b(2) = (  0.000000  0.167740  0.000000 )  
               b(3) = (  0.000000  0.000000  0.039752 )  


     PseudoPot. # 1 for Ti read from file:
     /storage/coda1/p-amedford6/0/shared/rich_project_chbe-medford/medford-share/data/pseudos_module/espresso/nninc/pbe/van/Ti.UPF
     MD5 check sum: 8e4df49b7f0d34bbd5052bf3f5ea0213
     Pseudo is Ultrasoft, Zval = 12.0
     Generated by new atomic code, or converted to UPF format
     Using radial grid of  851 points,  6 beta functions with: 
                l(1) =   0
                l(2) =   0
                l(3) =   1
                l(4) =   1
                l(5) =   2
                l(6) =   2
     Q(r) pseudized with  8 coefficients,  rinner =    1.000   1.000   1.000
                                                       1.000   1.000

     PseudoPot. # 2 for O  read from file:
     /storage/coda1/p-amedford6/0/shared/rich_project_chbe-medford/medford-share/data/pseudos_module/espresso/nninc/pbe/van/O.UPF
     MD5 check sum: 78c19812648e8988a0fe644b0f25305e
     Pseudo is Ultrasoft, Zval =  6.0
     Generated by new atomic code, or converted to UPF format
     Using radial grid of  737 points,  4 beta functions with: 
                l(1) =   0
                l(2) =   0
                l(3) =   1
                l(4) =   1
     Q(r) pseudized with  8 coefficients,  rinner =    0.800   0.800   0.800


     PseudoPot. # 3 for N  read from file:
     /storage/coda1/p-amedford6/0/shared/rich_project_chbe-medford/medford-share/data/pseudos_module/espresso/nninc/pbe/van/N.UPF
     MD5 check sum: 90d10febe142ad51ac9d5be1deb811c4
     Pseudo is Ultrasoft, Zval =  5.0
     Generated by new atomic code, or converted to UPF format
     Using radial grid of  729 points,  4 beta functions with: 
                l(1) =   0
                l(2) =   0
                l(3) =   1
                l(4) =   1
     Q(r) pseudized with  8 coefficients,  rinner =    0.800   0.800   0.800


     PseudoPot. # 4 for C  read from file:
     /storage/coda1/p-amedford6/0/shared/rich_project_chbe-medford/medford-share/data/pseudos_module/espresso/nninc/pbe/van/C.UPF
     MD5 check sum: 1a69bf6b8db32088f5b2163dbdb77a27
     Pseudo is Ultrasoft, Zval =  4.0
     Generated by new atomic code, or converted to UPF format
     Using radial grid of  721 points,  4 beta functions with: 
                l(1) =   0
                l(2) =   0
                l(3) =   1
                l(4) =   1
     Q(r) pseudized with  8 coefficients,  rinner =    0.800   0.800   0.800


     PseudoPot. # 5 for H  read from file:
     /storage/coda1/p-amedford6/0/shared/rich_project_chbe-medford/medford-share/data/pseudos_module/espresso/nninc/pbe/van/H.UPF
     MD5 check sum: b5ee9d7bfd3a09ee7748110bda690ff7
     Pseudo is Ultrasoft, Zval =  1.0
     Generated by new atomic code, or converted to UPF format
     Using radial grid of  615 points,  1 beta functions with: 
                l(1) =   0
     Q(r) pseudized with  8 coefficients,  rinner =    0.800

     atomic species   valence    mass     pseudopotential
        Ti1           12.00    47.86700     Ti( 1.00)
        O1             6.00    15.99900     O ( 1.00)
        N1             5.00    14.00700     N ( 1.00)
        C1             4.00    12.01100     C ( 1.00)
        H1             1.00     1.00800     H ( 1.00)

     No symmetry found



   Cartesian axes

     site n.     atom                  positions (alat units)
         1           Ti1 tau(   1) = (   0.0004258   2.9801865   6.0000000  )
         2           Ti1 tau(   2) = (   3.2906075   1.4906267   6.0002472  )
         3           O1  tau(   3) = (   0.0006271   0.0005054   7.9858123  )
         4           O1  tau(   4) = (   3.2906025   0.0005020   7.3038282  )
         5           O1  tau(   5) = (   4.5942328   1.4918067   9.2879030  )
         6           O1  tau(   6) = (   1.9868534   1.4903216   9.2879459  )
         7           Ti1 tau(   7) = (   3.2907910   2.8959150   9.1758416  )
         8           Ti1 tau(   8) = (   0.0015273   1.4827037   9.2680791  )
         9           O1  tau(   9) = (   3.2740695   5.9399032  11.3612631  )
        10           O1  tau(  10) = (   0.0116148   5.9584955  10.6183126  )
        11           O1  tau(  11) = (   1.2665466   1.4659349  12.6457467  )
        12           O1  tau(  12) = (   5.2636777   1.4644475  12.6520517  )
        13           Ti1 tau(  13) = (   0.0254019   2.9535957  12.5508080  )
        14           Ti1 tau(  14) = (   3.3235577   1.4585364  12.5144190  )
        15           O1  tau(  15) = (   0.0066209   5.9388471  14.7046414  )
        16           O1  tau(  16) = (   3.2471877   5.9405099  14.0100224  )
        17           O1  tau(  17) = (   4.5302733   1.5208160  16.0462967  )
        18           O1  tau(  18) = (   1.9955500   1.4995475  16.2009832  )
        19           Ti1 tau(  19) = (   3.2567830   2.9699832  15.6929747  )
        20           Ti1 tau(  20) = (   6.4949666   1.4732860  15.8443191  )
        21           O1  tau(  21) = (   3.2904802   0.0005063   4.7018136  )
        22           O1  tau(  22) = (   6.4419287   5.8812218  17.2824568  )
        23           O1  tau(  23) = (   1.3043587   1.4918075   6.0039043  )
        24           O1  tau(  24) = (   5.2767064   1.4903225   6.0039473  )
        25           Ti1 tau(  25) = (   0.0000382   5.9609847   6.0000000  )
        26           Ti1 tau(  26) = (   3.2902200   4.4714249   6.0002472  )
        27           O1  tau(  27) = (   0.0002396   2.9813036   7.9858123  )
        28           O1  tau(  28) = (   3.2902150   2.9813002   7.3038282  )
        29           O1  tau(  29) = (   4.5938453   4.4726049   9.2879030  )
        30           O1  tau(  30) = (   1.9864658   4.4711199   9.2879459  )
        31           Ti1 tau(  31) = (   3.2891106   5.8743827   9.1763621  )
        32           Ti1 tau(  32) = (   0.0006254   4.4649316   9.2693709  )
        33           O1  tau(  33) = (   3.2800166   2.9600013  11.3546200  )
        34           O1  tau(  34) = (   0.0092240   2.9805883  10.6323155  )
        35           O1  tau(  35) = (   1.2663080   4.4508225  12.6496728  )
        36           O1  tau(  36) = (   5.2650692   4.4524444  12.6537221  )
        37           Ti1 tau(  37) = (   0.0180281   5.9297397  12.5120547  )
        38           Ti1 tau(  38) = (   3.3242103   4.4456960  12.5094407  )
        39           O1  tau(  39) = (   0.0028395   2.9305241  14.7702868  )
        40           O1  tau(  40) = (   3.2369197   2.9632653  13.9133312  )
        41           O1  tau(  41) = (   4.5259019   4.3784886  16.1008109  )
        42           O1  tau(  42) = (   2.0017919   4.4285960  16.1845674  )
        43           Ti1 tau(  43) = (   3.2453488   5.9423767  15.8283900  )
        44           Ti1 tau(  44) = (   6.5728488   4.6138345  16.0446011  )
        45           O1  tau(  45) = (   3.2900926   2.9813045   4.7018136  )
        46           O1  tau(  46) = (   1.3039711   4.4726057   6.0039043  )
        47           O1  tau(  47) = (   5.2763189   4.4711207   6.0039473  )
        48           N1  tau(  48) = (   0.9567011   2.5879941  18.4848429  )
        49           N1  tau(  49) = (   6.5185693   2.8362889  17.6364570  )
        50           C1  tau(  50) = (   1.0658718   2.8740630  19.7563100  )
        51           H1  tau(  51) = (   1.9537682   2.5238050  20.2723566  )
        52           H1  tau(  52) = (   0.2809834   3.4210577  20.2544045  )
        53           H1  tau(  53) = (   1.7014144   2.0656717  17.9989220  )
        54           H1  tau(  54) = (   5.6742842   3.0275795  18.1730567  )
        55           O1  tau(  55) = (   3.7618585   0.1297276  18.3074903  )
        56           H1  tau(  56) = (   4.7330396   0.0541995  18.1289380  )
        57           H1  tau(  57) = (   3.4892521   5.2388606  18.6788193  )

     number of k points=    10  Fermi-Dirac smearing, width (Ry)=  0.0073
                       cart. coord. in units 2pi/alat
        k(    1) = (   0.0000000   0.0000000   0.0000000), wk =   0.1250000
        k(    2) = (   0.0000000   0.0419351   0.0000000), wk =   0.2500000
        k(    3) = (   0.0000000  -0.0838702   0.0000000), wk =   0.1250000
        k(    4) = (   0.0379955   0.0000049   0.0000000), wk =   0.2500000
        k(    5) = (   0.0379955   0.0419400   0.0000000), wk =   0.2500000
        k(    6) = (   0.0379955  -0.0838652   0.0000000), wk =   0.2500000
        k(    7) = (   0.0379955  -0.0419301   0.0000000), wk =   0.2500000
        k(    8) = (  -0.0759910  -0.0000099   0.0000000), wk =   0.1250000
        k(    9) = (  -0.0759910   0.0419252   0.0000000), wk =   0.2500000
        k(   10) = (  -0.0759910  -0.0838800   0.0000000), wk =   0.1250000

     Dense  grid:   566857 G-vectors     FFT dimensions: (  72,  64, 270)

     Smooth grid:   143421 G-vectors     FFT dimensions: (  45,  40, 180)

     Estimated max dynamical RAM per process >     367.81 MB

     Estimated total dynamical RAM >       3.59 GB
     Cannot read rho : file not found

     Initial potential from superposition of free atoms

     starting charge  387.99913, renormalised to  404.00000

     negative rho (up, down):  1.394E-02 0.000E+00


     %%%%%%%%%%%%%%%%%%%%%%%%%%%%%%%%%%%%%%%%%%%%%%%%%%%%%%%%%%%%%%%%%%%%%%%%
     %                                                                      %
     % You are using vdW-DF, which was implemented by the Thonhauser group. %
     % Please cite the following two papers that made this development      %
     % possible and the two reviews that describe the various versions:     %
     %                                                                      %
     %   T. Thonhauser et al., PRL 115, 136402 (2015).                      %
     %   T. Thonhauser et al., PRB 76, 125112 (2007).                       %
     %   K. Berland et al., Rep. Prog. Phys. 78, 066501 (2015).             %
     %   D.C. Langreth et al., J. Phys.: Condens. Matter 21, 084203 (2009). %
     %                                                                      %
     %                                                                      %
     % If you are calculating the stress with vdW-DF, please also cite:     %
     %                                                                      %
     %   R. Sabatini et al., J. Phys.: Condens. Matter 24, 424209 (2012).   %
     %                                                                      %
     %%%%%%%%%%%%%%%%%%%%%%%%%%%%%%%%%%%%%%%%%%%%%%%%%%%%%%%%%%%%%%%%%%%%%%%%


 
     Adding external electric field

     Computed dipole along edir(3) : 
        Dipole              -14.1772 Ry au,        -36.0349 Debye
        Dipole field         -0.0268 Ry au, 
 
        Potential amp.        2.4801 Ry
        Total length         46.3494 bohr
 
     Starting wfcs are  306 atomic wfcs
  @ DRIVER MODE: Message from server: STATUS
  @ DRIVER MODE: Message from server: POSDATA
  @ DRIVER MODE: Reading and sharing cell 
  @ DRIVER MODE: Reading and sharing positions 
  @ DRIVER MODE: Received positions 

     total cpu time spent up to now is       11.4 secs

     Self-consistent Calculation

     iteration #  1     ecut=    29.40 Ry     beta= 0.05
     Davidson diagonalization with overlap
     c_bands:  4 eigenvalues not converged
     c_bands:  5 eigenvalues not converged
     c_bands:  2 eigenvalues not converged
     c_bands:  2 eigenvalues not converged
     c_bands:  1 eigenvalues not converged
     c_bands:  1 eigenvalues not converged
     c_bands:  4 eigenvalues not converged
     c_bands:  1 eigenvalues not converged
     c_bands:  1 eigenvalues not converged
     ethr =  1.00E-05,  avg # of iterations = 28.9

     negative rho (up, down):  7.827E-03 0.000E+00
 
     Adding external electric field

     Computed dipole along edir(3) : 
        Dipole               58.6728 Ry au,        149.1314 Debye
        Dipole field          0.1107 Ry au, 
 
        Potential amp.      -10.2639 Ry
        Total length         46.3494 bohr
 

     total cpu time spent up to now is       61.2 secs

     total energy              =   -2249.27128317 Ry
     estimated scf accuracy    <    8255.74792631 Ry

     iteration #  2     ecut=    29.40 Ry     beta= 0.05
     Davidson diagonalization with overlap
     ethr =  1.00E-02,  avg # of iterations = 26.6

     negative rho (up, down):  2.958E-04 0.000E+00
 
     Adding external electric field

     Computed dipole along edir(3) : 
        Dipole                0.2366 Ry au,          0.6014 Debye
        Dipole field          0.0004 Ry au, 
 
        Potential amp.       -0.0414 Ry
        Total length         46.3494 bohr
 

     total cpu time spent up to now is      148.2 secs

     total energy              =   -2477.70924165 Ry
     estimated scf accuracy    <   74620.52642483 Ry

     iteration #  3     ecut=    29.40 Ry     beta= 0.05
     Davidson diagonalization with overlap
     c_bands:  1 eigenvalues not converged
     ethr =  1.00E-02,  avg # of iterations = 16.5

     negative rho (up, down):  3.446E-04 0.000E+00
 
     Adding external electric field

     Computed dipole along edir(3) : 
        Dipole               -3.3368 Ry au,         -8.4814 Debye
        Dipole field         -0.0063 Ry au, 
 
        Potential amp.        0.5837 Ry
        Total length         46.3494 bohr
 

     total cpu time spent up to now is      198.0 secs

     total energy              =   -2959.71327453 Ry
     estimated scf accuracy    <    7608.29901264 Ry

     iteration #  4     ecut=    29.40 Ry     beta= 0.05
     Davidson diagonalization with overlap
     ethr =  1.00E-02,  avg # of iterations = 10.5

     negative rho (up, down):  3.671E-04 0.000E+00
 
     Adding external electric field

     Computed dipole along edir(3) : 
        Dipole               -5.2393 Ry au,        -13.3169 Debye
        Dipole field         -0.0099 Ry au, 
 
        Potential amp.        0.9165 Ry
        Total length         46.3494 bohr
 

     total cpu time spent up to now is      220.8 secs

     total energy              =   -2964.88307707 Ry
     estimated scf accuracy    <    2291.02259804 Ry

     iteration #  5     ecut=    29.40 Ry     beta= 0.05
     Davidson diagonalization with overlap
     ethr =  1.00E-02,  avg # of iterations =  6.4

     negative rho (up, down):  4.505E-04 0.000E+00
 
     Adding external electric field

     Computed dipole along edir(3) : 
        Dipole               -9.5505 Ry au,        -24.2749 Debye
        Dipole field         -0.0180 Ry au, 
 
        Potential amp.        1.6707 Ry
        Total length         46.3494 bohr
 

     total cpu time spent up to now is      232.8 secs

     total energy              =   -2919.15156695 Ry
     estimated scf accuracy    <    1945.30076624 Ry

     iteration #  6     ecut=    29.40 Ry     beta= 0.05
     Davidson diagonalization with overlap
     ethr =  1.00E-02,  avg # of iterations =  9.3

     negative rho (up, down):  3.676E-04 0.000E+00
 
     Adding external electric field

     Computed dipole along edir(3) : 
        Dipole               -6.5206 Ry au,        -16.5737 Debye
        Dipole field         -0.0123 Ry au, 
 
        Potential amp.        1.1407 Ry
        Total length         46.3494 bohr
 

     total cpu time spent up to now is      257.2 secs

     total energy              =   -2974.67828900 Ry
     estimated scf accuracy    <     868.22165854 Ry

     iteration #  7     ecut=    29.40 Ry     beta= 0.05
     Davidson diagonalization with overlap
     ethr =  1.00E-02,  avg # of iterations =  4.1

     negative rho (up, down):  3.838E-04 0.000E+00
 
     Adding external electric field

     Computed dipole along edir(3) : 
        Dipole               -5.5793 Ry au,        -14.1813 Debye
        Dipole field         -0.0105 Ry au, 
 
        Potential amp.        0.9760 Ry
        Total length         46.3494 bohr
 

     total cpu time spent up to now is      268.4 secs

     total energy              =   -2978.64632208 Ry
     estimated scf accuracy    <     103.59352027 Ry

     iteration #  8     ecut=    29.40 Ry     beta= 0.05
     Davidson diagonalization with overlap
     ethr =  1.00E-02,  avg # of iterations =  1.8

     negative rho (up, down):  4.277E-04 0.000E+00
 
     Adding external electric field

     Computed dipole along edir(3) : 
        Dipole               -3.4932 Ry au,         -8.8788 Debye
        Dipole field         -0.0066 Ry au, 
 
        Potential amp.        0.6111 Ry
        Total length         46.3494 bohr
 

     total cpu time spent up to now is      278.7 secs

     total energy              =   -2974.48474207 Ry
     estimated scf accuracy    <      88.07125067 Ry

     iteration #  9     ecut=    29.40 Ry     beta= 0.05
     Davidson diagonalization with overlap
     c_bands:  2 eigenvalues not converged
     c_bands:  1 eigenvalues not converged
     ethr =  1.00E-02,  avg # of iterations = 15.8

     negative rho (up, down):  4.534E-04 0.000E+00
 
     Adding external electric field

     Computed dipole along edir(3) : 
        Dipole               -2.7337 Ry au,         -6.9484 Debye
        Dipole field         -0.0052 Ry au, 
 
        Potential amp.        0.4782 Ry
        Total length         46.3494 bohr
 

     total cpu time spent up to now is      294.6 secs

     total energy              =   -2978.21566672 Ry
     estimated scf accuracy    <      15.58004022 Ry

     iteration # 10     ecut=    29.40 Ry     beta= 0.05
     Davidson diagonalization with overlap
     c_bands:  1 eigenvalues not converged
     c_bands:  2 eigenvalues not converged
     c_bands:  1 eigenvalues not converged
     ethr =  3.86E-03,  avg # of iterations = 17.2

     negative rho (up, down):  4.587E-04 0.000E+00
 
     Adding external electric field

     Computed dipole along edir(3) : 
        Dipole               -1.3771 Ry au,         -3.5001 Debye
        Dipole field         -0.0026 Ry au, 
 
        Potential amp.        0.2409 Ry
        Total length         46.3494 bohr
 

     total cpu time spent up to now is      311.3 secs

     total energy              =   -2983.05372762 Ry
     estimated scf accuracy    <     251.51523685 Ry

     iteration # 11     ecut=    29.40 Ry     beta= 0.05
     Davidson diagonalization with overlap
     c_bands:  3 eigenvalues not converged
     c_bands:  3 eigenvalues not converged
     c_bands:  1 eigenvalues not converged
     c_bands:  2 eigenvalues not converged
     c_bands:  5 eigenvalues not converged
     ethr =  3.86E-03,  avg # of iterations = 14.8

     negative rho (up, down):  5.167E-04 0.000E+00
 
     Adding external electric field

     Computed dipole along edir(3) : 
        Dipole                1.7487 Ry au,          4.4447 Debye
        Dipole field          0.0033 Ry au, 
 
        Potential amp.       -0.3059 Ry
        Total length         46.3494 bohr
 

     total cpu time spent up to now is      326.6 secs

     total energy              =   -2993.77516488 Ry
     estimated scf accuracy    <     970.08970427 Ry

     iteration # 12     ecut=    29.40 Ry     beta= 0.05
     Davidson diagonalization with overlap
     ethr =  3.86E-03,  avg # of iterations = 15.5

     negative rho (up, down):  5.950E-04 0.000E+00
 
     Adding external electric field

     Computed dipole along edir(3) : 
        Dipole                0.9575 Ry au,          2.4338 Debye
        Dipole field          0.0018 Ry au, 
 
        Potential amp.       -0.1675 Ry
        Total length         46.3494 bohr
 

     total cpu time spent up to now is      346.9 secs

     total energy              =   -2981.65341478 Ry
     estimated scf accuracy    <    2930.11758538 Ry

     iteration # 13     ecut=    29.40 Ry     beta= 0.05
     Davidson diagonalization with overlap
     ethr =  3.86E-03,  avg # of iterations =  5.6

     negative rho (up, down):  5.782E-04 0.000E+00
 
     Adding external electric field

     Computed dipole along edir(3) : 
        Dipole               -0.0681 Ry au,         -0.1731 Debye
        Dipole field         -0.0001 Ry au, 
 
        Potential amp.        0.0119 Ry
        Total length         46.3494 bohr
 

     total cpu time spent up to now is      358.6 secs

     total energy              =   -2971.00492317 Ry
     estimated scf accuracy    <    2228.60432453 Ry

     iteration # 14     ecut=    29.40 Ry     beta= 0.05
     Davidson diagonalization with overlap
     c_bands:  3 eigenvalues not converged
     c_bands:  1 eigenvalues not converged
     c_bands:  5 eigenvalues not converged
     c_bands:  2 eigenvalues not converged
     c_bands:  3 eigenvalues not converged
     c_bands:  2 eigenvalues not converged
     c_bands:  5 eigenvalues not converged
     ethr =  3.86E-03,  avg # of iterations = 19.1

     negative rho (up, down):  5.442E-04 0.000E+00
 
     Adding external electric field

     Computed dipole along edir(3) : 
        Dipole               -2.2294 Ry au,         -5.6667 Debye
        Dipole field         -0.0042 Ry au, 
 
        Potential amp.        0.3900 Ry
        Total length         46.3494 bohr
 

     total cpu time spent up to now is      379.7 secs

     total energy              =   -2965.42910794 Ry
     estimated scf accuracy    <     557.51572059 Ry

     iteration # 15     ecut=    29.40 Ry     beta= 0.05
     Davidson diagonalization with overlap
     ethr =  3.86E-03,  avg # of iterations = 10.8

     negative rho (up, down):  5.525E-04 0.000E+00
 
     Adding external electric field

     Computed dipole along edir(3) : 
        Dipole               -2.8014 Ry au,         -7.1205 Debye
        Dipole field         -0.0053 Ry au, 
 
        Potential amp.        0.4901 Ry
        Total length         46.3494 bohr
 

     total cpu time spent up to now is      399.7 secs

     total energy              =   -2977.03787656 Ry
     estimated scf accuracy    <      10.13422270 Ry

     iteration # 16     ecut=    29.40 Ry     beta= 0.05
     Davidson diagonalization with overlap
     c_bands:  3 eigenvalues not converged
     ethr =  2.51E-03,  avg # of iterations =  9.4

     negative rho (up, down):  6.077E-04 0.000E+00
 
     Adding external electric field

     Computed dipole along edir(3) : 
        Dipole               -2.8868 Ry au,         -7.3375 Debye
        Dipole field         -0.0054 Ry au, 
 
        Potential amp.        0.5050 Ry
        Total length         46.3494 bohr
 

     total cpu time spent up to now is      412.5 secs

     total energy              =   -2978.06937252 Ry
     estimated scf accuracy    <      10.79759093 Ry

     iteration # 17     ecut=    29.40 Ry     beta= 0.05
     Davidson diagonalization with overlap
     c_bands:  1 eigenvalues not converged
     c_bands:  3 eigenvalues not converged
     ethr =  2.51E-03,  avg # of iterations = 19.2

     negative rho (up, down):  4.994E-04 0.000E+00
 
     Adding external electric field

     Computed dipole along edir(3) : 
        Dipole               -2.3294 Ry au,         -5.9209 Debye
        Dipole field         -0.0044 Ry au, 
 
        Potential amp.        0.4075 Ry
        Total length         46.3494 bohr
 

     total cpu time spent up to now is      438.2 secs

     total energy              =   -2974.15468122 Ry
     estimated scf accuracy    <    1464.60604633 Ry

     iteration # 18     ecut=    29.40 Ry     beta= 0.05
     Davidson diagonalization with overlap
     ethr =  2.51E-03,  avg # of iterations = 13.5

     negative rho (up, down):  4.859E-04 0.000E+00
 
     Adding external electric field

     Computed dipole along edir(3) : 
        Dipole               -2.2818 Ry au,         -5.7996 Debye
        Dipole field         -0.0043 Ry au, 
 
        Potential amp.        0.3992 Ry
        Total length         46.3494 bohr
 

     total cpu time spent up to now is      453.1 secs

     total energy              =   -2976.25453786 Ry
     estimated scf accuracy    <     275.11010557 Ry

     iteration # 19     ecut=    29.40 Ry     beta= 0.05
     Davidson diagonalization with overlap
     ethr =  2.51E-03,  avg # of iterations =  1.0

     negative rho (up, down):  4.911E-04 0.000E+00
 
     Adding external electric field

     Computed dipole along edir(3) : 
        Dipole               -2.1534 Ry au,         -5.4733 Debye
        Dipole field         -0.0041 Ry au, 
 
        Potential amp.        0.3767 Ry
        Total length         46.3494 bohr
 

     total cpu time spent up to now is      463.0 secs

     total energy              =   -2976.03303084 Ry
     estimated scf accuracy    <     241.31061274 Ry

     iteration # 20     ecut=    29.40 Ry     beta= 0.05
     Davidson diagonalization with overlap
     ethr =  2.51E-03,  avg # of iterations =  1.7

     negative rho (up, down):  5.532E-04 0.000E+00
 
     Adding external electric field

     Computed dipole along edir(3) : 
        Dipole               -1.9975 Ry au,         -5.0773 Debye
        Dipole field         -0.0038 Ry au, 
 
        Potential amp.        0.3494 Ry
        Total length         46.3494 bohr
 

     total cpu time spent up to now is      473.2 secs

     total energy              =   -2977.46007449 Ry
     estimated scf accuracy    <     194.74735432 Ry

     iteration # 21     ecut=    29.40 Ry     beta= 0.05
     Davidson diagonalization with overlap
     ethr =  2.51E-03,  avg # of iterations =  1.0

     negative rho (up, down):  6.285E-04 0.000E+00
 
     Adding external electric field

     Computed dipole along edir(3) : 
        Dipole               -1.7989 Ry au,         -4.5722 Debye
        Dipole field         -0.0034 Ry au, 
 
        Potential amp.        0.3147 Ry
        Total length         46.3494 bohr
 

     total cpu time spent up to now is      483.1 secs

     total energy              =   -2977.18978789 Ry
     estimated scf accuracy    <     242.60278562 Ry

     iteration # 22     ecut=    29.40 Ry     beta= 0.05
     Davidson diagonalization with overlap
     ethr =  2.51E-03,  avg # of iterations =  1.0

     negative rho (up, down):  6.811E-04 0.000E+00
 
     Adding external electric field

     Computed dipole along edir(3) : 
        Dipole               -1.7528 Ry au,         -4.4551 Debye
        Dipole field         -0.0033 Ry au, 
 
        Potential amp.        0.3066 Ry
        Total length         46.3494 bohr
 

     total cpu time spent up to now is      493.0 secs

     total energy              =   -2977.62598426 Ry
     estimated scf accuracy    <     198.19546390 Ry

     iteration # 23     ecut=    29.40 Ry     beta= 0.05
     Davidson diagonalization with overlap
     ethr =  2.51E-03,  avg # of iterations =  1.0

     negative rho (up, down):  4.175E-03 0.000E+00
 
     Adding external electric field

     Computed dipole along edir(3) : 
        Dipole               -1.3396 Ry au,         -3.4050 Debye
        Dipole field         -0.0025 Ry au, 
 
        Potential amp.        0.2343 Ry
        Total length         46.3494 bohr
 

     total cpu time spent up to now is      502.9 secs

     total energy              =   -2982.97731250 Ry
     estimated scf accuracy    <     238.04688892 Ry

     iteration # 24     ecut=    29.40 Ry     beta= 0.05
     Davidson diagonalization with overlap
     c_bands:  2 eigenvalues not converged
     c_bands:  2 eigenvalues not converged
     c_bands:  5 eigenvalues not converged
     ethr =  2.51E-03,  avg # of iterations = 18.1

     negative rho (up, down):  4.042E-03 0.000E+00
 
     Adding external electric field

     Computed dipole along edir(3) : 
        Dipole               -1.1472 Ry au,         -2.9159 Debye
        Dipole field         -0.0022 Ry au, 
 
        Potential amp.        0.2007 Ry
        Total length         46.3494 bohr
 

     total cpu time spent up to now is      522.5 secs

     total energy              =   -2988.22384993 Ry
     estimated scf accuracy    <    1822.68137682 Ry

     iteration # 25     ecut=    29.40 Ry     beta= 0.05
     Davidson diagonalization with overlap
     ethr =  2.51E-03,  avg # of iterations =  1.7

     negative rho (up, down):  2.121E-03 0.000E+00
 
     Adding external electric field

     Computed dipole along edir(3) : 
        Dipole               -0.4147 Ry au,         -1.0539 Debye
        Dipole field         -0.0008 Ry au, 
 
        Potential amp.        0.0725 Ry
        Total length         46.3494 bohr
 

     total cpu time spent up to now is      532.8 secs

     total energy              =   -2980.18394888 Ry
     estimated scf accuracy    <    1647.66632896 Ry

     iteration # 26     ecut=    29.40 Ry     beta= 0.05
     Davidson diagonalization with overlap
     ethr =  2.51E-03,  avg # of iterations =  6.2

     negative rho (up, down):  1.239E-03 0.000E+00
 
     Adding external electric field

     Computed dipole along edir(3) : 
        Dipole                0.0498 Ry au,          0.1266 Debye
        Dipole field          0.0001 Ry au, 
 
        Potential amp.       -0.0087 Ry
        Total length         46.3494 bohr
 

     total cpu time spent up to now is      544.8 secs

     total energy              =   -2979.35112621 Ry
     estimated scf accuracy    <     999.82077700 Ry

     iteration # 27     ecut=    29.40 Ry     beta= 0.05
     Davidson diagonalization with overlap
     ethr =  2.51E-03,  avg # of iterations =  1.5

     negative rho (up, down):  1.441E-03 0.000E+00
 
     Adding external electric field

     Computed dipole along edir(3) : 
        Dipole               -0.0895 Ry au,         -0.2275 Debye
        Dipole field         -0.0002 Ry au, 
 
        Potential amp.        0.0157 Ry
        Total length         46.3494 bohr
 

     total cpu time spent up to now is      555.2 secs

     total energy              =   -2981.63991573 Ry
     estimated scf accuracy    <     786.57315442 Ry

     iteration # 28     ecut=    29.40 Ry     beta= 0.05
     Davidson diagonalization with overlap
     ethr =  2.51E-03,  avg # of iterations =  1.9

     negative rho (up, down):  1.725E-03 0.000E+00
 
     Adding external electric field

     Computed dipole along edir(3) : 
        Dipole                0.0462 Ry au,          0.1174 Debye
        Dipole field          0.0001 Ry au, 
 
        Potential amp.       -0.0081 Ry
        Total length         46.3494 bohr
 

     total cpu time spent up to now is      565.9 secs

     total energy              =   -2980.76834697 Ry
     estimated scf accuracy    <    1178.35830719 Ry

     iteration # 29     ecut=    29.40 Ry     beta= 0.05
     Davidson diagonalization with overlap
     ethr =  2.51E-03,  avg # of iterations =  1.8

     negative rho (up, down):  1.741E-03 0.000E+00
 
     Adding external electric field

     Computed dipole along edir(3) : 
        Dipole               -1.1085 Ry au,         -2.8176 Debye
        Dipole field         -0.0021 Ry au, 
 
        Potential amp.        0.1939 Ry
        Total length         46.3494 bohr
 

     total cpu time spent up to now is      576.4 secs

     total energy              =   -2959.06882128 Ry
     estimated scf accuracy    <    1084.91837714 Ry

     iteration # 30     ecut=    29.40 Ry     beta= 0.05
     Davidson diagonalization with overlap
     ethr =  2.51E-03,  avg # of iterations = 11.6

     negative rho (up, down):  1.884E-03 0.000E+00
 
     Adding external electric field

     Computed dipole along edir(3) : 
        Dipole               -0.6270 Ry au,         -1.5936 Debye
        Dipole field         -0.0012 Ry au, 
 
        Potential amp.        0.1097 Ry
        Total length         46.3494 bohr
 

     total cpu time spent up to now is      601.4 secs

     total energy              =   -2975.35514488 Ry
     estimated scf accuracy    <       8.39234346 Ry

     iteration # 31     ecut=    29.40 Ry     beta= 0.05
     Davidson diagonalization with overlap
     ethr =  2.08E-03,  avg # of iterations =  6.7

     negative rho (up, down):  6.547E-03 0.000E+00
 
     Adding external electric field

     Computed dipole along edir(3) : 
        Dipole               -0.1056 Ry au,         -0.2685 Debye
        Dipole field         -0.0002 Ry au, 
 
        Potential amp.        0.0185 Ry
        Total length         46.3494 bohr
 

     total cpu time spent up to now is      613.4 secs

     total energy              =   -2974.99917268 Ry
     estimated scf accuracy    <       3.70909305 Ry

     iteration # 32     ecut=    29.40 Ry     beta= 0.05
     Davidson diagonalization with overlap
     c_bands:  4 eigenvalues not converged
     c_bands:  3 eigenvalues not converged
     c_bands:  5 eigenvalues not converged
     c_bands:  2 eigenvalues not converged
     c_bands:  4 eigenvalues not converged
     c_bands:  1 eigenvalues not converged
     c_bands:  1 eigenvalues not converged
     ethr =  9.18E-04,  avg # of iterations = 20.1

     negative rho (up, down):  2.464E-03 0.000E+00
 
     Adding external electric field

     Computed dipole along edir(3) : 
        Dipole               -0.8084 Ry au,         -2.0549 Debye
        Dipole field         -0.0015 Ry au, 
 
        Potential amp.        0.1414 Ry
        Total length         46.3494 bohr
 

     total cpu time spent up to now is      635.9 secs

     total energy              =   -2974.36860976 Ry
     estimated scf accuracy    <      72.96791363 Ry

     iteration # 33     ecut=    29.40 Ry     beta= 0.05
     Davidson diagonalization with overlap
     ethr =  9.18E-04,  avg # of iterations =  5.3

     negative rho (up, down):  2.238E-03 0.000E+00
 
     Adding external electric field

     Computed dipole along edir(3) : 
        Dipole               -1.1006 Ry au,         -2.7973 Debye
        Dipole field         -0.0021 Ry au, 
 
        Potential amp.        0.1925 Ry
        Total length         46.3494 bohr
 

     total cpu time spent up to now is      647.6 secs

     total energy              =   -2975.43246044 Ry
     estimated scf accuracy    <       3.23327391 Ry

     iteration # 34     ecut=    29.40 Ry     beta= 0.05
     Davidson diagonalization with overlap
     ethr =  8.00E-04,  avg # of iterations =  2.2

     negative rho (up, down):  2.075E-03 0.000E+00
 
     Adding external electric field

     Computed dipole along edir(3) : 
        Dipole               -1.8795 Ry au,         -4.7772 Debye
        Dipole field         -0.0035 Ry au, 
 
        Potential amp.        0.3288 Ry
        Total length         46.3494 bohr
 

     total cpu time spent up to now is      658.2 secs

     total energy              =   -2975.48341516 Ry
     estimated scf accuracy    <       1.66971402 Ry

     iteration # 35     ecut=    29.40 Ry     beta= 0.05
     Davidson diagonalization with overlap
     c_bands:  1 eigenvalues not converged
     c_bands:  2 eigenvalues not converged
     c_bands:  3 eigenvalues not converged
     c_bands:  3 eigenvalues not converged
     c_bands:  3 eigenvalues not converged
     c_bands:  3 eigenvalues not converged
     c_bands:  1 eigenvalues not converged
     c_bands:  3 eigenvalues not converged
     ethr =  4.13E-04,  avg # of iterations = 19.6

     negative rho (up, down):  3.295E-03 0.000E+00
 
     Adding external electric field

     Computed dipole along edir(3) : 
        Dipole               -1.7256 Ry au,         -4.3859 Debye
        Dipole field         -0.0033 Ry au, 
 
        Potential amp.        0.3019 Ry
        Total length         46.3494 bohr
 

     total cpu time spent up to now is      680.0 secs

     total energy              =   -2975.61054392 Ry
     estimated scf accuracy    <       5.59869402 Ry

     iteration # 36     ecut=    29.40 Ry     beta= 0.05
     Davidson diagonalization with overlap
     ethr =  4.13E-04,  avg # of iterations =  1.6

     negative rho (up, down):  1.817E-02 0.000E+00
 
     Adding external electric field

     Computed dipole along edir(3) : 
        Dipole               -0.7407 Ry au,         -1.8826 Debye
        Dipole field         -0.0014 Ry au, 
 
        Potential amp.        0.1296 Ry
        Total length         46.3494 bohr
 

     total cpu time spent up to now is      690.6 secs

     total energy              =   -2975.08571558 Ry
     estimated scf accuracy    <       4.78986063 Ry

     iteration # 37     ecut=    29.40 Ry     beta= 0.05
     Davidson diagonalization with overlap
     c_bands:  2 eigenvalues not converged
     ethr =  4.13E-04,  avg # of iterations = 10.5

     negative rho (up, down):  1.014E-02 0.000E+00
 
     Adding external electric field

     Computed dipole along edir(3) : 
        Dipole               -0.2497 Ry au,         -0.6348 Debye
        Dipole field         -0.0005 Ry au, 
 
        Potential amp.        0.0437 Ry
        Total length         46.3494 bohr
 

     total cpu time spent up to now is      706.4 secs

     total energy              =   -2975.25170644 Ry
     estimated scf accuracy    <       1.36992607 Ry

     iteration # 38     ecut=    29.40 Ry     beta= 0.05
     Davidson diagonalization with overlap
     ethr =  3.39E-04,  avg # of iterations =  4.2

     negative rho (up, down):  1.815E-02 0.000E+00
 
     Adding external electric field

     Computed dipole along edir(3) : 
        Dipole                0.0049 Ry au,          0.0126 Debye
        Dipole field          0.0000 Ry au, 
 
        Potential amp.       -0.0009 Ry
        Total length         46.3494 bohr
 

     total cpu time spent up to now is      717.7 secs

     total energy              =   -2975.24237018 Ry
     estimated scf accuracy    <       1.27598643 Ry

     iteration # 39     ecut=    29.40 Ry     beta= 0.05
     Davidson diagonalization with overlap
     ethr =  3.16E-04,  avg # of iterations =  3.6

     negative rho (up, down):  2.211E-02 0.000E+00
 
     Adding external electric field

     Computed dipole along edir(3) : 
        Dipole                0.3755 Ry au,          0.9544 Debye
        Dipole field          0.0007 Ry au, 
 
        Potential amp.       -0.0657 Ry
        Total length         46.3494 bohr
 

     total cpu time spent up to now is      728.9 secs

     total energy              =   -2975.20183441 Ry
     estimated scf accuracy    <       0.98152907 Ry

     iteration # 40     ecut=    29.40 Ry     beta= 0.05
     Davidson diagonalization with overlap
     c_bands:  3 eigenvalues not converged
     c_bands:  4 eigenvalues not converged
     c_bands:  4 eigenvalues not converged
     c_bands:  4 eigenvalues not converged
     c_bands:  5 eigenvalues not converged
     c_bands:  5 eigenvalues not converged
     c_bands:  3 eigenvalues not converged
     ethr =  2.43E-04,  avg # of iterations = 21.3

     negative rho (up, down):  1.275E-02 0.000E+00
 
     Adding external electric field

     Computed dipole along edir(3) : 
        Dipole                0.1158 Ry au,          0.2944 Debye
        Dipole field          0.0002 Ry au, 
 
        Potential amp.       -0.0203 Ry
        Total length         46.3494 bohr
 

     total cpu time spent up to now is      748.9 secs

     total energy              =   -2975.15635619 Ry
     estimated scf accuracy    <       2.24173293 Ry

     iteration # 41     ecut=    29.40 Ry     beta= 0.05
     Davidson diagonalization with overlap
     ethr =  2.43E-04,  avg # of iterations =  2.8

     negative rho (up, down):  1.127E-02 0.000E+00
 
     Adding external electric field

     Computed dipole along edir(3) : 
        Dipole               -0.1505 Ry au,         -0.3826 Debye
        Dipole field         -0.0003 Ry au, 
 
        Potential amp.        0.0263 Ry
        Total length         46.3494 bohr
 

     total cpu time spent up to now is      759.7 secs

     total energy              =   -2975.20785248 Ry
     estimated scf accuracy    <       0.70706352 Ry

     iteration # 42     ecut=    29.40 Ry     beta= 0.05
     Davidson diagonalization with overlap
     c_bands:  1 eigenvalues not converged
     c_bands:  5 eigenvalues not converged
     c_bands:  1 eigenvalues not converged
     c_bands:  1 eigenvalues not converged
     ethr =  1.75E-04,  avg # of iterations = 16.4

     negative rho (up, down):  1.089E-02 0.000E+00
 
     Adding external electric field

     Computed dipole along edir(3) : 
        Dipole                0.3163 Ry au,          0.8040 Debye
        Dipole field          0.0006 Ry au, 
 
        Potential amp.       -0.0553 Ry
        Total length         46.3494 bohr
 

     total cpu time spent up to now is      776.7 secs

     total energy              =   -2975.20787456 Ry
     estimated scf accuracy    <       1.14234177 Ry

     iteration # 43     ecut=    29.40 Ry     beta= 0.05
     Davidson diagonalization with overlap
     c_bands:  2 eigenvalues not converged
     ethr =  1.75E-04,  avg # of iterations =  9.6

     negative rho (up, down):  1.665E-02 0.000E+00
 
     Adding external electric field

     Computed dipole along edir(3) : 
        Dipole                0.7180 Ry au,          1.8251 Debye
        Dipole field          0.0014 Ry au, 
 
        Potential amp.       -0.1256 Ry
        Total length         46.3494 bohr
 

     total cpu time spent up to now is      789.7 secs

     total energy              =   -2975.19079188 Ry
     estimated scf accuracy    <       0.29477392 Ry

     iteration # 44     ecut=    29.40 Ry     beta= 0.05
     Davidson diagonalization with overlap
     c_bands:  2 eigenvalues not converged
     c_bands:  1 eigenvalues not converged
     c_bands:  3 eigenvalues not converged
     c_bands:  2 eigenvalues not converged
     c_bands:  2 eigenvalues not converged
     c_bands:  5 eigenvalues not converged
     c_bands:  1 eigenvalues not converged
     c_bands:  3 eigenvalues not converged
     ethr =  7.30E-05,  avg # of iterations = 20.1

     negative rho (up, down):  1.851E-02 0.000E+00
 
     Adding external electric field

     Computed dipole along edir(3) : 
        Dipole                0.7389 Ry au,          1.8781 Debye
        Dipole field          0.0014 Ry au, 
 
        Potential amp.       -0.1293 Ry
        Total length         46.3494 bohr
 

     total cpu time spent up to now is      810.4 secs

     total energy              =   -2975.22840719 Ry
     estimated scf accuracy    <       1.22247041 Ry

     iteration # 45     ecut=    29.40 Ry     beta= 0.05
     Davidson diagonalization with overlap
     ethr =  7.30E-05,  avg # of iterations =  2.4

     negative rho (up, down):  2.109E-02 0.000E+00
 
     Adding external electric field

     Computed dipole along edir(3) : 
        Dipole                0.7688 Ry au,          1.9542 Debye
        Dipole field          0.0015 Ry au, 
 
        Potential amp.       -0.1345 Ry
        Total length         46.3494 bohr
 

     total cpu time spent up to now is      821.3 secs

     total energy              =   -2975.20359574 Ry
     estimated scf accuracy    <       1.22288820 Ry

     iteration # 46     ecut=    29.40 Ry     beta= 0.05
     Davidson diagonalization with overlap
     ethr =  7.30E-05,  avg # of iterations =  5.4

     negative rho (up, down):  1.694E-02 0.000E+00
 
     Adding external electric field

     Computed dipole along edir(3) : 
        Dipole                0.8258 Ry au,          2.0990 Debye
        Dipole field          0.0016 Ry au, 
 
        Potential amp.       -0.1445 Ry
        Total length         46.3494 bohr
 

     total cpu time spent up to now is      833.1 secs

     total energy              =   -2975.18910742 Ry
     estimated scf accuracy    <       0.61463463 Ry

     iteration # 47     ecut=    29.40 Ry     beta= 0.05
     Davidson diagonalization with overlap
     c_bands:  1 eigenvalues not converged
     c_bands:  1 eigenvalues not converged
     ethr =  7.30E-05,  avg # of iterations = 12.7

     negative rho (up, down):  1.505E-02 0.000E+00
 
     Adding external electric field

     Computed dipole along edir(3) : 
        Dipole                0.9178 Ry au,          2.3327 Debye
        Dipole field          0.0017 Ry au, 
 
        Potential amp.       -0.1605 Ry
        Total length         46.3494 bohr
 

     total cpu time spent up to now is      847.9 secs

     total energy              =   -2975.21434871 Ry
     estimated scf accuracy    <       0.14755981 Ry

     iteration # 48     ecut=    29.40 Ry     beta= 0.05
     Davidson diagonalization with overlap
     c_bands:  1 eigenvalues not converged
     c_bands:  3 eigenvalues not converged
     ethr =  3.65E-05,  avg # of iterations =  7.9

     negative rho (up, down):  1.555E-02 0.000E+00
 
     Adding external electric field

     Computed dipole along edir(3) : 
        Dipole                0.9314 Ry au,          2.3673 Debye
        Dipole field          0.0018 Ry au, 
 
        Potential amp.       -0.1629 Ry
        Total length         46.3494 bohr
 

     total cpu time spent up to now is      860.4 secs

     total energy              =   -2975.22025065 Ry
     estimated scf accuracy    <       0.82005860 Ry

     iteration # 49     ecut=    29.40 Ry     beta= 0.05
     Davidson diagonalization with overlap
     ethr =  3.65E-05,  avg # of iterations =  6.0

     negative rho (up, down):  1.644E-02 0.000E+00
 
     Adding external electric field

     Computed dipole along edir(3) : 
        Dipole                0.9598 Ry au,          2.4395 Debye
        Dipole field          0.0018 Ry au, 
 
        Potential amp.       -0.1679 Ry
        Total length         46.3494 bohr
 

     total cpu time spent up to now is      872.1 secs

     total energy              =   -2975.22162603 Ry
     estimated scf accuracy    <       1.04724234 Ry

     iteration # 50     ecut=    29.40 Ry     beta= 0.05
     Davidson diagonalization with overlap
     ethr =  3.65E-05,  avg # of iterations =  1.0

     negative rho (up, down):  2.239E-02 0.000E+00
 
     Adding external electric field

     Computed dipole along edir(3) : 
        Dipole                0.8255 Ry au,          2.0981 Debye
        Dipole field          0.0016 Ry au, 
 
        Potential amp.       -0.1444 Ry
        Total length         46.3494 bohr
 

     total cpu time spent up to now is      882.0 secs

     total energy              =   -2975.19637954 Ry
     estimated scf accuracy    <       1.05985763 Ry

     iteration # 51     ecut=    29.40 Ry     beta= 0.05
     Davidson diagonalization with overlap
     ethr =  3.65E-05,  avg # of iterations =  5.9

     negative rho (up, down):  1.869E-02 0.000E+00
 
     Adding external electric field

     Computed dipole along edir(3) : 
        Dipole                0.8478 Ry au,          2.1549 Debye
        Dipole field          0.0016 Ry au, 
 
        Potential amp.       -0.1483 Ry
        Total length         46.3494 bohr
 

     total cpu time spent up to now is      893.7 secs

     total energy              =   -2975.21171310 Ry
     estimated scf accuracy    <       0.12507586 Ry

     iteration # 52     ecut=    29.40 Ry     beta= 0.05
     Davidson diagonalization with overlap
     c_bands:  2 eigenvalues not converged
     ethr =  3.10E-05,  avg # of iterations = 13.4

     negative rho (up, down):  2.459E-02 0.000E+00
 
     Adding external electric field

     Computed dipole along edir(3) : 
        Dipole                0.7752 Ry au,          1.9705 Debye
        Dipole field          0.0015 Ry au, 
 
        Potential amp.       -0.1356 Ry
        Total length         46.3494 bohr
 

     total cpu time spent up to now is      907.8 secs

     total energy              =   -2975.19735847 Ry
     estimated scf accuracy    <       0.14476638 Ry

     iteration # 53     ecut=    29.40 Ry     beta= 0.05
     Davidson diagonalization with overlap
     c_bands:  2 eigenvalues not converged
     c_bands:  1 eigenvalues not converged
     c_bands:  2 eigenvalues not converged
     c_bands:  1 eigenvalues not converged
     c_bands:  1 eigenvalues not converged
     ethr =  3.10E-05,  avg # of iterations = 14.9

     negative rho (up, down):  2.083E-02 0.000E+00
 
     Adding external electric field

     Computed dipole along edir(3) : 
        Dipole                0.7715 Ry au,          1.9609 Debye
        Dipole field          0.0015 Ry au, 
 
        Potential amp.       -0.1350 Ry
        Total length         46.3494 bohr
 

     total cpu time spent up to now is      923.4 secs

     total energy              =   -2975.20147067 Ry
     estimated scf accuracy    <       0.12783812 Ry

     iteration # 54     ecut=    29.40 Ry     beta= 0.05
     Davidson diagonalization with overlap
     c_bands:  2 eigenvalues not converged
     ethr =  3.10E-05,  avg # of iterations =  8.9

     negative rho (up, down):  2.103E-02 0.000E+00
 
     Adding external electric field

     Computed dipole along edir(3) : 
        Dipole                0.9197 Ry au,          2.3375 Debye
        Dipole field          0.0017 Ry au, 
 
        Potential amp.       -0.1609 Ry
        Total length         46.3494 bohr
 

     total cpu time spent up to now is      936.2 secs

     total energy              =   -2975.20024172 Ry
     estimated scf accuracy    <       0.14150753 Ry

     iteration # 55     ecut=    29.40 Ry     beta= 0.05
     Davidson diagonalization with overlap
     ethr =  3.10E-05,  avg # of iterations =  3.6

     negative rho (up, down):  2.062E-02 0.000E+00
 
     Adding external electric field

     Computed dipole along edir(3) : 
        Dipole                1.0837 Ry au,          2.7545 Debye
        Dipole field          0.0020 Ry au, 
 
        Potential amp.       -0.1896 Ry
        Total length         46.3494 bohr
 

     total cpu time spent up to now is      947.2 secs

     total energy              =   -2975.19942112 Ry
     estimated scf accuracy    <       0.04035808 Ry

     iteration # 56     ecut=    29.40 Ry     beta= 0.05
     Davidson diagonalization with overlap
     c_bands:  1 eigenvalues not converged
     c_bands:  1 eigenvalues not converged
     c_bands:  2 eigenvalues not converged
     c_bands:  1 eigenvalues not converged
     c_bands:  1 eigenvalues not converged
     ethr =  9.99E-06,  avg # of iterations = 16.7

     negative rho (up, down):  1.862E-02 0.000E+00
 
     Adding external electric field

     Computed dipole along edir(3) : 
        Dipole                1.1334 Ry au,          2.8807 Debye
        Dipole field          0.0021 Ry au, 
 
        Potential amp.       -0.1983 Ry
        Total length         46.3494 bohr
 

     total cpu time spent up to now is      964.2 secs

     total energy              =   -2975.19996002 Ry
     estimated scf accuracy    <       0.01928751 Ry

     iteration # 57     ecut=    29.40 Ry     beta= 0.05
     Davidson diagonalization with overlap
     c_bands:  3 eigenvalues not converged
     c_bands:  1 eigenvalues not converged
     c_bands:  2 eigenvalues not converged
     c_bands:  1 eigenvalues not converged
     ethr =  4.77E-06,  avg # of iterations = 17.1

     negative rho (up, down):  1.824E-02 0.000E+00
 
     Adding external electric field

     Computed dipole along edir(3) : 
        Dipole                1.1047 Ry au,          2.8077 Debye
        Dipole field          0.0021 Ry au, 
 
        Potential amp.       -0.1932 Ry
        Total length         46.3494 bohr
 

     total cpu time spent up to now is      981.3 secs

     total energy              =   -2975.20096962 Ry
     estimated scf accuracy    <       0.03021408 Ry

     iteration # 58     ecut=    29.40 Ry     beta= 0.05
     Davidson diagonalization with overlap
     ethr =  4.77E-06,  avg # of iterations =  3.8

     negative rho (up, down):  1.820E-02 0.000E+00
 
     Adding external electric field

     Computed dipole along edir(3) : 
        Dipole                1.1740 Ry au,          2.9840 Debye
        Dipole field          0.0022 Ry au, 
 
        Potential amp.       -0.2054 Ry
        Total length         46.3494 bohr
 

     total cpu time spent up to now is      992.0 secs

     total energy              =   -2975.20111237 Ry
     estimated scf accuracy    <       0.00782888 Ry

     iteration # 59     ecut=    29.40 Ry     beta= 0.05
     Davidson diagonalization with overlap
     c_bands:  1 eigenvalues not converged
     c_bands:  2 eigenvalues not converged
     c_bands:  1 eigenvalues not converged
     ethr =  1.94E-06,  avg # of iterations = 16.7

     negative rho (up, down):  1.602E-02 0.000E+00
 
     Adding external electric field

     Computed dipole along edir(3) : 
        Dipole                1.2145 Ry au,          3.0869 Debye
        Dipole field          0.0023 Ry au, 
 
        Potential amp.       -0.2125 Ry
        Total length         46.3494 bohr
 

     total cpu time spent up to now is     1008.4 secs

     total energy              =   -2975.20113349 Ry
     estimated scf accuracy    <       0.00803387 Ry

     iteration # 60     ecut=    29.40 Ry     beta= 0.05
     Davidson diagonalization with overlap
     c_bands:  1 eigenvalues not converged
     c_bands:  1 eigenvalues not converged
     ethr =  1.94E-06,  avg # of iterations = 10.6

     negative rho (up, down):  1.602E-02 0.000E+00
 
     Adding external electric field

     Computed dipole along edir(3) : 
        Dipole                1.3152 Ry au,          3.3429 Debye
        Dipole field          0.0025 Ry au, 
 
        Potential amp.       -0.2301 Ry
        Total length         46.3494 bohr
 

     total cpu time spent up to now is     1021.7 secs

     total energy              =   -2975.20126022 Ry
     estimated scf accuracy    <       0.00409531 Ry

     iteration # 61     ecut=    29.40 Ry     beta= 0.05
     Davidson diagonalization with overlap
     c_bands:  1 eigenvalues not converged
     ethr =  1.01E-06,  avg # of iterations = 16.0

     negative rho (up, down):  1.550E-02 0.000E+00
 
     Adding external electric field

     Computed dipole along edir(3) : 
        Dipole                1.3252 Ry au,          3.3684 Debye
        Dipole field          0.0025 Ry au, 
 
        Potential amp.       -0.2318 Ry
        Total length         46.3494 bohr
 

     total cpu time spent up to now is     1040.1 secs

     total energy              =   -2975.20154861 Ry
     estimated scf accuracy    <       0.00459050 Ry

     iteration # 62     ecut=    29.40 Ry     beta= 0.05
     Davidson diagonalization with overlap
     ethr =  1.01E-06,  avg # of iterations =  3.8

     negative rho (up, down):  1.550E-02 0.000E+00
 
     Adding external electric field

     Computed dipole along edir(3) : 
        Dipole                1.3447 Ry au,          3.4179 Debye
        Dipole field          0.0025 Ry au, 
 
        Potential amp.       -0.2352 Ry
        Total length         46.3494 bohr
 

     total cpu time spent up to now is     1051.0 secs

     total energy              =   -2975.20141511 Ry
     estimated scf accuracy    <       0.00234297 Ry

     iteration # 63     ecut=    29.40 Ry     beta= 0.05
     Davidson diagonalization with overlap
     c_bands:  1 eigenvalues not converged
     ethr =  5.80E-07,  avg # of iterations = 15.6

     negative rho (up, down):  1.532E-02 0.000E+00
 
     Adding external electric field

     Computed dipole along edir(3) : 
        Dipole                1.3613 Ry au,          3.4602 Debye
        Dipole field          0.0026 Ry au, 
 
        Potential amp.       -0.2381 Ry
        Total length         46.3494 bohr
 

     total cpu time spent up to now is     1066.9 secs

     total energy              =   -2975.20148622 Ry
     estimated scf accuracy    <       0.00070297 Ry

     iteration # 64     ecut=    29.40 Ry     beta= 0.05
     Davidson diagonalization with overlap
     ethr =  1.74E-07,  avg # of iterations =  9.1

     negative rho (up, down):  1.441E-02 0.000E+00
 
     Adding external electric field

     Computed dipole along edir(3) : 
        Dipole                1.3791 Ry au,          3.5052 Debye
        Dipole field          0.0026 Ry au, 
 
        Potential amp.       -0.2412 Ry
        Total length         46.3494 bohr
 

     total cpu time spent up to now is     1080.3 secs

     total energy              =   -2975.20138810 Ry
     estimated scf accuracy    <       0.00061047 Ry

     iteration # 65     ecut=    29.40 Ry     beta= 0.05
     Davidson diagonalization with overlap
     ethr =  1.51E-07,  avg # of iterations = 11.6

     negative rho (up, down):  1.457E-02 0.000E+00
 
     Adding external electric field

     Computed dipole along edir(3) : 
        Dipole                1.3842 Ry au,          3.5184 Debye
        Dipole field          0.0026 Ry au, 
 
        Potential amp.       -0.2422 Ry
        Total length         46.3494 bohr
 

     total cpu time spent up to now is     1099.1 secs

     total energy              =   -2975.20146771 Ry
     estimated scf accuracy    <       0.00053942 Ry

     iteration # 66     ecut=    29.40 Ry     beta= 0.05
     Davidson diagonalization with overlap
     ethr =  1.34E-07,  avg # of iterations =  5.7

     negative rho (up, down):  1.458E-02 0.000E+00
 
     Adding external electric field

     Computed dipole along edir(3) : 
        Dipole                1.3883 Ry au,          3.5287 Debye
        Dipole field          0.0026 Ry au, 
 
        Potential amp.       -0.2429 Ry
        Total length         46.3494 bohr
 

     total cpu time spent up to now is     1111.1 secs

     total energy              =   -2975.20145832 Ry
     estimated scf accuracy    <       0.00030582 Ry

     iteration # 67     ecut=    29.40 Ry     beta= 0.05
     Davidson diagonalization with overlap
     c_bands:  1 eigenvalues not converged
     ethr =  7.57E-08,  avg # of iterations = 12.4

     negative rho (up, down):  1.440E-02 0.000E+00
 
     Adding external electric field

     Computed dipole along edir(3) : 
        Dipole                1.4029 Ry au,          3.5659 Debye
        Dipole field          0.0026 Ry au, 
 
        Potential amp.       -0.2454 Ry
        Total length         46.3494 bohr
 

     total cpu time spent up to now is     1128.2 secs

     total energy              =   -2975.20147408 Ry
     estimated scf accuracy    <       0.00017271 Ry

     iteration # 68     ecut=    29.40 Ry     beta= 0.05
     Davidson diagonalization with overlap
     ethr =  4.27E-08,  avg # of iterations = 12.2

     negative rho (up, down):  1.432E-02 0.000E+00
 
     Adding external electric field

     Computed dipole along edir(3) : 
        Dipole                1.4126 Ry au,          3.5905 Debye
        Dipole field          0.0027 Ry au, 
 
        Potential amp.       -0.2471 Ry
        Total length         46.3494 bohr
 

     total cpu time spent up to now is     1144.7 secs

     total energy              =   -2975.20149456 Ry
     estimated scf accuracy    <       0.00009761 Ry

     iteration # 69     ecut=    29.40 Ry     beta= 0.05
     Davidson diagonalization with overlap
     ethr =  2.42E-08,  avg # of iterations = 11.7

     negative rho (up, down):  1.420E-02 0.000E+00
 
     Adding external electric field

     Computed dipole along edir(3) : 
        Dipole                1.4178 Ry au,          3.6038 Debye
        Dipole field          0.0027 Ry au, 
 
        Potential amp.       -0.2480 Ry
        Total length         46.3494 bohr
 

     total cpu time spent up to now is     1158.7 secs

     total energy              =   -2975.20150171 Ry
     estimated scf accuracy    <       0.00004429 Ry

     iteration # 70     ecut=    29.40 Ry     beta= 0.05
     Davidson diagonalization with overlap
     ethr =  1.10E-08,  avg # of iterations =  9.1

     negative rho (up, down):  1.387E-02 0.000E+00
 
     Adding external electric field

     Computed dipole along edir(3) : 
        Dipole                1.4167 Ry au,          3.6009 Debye
        Dipole field          0.0027 Ry au, 
 
        Potential amp.       -0.2478 Ry
        Total length         46.3494 bohr
 

     total cpu time spent up to now is     1172.3 secs

     total energy              =   -2975.20150697 Ry
     estimated scf accuracy    <       0.00002184 Ry

     iteration # 71     ecut=    29.40 Ry     beta= 0.05
     Davidson diagonalization with overlap
     ethr =  5.41E-09,  avg # of iterations = 10.6

     negative rho (up, down):  1.391E-02 0.000E+00
 
     Adding external electric field

     Computed dipole along edir(3) : 
        Dipole                1.4172 Ry au,          3.6022 Debye
        Dipole field          0.0027 Ry au, 
 
        Potential amp.       -0.2479 Ry
        Total length         46.3494 bohr
 

     total cpu time spent up to now is     1190.7 secs

     total energy              =   -2975.20151615 Ry
     estimated scf accuracy    <       0.00002239 Ry

     iteration # 72     ecut=    29.40 Ry     beta= 0.05
     Davidson diagonalization with overlap
     ethr =  5.41E-09,  avg # of iterations =  1.6

     negative rho (up, down):  1.382E-02 0.000E+00
 
     Adding external electric field

     Computed dipole along edir(3) : 
        Dipole                1.4152 Ry au,          3.5972 Debye
        Dipole field          0.0027 Ry au, 
 
        Potential amp.       -0.2476 Ry
        Total length         46.3494 bohr
 

     total cpu time spent up to now is     1201.1 secs

     total energy              =   -2975.20151891 Ry
     estimated scf accuracy    <       0.00001684 Ry

     iteration # 73     ecut=    29.40 Ry     beta= 0.05
     Davidson diagonalization with overlap
     ethr =  4.17E-09,  avg # of iterations = 10.5

     negative rho (up, down):  1.369E-02 0.000E+00
 
     Adding external electric field

     Computed dipole along edir(3) : 
        Dipole                1.4163 Ry au,          3.5999 Debye
        Dipole field          0.0027 Ry au, 
 
        Potential amp.       -0.2478 Ry
        Total length         46.3494 bohr
 

     total cpu time spent up to now is     1216.2 secs

     total energy              =   -2975.20152480 Ry
     estimated scf accuracy    <       0.00000628 Ry

     iteration # 74     ecut=    29.40 Ry     beta= 0.05
     Davidson diagonalization with overlap
     ethr =  1.55E-09,  avg # of iterations =  8.1

     negative rho (up, down):  1.364E-02 0.000E+00
 
     Adding external electric field

     Computed dipole along edir(3) : 
        Dipole                1.4172 Ry au,          3.6021 Debye
        Dipole field          0.0027 Ry au, 
 
        Potential amp.       -0.2479 Ry
        Total length         46.3494 bohr
 

     total cpu time spent up to now is     1229.6 secs

     total energy              =   -2975.20152921 Ry
     estimated scf accuracy    <       0.00000394 Ry

     iteration # 75     ecut=    29.40 Ry     beta= 0.05
     Davidson diagonalization with overlap
     c_bands:  1 eigenvalues not converged
     ethr =  9.76E-10,  avg # of iterations = 14.1

     negative rho (up, down):  1.356E-02 0.000E+00
 
     Adding external electric field

     Computed dipole along edir(3) : 
        Dipole                1.4170 Ry au,          3.6017 Debye
        Dipole field          0.0027 Ry au, 
 
        Potential amp.       -0.2479 Ry
        Total length         46.3494 bohr
 

     total cpu time spent up to now is     1245.1 secs

     total energy              =   -2975.20153276 Ry
     estimated scf accuracy    <       0.00000259 Ry

     iteration # 76     ecut=    29.40 Ry     beta= 0.05
     Davidson diagonalization with overlap
     c_bands:  1 eigenvalues not converged
     ethr =  6.40E-10,  avg # of iterations = 14.5

     negative rho (up, down):  1.356E-02 0.000E+00
 
     Adding external electric field

     Computed dipole along edir(3) : 
        Dipole                1.4190 Ry au,          3.6068 Debye
        Dipole field          0.0027 Ry au, 
 
        Potential amp.       -0.2482 Ry
        Total length         46.3494 bohr
 

     total cpu time spent up to now is     1262.1 secs

     total energy              =   -2975.20153643 Ry
     estimated scf accuracy    <       0.00000151 Ry

     iteration # 77     ecut=    29.40 Ry     beta= 0.05
     Davidson diagonalization with overlap
     ethr =  3.75E-10,  avg # of iterations = 12.5

     negative rho (up, down):  1.354E-02 0.000E+00
 
     Adding external electric field

     Computed dipole along edir(3) : 
        Dipole                1.4197 Ry au,          3.6084 Debye
        Dipole field          0.0027 Ry au, 
 
        Potential amp.       -0.2483 Ry
        Total length         46.3494 bohr
 

     total cpu time spent up to now is     1277.3 secs

     total energy              =   -2975.20153948 Ry
     estimated scf accuracy    <       0.00000080 Ry

     iteration # 78     ecut=    29.40 Ry     beta= 0.05
     Davidson diagonalization with overlap
     c_bands:  1 eigenvalues not converged
     c_bands:  1 eigenvalues not converged
     ethr =  1.98E-10,  avg # of iterations = 15.1

     negative rho (up, down):  1.352E-02 0.000E+00
 
     Adding external electric field

     Computed dipole along edir(3) : 
        Dipole                1.4202 Ry au,          3.6098 Debye
        Dipole field          0.0027 Ry au, 
 
        Potential amp.       -0.2484 Ry
        Total length         46.3494 bohr
 

     total cpu time spent up to now is     1296.7 secs

     total energy              =   -2975.20154232 Ry
     estimated scf accuracy    <       0.00000077 Ry

     iteration # 79     ecut=    29.40 Ry     beta= 0.05
     Davidson diagonalization with overlap
     ethr =  1.92E-10,  avg # of iterations =  7.5

     negative rho (up, down):  1.352E-02 0.000E+00
 
     Adding external electric field

     Computed dipole along edir(3) : 
        Dipole                1.4213 Ry au,          3.6125 Debye
        Dipole field          0.0027 Ry au, 
 
        Potential amp.       -0.2486 Ry
        Total length         46.3494 bohr
 

     total cpu time spent up to now is     1309.0 secs

     total energy              =   -2975.20154475 Ry
     estimated scf accuracy    <       0.00000035 Ry

     iteration # 80     ecut=    29.40 Ry     beta= 0.05
     Davidson diagonalization with overlap
     c_bands:  1 eigenvalues not converged
     c_bands:  1 eigenvalues not converged
     c_bands:  1 eigenvalues not converged
     ethr =  8.76E-11,  avg # of iterations = 18.2

     negative rho (up, down):  1.352E-02 0.000E+00
 
     Adding external electric field

     Computed dipole along edir(3) : 
        Dipole                1.4214 Ry au,          3.6127 Debye
        Dipole field          0.0027 Ry au, 
 
        Potential amp.       -0.2486 Ry
        Total length         46.3494 bohr
 

     total cpu time spent up to now is     1334.0 secs

     total energy              =   -2975.20154706 Ry
     estimated scf accuracy    <       0.00000075 Ry

     iteration # 81     ecut=    29.40 Ry     beta= 0.05
     Davidson diagonalization with overlap
     c_bands:  1 eigenvalues not converged
     ethr =  8.76E-11,  avg # of iterations = 12.4

     negative rho (up, down):  1.351E-02 0.000E+00
 
     Adding external electric field

     Computed dipole along edir(3) : 
        Dipole                1.4212 Ry au,          3.6124 Debye
        Dipole field          0.0027 Ry au, 
 
        Potential amp.       -0.2486 Ry
        Total length         46.3494 bohr
 

     total cpu time spent up to now is     1350.5 secs

     total energy              =   -2975.20154906 Ry
     estimated scf accuracy    <       0.00000023 Ry

     iteration # 82     ecut=    29.40 Ry     beta= 0.05
     Davidson diagonalization with overlap
     ethr =  5.66E-11,  avg # of iterations =  5.6

     negative rho (up, down):  1.351E-02 0.000E+00
 
     Adding external electric field

     Computed dipole along edir(3) : 
        Dipole                1.4214 Ry au,          3.6128 Debye
        Dipole field          0.0027 Ry au, 
 
        Potential amp.       -0.2486 Ry
        Total length         46.3494 bohr
 

     total cpu time spent up to now is     1363.8 secs

     total energy              =   -2975.20155086 Ry
     estimated scf accuracy    <       0.00000009 Ry

     iteration # 83     ecut=    29.40 Ry     beta= 0.05
     Davidson diagonalization with overlap
     c_bands:  1 eigenvalues not converged
     c_bands:  1 eigenvalues not converged
     c_bands:  1 eigenvalues not converged
     ethr =  2.12E-11,  avg # of iterations = 16.7

     negative rho (up, down):  1.351E-02 0.000E+00
 
     Adding external electric field

     Computed dipole along edir(3) : 
        Dipole                1.4214 Ry au,          3.6129 Debye
        Dipole field          0.0027 Ry au, 
 
        Potential amp.       -0.2487 Ry
        Total length         46.3494 bohr
 

     total cpu time spent up to now is     1386.6 secs

     total energy              =   -2975.20155250 Ry
     estimated scf accuracy    <       0.00000010 Ry

     iteration # 84     ecut=    29.40 Ry     beta= 0.05
     Davidson diagonalization with overlap
     ethr =  2.12E-11,  avg # of iterations =  1.6

     negative rho (up, down):  1.354E-02 0.000E+00
 
     Adding external electric field

     Computed dipole along edir(3) : 
        Dipole                1.4205 Ry au,          3.6106 Debye
        Dipole field          0.0027 Ry au, 
 
        Potential amp.       -0.2485 Ry
        Total length         46.3494 bohr
 

     total cpu time spent up to now is     1397.0 secs

     End of self-consistent calculation

          k = 0.0000 0.0000 0.0000 ( 18029 PWs)   bands (ev):

   -55.1448 -55.1165 -55.1082 -55.0824 -55.0797 -55.0308 -54.9890 -54.9562
   -54.9412 -54.9251 -54.9209 -54.9180 -54.9081 -54.8362 -54.1292 -54.0951
   -31.7078 -31.6063 -31.5240 -31.4807 -31.4609 -31.4556 -31.4453 -31.4432
   -31.4062 -31.3862 -31.3642 -31.3607 -31.3445 -31.3223 -31.3055 -31.2917
   -31.2860 -31.2692 -31.2666 -31.2573 -31.2278 -31.2148 -31.2109 -31.1859
   -31.1795 -31.1734 -31.1639 -31.1585 -31.1565 -31.1493 -31.1378 -31.1358
   -31.1138 -31.1054 -31.1018 -31.0935 -31.0851 -31.0724 -31.0699 -31.0525
   -31.0492 -31.0164 -30.5377 -30.4455 -30.4233 -30.3542 -30.2675 -30.1565
   -19.2651 -18.5922 -15.9619 -15.6971 -15.5663 -15.4004 -15.3366 -15.1654
   -15.0850 -15.0195 -14.9339 -14.8758 -14.8611 -14.8553 -14.7630 -14.7451
   -14.6925 -14.6795 -14.6729 -14.6420 -14.6337 -14.5764 -14.5716 -14.5670
   -14.5323 -14.5195 -14.4898 -14.3720 -14.2912 -14.2345 -14.0246 -13.6684
   -12.6314 -12.5143 -10.0173  -6.8027  -6.4846  -6.3659  -4.0783  -3.8894
    -3.3134  -3.1722  -3.1518  -3.0693  -3.0455  -2.9243  -2.8671  -2.7064
    -2.5988  -2.5004  -2.4105  -2.3408  -2.3329  -2.3047  -2.1886  -2.1257
    -2.0795  -2.0366  -2.0179  -2.0048  -1.9563  -1.9204  -1.9180  -1.8514
    -1.8497  -1.7120  -1.6185  -1.6135  -1.5793  -1.5633  -1.4745  -1.4521
    -1.4423  -1.4361  -1.4296  -1.4222  -1.3879  -1.3440  -1.3185  -1.2358
    -1.1811  -1.1380  -1.0067  -0.9053  -0.8316  -0.7743  -0.6861  -0.6829
    -0.6150  -0.5499  -0.5357  -0.5335  -0.4729  -0.3519  -0.3067  -0.2554
    -0.2344  -0.2096  -0.1197  -0.1028  -0.0330   0.0396   0.0684   0.0783
     0.0999   0.2729   0.2810   0.3102   0.3290   0.4187   0.4710   0.5126
     0.5191   0.5415   0.6076   0.6466   0.7380   0.7854   0.7962   0.8169
     0.8385   0.8778   0.9545   0.9643   1.0056   1.0288   1.1692   1.2051
     1.2584   1.4751   1.4774   1.8066   1.8466   1.8938   2.0799   2.4680
     2.5154   3.9546   4.0442   4.0833   4.0851   4.1041   4.1897   4.3237
     4.4357   4.4462   4.4583   4.4804

          k = 0.0000 0.0419 0.0000 ( 17933 PWs)   bands (ev):

   -55.1397 -55.1133 -55.1115 -55.0873 -55.0787 -55.0268 -54.9928 -54.9512
   -54.9363 -54.9258 -54.9258 -54.9164 -54.9128 -54.8379 -54.1241 -54.1000
   -31.6507 -31.5523 -31.4691 -31.4451 -31.4312 -31.4192 -31.4043 -31.4014
   -31.3929 -31.3902 -31.3763 -31.3523 -31.3517 -31.3274 -31.3180 -31.2986
   -31.2977 -31.2846 -31.2595 -31.2552 -31.2430 -31.2168 -31.2112 -31.1934
   -31.1874 -31.1816 -31.1724 -31.1700 -31.1681 -31.1639 -31.1597 -31.1381
   -31.1306 -31.1259 -31.1110 -31.1106 -31.1041 -31.1030 -31.0999 -31.0804
   -31.0563 -31.0484 -30.4835 -30.4421 -30.4263 -30.3416 -30.2801 -30.2137
   -19.2640 -18.5921 -15.8301 -15.5805 -15.4597 -15.3275 -15.2290 -15.1268
   -15.0965 -15.0162 -14.9735 -14.9340 -14.9115 -14.8336 -14.7934 -14.7549
   -14.7065 -14.6987 -14.6475 -14.6313 -14.6259 -14.6219 -14.5957 -14.5846
   -14.5754 -14.5310 -14.4942 -14.4287 -14.3473 -14.2934 -14.1072 -13.6739
   -12.6351 -12.5536 -10.0175  -6.8029  -6.4848  -6.3679  -4.0665  -3.8836
    -3.1352  -3.0627  -2.9855  -2.9278  -2.8700  -2.8501  -2.7199  -2.5265
    -2.4791  -2.4037  -2.3674  -2.2748  -2.2691  -2.2443  -2.2015  -2.1721
    -2.1419  -2.1200  -2.1111  -2.0872  -2.0638  -1.9862  -1.9531  -1.9332
    -1.9077  -1.8602  -1.8451  -1.7266  -1.7141  -1.6965  -1.6823  -1.6333
    -1.5734  -1.4584  -1.4450  -1.3864  -1.3497  -1.3012  -1.2060  -1.0877
    -1.0414  -0.9467  -0.9284  -0.8625  -0.8384  -0.6933  -0.6819  -0.6173
    -0.5136  -0.4723  -0.4423  -0.4003  -0.3518  -0.3153  -0.2592  -0.2032
    -0.1441  -0.1274  -0.1035  -0.0832  -0.0394   0.0310   0.0376   0.0609
     0.1218   0.2013   0.2334   0.2715   0.3014   0.3530   0.3854   0.4040
     0.4698   0.5083   0.5552   0.6072   0.6330   0.6653   0.6732   0.6958
     0.8106   0.8362   0.8621   0.9141   0.9804   1.0289   1.0820   1.1112
     1.1575   1.1809   1.3494   1.5050   1.7195   2.0791   2.1581   2.4227
     2.4262   4.1267   4.1652   4.1771   4.2264   4.2603   4.3357   4.3605
     4.3719   4.4186   4.4483   4.4756

          k = 0.0000-0.0839 0.0000 ( 17884 PWs)   bands (ev):

   -55.1301 -55.1228 -55.0996 -55.0991 -55.0778 -55.0217 -54.9979 -54.9416
   -54.9354 -54.9266 -54.9250 -54.9239 -54.9146 -54.8396 -54.1122 -54.1119
   -31.5157 -31.5073 -31.4227 -31.4201 -31.4196 -31.4053 -31.3918 -31.3912
   -31.3645 -31.3561 -31.3441 -31.3425 -31.3282 -31.3239 -31.3216 -31.3111
   -31.2883 -31.2647 -31.2635 -31.2551 -31.2547 -31.2272 -31.2216 -31.2211
   -31.2211 -31.2179 -31.2093 -31.2055 -31.2015 -31.1784 -31.1745 -31.1733
   -31.1659 -31.1586 -31.1392 -31.1091 -31.1072 -31.1056 -31.1045 -31.1029
   -31.0897 -31.0465 -30.4341 -30.4338 -30.3505 -30.3501 -30.3109 -30.3107
   -19.2629 -18.5920 -15.5319 -15.4768 -15.3129 -15.2932 -15.2000 -15.1587
   -15.1091 -15.0572 -14.9752 -14.9695 -14.9248 -14.9049 -14.8232 -14.7635
   -14.7402 -14.7292 -14.7029 -14.6813 -14.6236 -14.5719 -14.5610 -14.5438
   -14.5412 -14.4878 -14.4807 -14.4777 -14.4390 -14.4308 -14.2343 -13.6788
   -12.6164 -12.6161 -10.0176  -6.8032  -6.4850  -6.3702  -4.0569  -3.8788
    -3.0239  -2.7280  -2.6480  -2.6211  -2.5995  -2.5874  -2.5647  -2.5582
    -2.4487  -2.4315  -2.4286  -2.4063  -2.3465  -2.3231  -2.2905  -2.2791
    -2.2684  -2.1889  -2.1547  -2.1372  -2.0814  -2.0500  -2.0036  -1.9834
    -1.9644  -1.9584  -1.9015  -1.8742  -1.8105  -1.7688  -1.7212  -1.5747
    -1.5422  -1.5263  -1.3784  -1.2585  -1.1961  -1.1388  -1.1195  -1.0705
    -0.9315  -0.9166  -0.8920  -0.8654  -0.7281  -0.6509  -0.6286  -0.5833
    -0.5686  -0.5641  -0.5306  -0.5148  -0.4892  -0.4519  -0.3505  -0.2517
    -0.2413  -0.1427  -0.0440  -0.0190   0.1195   0.1450   0.1859   0.2115
     0.2157   0.2277   0.2664   0.2859   0.2996   0.3305   0.3577   0.3843
     0.3857   0.4106   0.4819   0.4946   0.5236   0.5508   0.6120   0.6377
     0.6439   0.6705   0.7000   0.7140   0.9100   1.0274   1.0509   1.0708
     1.0751   1.2364   1.2503   1.4400   1.4698   2.2212   2.2226   2.3586
     2.3590   4.1456   4.2379   4.2478   4.2723   4.3016   4.3531   4.4278
     4.4345   4.5156   4.5489   4.5597

          k = 0.0380 0.0000 0.0000 ( 17913 PWs)   bands (ev):

[...]

          k = 0.0380 0.0419 0.0000 ( 17878 PWs)   bands (ev):

   -55.1396 -55.1132 -55.1114 -55.0873 -55.0787 -55.0268 -54.9928 -54.9508
   -54.9365 -54.9257 -54.9256 -54.9165 -54.9129 -54.8378 -54.1241 -54.1000
   -31.6509 -31.5531 -31.4753 -31.4452 -31.4335 -31.4199 -31.4045 -31.4011
   -31.3969 -31.3905 -31.3765 -31.3520 -31.3385 -31.3270 -31.3180 -31.2895
   -31.2889 -31.2847 -31.2595 -31.2525 -31.2272 -31.2252 -31.2169 -31.1914
   -31.1870 -31.1813 -31.1732 -31.1714 -31.1662 -31.1599 -31.1562 -31.1392
   -31.1332 -31.1300 -31.1163 -31.1126 -31.1093 -31.1034 -31.1006 -31.0804
   -31.0568 -31.0525 -30.4831 -30.4448 -30.4253 -30.3414 -30.2801 -30.2135
   -19.2636 -18.5919 -15.7616 -15.4986 -15.4151 -15.3100 -15.1595 -15.1197
   -15.0921 -15.0282 -15.0113 -14.9635 -14.9228 -14.8417 -14.8251 -14.8041
   -14.7967 -14.7520 -14.7311 -14.6737 -14.6372 -14.5901 -14.5628 -14.5322
   -14.5209 -14.4948 -14.4674 -14.4267 -14.4048 -14.3781 -14.1054 -13.6739
   -12.6328 -12.5539 -10.0190  -6.8000  -6.4837  -6.3629  -4.0696  -3.8789
    -3.0511  -2.9568  -2.8566  -2.7479  -2.7198  -2.6204  -2.5854  -2.5278
    -2.4819  -2.4688  -2.3565  -2.3167  -2.2523  -2.2063  -2.1813  -2.1679
    -2.1261  -2.0986  -2.0483  -2.0235  -1.9778  -1.9630  -1.9455  -1.8970
    -1.8808  -1.8346  -1.8282  -1.7710  -1.7093  -1.6807  -1.6525  -1.5825
    -1.5359  -1.4558  -1.3871  -1.3397  -1.2793  -1.2072  -1.1815  -1.1470
    -0.9942  -0.9462  -0.9141  -0.8650  -0.8053  -0.7595  -0.6747  -0.6283
    -0.5951  -0.5513  -0.5283  -0.4741  -0.4629  -0.4104  -0.3417  -0.3143
    -0.2186  -0.1954  -0.1712  -0.1174  -0.1020  -0.0555  -0.0291   0.0278
     0.0993   0.1153   0.1447   0.1842   0.1995   0.2389   0.2806   0.3157
     0.3598   0.3952   0.4434   0.4942   0.5181   0.5944   0.6389   0.6846
     0.7755   0.8230   0.8691   0.9360   0.9825   1.0141   1.0364   1.1016
     1.1511   1.2746   1.3101   1.4569   1.6705   2.0898   2.1616   2.3449
     2.4077   4.1309   4.1412   4.1734   4.2141   4.3077   4.3471   4.3840
     4.3954   4.4479   4.5196   4.5401

          k = 0.0380-0.0839 0.0000 ( 17916 PWs)   bands (ev):

   -55.1301 -55.1228 -55.0996 -55.0991 -55.0778 -55.0217 -54.9979 -54.9415
   -54.9352 -54.9265 -54.9252 -54.9242 -54.9148 -54.8397 -54.1123 -54.1119
   -31.5159 -31.5076 -31.4228 -31.4209 -31.4204 -31.4055 -31.3918 -31.3912
   -31.3653 -31.3591 -31.3581 -31.3462 -31.3422 -31.3118 -31.3000 -31.2952
   -31.2821 -31.2702 -31.2668 -31.2614 -31.2561 -31.2325 -31.2221 -31.2202
   -31.2197 -31.2189 -31.2109 -31.1889 -31.1865 -31.1848 -31.1744 -31.1671
   -31.1658 -31.1547 -31.1399 -31.1190 -31.1156 -31.1105 -31.1060 -31.1042
   -31.0899 -31.0527 -30.4352 -30.4348 -30.3504 -30.3500 -30.3110 -30.3107
   -19.2627 -18.5918 -15.4961 -15.4210 -15.2601 -15.2386 -15.1608 -15.1473
   -15.0906 -15.0277 -14.9819 -14.9564 -14.9201 -14.8721 -14.8293 -14.8031
   -14.7639 -14.7530 -14.7428 -14.6947 -14.6535 -14.6105 -14.5909 -14.5726
   -14.5627 -14.5074 -14.5004 -14.4880 -14.4829 -14.4617 -14.2298 -13.6790
   -12.6162 -12.6159 -10.0189  -6.7997  -6.4865  -6.3641  -4.0554  -3.8775
    -2.9763  -2.7219  -2.5528  -2.5270  -2.4780  -2.4186  -2.4057  -2.3688
    -2.3618  -2.3245  -2.2986  -2.2503  -2.2287  -2.2270  -2.2138  -2.2074
    -2.1744  -2.1364  -2.0959  -2.0874  -2.0368  -2.0239  -2.0109  -1.9756
    -1.9576  -1.8937  -1.8774  -1.8457  -1.8082  -1.7468  -1.7349  -1.6322
    -1.4638  -1.3840  -1.3299  -1.2569  -1.2166  -1.1429  -1.1043  -1.0782
    -1.0546  -1.0336  -0.9869  -0.9760  -0.8873  -0.8448  -0.8224  -0.8045
    -0.7157  -0.6796  -0.5730  -0.5221  -0.4824  -0.4385  -0.3720  -0.3379
    -0.2664  -0.2174  -0.1781  -0.1502  -0.0765  -0.0435   0.0286   0.0396
     0.0484   0.0728   0.0820   0.1584   0.2081   0.2270   0.2600   0.2940
     0.3290   0.3483   0.3762   0.4158   0.4499   0.5975   0.6115   0.6611
     0.7808   0.7906   0.9062   0.9294   0.9376   0.9683   1.0429   1.0967
     1.1212   1.2134   1.2290   1.4311   1.4591   2.2345   2.2360   2.3487
     2.3495   4.1327   4.1605   4.2129   4.2842   4.3070   4.3573   4.4060
     4.4295   4.5422   4.5609   4.6034

          k = 0.0380-0.0419 0.0000 ( 17876 PWs)   bands (ev):

   -55.1396 -55.1132 -55.1114 -55.0873 -55.0787 -55.0268 -54.9928 -54.9508
   -54.9365 -54.9257 -54.9256 -54.9165 -54.9129 -54.8378 -54.1241 -54.1000
   -31.6509 -31.5531 -31.4753 -31.4453 -31.4333 -31.4199 -31.4045 -31.4011
   -31.3969 -31.3905 -31.3765 -31.3520 -31.3385 -31.3270 -31.3179 -31.2902
   -31.2890 -31.2847 -31.2594 -31.2525 -31.2272 -31.2252 -31.2169 -31.1915
   -31.1870 -31.1813 -31.1732 -31.1719 -31.1611 -31.1599 -31.1560 -31.1395
   -31.1383 -31.1299 -31.1163 -31.1114 -31.1094 -31.1033 -31.1003 -31.0804
   -31.0590 -31.0506 -30.4831 -30.4448 -30.4253 -30.3414 -30.2801 -30.2135
   -19.2636 -18.5920 -15.7616 -15.4991 -15.4147 -15.3140 -15.1576 -15.1222
   -15.0958 -15.0310 -15.0024 -14.9550 -14.9206 -14.8443 -14.8268 -14.8054
   -14.7981 -14.7582 -14.7268 -14.6737 -14.6367 -14.5896 -14.5626 -14.5324
   -14.5199 -14.4944 -14.4667 -14.4267 -14.4052 -14.3784 -14.1063 -13.6744
   -12.6328 -12.5539 -10.0201  -6.7971  -6.4874  -6.3625  -4.0652  -3.8783
    -3.0592  -2.9751  -2.8315  -2.7482  -2.7046  -2.6184  -2.5834  -2.5319
    -2.4791  -2.4648  -2.3624  -2.3207  -2.2601  -2.2025  -2.1881  -2.1642
    -2.1279  -2.0889  -2.0489  -2.0232  -1.9816  -1.9644  -1.9482  -1.8976
    -1.8753  -1.8333  -1.8273  -1.7681  -1.7067  -1.6573  -1.6434  -1.5910
    -1.5330  -1.4621  -1.4098  -1.3384  -1.3058  -1.2092  -1.1962  -1.1420
    -0.9712  -0.9596  -0.9311  -0.8645  -0.7876  -0.7381  -0.6870  -0.6388
    -0.5839  -0.5511  -0.5323  -0.4811  -0.4562  -0.4000  -0.3396  -0.3138
    -0.2457  -0.2050  -0.1519  -0.1166  -0.0999  -0.0502  -0.0366   0.0315
     0.0912   0.1060   0.1383   0.1841   0.1973   0.2376   0.2709   0.3171
     0.3540   0.4049   0.4420   0.4911   0.5136   0.5930   0.6396   0.6854
     0.7618   0.8518   0.8674   0.9315   0.9783   1.0266   1.0543   1.1166
     1.1522   1.2740   1.3118   1.4570   1.6702   2.0899   2.1617   2.3448
     2.4083   4.1242   4.1471   4.1775   4.2521   4.3082   4.3548   4.3777
     4.3942   4.4470   4.5234   4.5410

          k =-0.0760-0.0000 0.0000 ( 17886 PWs)   bands (ev):

   -55.1446 -55.1163 -55.1081 -55.0823 -55.0796 -55.0307 -54.9889 -54.9553
   -54.9418 -54.9245 -54.9208 -54.9183 -54.9080 -54.8361 -54.1290 -54.0950
   -31.7081 -31.6081 -31.5342 -31.4858 -31.4617 -31.4553 -31.4536 -31.4438
   -31.4058 -31.3859 -31.3607 -31.3452 -31.3222 -31.3192 -31.2890 -31.2862
   -31.2764 -31.2668 -31.2629 -31.2585 -31.2275 -31.2108 -31.1981 -31.1863
   -31.1795 -31.1737 -31.1732 -31.1640 -31.1568 -31.1561 -31.1379 -31.1358
   -31.1352 -31.1090 -31.1085 -31.0918 -31.0854 -31.0711 -31.0676 -31.0587
   -31.0516 -31.0167 -30.5368 -30.4524 -30.4200 -30.3539 -30.2673 -30.1563
   -19.2640 -18.5922 -15.7797 -15.5613 -15.4023 -15.3684 -15.2419 -15.1241
   -15.1182 -15.0536 -15.0317 -14.9899 -14.9460 -14.9089 -14.9014 -14.8718
   -14.8575 -14.8326 -14.7075 -14.6704 -14.5852 -14.5487 -14.5410 -14.5334
   -14.4896 -14.4400 -14.3983 -14.3950 -14.2901 -14.2894 -14.0218 -13.6690
   -12.6250 -12.5136 -10.0234  -6.7927  -6.4850  -6.3570  -4.0853  -3.8729
    -3.1815  -3.0070  -2.9143  -2.7850  -2.6922  -2.6372  -2.6311  -2.6153
    -2.6064  -2.5253  -2.5040  -2.4309  -2.3999  -2.3854  -2.2063  -2.0604
    -2.0447  -1.9742  -1.9420  -1.8506  -1.7845  -1.7704  -1.7587  -1.7225
    -1.6999  -1.6571  -1.6368  -1.6067  -1.5737  -1.5189  -1.4997  -1.4780
    -1.4440  -1.4328  -1.4055  -1.3612  -1.3604  -1.2769  -1.2516  -1.1373
    -1.0641  -0.9666  -0.9190  -0.8265  -0.7833  -0.7736  -0.7626  -0.7290
    -0.7155  -0.6701  -0.6268  -0.6024  -0.5841  -0.4969  -0.4743  -0.4651
    -0.3987  -0.3897  -0.3317  -0.2484  -0.0953  -0.0658   0.0154   0.0476
     0.0719   0.1264   0.1575   0.2176   0.2580   0.3050   0.3590   0.3924
     0.4175   0.4741   0.5051   0.5286   0.5640   0.6103   0.6330   0.6607
     0.7164   0.7464   0.7914   0.8066   0.8594   1.0205   1.1159   1.1758
     1.2511   1.3769   1.4286   1.5413   1.8177   1.9270   2.0242   2.2259
     2.3774   3.9729   4.0074   4.0990   4.2201   4.2436   4.2494   4.3289
     4.3955   4.4398   4.4653   4.4807

          k =-0.0760 0.0419 0.0000 ( 17914 PWs)   bands (ev):

   -55.1395 -55.1132 -55.1114 -55.0873 -55.0787 -55.0269 -54.9928 -54.9504
   -54.9369 -54.9257 -54.9255 -54.9166 -54.9130 -54.8379 -54.1241 -54.1000
   -31.6512 -31.5541 -31.4813 -31.4458 -31.4356 -31.4206 -31.4048 -31.4015
   -31.4012 -31.3905 -31.3766 -31.3522 -31.3282 -31.3190 -31.3174 -31.2850
   -31.2812 -31.2798 -31.2597 -31.2502 -31.2468 -31.2169 -31.1908 -31.1870
   -31.1864 -31.1840 -31.1767 -31.1758 -31.1720 -31.1662 -31.1597 -31.1389
   -31.1304 -31.1284 -31.1215 -31.1159 -31.1151 -31.1053 -31.1017 -31.0805
   -31.0613 -31.0531 -30.4828 -30.4477 -30.4246 -30.3414 -30.2801 -30.2136
   -19.2633 -18.5920 -15.6663 -15.4547 -15.3096 -15.2883 -15.1829 -15.0747
   -15.0625 -15.0462 -15.0080 -14.9455 -14.9259 -14.9090 -14.8795 -14.8544
   -14.8390 -14.8032 -14.7580 -14.7207 -14.6486 -14.5871 -14.5696 -14.5603
   -14.5240 -14.4847 -14.4777 -14.4370 -14.3955 -14.3790 -14.1050 -13.6745
   -12.6307 -12.5542 -10.0218  -6.7945  -6.4863  -6.3576  -4.0686  -3.8746
    -3.0315  -2.9295  -2.8018  -2.5600  -2.5245  -2.5057  -2.4188  -2.3923
    -2.3689  -2.3290  -2.2990  -2.2656  -2.2387  -2.1881  -2.1647  -2.1565
    -2.0988  -2.0647  -2.0460  -1.9792  -1.9576  -1.8876  -1.8680  -1.8550
    -1.8222  -1.7707  -1.7613  -1.7145  -1.6871  -1.6832  -1.6285  -1.6150
    -1.4940  -1.4117  -1.3245  -1.3061  -1.2853  -1.2502  -1.1697  -1.1322
    -1.0328  -0.9249  -0.9180  -0.8469  -0.8105  -0.7567  -0.7274  -0.7142
    -0.6553  -0.6305  -0.6172  -0.5416  -0.5312  -0.4903  -0.4496  -0.4184
    -0.3629  -0.3614  -0.3546  -0.3037  -0.2562  -0.2129  -0.1900  -0.1020
    -0.0711  -0.0097   0.0560   0.0874   0.0935   0.1654   0.1707   0.2280
     0.2980   0.3204   0.4014   0.4577   0.5507   0.6010   0.6266   0.6752
     0.7356   0.8359   0.8702   0.9387   1.0326   1.0655   1.1533   1.1694
     1.2446   1.3068   1.3521   1.3902   1.5309   2.1049   2.1640   2.2675
     2.3969   4.1241   4.1380   4.1744   4.1886   4.2259   4.2729   4.3470
     4.3539   4.4461   4.4557   4.5833

          k =-0.0760-0.0839 0.0000 ( 17948 PWs)   bands (ev):

   -55.1301 -55.1228 -55.0996 -55.0991 -55.0778 -55.0218 -54.9979 -54.9413
   -54.9349 -54.9264 -54.9254 -54.9245 -54.9149 -54.8397 -54.1123 -54.1119
   -31.5162 -31.5080 -31.4228 -31.4217 -31.4212 -31.4059 -31.3919 -31.3913
   -31.3674 -31.3654 -31.3601 -31.3534 -31.3423 -31.3119 -31.2821 -31.2753
   -31.2747 -31.2742 -31.2697 -31.2642 -31.2572 -31.2391 -31.2250 -31.2224
   -31.2193 -31.2189 -31.2184 -31.1972 -31.1745 -31.1659 -31.1648 -31.1551
   -31.1491 -31.1467 -31.1446 -31.1439 -31.1423 -31.1124 -31.1061 -31.1043
   -31.0904 -31.0599 -30.4362 -30.4358 -30.3504 -30.3500 -30.3110 -30.3107
   -19.2625 -18.5917 -15.4562 -15.2993 -15.2858 -15.1344 -15.1199 -15.1117
   -15.0872 -15.0121 -14.9931 -14.9292 -14.9163 -14.8726 -14.8460 -14.8333
   -14.8225 -14.7288 -14.7214 -14.7152 -14.6994 -14.6487 -14.6366 -14.6195
   -14.5962 -14.5921 -14.5554 -14.4907 -14.4875 -14.4559 -14.2259 -13.6792
   -12.6160 -12.6157 -10.0202  -6.7962  -6.4878  -6.3581  -4.0539  -3.8765
    -2.9372  -2.7212  -2.5289  -2.5078  -2.4652  -2.3674  -2.3262  -2.2854
    -2.1894  -2.1400  -2.1244  -2.1025  -2.0891  -2.0295  -2.0252  -2.0226
    -1.9862  -1.9779  -1.9637  -1.9388  -1.9164  -1.8829  -1.8689  -1.8577
    -1.8449  -1.8059  -1.7862  -1.7578  -1.7449  -1.7154  -1.6991  -1.6305
    -1.5260  -1.4963  -1.4429  -1.3505  -1.3314  -1.3257  -1.2408  -1.2085
    -1.1951  -1.1799  -1.1662  -1.1042  -0.9691  -0.8799  -0.8698  -0.8183
    -0.7528  -0.7188  -0.6762  -0.6492  -0.6218  -0.5673  -0.5178  -0.4937
    -0.4199  -0.3664  -0.3603  -0.3281  -0.1822  -0.1581  -0.1108  -0.1086
    -0.0944  -0.0853   0.0046   0.0213   0.0656   0.0855   0.1253   0.1439
     0.2163   0.2330   0.3528   0.4220   0.4841   0.5906   0.7311   0.7443
     0.8164   0.8774   0.9166   0.9825   1.0398   1.0724   1.1556   1.1657
     1.1813   1.2835   1.3329   1.3395   1.3563   2.2523   2.2539   2.3353
     2.3355   4.1170   4.1395   4.2288   4.2424   4.2947   4.3772   4.4668
     4.4936   4.5284   4.5324   4.6105

     the Fermi energy is     4.0028 ev

!    total energy              =   -2975.20156719 Ry
     estimated scf accuracy    <       0.00000007 Ry
     smearing contrib. (-TS)   =      -0.03820527 Ry
     internal energy E=F+TS    =   -2975.16336191 Ry

     The total energy is F=E-TS. E is the sum of the following terms:
     one-electron contribution =  -23646.28633339 Ry
     hartree contribution      =   11921.31556575 Ry
     xc contribution           =    -494.96946068 Ry
     ewald contribution        =    9244.77305833 Ry
     electric field correction =       0.00380807 Ry

     convergence has been achieved in  84 iterations

     Forces acting on atoms (cartesian axes, Ry/au):

     atom    1 type  1   force =     0.00014105   -0.00013414    0.09422124
     atom    2 type  1   force =    -0.00023193   -0.00026961   -0.17728326
     atom    3 type  2   force =     0.00001860   -0.00026511   -0.02171617
     atom    4 type  2   force =    -0.00004224   -0.00185066    0.05694445
     atom    5 type  2   force =    -0.01106339   -0.00171483    0.00686511
     atom    6 type  2   force =     0.01215147   -0.00090776    0.00492921
     atom    7 type  1   force =    -0.00121709    0.00155039   -0.01219915
     atom    8 type  1   force =     0.00072350    0.00496817    0.00603640
     atom    9 type  2   force =     0.00026690    0.00050744    0.00031643
     atom   10 type  2   force =    -0.00306986   -0.00067613   -0.00505620
     atom   11 type  2   force =     0.00080419    0.00021409   -0.00023482
     atom   12 type  2   force =    -0.00006061    0.00051211    0.00001350
     atom   13 type  1   force =    -0.00021521    0.00010641   -0.00010102
     atom   14 type  1   force =    -0.00001134    0.00012095   -0.00010494
     atom   15 type  2   force =    -0.00005990    0.00003094    0.00027567
     atom   16 type  2   force =     0.00040600    0.00035377   -0.00011892
     atom   17 type  2   force =     0.00019616   -0.00008946    0.00033234
     atom   18 type  2   force =     0.00007630   -0.00018683    0.00018656
     atom   19 type  1   force =     0.00030289    0.00034877   -0.00014482
     atom   20 type  1   force =     0.00000188    0.00047127    0.00015520
     atom   21 type  2   force =     0.00004737    0.00002496    0.10369371
     atom   22 type  2   force =     0.00055833   -0.00000811   -0.00011148
     atom   23 type  2   force =    -0.07084047   -0.00008462   -0.02718830
     atom   24 type  2   force =     0.07067624    0.00039750   -0.02722694
     atom   25 type  1   force =    -0.00006688   -0.00028264    0.09394902
     atom   26 type  1   force =    -0.00031558   -0.00035787   -0.17745190
     atom   27 type  2   force =     0.00001067   -0.00022989   -0.02076412
     atom   28 type  2   force =     0.00003617   -0.00148341    0.05597068
     atom   29 type  2   force =    -0.01133574   -0.00052825    0.00689648
     atom   30 type  2   force =     0.01229722   -0.00025042    0.00491422
     atom   31 type  1   force =    -0.00121363    0.00505719   -0.01498027
     atom   32 type  1   force =     0.00092521   -0.00602439    0.00587885
     atom   33 type  2   force =     0.00035422   -0.00013481    0.00011158
     atom   34 type  2   force =    -0.00260781   -0.00151302   -0.00575794
     atom   35 type  2   force =     0.00035686    0.00029948   -0.00030357
     atom   36 type  2   force =     0.00045118    0.00040447   -0.00006535
     atom   37 type  1   force =    -0.00016394   -0.00015456   -0.00018315
     atom   38 type  1   force =     0.00004917    0.00032567    0.00043070
     atom   39 type  2   force =     0.00008534    0.00085884   -0.00074522
     atom   40 type  2   force =     0.00003666   -0.00008400    0.00004605
     atom   41 type  2   force =     0.00093258    0.00040784    0.00054996
     atom   42 type  2   force =    -0.00083123    0.00019936   -0.00007539
     atom   43 type  1   force =     0.00045460   -0.00074522    0.00005163
     atom   44 type  1   force =     0.00015628   -0.00001632   -0.00059210
     atom   45 type  2   force =     0.00002072   -0.00002451    0.10370545
     atom   46 type  2   force =    -0.07082742   -0.00001114   -0.02720709
     atom   47 type  2   force =     0.07065934    0.00039488   -0.02720085
     atom   48 type  3   force =    -0.00073607    0.00024647    0.00042953
     atom   49 type  3   force =     0.00014083   -0.00003863   -0.00087564
     atom   50 type  4   force =     0.00930598   -0.00369332    0.00429809
     atom   51 type  5   force =    -0.00931774    0.00344367   -0.00438302
     atom   52 type  5   force =     0.00060273   -0.00071332    0.00017644
     atom   53 type  5   force =    -0.00047323    0.00069811    0.00032930
     atom   54 type  5   force =     0.00089318    0.00047611    0.00017597
     atom   55 type  2   force =     0.00007406    0.00023045    0.00004897
     atom   56 type  5   force =     0.00070792   -0.00019571   -0.00054319
     atom   57 type  5   force =    -0.00022049    0.00001939    0.00068208

     Total force =     0.366007     Total SCF correction =     0.000583
  @ DRIVER MODE: Message from server: STATUS
  @ DRIVER MODE: Message from server: GETFORCE
  @ DRIVER MODE: Returning v,forces,stress,ensemble 

     Writing output data file ./calc.save/
  @ DRIVER MODE: Message from server: EXIT
  @ DRIVE MODE: Exiting  
 
     init_run     :     10.79s CPU     11.04s WALL (       1 calls)
     electrons    :   1365.47s CPU   1385.65s WALL (       1 calls)
     forces       :      2.37s CPU      2.45s WALL (       1 calls)

     Called by init_run:
     wfcinit      :      4.82s CPU      4.89s WALL (       1 calls)
     potinit      :      5.32s CPU      5.39s WALL (       1 calls)
     hinit0       :      0.30s CPU      0.31s WALL (       1 calls)

     Called by electrons:
     c_bands      :   1167.25s CPU   1176.19s WALL (      84 calls)
     sum_band     :    135.21s CPU    139.71s WALL (      84 calls)
     v_of_rho     :     46.43s CPU     48.76s WALL (      85 calls)
     newd         :     19.25s CPU     23.55s WALL (      85 calls)
     mix_rho      :      1.73s CPU      1.80s WALL (      84 calls)
     vdW_kernel   :      4.54s CPU      4.56s WALL (       1 calls)

     Called by c_bands:
     init_us_2    :      7.83s CPU      7.87s WALL (    1700 calls)
     cegterg      :   1144.24s CPU   1152.77s WALL (     861 calls)

     Called by *egterg:
     cdiaghg      :    199.43s CPU    200.39s WALL (    9263 calls)
     h_psi        :    599.15s CPU    605.07s WALL (    9278 calls)
     s_psi        :     81.51s CPU     81.83s WALL (    9278 calls)
     g_psi        :      2.18s CPU      2.19s WALL (    8407 calls)

     Called by h_psi:
     h_psi:calbec :     76.18s CPU     76.58s WALL (    9278 calls)
     vloc_psi     :    437.46s CPU    442.14s WALL (    9278 calls)
     add_vuspsi   :     81.66s CPU     82.22s WALL (    9278 calls)

     General routines
     calbec       :     99.92s CPU    100.40s WALL (   10158 calls)
     fft          :     23.87s CPU     24.03s WALL (    5355 calls)
     ffts         :      0.15s CPU      0.16s WALL (     169 calls)
     fftw         :    490.45s CPU    495.70s WALL ( 1173654 calls)
     interpolate  :      0.49s CPU      0.49s WALL (      85 calls)
     davcio       :      0.00s CPU      0.16s WALL (      10 calls)
 
     Parallel routines
 
     PWSCF        :  22m59.11s CPU  23m20.34s WALL

 
   This run was terminated on:  23:24:25  22Sep2021            

=------------------------------------------------------------------------------=
   JOB DONE.
=------------------------------------------------------------------------------=
