
     Program PWSCF v.6.7GPU starts on 11Oct2021 at 18:39:23 

     This program is part of the open-source Quantum ESPRESSO suite
     for quantum simulation of materials; please cite
         "P. Giannozzi et al., J. Phys.:Condens. Matter 21 395502 (2009);
         "P. Giannozzi et al., J. Phys.:Condens. Matter 29 465901 (2017);
         "P. Giannozzi et al., J. Chem. Phys. 152 154105 (2020);
          URL http://www.quantum-espresso.org", 
     in publications or presentations arising from this work. More details at
     http://www.quantum-espresso.org/quote

     Parallel version (MPI), running on     8 processors

     MPI processes distributed on     1 nodes
     R & G space division:  proc/nbgrp/npool/nimage =       8
     Reading input from /storage/home/hcoda1/3/ntian30/research/carbon/CxH_vib/CH2_calc/ads_slab/CH2NHH_b/out_0005/pw.inp
Warning: card &CELL ignored
Warning: card   CELL_DYNAMICS='IPI', ignored
Warning: card / ignored

     Current dimensions of program PWSCF are:
     Max number of different atomic species (ntypx) = 10
     Max number of k-points (npk) =  40000
     Max angular momentum in pseudopotentials (lmaxx) =  3
     Presently no symmetry can be used with electric field

     Message from routine cell_base_init:
     DEPRECATED: use true lattice parameter, not A to a.u. conversion factor

     **************************************************************************
     Initializing libbeef V0.1.2 with the BEEF-vdW functional.
     Citation: Wellendorff et al., PRB 85, 235149 (2012).
     **************************************************************************


     IMPORTANT: XC functional enforced from input :
     Exchange-correlation= BEEF-VDW
                           (   1   4  43  14   2   0   0)
     Any further DFT definition will be discarded
     Please, verify this is what you really want


     Subspace diagonalization in iterative solution of the eigenvalue problem:
     one sub-group per band group will be used
     scalapack distributed-memory algorithm (size of sub-group:  2*  2 procs)

  @ DRIVER MODE: Connecting to 
 qe_1139763_3171005.sched-torque.pace.gatech.edu6z63xs84_scratch
  using UNIX socket
  @ DRIVER MODE: Message from server: STATUS
  @ DRIVER MODE: Message from server: INIT
  @ DRIVER MODE: Receiving replica           0          -1
  @ DRIVER MODE: Receiving encoded integer          25
  @ DRIVER MODE:  SCF:  T  FORCE:  T  STRESS:  F  VC:  F  ENSEMBLE:  F
  @ DRIVER MODE:  SCF:  T  FORCE:  T  STRESS:  F  VC:  F  ENSEMBLE:  F
 
     Parallelization info
     --------------------
     sticks:   dense  smooth     PW     G-vecs:    dense   smooth      PW
     Min         409     164     47                70857    17926    2743
     Max         411     165     48                70858    17931    2751
     Sum        3275    1317    379               566857   143421   21985
 
     Using Slab Decomposition
 


     bravais-lattice index     =            0
     lattice parameter (alat)  =       1.8897  a.u.
     unit-cell volume          =    6658.9804 (a.u.)^3
     number of atoms/cell      =           53
     number of atomic types    =            5
     number of electrons       =       391.00
     number of Kohn-Sham states=          205
     kinetic-energy cutoff     =      29.3995  Ry
     charge density cutoff     =     293.9946  Ry
     scf convergence threshold =      7.3E-08
     mixing beta               =       0.0500
     number of iterations used =            8  plain     mixing
     Exchange-correlation= BEEF-VDW
                           (   1   4  43  14   2   0   0)

     celldm(1)=   1.889726  celldm(2)=   0.000000  celldm(3)=   0.000000
     celldm(4)=   0.000000  celldm(5)=   0.000000  celldm(6)=   0.000000

     crystal axes: (cart. coord. in units of alat)
               a(1) = (   6.579727   0.000000   0.000000 )  
               a(2) = (  -0.000775   5.961596   0.000000 )  
               a(3) = (   0.000000   0.000000  25.155947 )  

     reciprocal axes: (cart. coord. in units 2 pi/alat)
               b(1) = (  0.151982  0.000020  0.000000 )  
               b(2) = (  0.000000  0.167740  0.000000 )  
               b(3) = (  0.000000  0.000000  0.039752 )  


     PseudoPot. # 1 for Ti read from file:
     /storage/coda1/p-amedford6/0/shared/rich_project_chbe-medford/medford-share/data/pseudos_module/espresso/nninc/pbe/van/Ti.UPF
     MD5 check sum: 8e4df49b7f0d34bbd5052bf3f5ea0213
     Pseudo is Ultrasoft, Zval = 12.0
     Generated by new atomic code, or converted to UPF format
     Using radial grid of  851 points,  6 beta functions with: 
                l(1) =   0
                l(2) =   0
                l(3) =   1
                l(4) =   1
                l(5) =   2
                l(6) =   2
     Q(r) pseudized with  8 coefficients,  rinner =    1.000   1.000   1.000
                                                       1.000   1.000

     PseudoPot. # 2 for O  read from file:
     /storage/coda1/p-amedford6/0/shared/rich_project_chbe-medford/medford-share/data/pseudos_module/espresso/nninc/pbe/van/O.UPF
     MD5 check sum: 78c19812648e8988a0fe644b0f25305e
     Pseudo is Ultrasoft, Zval =  6.0
     Generated by new atomic code, or converted to UPF format
     Using radial grid of  737 points,  4 beta functions with: 
                l(1) =   0
                l(2) =   0
                l(3) =   1
                l(4) =   1
     Q(r) pseudized with  8 coefficients,  rinner =    0.800   0.800   0.800


     PseudoPot. # 3 for H  read from file:
     /storage/coda1/p-amedford6/0/shared/rich_project_chbe-medford/medford-share/data/pseudos_module/espresso/nninc/pbe/van/H.UPF
     MD5 check sum: b5ee9d7bfd3a09ee7748110bda690ff7
     Pseudo is Ultrasoft, Zval =  1.0
     Generated by new atomic code, or converted to UPF format
     Using radial grid of  615 points,  1 beta functions with: 
                l(1) =   0
     Q(r) pseudized with  8 coefficients,  rinner =    0.800

     PseudoPot. # 4 for N  read from file:
     /storage/coda1/p-amedford6/0/shared/rich_project_chbe-medford/medford-share/data/pseudos_module/espresso/nninc/pbe/van/N.UPF
     MD5 check sum: 90d10febe142ad51ac9d5be1deb811c4
     Pseudo is Ultrasoft, Zval =  5.0
     Generated by new atomic code, or converted to UPF format
     Using radial grid of  729 points,  4 beta functions with: 
                l(1) =   0
                l(2) =   0
                l(3) =   1
                l(4) =   1
     Q(r) pseudized with  8 coefficients,  rinner =    0.800   0.800   0.800


     PseudoPot. # 5 for C  read from file:
     /storage/coda1/p-amedford6/0/shared/rich_project_chbe-medford/medford-share/data/pseudos_module/espresso/nninc/pbe/van/C.UPF
     MD5 check sum: 1a69bf6b8db32088f5b2163dbdb77a27
     Pseudo is Ultrasoft, Zval =  4.0
     Generated by new atomic code, or converted to UPF format
     Using radial grid of  721 points,  4 beta functions with: 
                l(1) =   0
                l(2) =   0
                l(3) =   1
                l(4) =   1
     Q(r) pseudized with  8 coefficients,  rinner =    0.800   0.800   0.800


     atomic species   valence    mass     pseudopotential
        Ti1           12.00    47.86700     Ti( 1.00)
        O1             6.00    15.99900     O ( 1.00)
        H1             1.00     1.00800     H ( 1.00)
        N1             5.00    14.00700     N ( 1.00)
        C1             4.00    12.01100     C ( 1.00)

     No symmetry found



   Cartesian axes

     site n.     atom                  positions (alat units)
         1           Ti1 tau(   1) = (   0.0004258   2.9801865   6.0000000  )
         2           Ti1 tau(   2) = (   3.2906075   1.4906267   6.0002472  )
         3           O1  tau(   3) = (   0.0006271   0.0005054   7.9858123  )
         4           O1  tau(   4) = (   3.2906025   0.0005020   7.3038282  )
         5           O1  tau(   5) = (   4.5942328   1.4918067   9.2879030  )
         6           O1  tau(   6) = (   1.9868534   1.4903216   9.2879459  )
         7           Ti1 tau(   7) = (   3.2907910   2.8959150   9.1758416  )
         8           Ti1 tau(   8) = (   0.0015273   1.4827037   9.2680791  )
         9           O1  tau(   9) = (   3.3750462   0.0034689  11.3324641  )
        10           O1  tau(  10) = (   0.0116148   5.9584955  10.6183126  )
        11           O1  tau(  11) = (   1.3977860   1.4758343  12.6375763  )
        12           O1  tau(  12) = (   5.4232152   1.4913549  12.6657899  )
        13           Ti1 tau(  13) = (   0.0691229   2.9530050  12.5389017  )
        14           Ti1 tau(  14) = (   3.3643908   1.4039863  12.4577757  )
        15           O1  tau(  15) = (   0.1477665   0.0132832  14.6652528  )
        16           O1  tau(  16) = (   3.5189244   0.0045933  13.9158019  )
        17           O1  tau(  17) = (   4.7861523   1.5333885  16.1913275  )
        18           O1  tau(  18) = (   2.2541876   1.4026900  15.9427082  )
        19           Ti1 tau(  19) = (   3.5811307   2.9972434  16.0687679  )
        20           Ti1 tau(  20) = (   0.2998503   1.4255696  15.8726171  )
        21           O1  tau(  21) = (   3.2904802   0.0005063   4.7018136  )
        22           O1  tau(  22) = (   0.2643450   0.0038197  17.1846268  )
        23           O1  tau(  23) = (   1.3043587   1.4918075   6.0039043  )
        24           O1  tau(  24) = (   5.2767064   1.4903225   6.0039473  )
        25           Ti1 tau(  25) = (   0.0000382   5.9609847   6.0000000  )
        26           Ti1 tau(  26) = (   3.2902200   4.4714249   6.0002472  )
        27           O1  tau(  27) = (   0.0002396   2.9813036   7.9858123  )
        28           O1  tau(  28) = (   3.2902150   2.9813002   7.3038282  )
        29           O1  tau(  29) = (   4.5938453   4.4726049   9.2879030  )
        30           O1  tau(  30) = (   1.9864658   4.4711199   9.2879459  )
        31           Ti1 tau(  31) = (   3.2891106   5.8743827   9.1763621  )
        32           Ti1 tau(  32) = (   0.0006254   4.4649316   9.2693709  )
        33           O1  tau(  33) = (   3.3836021   2.9593565  11.3526375  )
        34           O1  tau(  34) = (   0.0092240   2.9805883  10.6323155  )
        35           O1  tau(  35) = (   1.3957467   4.4736095  12.6396340  )
        36           O1  tau(  36) = (   5.4261019   4.4541359  12.6685409  )
        37           Ti1 tau(  37) = (   0.0939275   5.9312067  12.4916740  )
        38           Ti1 tau(  38) = (   3.3665170   4.3046527  12.6650499  )
        39           O1  tau(  39) = (   0.1734719   2.9828917  14.8532074  )
        40           O1  tau(  40) = (   3.4150578   3.0309863  13.9715028  )
        41           O1  tau(  41) = (   4.7877001   4.4493464  16.1994792  )
        42           O1  tau(  42) = (   2.2536850   4.5881152  15.9586447  )
        43           Ti1 tau(  43) = (   3.5332629   0.0183730  15.6991940  )
        44           Ti1 tau(  44) = (   0.2986595   4.6220906  15.9451660  )
        45           O1  tau(  45) = (   3.2900926   2.9813045   4.7018136  )
        46           O1  tau(  46) = (   1.3039711   4.4726057   6.0039043  )
        47           O1  tau(  47) = (   5.2763189   4.4711207   6.0039473  )
        48           H1  tau(  48) = (   0.6716682   3.7174429  18.3517054  )
        49           H1  tau(  49) = (   0.7299512   2.1188458  18.2939656  )
        50           N1  tau(  50) = (   1.0883034   2.9530349  17.8291855  )
        51           C1  tau(  51) = (   2.6610371   2.9951180  18.0825860  )
        52           H1  tau(  52) = (   2.6895649   3.8224559  18.7561578  )
        53           H1  tau(  53) = (   2.7295784   2.2142559  18.8115579  )

     number of k points=    10  Fermi-Dirac smearing, width (Ry)=  0.0073
                       cart. coord. in units 2pi/alat
        k(    1) = (   0.0000000   0.0000000   0.0000000), wk =   0.1250000
        k(    2) = (   0.0000000   0.0419351   0.0000000), wk =   0.2500000
        k(    3) = (   0.0000000  -0.0838702   0.0000000), wk =   0.1250000
        k(    4) = (   0.0379955   0.0000049   0.0000000), wk =   0.2500000
        k(    5) = (   0.0379955   0.0419400   0.0000000), wk =   0.2500000
        k(    6) = (   0.0379955  -0.0838652   0.0000000), wk =   0.2500000
        k(    7) = (   0.0379955  -0.0419301   0.0000000), wk =   0.2500000
        k(    8) = (  -0.0759910  -0.0000099   0.0000000), wk =   0.1250000
        k(    9) = (  -0.0759910   0.0419252   0.0000000), wk =   0.2500000
        k(   10) = (  -0.0759910  -0.0838800   0.0000000), wk =   0.1250000

     Dense  grid:   566857 G-vectors     FFT dimensions: (  72,  64, 270)

     Smooth grid:   143421 G-vectors     FFT dimensions: (  45,  40, 180)

     Estimated max dynamical RAM per process >     451.58 MB

     Estimated total dynamical RAM >       3.53 GB
     Cannot read rho : file not found

     Initial potential from superposition of free atoms

     starting charge  374.99916, renormalised to  391.00000

     negative rho (up, down):  1.820E-02 0.000E+00


     %%%%%%%%%%%%%%%%%%%%%%%%%%%%%%%%%%%%%%%%%%%%%%%%%%%%%%%%%%%%%%%%%%%%%%%%
     %                                                                      %
     % You are using vdW-DF, which was implemented by the Thonhauser group. %
     % Please cite the following two papers that made this development      %
     % possible and the two reviews that describe the various versions:     %
     %                                                                      %
     %   T. Thonhauser et al., PRL 115, 136402 (2015).                      %
     %   T. Thonhauser et al., PRB 76, 125112 (2007).                       %
     %   K. Berland et al., Rep. Prog. Phys. 78, 066501 (2015).             %
     %   D.C. Langreth et al., J. Phys.: Condens. Matter 21, 084203 (2009). %
     %                                                                      %
     %                                                                      %
     % If you are calculating the stress with vdW-DF, please also cite:     %
     %                                                                      %
     %   R. Sabatini et al., J. Phys.: Condens. Matter 24, 424209 (2012).   %
     %                                                                      %
     %%%%%%%%%%%%%%%%%%%%%%%%%%%%%%%%%%%%%%%%%%%%%%%%%%%%%%%%%%%%%%%%%%%%%%%%


 
     Adding external electric field

     Computed dipole along edir(3) : 
        Dipole               -5.7414 Ry au,        -14.5931 Debye
        Dipole field         -0.0108 Ry au, 
 
        Potential amp.        1.0044 Ry
        Total length         46.3494 bohr
 
     Starting wfcs are  296 atomic wfcs
  @ DRIVER MODE: Message from server: STATUS
  @ DRIVER MODE: Message from server: POSDATA
  @ DRIVER MODE: Reading and sharing cell 
  @ DRIVER MODE: Reading and sharing positions 
  @ DRIVER MODE: Received positions 

     total cpu time spent up to now is       13.9 secs

     Self-consistent Calculation

     iteration #  1     ecut=    29.40 Ry     beta= 0.05
     Davidson diagonalization with overlap
     c_bands:  1 eigenvalues not converged
     c_bands:  5 eigenvalues not converged
     c_bands:  2 eigenvalues not converged
     c_bands:  2 eigenvalues not converged
     c_bands:  2 eigenvalues not converged
     c_bands:  2 eigenvalues not converged
     ethr =  1.00E-05,  avg # of iterations = 20.7

     negative rho (up, down):  1.747E-02 0.000E+00
 
     Adding external electric field

     Computed dipole along edir(3) : 
        Dipole               26.2840 Ry au,         66.8072 Debye
        Dipole field          0.0496 Ry au, 
 
        Potential amp.       -4.5980 Ry
        Total length         46.3494 bohr
 

     total cpu time spent up to now is       62.3 secs

     total energy              =   -2767.61489920 Ry
     estimated scf accuracy    <    1676.48320817 Ry

     iteration #  2     ecut=    29.40 Ry     beta= 0.05
     Davidson diagonalization with overlap
     c_bands:  1 eigenvalues not converged
     ethr =  1.00E-02,  avg # of iterations = 19.2

     negative rho (up, down):  7.471E-03 0.000E+00
 
     Adding external electric field

     Computed dipole along edir(3) : 
        Dipole               -2.2252 Ry au,         -5.6558 Debye
        Dipole field         -0.0042 Ry au, 
 
        Potential amp.        0.3893 Ry
        Total length         46.3494 bohr
 

     total cpu time spent up to now is      118.1 secs

     total energy              =   -2640.97179509 Ry
     estimated scf accuracy    <   36928.42901559 Ry

     iteration #  3     ecut=    29.40 Ry     beta= 0.05
     Davidson diagonalization with overlap
     ethr =  1.00E-02,  avg # of iterations = 14.6

     negative rho (up, down):  7.519E-03 0.000E+00
 
     Adding external electric field

     Computed dipole along edir(3) : 
        Dipole               -3.4244 Ry au,         -8.7040 Debye
        Dipole field         -0.0065 Ry au, 
 
        Potential amp.        0.5991 Ry
        Total length         46.3494 bohr
 

     total cpu time spent up to now is      164.8 secs

     total energy              =   -2907.85310378 Ry
     estimated scf accuracy    <    1390.95457425 Ry

     iteration #  4     ecut=    29.40 Ry     beta= 0.05
     Davidson diagonalization with overlap
     ethr =  1.00E-02,  avg # of iterations =  7.1

     negative rho (up, down):  7.630E-03 0.000E+00
 
     Adding external electric field

     Computed dipole along edir(3) : 
        Dipole               -4.4305 Ry au,        -11.2612 Debye
        Dipole field         -0.0084 Ry au, 
 
        Potential amp.        0.7750 Ry
        Total length         46.3494 bohr
 

     total cpu time spent up to now is      180.1 secs

     total energy              =   -2901.90072554 Ry
     estimated scf accuracy    <     971.78466135 Ry

     iteration #  5     ecut=    29.40 Ry     beta= 0.05
     Davidson diagonalization with overlap
     ethr =  1.00E-02,  avg # of iterations =  9.2

     negative rho (up, down):  7.538E-03 0.000E+00
 
     Adding external electric field

     Computed dipole along edir(3) : 
        Dipole               -4.1704 Ry au,        -10.6002 Debye
        Dipole field         -0.0079 Ry au, 
 
        Potential amp.        0.7296 Ry
        Total length         46.3494 bohr
 

     total cpu time spent up to now is      202.3 secs

     total energy              =   -2922.55498787 Ry
     estimated scf accuracy    <      12.87265899 Ry

     iteration #  6     ecut=    29.40 Ry     beta= 0.05
     Davidson diagonalization with overlap
     ethr =  3.29E-03,  avg # of iterations =  2.2

     negative rho (up, down):  7.616E-03 0.000E+00
 
     Adding external electric field

     Computed dipole along edir(3) : 
        Dipole               -1.5975 Ry au,         -4.0604 Debye
        Dipole field         -0.0030 Ry au, 
 
        Potential amp.        0.2795 Ry
        Total length         46.3494 bohr
 

     total cpu time spent up to now is      215.6 secs

     total energy              =   -2918.26692861 Ry
     estimated scf accuracy    <      11.73918850 Ry

     iteration #  7     ecut=    29.40 Ry     beta= 0.05
     Davidson diagonalization with overlap
     c_bands:  1 eigenvalues not converged
     ethr =  3.00E-03,  avg # of iterations = 12.5

     negative rho (up, down):  7.604E-03 0.000E+00
 
     Adding external electric field

     Computed dipole along edir(3) : 
        Dipole               -1.4236 Ry au,         -3.6185 Debye
        Dipole field         -0.0027 Ry au, 
 
        Potential amp.        0.2490 Ry
        Total length         46.3494 bohr
 

     total cpu time spent up to now is      237.4 secs

     total energy              =   -2923.95128872 Ry
     estimated scf accuracy    <     246.36836527 Ry

     iteration #  8     ecut=    29.40 Ry     beta= 0.05
     Davidson diagonalization with overlap
     ethr =  3.00E-03,  avg # of iterations =  2.2

     negative rho (up, down):  7.560E-03 0.000E+00
 
     Adding external electric field

     Computed dipole along edir(3) : 
        Dipole               -2.4440 Ry au,         -6.2119 Debye
        Dipole field         -0.0046 Ry au, 
 
        Potential amp.        0.4275 Ry
        Total length         46.3494 bohr
 

     total cpu time spent up to now is      250.6 secs

     total energy              =   -2917.62676126 Ry
     estimated scf accuracy    <     358.29671013 Ry

     iteration #  9     ecut=    29.40 Ry     beta= 0.05
     Davidson diagonalization with overlap
     ethr =  3.00E-03,  avg # of iterations =  7.5

     negative rho (up, down):  7.557E-03 0.000E+00
 
     Adding external electric field

     Computed dipole along edir(3) : 
        Dipole               -2.4850 Ry au,         -6.3163 Debye
        Dipole field         -0.0047 Ry au, 
 
        Potential amp.        0.4347 Ry
        Total length         46.3494 bohr
 

     total cpu time spent up to now is      265.6 secs

     total energy              =   -2919.05828176 Ry
     estimated scf accuracy    <     111.25589205 Ry

     iteration # 10     ecut=    29.40 Ry     beta= 0.05
     Davidson diagonalization with overlap
     ethr =  3.00E-03,  avg # of iterations =  2.2

     negative rho (up, down):  7.617E-03 0.000E+00
 
     Adding external electric field

     Computed dipole along edir(3) : 
        Dipole               -3.2727 Ry au,         -8.3183 Debye
        Dipole field         -0.0062 Ry au, 
 
        Potential amp.        0.5725 Ry
        Total length         46.3494 bohr
 

     total cpu time spent up to now is      278.3 secs

     total energy              =   -2915.76514746 Ry
     estimated scf accuracy    <     118.15695265 Ry

     iteration # 11     ecut=    29.40 Ry     beta= 0.05
     Davidson diagonalization with overlap
     ethr =  3.00E-03,  avg # of iterations = 15.5

     negative rho (up, down):  7.603E-03 0.000E+00
 
     Adding external electric field

     Computed dipole along edir(3) : 
        Dipole               -3.3577 Ry au,         -8.5344 Debye
        Dipole field         -0.0063 Ry au, 
 
        Potential amp.        0.5874 Ry
        Total length         46.3494 bohr
 

     total cpu time spent up to now is      302.6 secs

     total energy              =   -2920.76741493 Ry
     estimated scf accuracy    <      10.98897414 Ry

     iteration # 12     ecut=    29.40 Ry     beta= 0.05
     Davidson diagonalization with overlap
     ethr =  2.81E-03,  avg # of iterations =  1.5

     negative rho (up, down):  7.533E-03 0.000E+00
 
     Adding external electric field

     Computed dipole along edir(3) : 
        Dipole               -3.0282 Ry au,         -7.6970 Debye
        Dipole field         -0.0057 Ry au, 
 
        Potential amp.        0.5297 Ry
        Total length         46.3494 bohr
 

     total cpu time spent up to now is      315.2 secs

     total energy              =   -2920.47825555 Ry
     estimated scf accuracy    <      15.66626763 Ry

     iteration # 13     ecut=    29.40 Ry     beta= 0.05
     Davidson diagonalization with overlap
     ethr =  2.81E-03,  avg # of iterations =  1.0

     negative rho (up, down):  7.597E-03 0.000E+00
 
     Adding external electric field

     Computed dipole along edir(3) : 
        Dipole               -2.2240 Ry au,         -5.6530 Debye
        Dipole field         -0.0042 Ry au, 
 
        Potential amp.        0.3891 Ry
        Total length         46.3494 bohr
 

     total cpu time spent up to now is      327.5 secs

     total energy              =   -2920.31550961 Ry
     estimated scf accuracy    <       3.49296589 Ry

     iteration # 14     ecut=    29.40 Ry     beta= 0.05
     Davidson diagonalization with overlap
     ethr =  8.93E-04,  avg # of iterations =  2.1

     negative rho (up, down):  7.761E-03 0.000E+00
 
     Adding external electric field

     Computed dipole along edir(3) : 
        Dipole               -1.2703 Ry au,         -3.2289 Debye
        Dipole field         -0.0024 Ry au, 
 
        Potential amp.        0.2222 Ry
        Total length         46.3494 bohr
 

     total cpu time spent up to now is      340.6 secs

     total energy              =   -2920.21686767 Ry
     estimated scf accuracy    <       1.53948899 Ry

     iteration # 15     ecut=    29.40 Ry     beta= 0.05
     Davidson diagonalization with overlap
     ethr =  3.94E-04,  avg # of iterations =  9.8

     negative rho (up, down):  7.963E-03 0.000E+00
 
     Adding external electric field

     Computed dipole along edir(3) : 
        Dipole               -0.7535 Ry au,         -1.9153 Debye
        Dipole field         -0.0014 Ry au, 
 
        Potential amp.        0.1318 Ry
        Total length         46.3494 bohr
 

     total cpu time spent up to now is      356.9 secs

     total energy              =   -2920.31864213 Ry
     estimated scf accuracy    <       0.80438947 Ry

     iteration # 16     ecut=    29.40 Ry     beta= 0.05
     Davidson diagonalization with overlap
     c_bands:  1 eigenvalues not converged
     ethr =  2.06E-04,  avg # of iterations = 11.6

     negative rho (up, down):  7.999E-03 0.000E+00
 
     Adding external electric field

     Computed dipole along edir(3) : 
        Dipole               -0.7445 Ry au,         -1.8922 Debye
        Dipole field         -0.0014 Ry au, 
 
        Potential amp.        0.1302 Ry
        Total length         46.3494 bohr
 

     total cpu time spent up to now is      374.3 secs

     total energy              =   -2920.35913438 Ry
     estimated scf accuracy    <       0.99366296 Ry

     iteration # 17     ecut=    29.40 Ry     beta= 0.05
     Davidson diagonalization with overlap
     ethr =  2.06E-04,  avg # of iterations =  1.5

     negative rho (up, down):  8.043E-03 0.000E+00
 
     Adding external electric field

     Computed dipole along edir(3) : 
        Dipole               -0.7872 Ry au,         -2.0008 Debye
        Dipole field         -0.0015 Ry au, 
 
        Potential amp.        0.1377 Ry
        Total length         46.3494 bohr
 

     total cpu time spent up to now is      387.0 secs

     total energy              =   -2920.37930061 Ry
     estimated scf accuracy    <       1.13316109 Ry

     iteration # 18     ecut=    29.40 Ry     beta= 0.05
     Davidson diagonalization with overlap
     ethr =  2.06E-04,  avg # of iterations =  1.7

     negative rho (up, down):  9.569E-03 0.000E+00
 
     Adding external electric field

     Computed dipole along edir(3) : 
        Dipole               -0.8147 Ry au,         -2.0707 Debye
        Dipole field         -0.0015 Ry au, 
 
        Potential amp.        0.1425 Ry
        Total length         46.3494 bohr
 

     total cpu time spent up to now is      399.9 secs

     total energy              =   -2920.47628270 Ry
     estimated scf accuracy    <       1.23108714 Ry

     iteration # 19     ecut=    29.40 Ry     beta= 0.05
     Davidson diagonalization with overlap
     ethr =  2.06E-04,  avg # of iterations = 12.9

     negative rho (up, down):  8.038E-03 0.000E+00
 
     Adding external electric field

     Computed dipole along edir(3) : 
        Dipole               -0.3005 Ry au,         -0.7638 Debye
        Dipole field         -0.0006 Ry au, 
 
        Potential amp.        0.0526 Ry
        Total length         46.3494 bohr
 

     total cpu time spent up to now is      418.3 secs

     total energy              =   -2920.05263349 Ry
     estimated scf accuracy    <       3.53796692 Ry

     iteration # 20     ecut=    29.40 Ry     beta= 0.05
     Davidson diagonalization with overlap
     c_bands:  1 eigenvalues not converged
     c_bands:  1 eigenvalues not converged
     c_bands:  1 eigenvalues not converged
     c_bands:  1 eigenvalues not converged
     c_bands:  1 eigenvalues not converged
     ethr =  2.06E-04,  avg # of iterations = 18.5

     negative rho (up, down):  7.872E-03 0.000E+00
 
     Adding external electric field

     Computed dipole along edir(3) : 
        Dipole               -0.5941 Ry au,         -1.5100 Debye
        Dipole field         -0.0011 Ry au, 
 
        Potential amp.        0.1039 Ry
        Total length         46.3494 bohr
 

     total cpu time spent up to now is      441.2 secs

     total energy              =   -2920.25377535 Ry
     estimated scf accuracy    <       0.57398669 Ry

     iteration # 21     ecut=    29.40 Ry     beta= 0.05
     Davidson diagonalization with overlap
     ethr =  1.47E-04,  avg # of iterations =  6.9

     negative rho (up, down):  7.965E-03 0.000E+00
 
     Adding external electric field

     Computed dipole along edir(3) : 
        Dipole               -0.4919 Ry au,         -1.2503 Debye
        Dipole field         -0.0009 Ry au, 
 
        Potential amp.        0.0861 Ry
        Total length         46.3494 bohr
 

     total cpu time spent up to now is      456.2 secs

     total energy              =   -2920.26041374 Ry
     estimated scf accuracy    <       0.32409979 Ry

     iteration # 22     ecut=    29.40 Ry     beta= 0.05
     Davidson diagonalization with overlap
     c_bands:  1 eigenvalues not converged
     c_bands:  1 eigenvalues not converged
     ethr =  8.29E-05,  avg # of iterations = 16.6

     negative rho (up, down):  8.741E-03 0.000E+00
 
     Adding external electric field

     Computed dipole along edir(3) : 
        Dipole                0.2832 Ry au,          0.7198 Debye
        Dipole field          0.0005 Ry au, 
 
        Potential amp.       -0.0495 Ry
        Total length         46.3494 bohr
 

     total cpu time spent up to now is      476.1 secs

     total energy              =   -2920.26050247 Ry
     estimated scf accuracy    <       0.48577850 Ry

     iteration # 23     ecut=    29.40 Ry     beta= 0.05
     Davidson diagonalization with overlap
     ethr =  8.29E-05,  avg # of iterations =  7.4

     negative rho (up, down):  9.776E-03 0.000E+00
 
     Adding external electric field

     Computed dipole along edir(3) : 
        Dipole                0.7298 Ry au,          1.8548 Debye
        Dipole field          0.0014 Ry au, 
 
        Potential amp.       -0.1277 Ry
        Total length         46.3494 bohr
 

     total cpu time spent up to now is      491.2 secs

     total energy              =   -2920.27168839 Ry
     estimated scf accuracy    <       0.23088526 Ry

     iteration # 24     ecut=    29.40 Ry     beta= 0.05
     Davidson diagonalization with overlap
     c_bands:  4 eigenvalues not converged
     c_bands:  3 eigenvalues not converged
     c_bands:  4 eigenvalues not converged
     c_bands:  4 eigenvalues not converged
     ethr =  5.90E-05,  avg # of iterations = 17.5

     negative rho (up, down):  9.717E-03 0.000E+00
 
     Adding external electric field

     Computed dipole along edir(3) : 
        Dipole                0.7734 Ry au,          1.9657 Debye
        Dipole field          0.0015 Ry au, 
 
        Potential amp.       -0.1353 Ry
        Total length         46.3494 bohr
 

     total cpu time spent up to now is      511.7 secs

     total energy              =   -2920.31593437 Ry
     estimated scf accuracy    <       0.24332294 Ry

     iteration # 25     ecut=    29.40 Ry     beta= 0.05
     Davidson diagonalization with overlap
     c_bands:  2 eigenvalues not converged
     c_bands:  4 eigenvalues not converged
     c_bands:  2 eigenvalues not converged
     c_bands:  1 eigenvalues not converged
     c_bands:  3 eigenvalues not converged
     c_bands:  2 eigenvalues not converged
     c_bands:  2 eigenvalues not converged
     c_bands:  1 eigenvalues not converged
     ethr =  5.90E-05,  avg # of iterations = 21.2

     negative rho (up, down):  1.046E-02 0.000E+00
 
     Adding external electric field

     Computed dipole along edir(3) : 
        Dipole                0.8619 Ry au,          2.1907 Debye
        Dipole field          0.0016 Ry au, 
 
        Potential amp.       -0.1508 Ry
        Total length         46.3494 bohr
 

     total cpu time spent up to now is      535.5 secs

     total energy              =   -2920.31482577 Ry
     estimated scf accuracy    <       0.57357909 Ry

     iteration # 26     ecut=    29.40 Ry     beta= 0.05
     Davidson diagonalization with overlap
     c_bands:  2 eigenvalues not converged
     c_bands:  4 eigenvalues not converged
     c_bands:  2 eigenvalues not converged
     c_bands:  1 eigenvalues not converged
     ethr =  5.90E-05,  avg # of iterations = 17.3

     negative rho (up, down):  1.012E-02 0.000E+00
 
     Adding external electric field

     Computed dipole along edir(3) : 
        Dipole                0.9175 Ry au,          2.3321 Debye
        Dipole field          0.0017 Ry au, 
 
        Potential amp.       -0.1605 Ry
        Total length         46.3494 bohr
 

     total cpu time spent up to now is      555.9 secs

     total energy              =   -2920.27916796 Ry
     estimated scf accuracy    <       0.81950792 Ry

     iteration # 27     ecut=    29.40 Ry     beta= 0.05
     Davidson diagonalization with overlap
     ethr =  5.90E-05,  avg # of iterations = 12.0

     negative rho (up, down):  1.004E-02 0.000E+00
 
     Adding external electric field

     Computed dipole along edir(3) : 
        Dipole                0.8721 Ry au,          2.2167 Debye
        Dipole field          0.0016 Ry au, 
 
        Potential amp.       -0.1526 Ry
        Total length         46.3494 bohr
 

     total cpu time spent up to now is      573.1 secs

     total energy              =   -2920.28066119 Ry
     estimated scf accuracy    <       0.65062865 Ry

     iteration # 28     ecut=    29.40 Ry     beta= 0.05
     Davidson diagonalization with overlap
     c_bands:  1 eigenvalues not converged
     c_bands:  5 eigenvalues not converged
     ethr =  5.90E-05,  avg # of iterations =  9.7

     negative rho (up, down):  1.248E-02 0.000E+00
 
     Adding external electric field

     Computed dipole along edir(3) : 
        Dipole                0.8690 Ry au,          2.2088 Debye
        Dipole field          0.0016 Ry au, 
 
        Potential amp.       -0.1520 Ry
        Total length         46.3494 bohr
 

     total cpu time spent up to now is      589.2 secs

     total energy              =   -2920.27315149 Ry
     estimated scf accuracy    <       0.76244797 Ry

     iteration # 29     ecut=    29.40 Ry     beta= 0.05
     Davidson diagonalization with overlap
     c_bands:  1 eigenvalues not converged
     c_bands:  1 eigenvalues not converged
     c_bands:  1 eigenvalues not converged
     ethr =  5.90E-05,  avg # of iterations = 16.1

     negative rho (up, down):  1.122E-02 0.000E+00
 
     Adding external electric field

     Computed dipole along edir(3) : 
        Dipole                0.7087 Ry au,          1.8014 Debye
        Dipole field          0.0013 Ry au, 
 
        Potential amp.       -0.1240 Ry
        Total length         46.3494 bohr
 

     total cpu time spent up to now is      608.4 secs

     total energy              =   -2920.27661201 Ry
     estimated scf accuracy    <       0.35957372 Ry

     iteration # 30     ecut=    29.40 Ry     beta= 0.05
     Davidson diagonalization with overlap
     ethr =  5.90E-05,  avg # of iterations =  3.8

     negative rho (up, down):  1.105E-02 0.000E+00
 
     Adding external electric field

     Computed dipole along edir(3) : 
        Dipole                0.5821 Ry au,          1.4796 Debye
        Dipole field          0.0011 Ry au, 
 
        Potential amp.       -0.1018 Ry
        Total length         46.3494 bohr
 

     total cpu time spent up to now is      622.1 secs

     total energy              =   -2920.28723287 Ry
     estimated scf accuracy    <       0.17417181 Ry

     iteration # 31     ecut=    29.40 Ry     beta= 0.05
     Davidson diagonalization with overlap
     c_bands:  3 eigenvalues not converged
     c_bands:  5 eigenvalues not converged
     c_bands:  4 eigenvalues not converged
     c_bands:  1 eigenvalues not converged
     c_bands:  2 eigenvalues not converged
     ethr =  4.45E-05,  avg # of iterations = 15.0

     negative rho (up, down):  1.114E-02 0.000E+00
 
     Adding external electric field

     Computed dipole along edir(3) : 
        Dipole                0.7495 Ry au,          1.9051 Debye
        Dipole field          0.0014 Ry au, 
 
        Potential amp.       -0.1311 Ry
        Total length         46.3494 bohr
 

     total cpu time spent up to now is      640.6 secs

     total energy              =   -2920.27273286 Ry
     estimated scf accuracy    <       0.22797882 Ry

     iteration # 32     ecut=    29.40 Ry     beta= 0.05
     Davidson diagonalization with overlap
     ethr =  4.45E-05,  avg # of iterations =  6.6

     negative rho (up, down):  1.161E-02 0.000E+00
 
     Adding external electric field

     Computed dipole along edir(3) : 
        Dipole                0.7616 Ry au,          1.9359 Debye
        Dipole field          0.0014 Ry au, 
 
        Potential amp.       -0.1332 Ry
        Total length         46.3494 bohr
 

     total cpu time spent up to now is      655.3 secs

     total energy              =   -2920.27377747 Ry
     estimated scf accuracy    <       0.15674157 Ry

     iteration # 33     ecut=    29.40 Ry     beta= 0.05
     Davidson diagonalization with overlap
     ethr =  4.01E-05,  avg # of iterations =  4.2

     negative rho (up, down):  1.370E-02 0.000E+00
 
     Adding external electric field

     Computed dipole along edir(3) : 
        Dipole                1.0065 Ry au,          2.5582 Debye
        Dipole field          0.0019 Ry au, 
 
        Potential amp.       -0.1761 Ry
        Total length         46.3494 bohr
 

     total cpu time spent up to now is      668.9 secs

     total energy              =   -2920.25869371 Ry
     estimated scf accuracy    <       0.09630378 Ry

     iteration # 34     ecut=    29.40 Ry     beta= 0.05
     Davidson diagonalization with overlap
     c_bands:  3 eigenvalues not converged
     c_bands:  4 eigenvalues not converged
     c_bands:  2 eigenvalues not converged
     c_bands:  1 eigenvalues not converged
     ethr =  2.46E-05,  avg # of iterations = 18.6

     negative rho (up, down):  2.077E-02 0.000E+00
 
     Adding external electric field

     Computed dipole along edir(3) : 
        Dipole                1.0288 Ry au,          2.6149 Debye
        Dipole field          0.0019 Ry au, 
 
        Potential amp.       -0.1800 Ry
        Total length         46.3494 bohr
 

     total cpu time spent up to now is      695.3 secs

     total energy              =   -2920.26233783 Ry
     estimated scf accuracy    <       0.14028969 Ry

     iteration # 35     ecut=    29.40 Ry     beta= 0.05
     Davidson diagonalization with overlap
     c_bands:  1 eigenvalues not converged
     c_bands:  3 eigenvalues not converged
     c_bands:  2 eigenvalues not converged
     ethr =  2.46E-05,  avg # of iterations = 17.0

     negative rho (up, down):  1.989E-02 0.000E+00
 
     Adding external electric field

     Computed dipole along edir(3) : 
        Dipole                0.9370 Ry au,          2.3817 Debye
        Dipole field          0.0018 Ry au, 
 
        Potential amp.       -0.1639 Ry
        Total length         46.3494 bohr
 

     total cpu time spent up to now is      715.6 secs

     total energy              =   -2920.26629216 Ry
     estimated scf accuracy    <       0.05130767 Ry

     iteration # 36     ecut=    29.40 Ry     beta= 0.05
     Davidson diagonalization with overlap
     c_bands:  1 eigenvalues not converged
     c_bands:  1 eigenvalues not converged
     c_bands:  3 eigenvalues not converged
     c_bands:  1 eigenvalues not converged
     c_bands:  2 eigenvalues not converged
     c_bands:  2 eigenvalues not converged
     c_bands:  1 eigenvalues not converged
     ethr =  1.31E-05,  avg # of iterations = 17.9

     negative rho (up, down):  1.679E-02 0.000E+00
 
     Adding external electric field

     Computed dipole along edir(3) : 
        Dipole                0.9235 Ry au,          2.3473 Debye
        Dipole field          0.0017 Ry au, 
 
        Potential amp.       -0.1616 Ry
        Total length         46.3494 bohr
 

     total cpu time spent up to now is      738.5 secs

     total energy              =   -2920.26763582 Ry
     estimated scf accuracy    <       0.04496234 Ry

     iteration # 37     ecut=    29.40 Ry     beta= 0.05
     Davidson diagonalization with overlap
     ethr =  1.15E-05,  avg # of iterations = 10.4

     negative rho (up, down):  1.564E-02 0.000E+00
 
     Adding external electric field

     Computed dipole along edir(3) : 
        Dipole                0.9971 Ry au,          2.5343 Debye
        Dipole field          0.0019 Ry au, 
 
        Potential amp.       -0.1744 Ry
        Total length         46.3494 bohr
 

     total cpu time spent up to now is      754.5 secs

     total energy              =   -2920.26575423 Ry
     estimated scf accuracy    <       0.01247611 Ry

     iteration # 38     ecut=    29.40 Ry     beta= 0.05
     Davidson diagonalization with overlap
     c_bands:  2 eigenvalues not converged
     c_bands:  5 eigenvalues not converged
     c_bands:  4 eigenvalues not converged
     c_bands:  4 eigenvalues not converged
     c_bands:  3 eigenvalues not converged
     c_bands:  2 eigenvalues not converged
     c_bands:  2 eigenvalues not converged
     c_bands:  4 eigenvalues not converged
     ethr =  3.19E-06,  avg # of iterations = 33.2

     negative rho (up, down):  1.640E-02 0.000E+00
 
     Adding external electric field

     Computed dipole along edir(3) : 
        Dipole                0.8968 Ry au,          2.2794 Debye
        Dipole field          0.0017 Ry au, 
 
        Potential amp.       -0.1569 Ry
        Total length         46.3494 bohr
 

     total cpu time spent up to now is      800.8 secs

     total energy              =   -2920.25761348 Ry
     estimated scf accuracy    <       0.33022113 Ry

     iteration # 39     ecut=    29.40 Ry     beta= 0.05
     Davidson diagonalization with overlap
     c_bands:  3 eigenvalues not converged
     c_bands:  4 eigenvalues not converged
     c_bands:  4 eigenvalues not converged
     c_bands:  5 eigenvalues not converged
     c_bands:  3 eigenvalues not converged
     c_bands:  3 eigenvalues not converged
     c_bands:  1 eigenvalues not converged
     c_bands:  2 eigenvalues not converged
     c_bands:  1 eigenvalues not converged
     ethr =  3.19E-06,  avg # of iterations = 20.0

     negative rho (up, down):  1.710E-02 0.000E+00
 
     Adding external electric field

     Computed dipole along edir(3) : 
        Dipole                0.8663 Ry au,          2.2018 Debye
        Dipole field          0.0016 Ry au, 
 
        Potential amp.       -0.1515 Ry
        Total length         46.3494 bohr
 

     total cpu time spent up to now is      832.0 secs

     total energy              =   -2920.26873168 Ry
     estimated scf accuracy    <       0.01816581 Ry

     iteration # 40     ecut=    29.40 Ry     beta= 0.05
     Davidson diagonalization with overlap
     c_bands:  1 eigenvalues not converged
     c_bands:  1 eigenvalues not converged
     c_bands:  1 eigenvalues not converged
     c_bands:  3 eigenvalues not converged
     c_bands:  3 eigenvalues not converged
     c_bands:  2 eigenvalues not converged
     c_bands:  2 eigenvalues not converged
     ethr =  3.19E-06,  avg # of iterations = 17.8

     negative rho (up, down):  1.853E-02 0.000E+00
 
     Adding external electric field

     Computed dipole along edir(3) : 
        Dipole                0.8294 Ry au,          2.1080 Debye
        Dipole field          0.0016 Ry au, 
 
        Potential amp.       -0.1451 Ry
        Total length         46.3494 bohr
 

     total cpu time spent up to now is      852.7 secs

     total energy              =   -2920.26978794 Ry
     estimated scf accuracy    <       0.00398917 Ry

     iteration # 41     ecut=    29.40 Ry     beta= 0.05
     Davidson diagonalization with overlap
     c_bands:  1 eigenvalues not converged
     c_bands:  3 eigenvalues not converged
     c_bands:  1 eigenvalues not converged
     c_bands:  2 eigenvalues not converged
     ethr =  1.02E-06,  avg # of iterations = 17.3

     negative rho (up, down):  1.978E-02 0.000E+00
 
     Adding external electric field

     Computed dipole along edir(3) : 
        Dipole                0.8669 Ry au,          2.2035 Debye
        Dipole field          0.0016 Ry au, 
 
        Potential amp.       -0.1517 Ry
        Total length         46.3494 bohr
 

     total cpu time spent up to now is      878.2 secs

     total energy              =   -2920.27034082 Ry
     estimated scf accuracy    <       0.01673093 Ry

     iteration # 42     ecut=    29.40 Ry     beta= 0.05
     Davidson diagonalization with overlap
     c_bands:  1 eigenvalues not converged
     ethr =  1.02E-06,  avg # of iterations =  7.6

     negative rho (up, down):  1.873E-02 0.000E+00
 
     Adding external electric field

     Computed dipole along edir(3) : 
        Dipole                0.8766 Ry au,          2.2280 Debye
        Dipole field          0.0017 Ry au, 
 
        Potential amp.       -0.1533 Ry
        Total length         46.3494 bohr
 

     total cpu time spent up to now is      893.8 secs

     total energy              =   -2920.26949583 Ry
     estimated scf accuracy    <       0.00735847 Ry

     iteration # 43     ecut=    29.40 Ry     beta= 0.05
     Davidson diagonalization with overlap
     c_bands:  1 eigenvalues not converged
     c_bands:  1 eigenvalues not converged
     c_bands:  1 eigenvalues not converged
     ethr =  1.02E-06,  avg # of iterations = 17.8

     negative rho (up, down):  1.896E-02 0.000E+00
 
     Adding external electric field

     Computed dipole along edir(3) : 
        Dipole                0.8586 Ry au,          2.1825 Debye
        Dipole field          0.0016 Ry au, 
 
        Potential amp.       -0.1502 Ry
        Total length         46.3494 bohr
 

     total cpu time spent up to now is      919.3 secs

     total energy              =   -2920.27011232 Ry
     estimated scf accuracy    <       0.00243989 Ry

     iteration # 44     ecut=    29.40 Ry     beta= 0.05
     Davidson diagonalization with overlap
     c_bands:  1 eigenvalues not converged
     ethr =  6.24E-07,  avg # of iterations = 13.6

     negative rho (up, down):  1.911E-02 0.000E+00
 
     Adding external electric field

     Computed dipole along edir(3) : 
        Dipole                0.8639 Ry au,          2.1959 Debye
        Dipole field          0.0016 Ry au, 
 
        Potential amp.       -0.1511 Ry
        Total length         46.3494 bohr
 

     total cpu time spent up to now is      937.5 secs

     total energy              =   -2920.27043577 Ry
     estimated scf accuracy    <       0.00058390 Ry

     iteration # 45     ecut=    29.40 Ry     beta= 0.05
     Davidson diagonalization with overlap
     ethr =  1.49E-07,  avg # of iterations =  9.5

     negative rho (up, down):  1.936E-02 0.000E+00
 
     Adding external electric field

     Computed dipole along edir(3) : 
        Dipole                0.8748 Ry au,          2.2236 Debye
        Dipole field          0.0017 Ry au, 
 
        Potential amp.       -0.1530 Ry
        Total length         46.3494 bohr
 

     total cpu time spent up to now is      953.3 secs

     total energy              =   -2920.27052098 Ry
     estimated scf accuracy    <       0.00046447 Ry

     iteration # 46     ecut=    29.40 Ry     beta= 0.05
     Davidson diagonalization with overlap
     ethr =  1.19E-07,  avg # of iterations =  8.1

     negative rho (up, down):  1.915E-02 0.000E+00
 
     Adding external electric field

     Computed dipole along edir(3) : 
        Dipole                0.8803 Ry au,          2.2375 Debye
        Dipole field          0.0017 Ry au, 
 
        Potential amp.       -0.1540 Ry
        Total length         46.3494 bohr
 

     total cpu time spent up to now is      968.8 secs

     total energy              =   -2920.27052860 Ry
     estimated scf accuracy    <       0.00030112 Ry

     iteration # 47     ecut=    29.40 Ry     beta= 0.05
     Davidson diagonalization with overlap
     ethr =  7.70E-08,  avg # of iterations = 10.4

     negative rho (up, down):  1.909E-02 0.000E+00
 
     Adding external electric field

     Computed dipole along edir(3) : 
        Dipole                0.8783 Ry au,          2.2325 Debye
        Dipole field          0.0017 Ry au, 
 
        Potential amp.       -0.1537 Ry
        Total length         46.3494 bohr
 

     total cpu time spent up to now is      986.5 secs

     total energy              =   -2920.27057548 Ry
     estimated scf accuracy    <       0.00006192 Ry

     iteration # 48     ecut=    29.40 Ry     beta= 0.05
     Davidson diagonalization with overlap
     ethr =  1.58E-08,  avg # of iterations =  9.2

     negative rho (up, down):  1.915E-02 0.000E+00
 
     Adding external electric field

     Computed dipole along edir(3) : 
        Dipole                0.8826 Ry au,          2.2432 Debye
        Dipole field          0.0017 Ry au, 
 
        Potential amp.       -0.1544 Ry
        Total length         46.3494 bohr
 

     total cpu time spent up to now is     1003.3 secs

     total energy              =   -2920.27060258 Ry
     estimated scf accuracy    <       0.00005897 Ry

     iteration # 49     ecut=    29.40 Ry     beta= 0.05
     Davidson diagonalization with overlap
     ethr =  1.51E-08,  avg # of iterations =  9.3

     negative rho (up, down):  1.880E-02 0.000E+00
 
     Adding external electric field

     Computed dipole along edir(3) : 
        Dipole                0.8714 Ry au,          2.2149 Debye
        Dipole field          0.0016 Ry au, 
 
        Potential amp.       -0.1524 Ry
        Total length         46.3494 bohr
 

     total cpu time spent up to now is     1021.1 secs

     total energy              =   -2920.27059906 Ry
     estimated scf accuracy    <       0.00011208 Ry

     iteration # 50     ecut=    29.40 Ry     beta= 0.05
     Davidson diagonalization with overlap
     ethr =  1.51E-08,  avg # of iterations = 12.2

     negative rho (up, down):  1.865E-02 0.000E+00
 
     Adding external electric field

     Computed dipole along edir(3) : 
        Dipole                0.8729 Ry au,          2.2186 Debye
        Dipole field          0.0016 Ry au, 
 
        Potential amp.       -0.1527 Ry
        Total length         46.3494 bohr
 

     total cpu time spent up to now is     1042.6 secs

     total energy              =   -2920.27061702 Ry
     estimated scf accuracy    <       0.00002139 Ry

     iteration # 51     ecut=    29.40 Ry     beta= 0.05
     Davidson diagonalization with overlap
     ethr =  5.47E-09,  avg # of iterations = 11.0

     negative rho (up, down):  1.868E-02 0.000E+00
 
     Adding external electric field

     Computed dipole along edir(3) : 
        Dipole                0.8738 Ry au,          2.2210 Debye
        Dipole field          0.0016 Ry au, 
 
        Potential amp.       -0.1529 Ry
        Total length         46.3494 bohr
 

     total cpu time spent up to now is     1065.1 secs

     total energy              =   -2920.27063205 Ry
     estimated scf accuracy    <       0.00001053 Ry

     iteration # 52     ecut=    29.40 Ry     beta= 0.05
     Davidson diagonalization with overlap
     ethr =  2.69E-09,  avg # of iterations =  5.3

     negative rho (up, down):  1.866E-02 0.000E+00
 
     Adding external electric field

     Computed dipole along edir(3) : 
        Dipole                0.8740 Ry au,          2.2216 Debye
        Dipole field          0.0016 Ry au, 
 
        Potential amp.       -0.1529 Ry
        Total length         46.3494 bohr
 

     total cpu time spent up to now is     1079.3 secs

     total energy              =   -2920.27064159 Ry
     estimated scf accuracy    <       0.00000788 Ry

     iteration # 53     ecut=    29.40 Ry     beta= 0.05
     Davidson diagonalization with overlap
     ethr =  2.02E-09,  avg # of iterations = 13.3

     negative rho (up, down):  1.846E-02 0.000E+00
 
     Adding external electric field

     Computed dipole along edir(3) : 
        Dipole                0.8702 Ry au,          2.2117 Debye
        Dipole field          0.0016 Ry au, 
 
        Potential amp.       -0.1522 Ry
        Total length         46.3494 bohr
 

     total cpu time spent up to now is     1101.6 secs

     total energy              =   -2920.27064869 Ry
     estimated scf accuracy    <       0.00000875 Ry

     iteration # 54     ecut=    29.40 Ry     beta= 0.05
     Davidson diagonalization with overlap
     ethr =  2.02E-09,  avg # of iterations =  9.5

     negative rho (up, down):  1.844E-02 0.000E+00
 
     Adding external electric field

     Computed dipole along edir(3) : 
        Dipole                0.8696 Ry au,          2.2102 Debye
        Dipole field          0.0016 Ry au, 
 
        Potential amp.       -0.1521 Ry
        Total length         46.3494 bohr
 

     total cpu time spent up to now is     1123.8 secs

     total energy              =   -2920.27065866 Ry
     estimated scf accuracy    <       0.00000570 Ry

     iteration # 55     ecut=    29.40 Ry     beta= 0.05
     Davidson diagonalization with overlap
     ethr =  1.46E-09,  avg # of iterations =  1.9

     negative rho (up, down):  1.840E-02 0.000E+00
 
     Adding external electric field

     Computed dipole along edir(3) : 
        Dipole                0.8682 Ry au,          2.2068 Debye
        Dipole field          0.0016 Ry au, 
 
        Potential amp.       -0.1519 Ry
        Total length         46.3494 bohr
 

     total cpu time spent up to now is     1136.6 secs

     total energy              =   -2920.27066482 Ry
     estimated scf accuracy    <       0.00000469 Ry

     iteration # 56     ecut=    29.40 Ry     beta= 0.05
     Davidson diagonalization with overlap
     ethr =  1.20E-09,  avg # of iterations = 12.6

     negative rho (up, down):  1.838E-02 0.000E+00
 
     Adding external electric field

     Computed dipole along edir(3) : 
        Dipole                0.8678 Ry au,          2.2058 Debye
        Dipole field          0.0016 Ry au, 
 
        Potential amp.       -0.1518 Ry
        Total length         46.3494 bohr
 

     total cpu time spent up to now is     1156.3 secs

     total energy              =   -2920.27067145 Ry
     estimated scf accuracy    <       0.00000187 Ry

     iteration # 57     ecut=    29.40 Ry     beta= 0.05
     Davidson diagonalization with overlap
     ethr =  4.79E-10,  avg # of iterations = 11.6

     negative rho (up, down):  1.839E-02 0.000E+00
 
     Adding external electric field

     Computed dipole along edir(3) : 
        Dipole                0.8682 Ry au,          2.2068 Debye
        Dipole field          0.0016 Ry au, 
 
        Potential amp.       -0.1519 Ry
        Total length         46.3494 bohr
 

     total cpu time spent up to now is     1173.2 secs

     total energy              =   -2920.27067712 Ry
     estimated scf accuracy    <       0.00000068 Ry

     iteration # 58     ecut=    29.40 Ry     beta= 0.05
     Davidson diagonalization with overlap
     ethr =  1.74E-10,  avg # of iterations = 13.0

     negative rho (up, down):  1.838E-02 0.000E+00
 
     Adding external electric field

     Computed dipole along edir(3) : 
        Dipole                0.8680 Ry au,          2.2061 Debye
        Dipole field          0.0016 Ry au, 
 
        Potential amp.       -0.1518 Ry
        Total length         46.3494 bohr
 

     total cpu time spent up to now is     1197.8 secs

     total energy              =   -2920.27068223 Ry
     estimated scf accuracy    <       0.00000103 Ry

     iteration # 59     ecut=    29.40 Ry     beta= 0.05
     Davidson diagonalization with overlap
     ethr =  1.74E-10,  avg # of iterations = 11.1

     negative rho (up, down):  1.837E-02 0.000E+00
 
     Adding external electric field

     Computed dipole along edir(3) : 
        Dipole                0.8676 Ry au,          2.2053 Debye
        Dipole field          0.0016 Ry au, 
 
        Potential amp.       -0.1518 Ry
        Total length         46.3494 bohr
 

     total cpu time spent up to now is     1214.3 secs

     total energy              =   -2920.27068689 Ry
     estimated scf accuracy    <       0.00000059 Ry

     iteration # 60     ecut=    29.40 Ry     beta= 0.05
     Davidson diagonalization with overlap
     ethr =  1.51E-10,  avg # of iterations = 13.4

     negative rho (up, down):  1.837E-02 0.000E+00
 
     Adding external electric field

     Computed dipole along edir(3) : 
        Dipole                0.8680 Ry au,          2.2063 Debye
        Dipole field          0.0016 Ry au, 
 
        Potential amp.       -0.1518 Ry
        Total length         46.3494 bohr
 

     total cpu time spent up to now is     1238.8 secs

     total energy              =   -2920.27069103 Ry
     estimated scf accuracy    <       0.00000079 Ry

     iteration # 61     ecut=    29.40 Ry     beta= 0.05
     Davidson diagonalization with overlap
     ethr =  1.51E-10,  avg # of iterations = 12.7

     negative rho (up, down):  1.837E-02 0.000E+00
 
     Adding external electric field

     Computed dipole along edir(3) : 
        Dipole                0.8680 Ry au,          2.2061 Debye
        Dipole field          0.0016 Ry au, 
 
        Potential amp.       -0.1518 Ry
        Total length         46.3494 bohr
 

     total cpu time spent up to now is     1257.6 secs

     total energy              =   -2920.27069479 Ry
     estimated scf accuracy    <       0.00000025 Ry

     iteration # 62     ecut=    29.40 Ry     beta= 0.05
     Davidson diagonalization with overlap
     ethr =  6.50E-11,  avg # of iterations =  8.4

     negative rho (up, down):  1.836E-02 0.000E+00
 
     Adding external electric field

     Computed dipole along edir(3) : 
        Dipole                0.8677 Ry au,          2.2055 Debye
        Dipole field          0.0016 Ry au, 
 
        Potential amp.       -0.1518 Ry
        Total length         46.3494 bohr
 

     total cpu time spent up to now is     1273.5 secs

     total energy              =   -2920.27069815 Ry
     estimated scf accuracy    <       0.00000015 Ry

     iteration # 63     ecut=    29.40 Ry     beta= 0.05
     Davidson diagonalization with overlap
     ethr =  3.82E-11,  avg # of iterations = 10.6

     negative rho (up, down):  1.837E-02 0.000E+00
 
     Adding external electric field

     Computed dipole along edir(3) : 
        Dipole                0.8679 Ry au,          2.2060 Debye
        Dipole field          0.0016 Ry au, 
 
        Potential amp.       -0.1518 Ry
        Total length         46.3494 bohr
 

     total cpu time spent up to now is     1292.8 secs

     total energy              =   -2920.27070117 Ry
     estimated scf accuracy    <       0.00000009 Ry

     iteration # 64     ecut=    29.40 Ry     beta= 0.05
     Davidson diagonalization with overlap
     ethr =  2.18E-11,  avg # of iterations = 11.8

     negative rho (up, down):  1.845E-02 0.000E+00
 
     Adding external electric field

     Computed dipole along edir(3) : 
        Dipole                0.8681 Ry au,          2.2065 Debye
        Dipole field          0.0016 Ry au, 
 
        Potential amp.       -0.1519 Ry
        Total length         46.3494 bohr
 

     total cpu time spent up to now is     1314.5 secs

     End of self-consistent calculation

          k = 0.0000 0.0000 0.0000 ( 18029 PWs)   bands (ev):

   -55.8852 -55.8511 -55.7554 -55.7169 -55.7120 -55.7096 -55.6981 -55.6781
   -55.6709 -55.6331 -55.6322 -55.6284 -55.5946 -55.5640 -54.8661 -54.8320
   -32.3710 -32.2824 -32.2452 -32.2145 -32.1782 -32.1760 -32.1577 -32.1570
   -32.1308 -32.0787 -32.0379 -32.0198 -32.0104 -31.9973 -31.9956 -31.9928
   -31.9804 -31.9495 -31.9428 -31.9330 -31.9232 -31.9117 -31.9008 -31.8920
   -31.8803 -31.8768 -31.8556 -31.8549 -31.8484 -31.8470 -31.8400 -31.8305
   -31.8239 -31.8237 -31.8217 -31.8062 -31.7934 -31.7820 -31.7807 -31.7688
   -31.7139 -31.6274 -31.2725 -31.1852 -31.1628 -31.0899 -31.0035 -30.8918
   -16.5748 -16.4040 -16.1972 -16.0700 -16.0523 -15.8589 -15.7660 -15.6887
   -15.4942 -15.4553 -15.4266 -15.4111 -15.3997 -15.3983 -15.3813 -15.3617
   -15.3416 -15.3319 -15.3104 -15.2586 -15.2536 -15.2462 -15.2180 -15.2154
   -15.0340 -15.0261 -14.9825 -14.9458 -14.8677 -14.5681 -13.3652 -13.2487
    -8.9283  -5.6605  -3.9572  -3.8900  -3.8179  -3.7927  -3.7768  -3.6582
    -3.4851  -3.2976  -3.2095  -3.1751  -3.0593  -3.0137  -2.9177  -2.8397
    -2.8258  -2.7638  -2.7227  -2.7004  -2.6737  -2.6619  -2.6093  -2.5862
    -2.5790  -2.4447  -2.3874  -2.3682  -2.3049  -2.2798  -2.2515  -2.2084
    -2.2023  -2.1884  -2.1717  -2.1347  -2.1059  -2.0894  -2.0077  -1.9372
    -1.8973  -1.8576  -1.6321  -1.5259  -1.5017  -1.4708  -1.4151  -1.3811
    -1.3362  -1.2974  -1.2814  -1.2627  -1.1947  -1.1049  -1.0236  -1.0159
    -0.9142  -0.8896  -0.8028  -0.7279  -0.7097  -0.6472  -0.6243  -0.6196
    -0.6154  -0.5224  -0.4725  -0.3890  -0.3395  -0.3027  -0.2367  -0.1705
    -0.1132  -0.1032  -0.0640  -0.0215   0.0214   0.0318   0.0566   0.0865
     0.1250   0.1628   0.2021   0.2836   0.3258   0.3614   0.4065   0.4190
     0.5217   0.7317   0.7719   0.9108   1.0916   1.1598   1.1858   1.2087
     1.3515   1.7283   1.7740   3.1966   3.3414   3.3591   3.4309   3.4611
     3.5136   3.6845   3.7710   3.8114   3.8682

          k = 0.0000 0.0419 0.0000 ( 17933 PWs)   bands (ev):

   -55.8802 -55.8561 -55.7508 -55.7212 -55.7085 -55.7070 -55.6957 -55.6830
   -55.6672 -55.6346 -55.6320 -55.6290 -55.5986 -55.5648 -54.8610 -54.8369
   -32.3170 -32.2469 -32.1900 -32.1748 -32.1711 -32.1371 -32.1222 -32.1077
   -32.1041 -32.0707 -32.0495 -32.0241 -32.0093 -31.9958 -31.9849 -31.9843
   -31.9732 -31.9567 -31.9552 -31.9379 -31.9241 -31.9166 -31.9142 -31.9099
   -31.8943 -31.8910 -31.8773 -31.8744 -31.8570 -31.8526 -31.8516 -31.8482
   -31.8388 -31.8355 -31.8316 -31.8256 -31.8223 -31.8111 -31.8046 -31.7906
   -31.7586 -31.6270 -31.2184 -31.1817 -31.1658 -31.0773 -31.0160 -30.9489
   -16.4492 -16.2877 -16.0831 -16.0117 -15.9527 -15.8046 -15.7264 -15.6825
   -15.6121 -15.5271 -15.4406 -15.4306 -15.4047 -15.3712 -15.3653 -15.3519
   -15.3395 -15.3302 -15.2971 -15.2885 -15.2798 -15.2639 -15.2402 -15.1977
   -15.0870 -15.0592 -15.0384 -15.0038 -14.9256 -14.6922 -13.3693 -13.2882
    -8.9282  -5.6464  -3.8741  -3.7233  -3.6514  -3.6366  -3.6187  -3.5096
    -3.3442  -3.1230  -3.0934  -3.0481  -3.0143  -2.9230  -2.9118  -2.8632
    -2.8417  -2.8275  -2.7953  -2.7825  -2.7336  -2.7262  -2.6466  -2.6276
    -2.6040  -2.5696  -2.5309  -2.4841  -2.4431  -2.4082  -2.3953  -2.3118
    -2.2892  -2.2674  -2.2509  -2.1810  -2.0944  -2.0577  -1.9447  -1.8587
    -1.8029  -1.6616  -1.6531  -1.5651  -1.5314  -1.4569  -1.3473  -1.3326
    -1.2535  -1.1268  -1.1119  -1.0920  -1.0608  -1.0075  -0.9522  -0.9075
    -0.8467  -0.8306  -0.8205  -0.7957  -0.7447  -0.7226  -0.6608  -0.6569
    -0.6463  -0.5845  -0.5237  -0.4497  -0.4266  -0.3937  -0.3076  -0.2718
    -0.2307  -0.1775  -0.1280  -0.0696  -0.0541  -0.0334  -0.0247   0.0317
     0.0699   0.1399   0.2004   0.2474   0.2721   0.3354   0.3541   0.3970
     0.4490   0.5248   0.6420   0.7761   0.7823   1.0822   1.1902   1.3483
     1.4420   1.6835   1.6858   3.4171   3.4383   3.5896   3.5960   3.6164
     3.6322   3.6649   3.7622   3.7794   3.8209

          k = 0.0000-0.0839 0.0000 ( 17884 PWs)   bands (ev):

   -55.8683 -55.8679 -55.7442 -55.7278 -55.7075 -55.6951 -55.6948 -55.6931
   -55.6625 -55.6372 -55.6367 -55.6233 -55.6041 -55.5656 -54.8491 -54.8487
   -32.2059 -32.1848 -32.1846 -32.1615 -32.1612 -32.1003 -32.0634 -32.0459
   -32.0297 -32.0276 -32.0181 -32.0175 -31.9906 -31.9903 -31.9840 -31.9768
   -31.9706 -31.9703 -31.9672 -31.9625 -31.9594 -31.9565 -31.9521 -31.9415
   -31.9323 -31.9273 -31.9187 -31.9055 -31.8962 -31.8729 -31.8714 -31.8684
   -31.8563 -31.8533 -31.8463 -31.8347 -31.8303 -31.8202 -31.8141 -31.8030
   -31.7888 -31.6269 -31.1736 -31.1734 -31.0858 -31.0851 -31.0469 -31.0465
   -16.2400 -16.0379 -16.0043 -15.9144 -15.8944 -15.8056 -15.7931 -15.7042
   -15.6511 -15.5969 -15.5555 -15.5425 -15.4489 -15.4310 -15.3569 -15.3418
   -15.3158 -15.2689 -15.2634 -15.2264 -15.2261 -15.1940 -15.1870 -15.1558
   -15.1413 -15.1221 -15.1015 -15.0852 -15.0292 -14.9127 -13.3510 -13.3508
    -8.9281  -5.6346  -3.8309  -3.3315  -3.3070  -3.2648  -3.2565  -3.2357
    -3.2265  -3.1838  -3.1813  -3.1663  -3.0862  -3.0401  -3.0252  -2.9706
    -2.9104  -2.8939  -2.8831  -2.8422  -2.8057  -2.7924  -2.7773  -2.7509
    -2.6638  -2.6159  -2.5829  -2.5475  -2.4563  -2.4395  -2.3671  -2.2435
    -2.2349  -2.1679  -2.1079  -2.0816  -2.0375  -1.9518  -1.9249  -1.8189
    -1.6625  -1.6380  -1.5673  -1.5493  -1.5185  -1.4334  -1.3338  -1.3232
    -1.2993  -1.2886  -1.2708  -1.2388  -1.2275  -1.2139  -1.1128  -1.0127
    -0.9147  -0.9077  -0.8831  -0.8698  -0.6030  -0.5748  -0.5329  -0.5048
    -0.4895  -0.4557  -0.4024  -0.3887  -0.3530  -0.3414  -0.3359  -0.3100
    -0.2550  -0.2055  -0.1813  -0.1457  -0.1334  -0.0963  -0.0887  -0.0717
    -0.0286   0.0053   0.0206   0.0650   0.1031   0.1541   0.3565   0.3602
     0.4051   0.4562   0.6569   0.6818   0.8133   0.8566   1.1842   1.4908
     1.4971   1.6191   1.6197   3.5293   3.6405   3.6799   3.7000   3.7069
     3.7670   3.7985   3.8405   3.8986   3.9226

          k = 0.0380 0.0000 0.0000 ( 17913 PWs)   bands (ev):

   -55.8851 -55.8510 -55.7552 -55.7168 -55.7118 -55.7092 -55.6983 -55.6780
   -55.6709 -55.6331 -55.6321 -55.6283 -55.5945 -55.5639 -54.8660 -54.8319
   -32.3718 -32.2825 -32.2477 -32.2147 -32.1785 -32.1758 -32.1628 -32.1609
   -32.1308 -32.0787 -32.0350 -32.0195 -31.9990 -31.9925 -31.9813 -31.9776
   -31.9773 -31.9493 -31.9426 -31.9328 -31.9231 -31.9046 -31.9004 -31.8908
   -31.8871 -31.8782 -31.8744 -31.8542 -31.8488 -31.8472 -31.8399 -31.8332
   -31.8242 -31.8232 -31.8222 -31.8154 -31.7923 -31.7820 -31.7807 -31.7689
   -31.7139 -31.6275 -31.2720 -31.1885 -31.1608 -31.0897 -31.0034 -30.8916
   -16.4889 -16.3151 -16.1339 -16.0822 -15.9621 -15.8839 -15.7716 -15.6895
   -15.6155 -15.5801 -15.5270 -15.5173 -15.5142 -15.4504 -15.4191 -15.3858
   -15.3349 -15.2610 -15.2529 -15.2271 -15.2182 -15.1334 -15.1069 -15.0867
   -15.0760 -15.0617 -15.0531 -15.0195 -14.8691 -14.5680 -13.3620 -13.2484
    -8.9319  -5.6595  -3.9252  -3.7559  -3.6512  -3.5846  -3.5433  -3.5178
    -3.4240  -3.2853  -3.2782  -3.2029  -3.1742  -3.1081  -2.9703  -2.9548
    -2.9328  -2.8385  -2.7367  -2.6506  -2.5683  -2.5559  -2.5137  -2.5007
    -2.4550  -2.3784  -2.3650  -2.3016  -2.2816  -2.2614  -2.2383  -2.2149
    -2.1938  -2.1608  -2.1483  -2.1104  -2.0538  -2.0193  -1.8448  -1.8112
    -1.7442  -1.7100  -1.6708  -1.6243  -1.5284  -1.4949  -1.4535  -1.4393
    -1.3877  -1.3309  -1.3209  -1.2618  -1.2306  -1.1947  -1.1589  -1.1271
    -1.0650  -1.0089  -0.8923  -0.7728  -0.7203  -0.7023  -0.6903  -0.6330
    -0.5237  -0.4737  -0.4493  -0.3942  -0.3780  -0.3079  -0.2433  -0.2006
    -0.1831  -0.1578  -0.1278  -0.1045  -0.0675  -0.0471  -0.0130   0.0124
     0.0354   0.1256   0.1695   0.1778   0.2463   0.2826   0.3275   0.4423
     0.4591   0.5607   0.7484   0.8034   1.0516   1.1005   1.1717   1.2263
     1.3212   1.6170   1.6921   3.2108   3.3022   3.5961   3.6230   3.6471
     3.6701   3.6796   3.6840   3.6950   3.7922

          k = 0.0380 0.0419 0.0000 ( 17878 PWs)   bands (ev):

   -55.8801 -55.8560 -55.7507 -55.7212 -55.7082 -55.7068 -55.6959 -55.6829
   -55.6672 -55.6346 -55.6320 -55.6289 -55.5985 -55.5647 -54.8609 -54.8369
   -32.3178 -32.2471 -32.1925 -32.1750 -32.1709 -32.1379 -32.1224 -32.1113
   -32.1099 -32.0711 -32.0496 -32.0216 -32.0091 -31.9857 -31.9733 -31.9698
   -31.9680 -31.9563 -31.9553 -31.9376 -31.9169 -31.9149 -31.9130 -31.9062
   -31.8943 -31.8894 -31.8784 -31.8746 -31.8697 -31.8619 -31.8548 -31.8482
   -31.8383 -31.8332 -31.8325 -31.8297 -31.8246 -31.8121 -31.8107 -31.7925
   -31.7585 -31.6272 -31.2181 -31.1843 -31.1648 -31.0772 -31.0161 -30.9488
   -16.3728 -16.2075 -16.0608 -15.9827 -15.8722 -15.8047 -15.7370 -15.6787
   -15.6183 -15.5953 -15.5464 -15.5197 -15.4432 -15.4173 -15.3968 -15.3807
   -15.3638 -15.3394 -15.3018 -15.2347 -15.2149 -15.2056 -15.1809 -15.1376
   -15.1314 -15.1071 -15.0786 -15.0634 -14.9265 -14.6929 -13.3670 -13.2885
    -8.9316  -5.6446  -3.8662  -3.5904  -3.4906  -3.4209  -3.3827  -3.3436
    -3.2748  -3.1527  -3.1099  -3.0384  -3.0151  -2.9751  -2.8870  -2.8707
    -2.8046  -2.7889  -2.7523  -2.7260  -2.6716  -2.6453  -2.6192  -2.5941
    -2.5786  -2.5446  -2.5267  -2.5078  -2.4570  -2.3894  -2.3475  -2.3134
    -2.3030  -2.2035  -2.1798  -2.1455  -2.0391  -1.9864  -1.8915  -1.8589
    -1.8228  -1.7053  -1.5939  -1.5575  -1.5011  -1.4551  -1.3741  -1.3305
    -1.2834  -1.2367  -1.2082  -1.1682  -1.1095  -1.0873  -1.0533  -1.0409
    -0.9756  -0.9478  -0.8462  -0.8343  -0.7981  -0.7638  -0.6798  -0.6688
    -0.6338  -0.6002  -0.5750  -0.5563  -0.5157  -0.4874  -0.4501  -0.4102
    -0.3379  -0.3011  -0.2463  -0.1982  -0.1427  -0.1221  -0.0881  -0.0029
     0.0512   0.0770   0.1495   0.2495   0.2909   0.3383   0.3861   0.4208
     0.4789   0.5454   0.5846   0.7219   0.7616   1.0097   1.1945   1.3585
     1.4454   1.6062   1.6666   3.4105   3.4243   3.6036   3.6475   3.6871
     3.7459   3.7830   3.8014   3.8112   3.8414

          k = 0.0380-0.0839 0.0000 ( 17916 PWs)   bands (ev):

   -55.8683 -55.8679 -55.7442 -55.7277 -55.7073 -55.6951 -55.6948 -55.6933
   -55.6626 -55.6373 -55.6367 -55.6234 -55.6042 -55.5656 -54.8492 -54.8488
   -32.2062 -32.1856 -32.1854 -32.1616 -32.1612 -32.1008 -32.0661 -32.0483
   -32.0321 -32.0281 -32.0219 -32.0181 -31.9956 -31.9894 -31.9889 -31.9795
   -31.9775 -31.9699 -31.9638 -31.9606 -31.9556 -31.9402 -31.9326 -31.9294
   -31.9272 -31.9246 -31.9184 -31.8970 -31.8931 -31.8724 -31.8713 -31.8690
   -31.8607 -31.8574 -31.8533 -31.8422 -31.8340 -31.8279 -31.8145 -31.8083
   -31.7937 -31.6273 -31.1746 -31.1744 -31.0857 -31.0850 -31.0469 -31.0465
   -16.2001 -15.9760 -15.9529 -15.9363 -15.8311 -15.7483 -15.7327 -15.6606
   -15.6480 -15.5900 -15.5768 -15.5187 -15.4724 -15.4422 -15.4279 -15.3835
   -15.3309 -15.3047 -15.3024 -15.2687 -15.2531 -15.2405 -15.2214 -15.1943
   -15.1905 -15.1127 -15.0957 -15.0774 -15.0236 -14.9061 -13.3508 -13.3506
    -8.9312  -5.6327  -3.8182  -3.3086  -3.2273  -3.1169  -3.0918  -3.0604
    -3.0393  -3.0212  -2.9983  -2.9855  -2.9815  -2.9475  -2.9204  -2.9121
    -2.8475  -2.8294  -2.8142  -2.7852  -2.7671  -2.7540  -2.7100  -2.6895
    -2.6413  -2.6086  -2.5604  -2.5426  -2.4968  -2.4827  -2.3713  -2.3319
    -2.1972  -2.1094  -2.0588  -2.0123  -1.9887  -1.8839  -1.8553  -1.8204
    -1.7593  -1.7120  -1.6859  -1.6617  -1.6112  -1.5782  -1.5631  -1.5396
    -1.4927  -1.4279  -1.4040  -1.3643  -1.2638  -1.1298  -1.0825  -1.0460
    -0.9843  -0.9619  -0.8884  -0.8612  -0.7308  -0.7035  -0.6871  -0.6670
    -0.6269  -0.5888  -0.5297  -0.5127  -0.5002  -0.4860  -0.4473  -0.4382
    -0.4041  -0.3502  -0.3271  -0.2522  -0.1925  -0.1380  -0.0293  -0.0140
     0.0030   0.0174   0.1851   0.2181   0.2416   0.2792   0.3256   0.3761
     0.4272   0.4471   0.6216   0.6512   0.7852   0.8233   1.1736   1.5040
     1.5098   1.6088   1.6095   3.5619   3.6262   3.6557   3.6740   3.7496
     3.7775   3.8190   3.8590   3.8800   3.9056

          k = 0.0380-0.0419 0.0000 ( 17876 PWs)   bands (ev):

   -55.8801 -55.8560 -55.7507 -55.7212 -55.7082 -55.7068 -55.6959 -55.6829
   -55.6672 -55.6346 -55.6320 -55.6289 -55.5985 -55.5647 -54.8609 -54.8369
   -32.3178 -32.2471 -32.1925 -32.1750 -32.1709 -32.1380 -32.1224 -32.1114
   -32.1100 -32.0711 -32.0496 -32.0216 -32.0091 -31.9857 -31.9741 -31.9681
   -31.9675 -31.9563 -31.9552 -31.9379 -31.9169 -31.9147 -31.9129 -31.9063
   -31.8943 -31.8915 -31.8781 -31.8750 -31.8703 -31.8610 -31.8542 -31.8482
   -31.8387 -31.8337 -31.8324 -31.8295 -31.8238 -31.8133 -31.8098 -31.7923
   -31.7584 -31.6273 -31.2180 -31.1843 -31.1648 -31.0772 -31.0161 -30.9488
   -16.3728 -16.2076 -16.0612 -15.9824 -15.8718 -15.8040 -15.7373 -15.6789
   -15.6179 -15.5969 -15.5468 -15.5177 -15.4399 -15.4168 -15.3989 -15.3814
   -15.3629 -15.3380 -15.3037 -15.2344 -15.2182 -15.2059 -15.1805 -15.1379
   -15.1313 -15.1077 -15.0776 -15.0627 -14.9268 -14.6926 -13.3670 -13.2885
    -8.9316  -5.6450  -3.8650  -3.5906  -3.4956  -3.4240  -3.3724  -3.3429
    -3.2762  -3.1533  -3.1075  -3.0398  -3.0159  -2.9725  -2.8976  -2.8541
    -2.7961  -2.7729  -2.7542  -2.7229  -2.6861  -2.6421  -2.6154  -2.5948
    -2.5774  -2.5453  -2.5261  -2.5065  -2.4612  -2.3840  -2.3451  -2.3195
    -2.3046  -2.2095  -2.1829  -2.1227  -2.0310  -2.0031  -1.8948  -1.8606
    -1.8171  -1.7353  -1.5985  -1.5785  -1.5133  -1.4375  -1.3796  -1.3215
    -1.2977  -1.2321  -1.2114  -1.1619  -1.1126  -1.1001  -1.0520  -1.0181
    -0.9986  -0.9265  -0.8554  -0.8440  -0.8044  -0.7452  -0.7091  -0.6729
    -0.6518  -0.6073  -0.5970  -0.5357  -0.5222  -0.4899  -0.4387  -0.3922
    -0.3330  -0.3012  -0.2274  -0.1693  -0.1457  -0.1252  -0.0999  -0.0081
     0.0698   0.0824   0.1674   0.2508   0.2939   0.3459   0.3805   0.4266
     0.4740   0.5466   0.5883   0.7152   0.7572   1.0107   1.1970   1.3584
     1.4450   1.6058   1.6672   3.4101   3.4253   3.5969   3.6486   3.6763
     3.7305   3.7767   3.7950   3.8055   3.8443

          k =-0.0760-0.0000 0.0000 ( 17886 PWs)   bands (ev):

   -55.8851 -55.8510 -55.7551 -55.7168 -55.7116 -55.7088 -55.6985 -55.6780
   -55.6710 -55.6331 -55.6321 -55.6283 -55.5945 -55.5639 -54.8659 -54.8319
   -32.3727 -32.2828 -32.2502 -32.2149 -32.1790 -32.1756 -32.1678 -32.1647
   -32.1308 -32.0788 -32.0321 -32.0193 -31.9925 -31.9864 -31.9799 -31.9516
   -31.9491 -31.9430 -31.9391 -31.9327 -31.9220 -31.9150 -31.9084 -31.9001
   -31.8983 -31.8901 -31.8770 -31.8538 -31.8484 -31.8469 -31.8398 -31.8349
   -31.8284 -31.8240 -31.8233 -31.8225 -31.7902 -31.7823 -31.7810 -31.7692
   -31.7141 -31.6276 -31.2717 -31.1918 -31.1594 -31.0897 -31.0033 -30.8916
   -16.3263 -16.2585 -16.1614 -16.0063 -15.8802 -15.8604 -15.7570 -15.6956
   -15.6820 -15.6631 -15.6069 -15.6016 -15.5986 -15.5690 -15.4478 -15.3899
   -15.3388 -15.2556 -15.2291 -15.2099 -15.1828 -15.1545 -15.1402 -15.0864
   -15.0693 -15.0438 -15.0281 -14.9885 -14.8700 -14.5683 -13.3590 -13.2481
    -8.9356  -5.6585  -3.9436  -3.7166  -3.5859  -3.3777  -3.3369  -3.3312
    -3.2825  -3.2645  -3.2068  -3.1853  -3.1493  -3.1344  -3.1319  -2.9044
    -2.8434  -2.7717  -2.6970  -2.5028  -2.4852  -2.4689  -2.4407  -2.3861
    -2.3792  -2.3476  -2.3327  -2.2930  -2.2625  -2.2587  -2.2384  -2.2107
    -2.1826  -2.1718  -2.1190  -2.1169  -2.0789  -2.0608  -1.9439  -1.8742
    -1.7585  -1.7154  -1.5706  -1.5196  -1.4932  -1.4806  -1.4714  -1.4678
    -1.4322  -1.4081  -1.3871  -1.3507  -1.3142  -1.2419  -1.2312  -1.1789
    -1.1244  -1.0638  -1.0454  -0.9721  -0.8303  -0.7606  -0.6853  -0.6580
    -0.5756  -0.5064  -0.4788  -0.4513  -0.4084  -0.3420  -0.3164  -0.2880
    -0.2605  -0.2432  -0.2186  -0.1724  -0.1611  -0.1114  -0.0901  -0.0370
     0.0093   0.0423   0.1549   0.1872   0.2639   0.3134   0.3891   0.4345
     0.5054   0.5989   0.7315   0.7643   0.8046   1.1073   1.1927   1.2407
     1.2973   1.4897   1.6369   3.2127   3.2574   3.4898   3.5086   3.5693
     3.6296   3.6790   3.7421   3.7701   3.7901

          k =-0.0760 0.0419 0.0000 ( 17914 PWs)   bands (ev):

   -55.8801 -55.8561 -55.7507 -55.7212 -55.7080 -55.7067 -55.6962 -55.6829
   -55.6673 -55.6346 -55.6321 -55.6290 -55.5986 -55.5648 -54.8609 -54.8369
   -32.3188 -32.2474 -32.1952 -32.1753 -32.1709 -32.1390 -32.1225 -32.1160
   -32.1147 -32.0716 -32.0499 -32.0194 -32.0091 -31.9752 -31.9724 -31.9562
   -31.9552 -31.9451 -31.9397 -31.9371 -31.9173 -31.9158 -31.9088 -31.9058
   -31.9031 -31.9010 -31.8929 -31.8751 -31.8741 -31.8566 -31.8520 -31.8483
   -31.8435 -31.8383 -31.8354 -31.8318 -31.8240 -31.8203 -31.8118 -31.7935
   -31.7585 -31.6276 -31.2178 -31.1871 -31.1641 -31.0772 -31.0161 -30.9488
   -16.2380 -16.1537 -16.0844 -15.9051 -15.8016 -15.7742 -15.6875 -15.6604
   -15.6422 -15.6334 -15.6151 -15.5927 -15.5520 -15.5210 -15.4347 -15.4116
   -15.3863 -15.3063 -15.2949 -15.2429 -15.2085 -15.1878 -15.1786 -15.1506
   -15.1271 -15.1095 -15.0883 -15.0702 -14.9282 -14.6936 -13.3649 -13.2888
    -8.9350  -5.6433  -3.8663  -3.5626  -3.4371  -3.1933  -3.1641  -3.1076
    -3.0937  -3.0598  -2.9993  -2.9767  -2.9503  -2.9327  -2.8670  -2.8451
    -2.8193  -2.7860  -2.7254  -2.6831  -2.6412  -2.6192  -2.5678  -2.5382
    -2.5169  -2.4789  -2.4345  -2.4243  -2.4087  -2.3978  -2.3887  -2.3586
    -2.3222  -2.2857  -2.1105  -1.9916  -1.9608  -1.9262  -1.9088  -1.8339
    -1.7759  -1.7383  -1.6733  -1.5943  -1.5200  -1.4768  -1.4220  -1.3890
    -1.3729  -1.2499  -1.2396  -1.2230  -1.2073  -1.1748  -1.1335  -1.1173
    -1.0973  -1.0717  -1.0650  -1.0033  -0.9619  -0.9343  -0.8889  -0.7986
    -0.7613  -0.7046  -0.6745  -0.6150  -0.5934  -0.5460  -0.4988  -0.4711
    -0.4603  -0.4102  -0.3205  -0.2045  -0.1823  -0.1214  -0.0800  -0.0366
     0.0058   0.0723   0.1415   0.2595   0.3441   0.3913   0.4844   0.5210
     0.5628   0.6076   0.6358   0.6599   0.7388   0.8131   1.2013   1.3721
     1.4471   1.5289   1.6559   3.4055   3.4201   3.5503   3.5798   3.6133
     3.6355   3.7288   3.7889   3.8810   3.8967

          k =-0.0760-0.0839 0.0000 ( 17948 PWs)   bands (ev):

   -55.8683 -55.8679 -55.7442 -55.7277 -55.7071 -55.6950 -55.6947 -55.6935
   -55.6627 -55.6373 -55.6368 -55.6234 -55.6042 -55.5657 -54.8492 -54.8488
   -32.2065 -32.1863 -32.1861 -32.1616 -32.1612 -32.1013 -32.0686 -32.0503
   -32.0348 -32.0283 -32.0250 -32.0185 -32.0027 -31.9885 -31.9878 -31.9860
   -31.9780 -31.9702 -31.9630 -31.9489 -31.9474 -31.9379 -31.9353 -31.9268
   -31.9131 -31.9047 -31.9005 -31.8958 -31.8832 -31.8793 -31.8714 -31.8705
   -31.8697 -31.8619 -31.8585 -31.8485 -31.8460 -31.8331 -31.8148 -31.8142
   -31.7989 -31.6277 -31.1756 -31.1753 -31.0856 -31.0850 -31.0469 -31.0465
   -16.1471 -15.9783 -15.8695 -15.8548 -15.7915 -15.6825 -15.6692 -15.6417
   -15.6225 -15.5856 -15.5666 -15.5538 -15.5050 -15.4655 -15.4286 -15.4043
   -15.4004 -15.3535 -15.3492 -15.3396 -15.3174 -15.2831 -15.2744 -15.2102
   -15.2015 -15.1117 -15.0918 -15.0693 -15.0210 -14.9005 -13.3506 -13.3504
    -8.9344  -5.6307  -3.8060  -3.3056  -3.2077  -3.0715  -3.0035  -2.9633
    -2.9151  -2.8821  -2.8606  -2.8421  -2.7920  -2.7781  -2.7469  -2.7032
    -2.6853  -2.6682  -2.6479  -2.6212  -2.6002  -2.5884  -2.5699  -2.5521
    -2.5195  -2.5043  -2.4777  -2.4633  -2.4527  -2.4407  -2.4326  -2.4215
    -2.2366  -2.1446  -2.0531  -2.0435  -2.0343  -2.0093  -1.9823  -1.9667
    -1.9494  -1.9279  -1.9020  -1.8727  -1.8419  -1.5922  -1.5598  -1.5249
    -1.4668  -1.4306  -1.3821  -1.3680  -1.3356  -1.3061  -1.2251  -1.1895
    -1.1621  -1.0837  -1.0126  -0.9478  -0.9018  -0.8645  -0.8339  -0.8220
    -0.7825  -0.7439  -0.7349  -0.7105  -0.6945  -0.5877  -0.5857  -0.5830
    -0.4374  -0.3991  -0.3803  -0.2880  -0.2682  -0.0892  -0.0262  -0.0002
     0.1344   0.1453   0.1827   0.2916   0.3187   0.3644   0.4208   0.4420
     0.5281   0.5806   0.6223   0.6618   0.6857   0.7024   1.1681   1.5222
     1.5280   1.5942   1.5944   3.5971   3.6385   3.7047   3.7305   3.7506
     3.7861   3.8086   3.8197   3.8652   3.8750

     the Fermi energy is     3.2354 ev

!    total energy              =   -2920.27072889 Ry
     estimated scf accuracy    <       0.00000005 Ry
     smearing contrib. (-TS)   =      -0.01953119 Ry
     internal energy E=F+TS    =   -2920.25119770 Ry

     The total energy is F=E-TS. E is the sum of the following terms:
     one-electron contribution =  -24544.21536976 Ry
     hartree contribution      =   12357.89167915 Ry
     xc contribution           =    -480.81651023 Ry
     ewald contribution        =    9746.88758095 Ry
     electric field correction =       0.00142218 Ry

     convergence has been achieved in  64 iterations

     Forces acting on atoms (cartesian axes, Ry/au):

     atom    1 type  1   force =     0.00006995   -0.00038257    0.09441390
     atom    2 type  1   force =    -0.00007700   -0.00123044   -0.17581235
     atom    3 type  2   force =     0.00046604   -0.00020712   -0.02136714
     atom    4 type  2   force =     0.00017591   -0.00092895    0.05145638
     atom    5 type  2   force =    -0.00541793    0.00099730   -0.00034588
     atom    6 type  2   force =     0.00990835    0.00142889    0.00528520
     atom    7 type  1   force =     0.00312024    0.00406481   -0.00382785
     atom    8 type  1   force =    -0.00264272    0.00537142    0.00463949
     atom    9 type  2   force =     0.00031920    0.00018278    0.00043539
     atom   10 type  2   force =     0.00290175    0.00077104   -0.01332957
     atom   11 type  2   force =     0.00009999    0.00027025   -0.00000708
     atom   12 type  2   force =    -0.00016882   -0.00006241   -0.00007720
     atom   13 type  1   force =    -0.00028751   -0.00029102    0.00137495
     atom   14 type  1   force =    -0.00061515    0.00041463   -0.00123960
     atom   15 type  2   force =     0.00027470   -0.00014179   -0.00005317
     atom   16 type  2   force =     0.00005672   -0.00016794    0.00021591
     atom   17 type  2   force =     0.00032227   -0.00087248    0.00069944
     atom   18 type  2   force =     0.00028480   -0.00002267   -0.00028030
     atom   19 type  1   force =    -0.00024725    0.00025798   -0.00095628
     atom   20 type  1   force =     0.00005740    0.00216011   -0.00026433
     atom   21 type  2   force =     0.00005003   -0.00009645    0.10312113
     atom   22 type  2   force =    -0.00061753    0.00054577    0.00092645
     atom   23 type  2   force =    -0.07169056   -0.00014210   -0.02718406
     atom   24 type  2   force =     0.07175290    0.00034906   -0.02732936
     atom   25 type  1   force =    -0.00009066   -0.00021851    0.09389344
     atom   26 type  1   force =     0.00003867    0.00040165   -0.17577647
     atom   27 type  2   force =     0.00046537   -0.00026421   -0.02046172
     atom   28 type  2   force =     0.00023831   -0.00170604    0.05407956
     atom   29 type  2   force =    -0.00646932   -0.00169955    0.00029453
     atom   30 type  2   force =     0.01070938   -0.00155794    0.00560728
     atom   31 type  1   force =     0.00345812    0.00044107    0.00537027
     atom   32 type  1   force =    -0.00266877   -0.00668752    0.00505094
     atom   33 type  2   force =     0.00024994    0.00031371    0.00055586
     atom   34 type  2   force =     0.00503756   -0.00078998   -0.00875835
     atom   35 type  2   force =     0.00012313   -0.00000687    0.00000451
     atom   36 type  2   force =    -0.00013086   -0.00002061   -0.00001543
     atom   37 type  1   force =     0.00075025   -0.00042432    0.00089946
     atom   38 type  1   force =    -0.00027984   -0.00118203    0.00000888
     atom   39 type  2   force =    -0.00076611   -0.00017344    0.00040220
     atom   40 type  2   force =     0.00036450    0.00041485   -0.00008615
     atom   41 type  2   force =     0.00028108    0.00153814    0.00074852
     atom   42 type  2   force =     0.00050663    0.00036783    0.00007881
     atom   43 type  1   force =     0.00072097    0.00017147    0.00004678
     atom   44 type  1   force =    -0.00007338   -0.00159972   -0.00127263
     atom   45 type  2   force =     0.00005350   -0.00001971    0.10329172
     atom   46 type  2   force =    -0.07167397   -0.00015182   -0.02721160
     atom   47 type  2   force =     0.07171458    0.00030231   -0.02732033
     atom   48 type  3   force =    -0.00259911    0.00539983    0.00463925
     atom   49 type  3   force =    -0.00004724   -0.00018532    0.00016087
     atom   50 type  4   force =     0.00342463   -0.00557860   -0.00462014
     atom   51 type  5   force =    -0.08563758   -0.00362927   -0.00046423
     atom   52 type  3   force =     0.03103905    0.05168690    0.00018685
     atom   53 type  3   force =     0.03316542   -0.04741041    0.00017325

     Total force =     0.382324     Total SCF correction =     0.000743
  @ DRIVER MODE: Message from server: STATUS
  @ DRIVER MODE: Message from server: GETFORCE
  @ DRIVER MODE: Returning v,forces,stress,ensemble 

     Writing output data file ./calc.save/
  @ DRIVER MODE: Message from server: EXIT
  @ DRIVE MODE: Exiting  
 
     init_run     :     13.28s CPU     13.65s WALL (       1 calls)
     electrons    :   1272.54s CPU   1300.61s WALL (       1 calls)
     forces       :      2.77s CPU      3.02s WALL (       1 calls)

     Called by init_run:
     wfcinit      :      5.67s CPU      5.81s WALL (       1 calls)
     potinit      :      6.82s CPU      6.90s WALL (       1 calls)
     hinit0       :      0.38s CPU      0.39s WALL (       1 calls)

     Called by electrons:
     c_bands      :   1084.03s CPU   1098.95s WALL (      64 calls)
     sum_band     :    126.75s CPU    132.90s WALL (      64 calls)
     v_of_rho     :     47.41s CPU     49.26s WALL (      65 calls)
     newd         :     18.57s CPU     23.60s WALL (      65 calls)
     mix_rho      :      1.70s CPU      1.79s WALL (      64 calls)
     vdW_kernel   :      5.84s CPU      5.86s WALL (       1 calls)

     Called by c_bands:
     init_us_2    :      7.64s CPU      7.69s WALL (    1300 calls)
     cegterg      :   1062.65s CPU   1077.05s WALL (     650 calls)

     Called by *egterg:
     cdiaghg      :    197.27s CPU    198.38s WALL (    7888 calls)
     h_psi        :    551.27s CPU    559.99s WALL (    7899 calls)
     s_psi        :     77.45s CPU     77.73s WALL (    7899 calls)
     g_psi        :      2.02s CPU      2.03s WALL (    7239 calls)

     Called by h_psi:
     h_psi:calbec :     70.89s CPU     71.89s WALL (    7899 calls)
     vloc_psi     :    398.98s CPU    402.58s WALL (    7899 calls)
     add_vuspsi   :     78.26s CPU     80.27s WALL (    7899 calls)

     General routines
     calbec       :     92.61s CPU     93.67s WALL (    8579 calls)
     fft          :     24.26s CPU     24.39s WALL (    4095 calls)
     ffts         :      0.15s CPU      0.15s WALL (     129 calls)
     fftw         :    446.48s CPU    450.47s WALL (  848484 calls)
     interpolate  :      0.48s CPU      0.49s WALL (      65 calls)
     davcio       :      0.00s CPU      0.07s WALL (      10 calls)
 
     Parallel routines
 
     PWSCF        :  21m29.03s CPU  21m58.91s WALL

 
   This run was terminated on:  19: 1:22  11Oct2021            

=------------------------------------------------------------------------------=
   JOB DONE.
=------------------------------------------------------------------------------=
