
     Program PWSCF v.6.7GPU starts on  9Sep2021 at  1:38: 4 

     This program is part of the open-source Quantum ESPRESSO suite
     for quantum simulation of materials; please cite
         "P. Giannozzi et al., J. Phys.:Condens. Matter 21 395502 (2009);
         "P. Giannozzi et al., J. Phys.:Condens. Matter 29 465901 (2017);
         "P. Giannozzi et al., J. Chem. Phys. 152 154105 (2020);
          URL http://www.quantum-espresso.org", 
     in publications or presentations arising from this work. More details at
     http://www.quantum-espresso.org/quote

     Parallel version (MPI), running on    10 processors

     MPI processes distributed on     1 nodes
     R & G space division:  proc/nbgrp/npool/nimage =      10
     Reading input from /storage/home/hcoda1/3/ntian30/research/carbon/CxH_vib/CH_calc/ads_slab/CHNNHH_a/out_0011/pw.inp
Warning: card &CELL ignored
Warning: card   CELL_DYNAMICS='IPI', ignored
Warning: card / ignored

     Current dimensions of program PWSCF are:
     Max number of different atomic species (ntypx) = 10
     Max number of k-points (npk) =  40000
     Max angular momentum in pseudopotentials (lmaxx) =  3
     Presently no symmetry can be used with electric field

     Message from routine cell_base_init:
     DEPRECATED: use true lattice parameter, not A to a.u. conversion factor

     **************************************************************************
     Initializing libbeef V0.1.2 with the BEEF-vdW functional.
     Citation: Wellendorff et al., PRB 85, 235149 (2012).
     **************************************************************************


     IMPORTANT: XC functional enforced from input :
     Exchange-correlation= BEEF-VDW
                           (   1   4  43  14   2   0   0)
     Any further DFT definition will be discarded
     Please, verify this is what you really want


     Subspace diagonalization in iterative solution of the eigenvalue problem:
     one sub-group per band group will be used
     scalapack distributed-memory algorithm (size of sub-group:  3*  3 procs)

  @ DRIVER MODE: Connecting to 
 qe_1139763_2767382.sched-torque.pace.gatech.eduywq7t_bi_scratch
  using UNIX socket
  @ DRIVER MODE: Message from server: STATUS
  @ DRIVER MODE: Message from server: INIT
  @ DRIVER MODE: Receiving replica           0          -1
  @ DRIVER MODE: Receiving encoded integer          25
  @ DRIVER MODE:  SCF:  T  FORCE:  T  STRESS:  F  VC:  F  ENSEMBLE:  F
  @ DRIVER MODE:  SCF:  T  FORCE:  T  STRESS:  F  VC:  F  ENSEMBLE:  F
 
     Parallelization info
     --------------------
     sticks:   dense  smooth     PW     G-vecs:    dense   smooth      PW
     Min         327     131     37                56683    14340    2191
     Max         328     133     38                56694    14346    2206
     Sum        3275    1317    379               566857   143421   21985
 
     Using Slab Decomposition
 


     bravais-lattice index     =            0
     lattice parameter (alat)  =       1.8897  a.u.
     unit-cell volume          =    6658.9804 (a.u.)^3
     number of atoms/cell      =           53
     number of atomic types    =            5
     number of electrons       =       395.00
     number of Kohn-Sham states=          207
     kinetic-energy cutoff     =      29.3995  Ry
     charge density cutoff     =     293.9946  Ry
     scf convergence threshold =      7.3E-08
     mixing beta               =       0.0500
     number of iterations used =            8  plain     mixing
     Exchange-correlation= BEEF-VDW
                           (   1   4  43  14   2   0   0)

     celldm(1)=   1.889726  celldm(2)=   0.000000  celldm(3)=   0.000000
     celldm(4)=   0.000000  celldm(5)=   0.000000  celldm(6)=   0.000000

     crystal axes: (cart. coord. in units of alat)
               a(1) = (   6.579727   0.000000   0.000000 )  
               a(2) = (  -0.000775   5.961596   0.000000 )  
               a(3) = (   0.000000   0.000000  25.155947 )  

     reciprocal axes: (cart. coord. in units 2 pi/alat)
               b(1) = (  0.151982  0.000020  0.000000 )  
               b(2) = (  0.000000  0.167740  0.000000 )  
               b(3) = (  0.000000  0.000000  0.039752 )  


     PseudoPot. # 1 for Ti read from file:
     /storage/coda1/p-amedford6/0/shared/rich_project_chbe-medford/medford-share/data/pseudos_module/espresso/nninc/pbe/van/Ti.UPF
     MD5 check sum: 8e4df49b7f0d34bbd5052bf3f5ea0213
     Pseudo is Ultrasoft, Zval = 12.0
     Generated by new atomic code, or converted to UPF format
     Using radial grid of  851 points,  6 beta functions with: 
                l(1) =   0
                l(2) =   0
                l(3) =   1
                l(4) =   1
                l(5) =   2
                l(6) =   2
     Q(r) pseudized with  8 coefficients,  rinner =    1.000   1.000   1.000
                                                       1.000   1.000

     PseudoPot. # 2 for O  read from file:
     /storage/coda1/p-amedford6/0/shared/rich_project_chbe-medford/medford-share/data/pseudos_module/espresso/nninc/pbe/van/O.UPF
     MD5 check sum: 78c19812648e8988a0fe644b0f25305e
     Pseudo is Ultrasoft, Zval =  6.0
     Generated by new atomic code, or converted to UPF format
     Using radial grid of  737 points,  4 beta functions with: 
                l(1) =   0
                l(2) =   0
                l(3) =   1
                l(4) =   1
     Q(r) pseudized with  8 coefficients,  rinner =    0.800   0.800   0.800


     PseudoPot. # 3 for N  read from file:
     /storage/coda1/p-amedford6/0/shared/rich_project_chbe-medford/medford-share/data/pseudos_module/espresso/nninc/pbe/van/N.UPF
     MD5 check sum: 90d10febe142ad51ac9d5be1deb811c4
     Pseudo is Ultrasoft, Zval =  5.0
     Generated by new atomic code, or converted to UPF format
     Using radial grid of  729 points,  4 beta functions with: 
                l(1) =   0
                l(2) =   0
                l(3) =   1
                l(4) =   1
     Q(r) pseudized with  8 coefficients,  rinner =    0.800   0.800   0.800


     PseudoPot. # 4 for C  read from file:
     /storage/coda1/p-amedford6/0/shared/rich_project_chbe-medford/medford-share/data/pseudos_module/espresso/nninc/pbe/van/C.UPF
     MD5 check sum: 1a69bf6b8db32088f5b2163dbdb77a27
     Pseudo is Ultrasoft, Zval =  4.0
     Generated by new atomic code, or converted to UPF format
     Using radial grid of  721 points,  4 beta functions with: 
                l(1) =   0
                l(2) =   0
                l(3) =   1
                l(4) =   1
     Q(r) pseudized with  8 coefficients,  rinner =    0.800   0.800   0.800


     PseudoPot. # 5 for H  read from file:
     /storage/coda1/p-amedford6/0/shared/rich_project_chbe-medford/medford-share/data/pseudos_module/espresso/nninc/pbe/van/H.UPF
     MD5 check sum: b5ee9d7bfd3a09ee7748110bda690ff7
     Pseudo is Ultrasoft, Zval =  1.0
     Generated by new atomic code, or converted to UPF format
     Using radial grid of  615 points,  1 beta functions with: 
                l(1) =   0
     Q(r) pseudized with  8 coefficients,  rinner =    0.800

     atomic species   valence    mass     pseudopotential
        Ti1           12.00    47.86700     Ti( 1.00)
        O1             6.00    15.99900     O ( 1.00)
        N1             5.00    14.00700     N ( 1.00)
        C1             4.00    12.01100     C ( 1.00)
        H1             1.00     1.00800     H ( 1.00)

     No symmetry found



   Cartesian axes

     site n.     atom                  positions (alat units)
         1           Ti1 tau(   1) = (   0.0004258   2.9801865   6.0000000  )
         2           Ti1 tau(   2) = (   3.2906075   1.4906267   6.0002472  )
         3           O1  tau(   3) = (   0.0006271   0.0005054   7.9858123  )
         4           O1  tau(   4) = (   3.2906025   0.0005020   7.3038282  )
         5           O1  tau(   5) = (   4.5942328   1.4918067   9.2879030  )
         6           O1  tau(   6) = (   1.9868534   1.4903216   9.2879459  )
         7           Ti1 tau(   7) = (   3.2907910   2.8959150   9.1758416  )
         8           Ti1 tau(   8) = (   0.0015273   1.4827037   9.2680791  )
         9           O1  tau(   9) = (   3.2912281   5.9459940  11.3193265  )
        10           O1  tau(  10) = (   0.0116148   5.9584955  10.6183126  )
        11           O1  tau(  11) = (   1.3103257   1.4650607  12.6442557  )
        12           O1  tau(  12) = (   5.3047449   1.4806448  12.6312737  )
        13           Ti1 tau(  13) = (   6.5337005   3.0128982  12.6900614  )
        14           Ti1 tau(  14) = (   3.2207025   1.4698770  12.4715817  )
        15           O1  tau(  15) = (   6.5518216   5.9146589  14.6704082  )
        16           O1  tau(  16) = (   3.3240203   5.9583723  13.8895330  )
        17           O1  tau(  17) = (   4.5456974   1.5225049  16.1264218  )
        18           O1  tau(  18) = (   2.0489736   1.4727210  15.9535721  )
        19           Ti1 tau(  19) = (   3.2591190   2.9927146  15.6788090  )
        20           Ti1 tau(  20) = (   0.0289511   1.3544711  15.7732889  )
        21           O1  tau(  21) = (   3.2904802   0.0005063   4.7018136  )
        22           O1  tau(  22) = (   0.0559926   0.0451390  17.2112278  )
        23           O1  tau(  23) = (   1.3043587   1.4918075   6.0039043  )
        24           O1  tau(  24) = (   5.2767064   1.4903225   6.0039473  )
        25           Ti1 tau(  25) = (   0.0000382   5.9609847   6.0000000  )
        26           Ti1 tau(  26) = (   3.2902200   4.4714249   6.0002472  )
        27           O1  tau(  27) = (   0.0002396   2.9813036   7.9858123  )
        28           O1  tau(  28) = (   3.2902150   2.9813002   7.3038282  )
        29           O1  tau(  29) = (   4.5938453   4.4726049   9.2879030  )
        30           O1  tau(  30) = (   1.9864658   4.4711199   9.2879459  )
        31           Ti1 tau(  31) = (   3.2891106   5.8743827   9.1763621  )
        32           Ti1 tau(  32) = (   0.0006254   4.4649316   9.2693709  )
        33           O1  tau(  33) = (   3.2889932   2.9698301  11.3211337  )
        34           O1  tau(  34) = (   0.0092240   2.9805883  10.6323155  )
        35           O1  tau(  35) = (   1.3069247   4.4567274  12.6410950  )
        36           O1  tau(  36) = (   5.3013738   4.4587240  12.6283471  )
        37           Ti1 tau(  37) = (   6.5339814   0.0202798  12.5235249  )
        38           Ti1 tau(  38) = (   3.2191325   4.4512509  12.4750946  )
        39           O1  tau(  39) = (   6.5688456   2.9522374  14.7547250  )
        40           O1  tau(  40) = (   3.3031296   2.9710333  13.8824388  )
        41           O1  tau(  41) = (   4.5425837   4.4734130  15.9989242  )
        42           O1  tau(  42) = (   2.0771424   4.4889556  16.0364895  )
        43           Ti1 tau(  43) = (   3.3121389   0.0026565  15.6888161  )
        44           Ti1 tau(  44) = (   6.5128106   4.4989306  16.3061806  )
        45           O1  tau(  45) = (   3.2900926   2.9813045   4.7018136  )
        46           O1  tau(  46) = (   1.3039711   4.4726057   6.0039043  )
        47           O1  tau(  47) = (   5.2763189   4.4711207   6.0039473  )
        48           N1  tau(  48) = (   0.4628824   2.9849886  17.7976856  )
        49           C1  tau(  49) = (   1.4182946   2.9518240  18.6600831  )
        50           H1  tau(  50) = (   2.3503500   2.6458988  18.1556329  )
        51           N1  tau(  51) = (   5.7893717   3.5482605  18.2279111  )
        52           H1  tau(  52) = (   5.8942619   4.0012392  19.1365464  )
        53           H1  tau(  53) = (   5.0734348   2.8266848  18.2415795  )

     number of k points=    10  Fermi-Dirac smearing, width (Ry)=  0.0073
                       cart. coord. in units 2pi/alat
        k(    1) = (   0.0000000   0.0000000   0.0000000), wk =   0.1250000
        k(    2) = (   0.0000000   0.0419351   0.0000000), wk =   0.2500000
        k(    3) = (   0.0000000  -0.0838702   0.0000000), wk =   0.1250000
        k(    4) = (   0.0379955   0.0000049   0.0000000), wk =   0.2500000
        k(    5) = (   0.0379955   0.0419400   0.0000000), wk =   0.2500000
        k(    6) = (   0.0379955  -0.0838652   0.0000000), wk =   0.2500000
        k(    7) = (   0.0379955  -0.0419301   0.0000000), wk =   0.2500000
        k(    8) = (  -0.0759910  -0.0000099   0.0000000), wk =   0.1250000
        k(    9) = (  -0.0759910   0.0419252   0.0000000), wk =   0.2500000
        k(   10) = (  -0.0759910  -0.0838800   0.0000000), wk =   0.1250000

     Dense  grid:   566857 G-vectors     FFT dimensions: (  72,  64, 270)

     Smooth grid:   143421 G-vectors     FFT dimensions: (  45,  40, 180)

     Estimated max dynamical RAM per process >     363.40 MB

     Estimated total dynamical RAM >       3.55 GB
     Cannot read rho : file not found

     Initial potential from superposition of free atoms

     starting charge  378.99916, renormalised to  395.00000

     negative rho (up, down):  1.776E-02 0.000E+00


     %%%%%%%%%%%%%%%%%%%%%%%%%%%%%%%%%%%%%%%%%%%%%%%%%%%%%%%%%%%%%%%%%%%%%%%%
     %                                                                      %
     % You are using vdW-DF, which was implemented by the Thonhauser group. %
     % Please cite the following two papers that made this development      %
     % possible and the two reviews that describe the various versions:     %
     %                                                                      %
     %   T. Thonhauser et al., PRL 115, 136402 (2015).                      %
     %   T. Thonhauser et al., PRB 76, 125112 (2007).                       %
     %   K. Berland et al., Rep. Prog. Phys. 78, 066501 (2015).             %
     %   D.C. Langreth et al., J. Phys.: Condens. Matter 21, 084203 (2009). %
     %                                                                      %
     %                                                                      %
     % If you are calculating the stress with vdW-DF, please also cite:     %
     %                                                                      %
     %   R. Sabatini et al., J. Phys.: Condens. Matter 24, 424209 (2012).   %
     %                                                                      %
     %%%%%%%%%%%%%%%%%%%%%%%%%%%%%%%%%%%%%%%%%%%%%%%%%%%%%%%%%%%%%%%%%%%%%%%%


 
     Adding external electric field

     Computed dipole along edir(3) : 
        Dipole               -8.0588 Ry au,        -20.4833 Debye
        Dipole field         -0.0152 Ry au, 
 
        Potential amp.        1.4098 Ry
        Total length         46.3494 bohr
 
     Starting wfcs are  299 atomic wfcs
  @ DRIVER MODE: Message from server: STATUS
  @ DRIVER MODE: Message from server: POSDATA
  @ DRIVER MODE: Reading and sharing cell 
  @ DRIVER MODE: Reading and sharing positions 
  @ DRIVER MODE: Received positions 

     total cpu time spent up to now is       14.2 secs

     Self-consistent Calculation

     iteration #  1     ecut=    29.40 Ry     beta= 0.05
     Davidson diagonalization with overlap
     c_bands:  1 eigenvalues not converged
     c_bands:  1 eigenvalues not converged
     c_bands:  2 eigenvalues not converged
     c_bands:  3 eigenvalues not converged
     c_bands:  3 eigenvalues not converged
     c_bands:  2 eigenvalues not converged
     c_bands:  1 eigenvalues not converged
     ethr =  1.00E-05,  avg # of iterations = 19.3

     negative rho (up, down):  1.563E-02 0.000E+00
 
     Adding external electric field

     Computed dipole along edir(3) : 
        Dipole               38.2036 Ry au,         97.1039 Debye
        Dipole field          0.0721 Ry au, 
 
        Potential amp.       -6.6831 Ry
        Total length         46.3494 bohr
 

     total cpu time spent up to now is       56.5 secs

     total energy              =   -2614.85052746 Ry
     estimated scf accuracy    <    3583.76272724 Ry

     iteration #  2     ecut=    29.40 Ry     beta= 0.05
     Davidson diagonalization with overlap
     c_bands:  5 eigenvalues not converged
     c_bands:  3 eigenvalues not converged
     c_bands:  5 eigenvalues not converged
     c_bands:  4 eigenvalues not converged
     ethr =  1.00E-02,  avg # of iterations = 21.1

     negative rho (up, down):  5.538E-03 0.000E+00
 
     Adding external electric field

     Computed dipole along edir(3) : 
        Dipole               -2.5194 Ry au,         -6.4037 Debye
        Dipole field         -0.0048 Ry au, 
 
        Potential amp.        0.4407 Ry
        Total length         46.3494 bohr
 

     total cpu time spent up to now is      129.7 secs

     total energy              =   -2466.01877275 Ry
     estimated scf accuracy    <   63159.84201481 Ry

     iteration #  3     ecut=    29.40 Ry     beta= 0.05
     Davidson diagonalization with overlap
     ethr =  1.00E-02,  avg # of iterations = 14.1

     negative rho (up, down):  5.598E-03 0.000E+00
 
     Adding external electric field

     Computed dipole along edir(3) : 
        Dipole               -4.4832 Ry au,        -11.3952 Debye
        Dipole field         -0.0085 Ry au, 
 
        Potential amp.        0.7843 Ry
        Total length         46.3494 bohr
 

     total cpu time spent up to now is      183.0 secs

     total energy              =   -2917.43361810 Ry
     estimated scf accuracy    <    3796.37138050 Ry

     iteration #  4     ecut=    29.40 Ry     beta= 0.05
     Davidson diagonalization with overlap
     c_bands:  1 eigenvalues not converged
     c_bands:  1 eigenvalues not converged
     ethr =  1.00E-02,  avg # of iterations = 15.6

     negative rho (up, down):  5.627E-03 0.000E+00
 
     Adding external electric field

     Computed dipole along edir(3) : 
        Dipole               -5.4221 Ry au,        -13.7817 Debye
        Dipole field         -0.0102 Ry au, 
 
        Potential amp.        0.9485 Ry
        Total length         46.3494 bohr
 

     total cpu time spent up to now is      203.6 secs

     total energy              =   -2930.74561737 Ry
     estimated scf accuracy    <     649.55692325 Ry

     iteration #  5     ecut=    29.40 Ry     beta= 0.05
     Davidson diagonalization with overlap
     ethr =  1.00E-02,  avg # of iterations =  6.4

     negative rho (up, down):  5.631E-03 0.000E+00
 
     Adding external electric field

     Computed dipole along edir(3) : 
        Dipole               -5.9577 Ry au,        -15.1430 Debye
        Dipole field         -0.0112 Ry au, 
 
        Potential amp.        1.0422 Ry
        Total length         46.3494 bohr
 

     total cpu time spent up to now is      215.7 secs

     total energy              =   -2931.39557917 Ry
     estimated scf accuracy    <     290.16213936 Ry

     iteration #  6     ecut=    29.40 Ry     beta= 0.05
     Davidson diagonalization with overlap
     ethr =  1.00E-02,  avg # of iterations =  7.5

     negative rho (up, down):  5.618E-03 0.000E+00
 
     Adding external electric field

     Computed dipole along edir(3) : 
        Dipole               -5.3927 Ry au,        -13.7069 Debye
        Dipole field         -0.0102 Ry au, 
 
        Potential amp.        0.9434 Ry
        Total length         46.3494 bohr
 

     total cpu time spent up to now is      229.2 secs

     total energy              =   -2939.42506939 Ry
     estimated scf accuracy    <      36.70426929 Ry

     iteration #  7     ecut=    29.40 Ry     beta= 0.05
     Davidson diagonalization with overlap
     ethr =  9.29E-03,  avg # of iterations =  3.5

     negative rho (up, down):  5.601E-03 0.000E+00
 
     Adding external electric field

     Computed dipole along edir(3) : 
        Dipole               -4.6948 Ry au,        -11.9329 Debye
        Dipole field         -0.0089 Ry au, 
 
        Potential amp.        0.8213 Ry
        Total length         46.3494 bohr
 

     total cpu time spent up to now is      240.0 secs

     total energy              =   -2940.28058234 Ry
     estimated scf accuracy    <      18.65263054 Ry

     iteration #  8     ecut=    29.40 Ry     beta= 0.05
     Davidson diagonalization with overlap
     ethr =  4.72E-03,  avg # of iterations =  1.8

     negative rho (up, down):  5.596E-03 0.000E+00
 
     Adding external electric field

     Computed dipole along edir(3) : 
        Dipole               -3.7112 Ry au,         -9.4330 Debye
        Dipole field         -0.0070 Ry au, 
 
        Potential amp.        0.6492 Ry
        Total length         46.3494 bohr
 

     total cpu time spent up to now is      250.4 secs

     total energy              =   -2940.45378011 Ry
     estimated scf accuracy    <      16.95222150 Ry

     iteration #  9     ecut=    29.40 Ry     beta= 0.05
     Davidson diagonalization with overlap
     ethr =  4.29E-03,  avg # of iterations =  1.4

     negative rho (up, down):  5.951E-03 0.000E+00
 
     Adding external electric field

     Computed dipole along edir(3) : 
        Dipole                4.2137 Ry au,         10.7102 Debye
        Dipole field          0.0080 Ry au, 
 
        Potential amp.       -0.7371 Ry
        Total length         46.3494 bohr
 

     total cpu time spent up to now is      260.5 secs

     total energy              =   -2942.01663116 Ry
     estimated scf accuracy    <      17.03103511 Ry

     iteration # 10     ecut=    29.40 Ry     beta= 0.05
     Davidson diagonalization with overlap
     ethr =  4.29E-03,  avg # of iterations = 16.1

     negative rho (up, down):  6.292E-03 0.000E+00
 
     Adding external electric field

     Computed dipole along edir(3) : 
        Dipole                5.8061 Ry au,         14.7577 Debye
        Dipole field          0.0110 Ry au, 
 
        Potential amp.       -1.0157 Ry
        Total length         46.3494 bohr
 

     total cpu time spent up to now is      283.1 secs

     total energy              =   -2995.61873266 Ry
     estimated scf accuracy    <    3242.95871204 Ry

     iteration # 11     ecut=    29.40 Ry     beta= 0.05
     Davidson diagonalization with overlap
     ethr =  4.29E-03,  avg # of iterations =  1.2

     negative rho (up, down):  6.249E-03 0.000E+00
 
     Adding external electric field

     Computed dipole along edir(3) : 
        Dipole                1.7203 Ry au,          4.3726 Debye
        Dipole field          0.0032 Ry au, 
 
        Potential amp.       -0.3009 Ry
        Total length         46.3494 bohr
 

     total cpu time spent up to now is      293.1 secs

     total energy              =   -2945.69701822 Ry
     estimated scf accuracy    <    3309.07134021 Ry

     iteration # 12     ecut=    29.40 Ry     beta= 0.05
     Davidson diagonalization with overlap
     ethr =  4.29E-03,  avg # of iterations = 10.5

     negative rho (up, down):  6.276E-03 0.000E+00
 
     Adding external electric field

     Computed dipole along edir(3) : 
        Dipole                1.6311 Ry au,          4.1457 Debye
        Dipole field          0.0031 Ry au, 
 
        Potential amp.       -0.2853 Ry
        Total length         46.3494 bohr
 

     total cpu time spent up to now is      309.8 secs

     total energy              =   -2951.32809938 Ry
     estimated scf accuracy    <    1583.87849658 Ry

     iteration # 13     ecut=    29.40 Ry     beta= 0.05
     Davidson diagonalization with overlap
     ethr =  4.29E-03,  avg # of iterations =  1.2

     negative rho (up, down):  6.445E-03 0.000E+00
 
     Adding external electric field

     Computed dipole along edir(3) : 
        Dipole                3.1519 Ry au,          8.0112 Debye
        Dipole field          0.0059 Ry au, 
 
        Potential amp.       -0.5514 Ry
        Total length         46.3494 bohr
 

     total cpu time spent up to now is      320.0 secs

     total energy              =   -2962.84021924 Ry
     estimated scf accuracy    <    1756.95464292 Ry

     iteration # 14     ecut=    29.40 Ry     beta= 0.05
     Davidson diagonalization with overlap
     ethr =  4.29E-03,  avg # of iterations =  1.3

     negative rho (up, down):  6.400E-03 0.000E+00
 
     Adding external electric field

     Computed dipole along edir(3) : 
        Dipole                0.7433 Ry au,          1.8893 Debye
        Dipole field          0.0014 Ry au, 
 
        Potential amp.       -0.1300 Ry
        Total length         46.3494 bohr
 

     total cpu time spent up to now is      330.1 secs

     total energy              =   -2941.60406420 Ry
     estimated scf accuracy    <    1855.05189406 Ry

     iteration # 15     ecut=    29.40 Ry     beta= 0.05
     Davidson diagonalization with overlap
     ethr =  4.29E-03,  avg # of iterations =  2.2

     negative rho (up, down):  6.555E-03 0.000E+00
 
     Adding external electric field

     Computed dipole along edir(3) : 
        Dipole                0.7155 Ry au,          1.8186 Debye
        Dipole field          0.0014 Ry au, 
 
        Potential amp.       -0.1252 Ry
        Total length         46.3494 bohr
 

     total cpu time spent up to now is      340.8 secs

     total energy              =   -2940.79113433 Ry
     estimated scf accuracy    <    1445.30692049 Ry

     iteration # 16     ecut=    29.40 Ry     beta= 0.05
     Davidson diagonalization with overlap
     ethr =  4.29E-03,  avg # of iterations = 15.7

     negative rho (up, down):  6.534E-03 0.000E+00
 
     Adding external electric field

     Computed dipole along edir(3) : 
        Dipole               -0.8949 Ry au,         -2.2746 Debye
        Dipole field         -0.0017 Ry au, 
 
        Potential amp.        0.1566 Ry
        Total length         46.3494 bohr
 

     total cpu time spent up to now is      366.9 secs

     total energy              =   -2937.04313817 Ry
     estimated scf accuracy    <     429.41070402 Ry

     iteration # 17     ecut=    29.40 Ry     beta= 0.05
     Davidson diagonalization with overlap
     ethr =  4.29E-03,  avg # of iterations =  8.7

     negative rho (up, down):  6.504E-03 0.000E+00
 
     Adding external electric field

     Computed dipole along edir(3) : 
        Dipole               -0.3537 Ry au,         -0.8990 Debye
        Dipole field         -0.0007 Ry au, 
 
        Potential amp.        0.0619 Ry
        Total length         46.3494 bohr
 

     total cpu time spent up to now is      380.8 secs

     total energy              =   -2940.54213736 Ry
     estimated scf accuracy    <     151.92654797 Ry

     iteration # 18     ecut=    29.40 Ry     beta= 0.05
     Davidson diagonalization with overlap
     ethr =  4.29E-03,  avg # of iterations =  1.5

     negative rho (up, down):  6.661E-03 0.000E+00
 
     Adding external electric field

     Computed dipole along edir(3) : 
        Dipole               -5.9293 Ry au,        -15.0707 Debye
        Dipole field         -0.0112 Ry au, 
 
        Potential amp.        1.0372 Ry
        Total length         46.3494 bohr
 

     total cpu time spent up to now is      391.1 secs

     total energy              =   -2923.31413771 Ry
     estimated scf accuracy    <     228.09866496 Ry

     iteration # 19     ecut=    29.40 Ry     beta= 0.05
     Davidson diagonalization with overlap
     ethr =  4.29E-03,  avg # of iterations =  9.4

     negative rho (up, down):  2.205E-03 0.000E+00
 
     Adding external electric field

     Computed dipole along edir(3) : 
        Dipole               -5.7604 Ry au,        -14.6415 Debye
        Dipole field         -0.0109 Ry au, 
 
        Potential amp.        1.0077 Ry
        Total length         46.3494 bohr
 

     total cpu time spent up to now is      415.1 secs

     total energy              =   -2949.90505449 Ry
     estimated scf accuracy    <     690.67481095 Ry

     iteration # 20     ecut=    29.40 Ry     beta= 0.05
     Davidson diagonalization with overlap
     ethr =  4.29E-03,  avg # of iterations =  1.8

     negative rho (up, down):  1.860E-03 0.000E+00
 
     Adding external electric field

     Computed dipole along edir(3) : 
        Dipole               -6.2140 Ry au,        -15.7944 Debye
        Dipole field         -0.0117 Ry au, 
 
        Potential amp.        1.0870 Ry
        Total length         46.3494 bohr
 

     total cpu time spent up to now is      425.7 secs

     total energy              =   -2951.02070111 Ry
     estimated scf accuracy    <     821.80148934 Ry

     iteration # 21     ecut=    29.40 Ry     beta= 0.05
     Davidson diagonalization with overlap
     ethr =  4.29E-03,  avg # of iterations =  3.3

     negative rho (up, down):  1.811E-03 0.000E+00
 
     Adding external electric field

     Computed dipole along edir(3) : 
        Dipole               -5.9747 Ry au,        -15.1861 Debye
        Dipole field         -0.0113 Ry au, 
 
        Potential amp.        1.0452 Ry
        Total length         46.3494 bohr
 

     total cpu time spent up to now is      437.7 secs

     total energy              =   -2950.46328205 Ry
     estimated scf accuracy    <    1016.85129399 Ry

     iteration # 22     ecut=    29.40 Ry     beta= 0.05
     Davidson diagonalization with overlap
     ethr =  4.29E-03,  avg # of iterations =  1.4

     negative rho (up, down):  2.201E-03 0.000E+00
 
     Adding external electric field

     Computed dipole along edir(3) : 
        Dipole               -6.9943 Ry au,        -17.7778 Debye
        Dipole field         -0.0132 Ry au, 
 
        Potential amp.        1.2236 Ry
        Total length         46.3494 bohr
 

     total cpu time spent up to now is      447.9 secs

     total energy              =   -2955.84619279 Ry
     estimated scf accuracy    <    1018.21206559 Ry

     iteration # 23     ecut=    29.40 Ry     beta= 0.05
     Davidson diagonalization with overlap
     ethr =  4.29E-03,  avg # of iterations =  8.3

     negative rho (up, down):  2.050E-02 0.000E+00
 
     Adding external electric field

     Computed dipole along edir(3) : 
        Dipole               -3.7036 Ry au,         -9.4135 Debye
        Dipole field         -0.0070 Ry au, 
 
        Potential amp.        0.6479 Ry
        Total length         46.3494 bohr
 

     total cpu time spent up to now is      481.0 secs

     total energy              =   -2927.84106298 Ry
     estimated scf accuracy    <    2951.94183242 Ry

     iteration # 24     ecut=    29.40 Ry     beta= 0.05
     Davidson diagonalization with overlap
     c_bands:  1 eigenvalues not converged
     ethr =  4.29E-03,  avg # of iterations = 15.3

     negative rho (up, down):  2.588E-02 0.000E+00
 
     Adding external electric field

     Computed dipole along edir(3) : 
        Dipole               -2.0154 Ry au,         -5.1227 Debye
        Dipole field         -0.0038 Ry au, 
 
        Potential amp.        0.3526 Ry
        Total length         46.3494 bohr
 

     total cpu time spent up to now is      501.2 secs

     total energy              =   -2935.86842760 Ry
     estimated scf accuracy    <     184.70761551 Ry

     iteration # 25     ecut=    29.40 Ry     beta= 0.05
     Davidson diagonalization with overlap
     ethr =  4.29E-03,  avg # of iterations =  7.7

     negative rho (up, down):  2.775E-02 0.000E+00
 
     Adding external electric field

     Computed dipole along edir(3) : 
        Dipole               -1.3327 Ry au,         -3.3874 Debye
        Dipole field         -0.0025 Ry au, 
 
        Potential amp.        0.2331 Ry
        Total length         46.3494 bohr
 

     total cpu time spent up to now is      513.5 secs

     total energy              =   -2937.34975512 Ry
     estimated scf accuracy    <      26.81264595 Ry

     iteration # 26     ecut=    29.40 Ry     beta= 0.05
     Davidson diagonalization with overlap
     ethr =  4.29E-03,  avg # of iterations = 12.3

     negative rho (up, down):  2.371E-02 0.000E+00
 
     Adding external electric field

     Computed dipole along edir(3) : 
        Dipole               -1.2956 Ry au,         -3.2932 Debye
        Dipole field         -0.0024 Ry au, 
 
        Potential amp.        0.2267 Ry
        Total length         46.3494 bohr
 

     total cpu time spent up to now is      528.3 secs

     total energy              =   -2938.99945112 Ry
     estimated scf accuracy    <       1.21691284 Ry

     iteration # 27     ecut=    29.40 Ry     beta= 0.05
     Davidson diagonalization with overlap
     c_bands:  2 eigenvalues not converged
     c_bands:  4 eigenvalues not converged
     c_bands:  4 eigenvalues not converged
     c_bands:  2 eigenvalues not converged
     c_bands:  1 eigenvalues not converged
     c_bands:  4 eigenvalues not converged
     c_bands:  2 eigenvalues not converged
     c_bands:  3 eigenvalues not converged
     ethr =  3.08E-04,  avg # of iterations = 21.6

     negative rho (up, down):  2.803E-02 0.000E+00
 
     Adding external electric field

     Computed dipole along edir(3) : 
        Dipole               -1.7456 Ry au,         -4.4369 Debye
        Dipole field         -0.0033 Ry au, 
 
        Potential amp.        0.3054 Ry
        Total length         46.3494 bohr
 

     total cpu time spent up to now is      619.3 secs

     total energy              =   -2939.10770079 Ry
     estimated scf accuracy    <       1.76454465 Ry

     iteration # 28     ecut=    29.40 Ry     beta= 0.05
     Davidson diagonalization with overlap
     ethr =  3.08E-04,  avg # of iterations =  5.6

     negative rho (up, down):  3.778E-02 0.000E+00
 
     Adding external electric field

     Computed dipole along edir(3) : 
        Dipole               -2.4304 Ry au,         -6.1774 Debye
        Dipole field         -0.0046 Ry au, 
 
        Potential amp.        0.4252 Ry
        Total length         46.3494 bohr
 

     total cpu time spent up to now is      632.8 secs

     total energy              =   -2939.09077467 Ry
     estimated scf accuracy    <       0.99450463 Ry

     iteration # 29     ecut=    29.40 Ry     beta= 0.05
     Davidson diagonalization with overlap
     c_bands:  2 eigenvalues not converged
     c_bands:  5 eigenvalues not converged
     c_bands:  2 eigenvalues not converged
     c_bands:  3 eigenvalues not converged
     c_bands:  5 eigenvalues not converged
     c_bands:  3 eigenvalues not converged
     c_bands:  1 eigenvalues not converged
     c_bands:  1 eigenvalues not converged
     ethr =  2.52E-04,  avg # of iterations = 19.8

     negative rho (up, down):  3.850E-02 0.000E+00
 
     Adding external electric field

     Computed dipole along edir(3) : 
        Dipole               -2.1420 Ry au,         -5.4443 Debye
        Dipole field         -0.0040 Ry au, 
 
        Potential amp.        0.3747 Ry
        Total length         46.3494 bohr
 

     total cpu time spent up to now is      653.0 secs

     total energy              =   -2939.12663814 Ry
     estimated scf accuracy    <       2.97605547 Ry

     iteration # 30     ecut=    29.40 Ry     beta= 0.05
     Davidson diagonalization with overlap
     ethr =  2.52E-04,  avg # of iterations =  1.7

     negative rho (up, down):  5.109E-02 0.000E+00
 
     Adding external electric field

     Computed dipole along edir(3) : 
        Dipole               -2.1351 Ry au,         -5.4270 Debye
        Dipole field         -0.0040 Ry au, 
 
        Potential amp.        0.3735 Ry
        Total length         46.3494 bohr
 

     total cpu time spent up to now is      672.1 secs

     total energy              =   -2939.07149980 Ry
     estimated scf accuracy    <       1.52096302 Ry

     iteration # 31     ecut=    29.40 Ry     beta= 0.05
     Davidson diagonalization with overlap
     ethr =  2.52E-04,  avg # of iterations =  1.9

     negative rho (up, down):  6.745E-02 0.000E+00
 
     Adding external electric field

     Computed dipole along edir(3) : 
        Dipole               -1.2699 Ry au,         -3.2278 Debye
        Dipole field         -0.0024 Ry au, 
 
        Potential amp.        0.2222 Ry
        Total length         46.3494 bohr
 

     total cpu time spent up to now is      689.3 secs

     total energy              =   -2938.87267620 Ry
     estimated scf accuracy    <       4.57220981 Ry

     iteration # 32     ecut=    29.40 Ry     beta= 0.05
     Davidson diagonalization with overlap
     c_bands:  1 eigenvalues not converged
     ethr =  2.52E-04,  avg # of iterations = 13.8

     negative rho (up, down):  5.196E-02 0.000E+00
 
     Adding external electric field

     Computed dipole along edir(3) : 
        Dipole               -1.5845 Ry au,         -4.0274 Debye
        Dipole field         -0.0030 Ry au, 
 
        Potential amp.        0.2772 Ry
        Total length         46.3494 bohr
 

     total cpu time spent up to now is      705.6 secs

     total energy              =   -2938.97818582 Ry
     estimated scf accuracy    <       0.58908891 Ry

     iteration # 33     ecut=    29.40 Ry     beta= 0.05
     Davidson diagonalization with overlap
     ethr =  1.49E-04,  avg # of iterations =  7.1

     negative rho (up, down):  3.023E-02 0.000E+00
 
     Adding external electric field

     Computed dipole along edir(3) : 
        Dipole               -1.1914 Ry au,         -3.0283 Debye
        Dipole field         -0.0022 Ry au, 
 
        Potential amp.        0.2084 Ry
        Total length         46.3494 bohr
 

     total cpu time spent up to now is      720.9 secs

     total energy              =   -2939.00014388 Ry
     estimated scf accuracy    <       0.59858708 Ry

     iteration # 34     ecut=    29.40 Ry     beta= 0.05
     Davidson diagonalization with overlap
     ethr =  1.49E-04,  avg # of iterations =  6.6

     negative rho (up, down):  2.285E-02 0.000E+00
 
     Adding external electric field

     Computed dipole along edir(3) : 
        Dipole                0.0138 Ry au,          0.0351 Debye
        Dipole field          0.0000 Ry au, 
 
        Potential amp.       -0.0024 Ry
        Total length         46.3494 bohr
 

     total cpu time spent up to now is      748.5 secs

     total energy              =   -2938.93620017 Ry
     estimated scf accuracy    <       0.49515171 Ry

     iteration # 35     ecut=    29.40 Ry     beta= 0.05
     Davidson diagonalization with overlap
     c_bands:  4 eigenvalues not converged
     c_bands:  3 eigenvalues not converged
     c_bands:  4 eigenvalues not converged
     c_bands:  3 eigenvalues not converged
     c_bands:  3 eigenvalues not converged
     c_bands:  2 eigenvalues not converged
     c_bands:  1 eigenvalues not converged
     c_bands:  3 eigenvalues not converged
     c_bands:  1 eigenvalues not converged
     c_bands:  1 eigenvalues not converged
     ethr =  1.25E-04,  avg # of iterations = 20.0

     negative rho (up, down):  2.528E-02 0.000E+00
 
     Adding external electric field

     Computed dipole along edir(3) : 
        Dipole               -0.2101 Ry au,         -0.5340 Debye
        Dipole field         -0.0004 Ry au, 
 
        Potential amp.        0.0368 Ry
        Total length         46.3494 bohr
 

     total cpu time spent up to now is      769.7 secs

     total energy              =   -2939.03418647 Ry
     estimated scf accuracy    <       0.97708447 Ry

     iteration # 36     ecut=    29.40 Ry     beta= 0.05
     Davidson diagonalization with overlap
     c_bands:  2 eigenvalues not converged
     ethr =  1.25E-04,  avg # of iterations =  4.0

     negative rho (up, down):  2.154E-02 0.000E+00
 
     Adding external electric field

     Computed dipole along edir(3) : 
        Dipole               -0.2385 Ry au,         -0.6063 Debye
        Dipole field         -0.0005 Ry au, 
 
        Potential amp.        0.0417 Ry
        Total length         46.3494 bohr
 

     total cpu time spent up to now is      780.6 secs

     total energy              =   -2939.03235789 Ry
     estimated scf accuracy    <       0.83111324 Ry

     iteration # 37     ecut=    29.40 Ry     beta= 0.05
     Davidson diagonalization with overlap
     ethr =  1.25E-04,  avg # of iterations =  3.5

     negative rho (up, down):  2.298E-02 0.000E+00
 
     Adding external electric field

     Computed dipole along edir(3) : 
        Dipole               -0.1964 Ry au,         -0.4992 Debye
        Dipole field         -0.0004 Ry au, 
 
        Potential amp.        0.0344 Ry
        Total length         46.3494 bohr
 

     total cpu time spent up to now is      791.8 secs

     total energy              =   -2939.02910085 Ry
     estimated scf accuracy    <       0.75601042 Ry

     iteration # 38     ecut=    29.40 Ry     beta= 0.05
     Davidson diagonalization with overlap
     ethr =  1.25E-04,  avg # of iterations =  1.0

     negative rho (up, down):  3.013E-02 0.000E+00
 
     Adding external electric field

     Computed dipole along edir(3) : 
        Dipole               -0.1964 Ry au,         -0.4993 Debye
        Dipole field         -0.0004 Ry au, 
 
        Potential amp.        0.0344 Ry
        Total length         46.3494 bohr
 

     total cpu time spent up to now is      801.6 secs

     total energy              =   -2939.00815681 Ry
     estimated scf accuracy    <       0.62871333 Ry

     iteration # 39     ecut=    29.40 Ry     beta= 0.05
     Davidson diagonalization with overlap
     ethr =  1.25E-04,  avg # of iterations =  3.3

     negative rho (up, down):  2.755E-02 0.000E+00
 
     Adding external electric field

     Computed dipole along edir(3) : 
        Dipole               -0.0897 Ry au,         -0.2280 Debye
        Dipole field         -0.0002 Ry au, 
 
        Potential amp.        0.0157 Ry
        Total length         46.3494 bohr
 

     total cpu time spent up to now is      826.5 secs

     total energy              =   -2939.00783067 Ry
     estimated scf accuracy    <       0.35456039 Ry

     iteration # 40     ecut=    29.40 Ry     beta= 0.05
     Davidson diagonalization with overlap
     ethr =  8.98E-05,  avg # of iterations =  6.5

     negative rho (up, down):  2.358E-02 0.000E+00
 
     Adding external electric field

     Computed dipole along edir(3) : 
        Dipole                0.0152 Ry au,          0.0386 Debye
        Dipole field          0.0000 Ry au, 
 
        Potential amp.       -0.0027 Ry
        Total length         46.3494 bohr
 

     total cpu time spent up to now is      838.3 secs

     total energy              =   -2939.00070875 Ry
     estimated scf accuracy    <       0.23129293 Ry

     iteration # 41     ecut=    29.40 Ry     beta= 0.05
     Davidson diagonalization with overlap
     c_bands:  4 eigenvalues not converged
     ethr =  5.86E-05,  avg # of iterations =  9.3

     negative rho (up, down):  9.016E-03 0.000E+00
 
     Adding external electric field

     Computed dipole along edir(3) : 
        Dipole                0.2079 Ry au,          0.5284 Debye
        Dipole field          0.0004 Ry au, 
 
        Potential amp.       -0.0364 Ry
        Total length         46.3494 bohr
 

     total cpu time spent up to now is      851.4 secs

     total energy              =   -2938.99377515 Ry
     estimated scf accuracy    <       0.10873860 Ry

     iteration # 42     ecut=    29.40 Ry     beta= 0.05
     Davidson diagonalization with overlap
     c_bands:  1 eigenvalues not converged
     c_bands:  5 eigenvalues not converged
     c_bands:  2 eigenvalues not converged
     c_bands:  1 eigenvalues not converged
     c_bands:  1 eigenvalues not converged
     c_bands:  2 eigenvalues not converged
     c_bands:  2 eigenvalues not converged
     c_bands:  2 eigenvalues not converged
     ethr =  2.75E-05,  avg # of iterations = 19.4

     negative rho (up, down):  1.317E-02 0.000E+00
 
     Adding external electric field

     Computed dipole along edir(3) : 
        Dipole                0.0769 Ry au,          0.1956 Debye
        Dipole field          0.0001 Ry au, 
 
        Potential amp.       -0.0135 Ry
        Total length         46.3494 bohr
 

     total cpu time spent up to now is      901.8 secs

     total energy              =   -2938.99866983 Ry
     estimated scf accuracy    <       0.16605767 Ry

     iteration # 43     ecut=    29.40 Ry     beta= 0.05
     Davidson diagonalization with overlap
     c_bands:  1 eigenvalues not converged
     c_bands:  1 eigenvalues not converged
     ethr =  2.75E-05,  avg # of iterations = 11.4

     negative rho (up, down):  1.713E-02 0.000E+00
 
     Adding external electric field

     Computed dipole along edir(3) : 
        Dipole                0.1158 Ry au,          0.2944 Debye
        Dipole field          0.0002 Ry au, 
 
        Potential amp.       -0.0203 Ry
        Total length         46.3494 bohr
 

     total cpu time spent up to now is      915.1 secs

     total energy              =   -2939.00180715 Ry
     estimated scf accuracy    <       0.01488004 Ry

     iteration # 44     ecut=    29.40 Ry     beta= 0.05
     Davidson diagonalization with overlap
     c_bands:  1 eigenvalues not converged
     c_bands:  3 eigenvalues not converged
     c_bands:  2 eigenvalues not converged
     c_bands:  2 eigenvalues not converged
     c_bands:  3 eigenvalues not converged
     c_bands:  2 eigenvalues not converged
     c_bands:  2 eigenvalues not converged
     ethr =  3.77E-06,  avg # of iterations = 19.0

     negative rho (up, down):  1.936E-02 0.000E+00
 
     Adding external electric field

     Computed dipole along edir(3) : 
        Dipole                0.0859 Ry au,          0.2183 Debye
        Dipole field          0.0002 Ry au, 
 
        Potential amp.       -0.0150 Ry
        Total length         46.3494 bohr
 

     total cpu time spent up to now is      937.5 secs

     total energy              =   -2939.00489481 Ry
     estimated scf accuracy    <       0.01387898 Ry

     iteration # 45     ecut=    29.40 Ry     beta= 0.05
     Davidson diagonalization with overlap
     c_bands:  1 eigenvalues not converged
     c_bands:  1 eigenvalues not converged
     c_bands:  1 eigenvalues not converged
     c_bands:  1 eigenvalues not converged
     c_bands:  1 eigenvalues not converged
     c_bands:  1 eigenvalues not converged
     c_bands:  1 eigenvalues not converged
     ethr =  3.51E-06,  avg # of iterations = 18.3

     negative rho (up, down):  1.090E-02 0.000E+00
 
     Adding external electric field

     Computed dipole along edir(3) : 
        Dipole                0.2817 Ry au,          0.7160 Debye
        Dipole field          0.0005 Ry au, 
 
        Potential amp.       -0.0493 Ry
        Total length         46.3494 bohr
 

     total cpu time spent up to now is      955.5 secs

     total energy              =   -2938.99651729 Ry
     estimated scf accuracy    <       0.04625396 Ry

     iteration # 46     ecut=    29.40 Ry     beta= 0.05
     Davidson diagonalization with overlap
     c_bands:  4 eigenvalues not converged
     c_bands:  2 eigenvalues not converged
     c_bands:  3 eigenvalues not converged
     c_bands:  3 eigenvalues not converged
     c_bands:  2 eigenvalues not converged
     c_bands:  1 eigenvalues not converged
     ethr =  3.51E-06,  avg # of iterations = 21.8

     negative rho (up, down):  1.350E-02 0.000E+00
 
     Adding external electric field

     Computed dipole along edir(3) : 
        Dipole                0.3345 Ry au,          0.8502 Debye
        Dipole field          0.0006 Ry au, 
 
        Potential amp.       -0.0585 Ry
        Total length         46.3494 bohr
 

     total cpu time spent up to now is      984.5 secs

     total energy              =   -2939.00452980 Ry
     estimated scf accuracy    <       0.18700348 Ry

     iteration # 47     ecut=    29.40 Ry     beta= 0.05
     Davidson diagonalization with overlap
     c_bands:  1 eigenvalues not converged
     ethr =  3.51E-06,  avg # of iterations = 12.1

     negative rho (up, down):  1.630E-02 0.000E+00
 
     Adding external electric field

     Computed dipole along edir(3) : 
        Dipole                0.2967 Ry au,          0.7542 Debye
        Dipole field          0.0006 Ry au, 
 
        Potential amp.       -0.0519 Ry
        Total length         46.3494 bohr
 

     total cpu time spent up to now is      999.4 secs

     total energy              =   -2939.00274335 Ry
     estimated scf accuracy    <       0.04524915 Ry

     iteration # 48     ecut=    29.40 Ry     beta= 0.05
     Davidson diagonalization with overlap
     c_bands:  1 eigenvalues not converged
     c_bands:  2 eigenvalues not converged
     c_bands:  1 eigenvalues not converged
     c_bands:  2 eigenvalues not converged
     c_bands:  1 eigenvalues not converged
     c_bands:  1 eigenvalues not converged
     c_bands:  1 eigenvalues not converged
     ethr =  3.51E-06,  avg # of iterations = 18.4

     negative rho (up, down):  1.538E-02 0.000E+00
 
     Adding external electric field

     Computed dipole along edir(3) : 
        Dipole                0.3011 Ry au,          0.7652 Debye
        Dipole field          0.0006 Ry au, 
 
        Potential amp.       -0.0527 Ry
        Total length         46.3494 bohr
 

     total cpu time spent up to now is     1018.5 secs

     total energy              =   -2939.00505709 Ry
     estimated scf accuracy    <       0.00281358 Ry

     iteration # 49     ecut=    29.40 Ry     beta= 0.05
     Davidson diagonalization with overlap
     c_bands:  1 eigenvalues not converged
     ethr =  7.12E-07,  avg # of iterations = 14.6

     negative rho (up, down):  1.517E-02 0.000E+00
 
     Adding external electric field

     Computed dipole along edir(3) : 
        Dipole                0.3469 Ry au,          0.8818 Debye
        Dipole field          0.0007 Ry au, 
 
        Potential amp.       -0.0607 Ry
        Total length         46.3494 bohr
 

     total cpu time spent up to now is     1038.0 secs

     total energy              =   -2939.00557180 Ry
     estimated scf accuracy    <       0.00237765 Ry

     iteration # 50     ecut=    29.40 Ry     beta= 0.05
     Davidson diagonalization with overlap
     ethr =  6.02E-07,  avg # of iterations =  6.2

     negative rho (up, down):  1.556E-02 0.000E+00
 
     Adding external electric field

     Computed dipole along edir(3) : 
        Dipole                0.3209 Ry au,          0.8156 Debye
        Dipole field          0.0006 Ry au, 
 
        Potential amp.       -0.0561 Ry
        Total length         46.3494 bohr
 

     total cpu time spent up to now is     1050.2 secs

     total energy              =   -2939.00561325 Ry
     estimated scf accuracy    <       0.00084028 Ry

     iteration # 51     ecut=    29.40 Ry     beta= 0.05
     Davidson diagonalization with overlap
     ethr =  2.13E-07,  avg # of iterations = 12.7

     negative rho (up, down):  1.590E-02 0.000E+00
 
     Adding external electric field

     Computed dipole along edir(3) : 
        Dipole                0.3082 Ry au,          0.7833 Debye
        Dipole field          0.0006 Ry au, 
 
        Potential amp.       -0.0539 Ry
        Total length         46.3494 bohr
 

     total cpu time spent up to now is     1065.0 secs

     total energy              =   -2939.00569722 Ry
     estimated scf accuracy    <       0.00027125 Ry

     iteration # 52     ecut=    29.40 Ry     beta= 0.05
     Davidson diagonalization with overlap
     ethr =  6.87E-08,  avg # of iterations = 12.8

     negative rho (up, down):  1.625E-02 0.000E+00
 
     Adding external electric field

     Computed dipole along edir(3) : 
        Dipole                0.3171 Ry au,          0.8060 Debye
        Dipole field          0.0006 Ry au, 
 
        Potential amp.       -0.0555 Ry
        Total length         46.3494 bohr
 

     total cpu time spent up to now is     1081.3 secs

     total energy              =   -2939.00576535 Ry
     estimated scf accuracy    <       0.00020652 Ry

     iteration # 53     ecut=    29.40 Ry     beta= 0.05
     Davidson diagonalization with overlap
     ethr =  5.23E-08,  avg # of iterations = 11.3

     negative rho (up, down):  1.623E-02 0.000E+00
 
     Adding external electric field

     Computed dipole along edir(3) : 
        Dipole                0.3112 Ry au,          0.7909 Debye
        Dipole field          0.0006 Ry au, 
 
        Potential amp.       -0.0544 Ry
        Total length         46.3494 bohr
 

     total cpu time spent up to now is     1095.6 secs

     total energy              =   -2939.00578656 Ry
     estimated scf accuracy    <       0.00021959 Ry

     iteration # 54     ecut=    29.40 Ry     beta= 0.05
     Davidson diagonalization with overlap
     ethr =  5.23E-08,  avg # of iterations = 11.0

     negative rho (up, down):  1.625E-02 0.000E+00
 
     Adding external electric field

     Computed dipole along edir(3) : 
        Dipole                0.3072 Ry au,          0.7808 Debye
        Dipole field          0.0006 Ry au, 
 
        Potential amp.       -0.0537 Ry
        Total length         46.3494 bohr
 

     total cpu time spent up to now is     1109.7 secs

     total energy              =   -2939.00581786 Ry
     estimated scf accuracy    <       0.00004878 Ry

     iteration # 55     ecut=    29.40 Ry     beta= 0.05
     Davidson diagonalization with overlap
     ethr =  1.23E-08,  avg # of iterations =  9.4

     negative rho (up, down):  1.637E-02 0.000E+00
 
     Adding external electric field

     Computed dipole along edir(3) : 
        Dipole                0.3186 Ry au,          0.8099 Debye
        Dipole field          0.0006 Ry au, 
 
        Potential amp.       -0.0557 Ry
        Total length         46.3494 bohr
 

     total cpu time spent up to now is     1134.7 secs

     total energy              =   -2939.00583393 Ry
     estimated scf accuracy    <       0.00003707 Ry

     iteration # 56     ecut=    29.40 Ry     beta= 0.05
     Davidson diagonalization with overlap
     c_bands:  1 eigenvalues not converged
     ethr =  9.38E-09,  avg # of iterations = 13.1

     negative rho (up, down):  1.643E-02 0.000E+00
 
     Adding external electric field

     Computed dipole along edir(3) : 
        Dipole                0.3161 Ry au,          0.8036 Debye
        Dipole field          0.0006 Ry au, 
 
        Potential amp.       -0.0553 Ry
        Total length         46.3494 bohr
 

     total cpu time spent up to now is     1154.4 secs

     total energy              =   -2939.00585029 Ry
     estimated scf accuracy    <       0.00007955 Ry

     iteration # 57     ecut=    29.40 Ry     beta= 0.05
     Davidson diagonalization with overlap
     ethr =  9.38E-09,  avg # of iterations = 11.4

     negative rho (up, down):  1.647E-02 0.000E+00
 
     Adding external electric field

     Computed dipole along edir(3) : 
        Dipole                0.3156 Ry au,          0.8021 Debye
        Dipole field          0.0006 Ry au, 
 
        Potential amp.       -0.0552 Ry
        Total length         46.3494 bohr
 

     total cpu time spent up to now is     1170.5 secs

     total energy              =   -2939.00587002 Ry
     estimated scf accuracy    <       0.00000957 Ry

     iteration # 58     ecut=    29.40 Ry     beta= 0.05
     Davidson diagonalization with overlap
     ethr =  2.42E-09,  avg # of iterations =  7.7

     negative rho (up, down):  1.647E-02 0.000E+00
 
     Adding external electric field

     Computed dipole along edir(3) : 
        Dipole                0.3152 Ry au,          0.8011 Debye
        Dipole field          0.0006 Ry au, 
 
        Potential amp.       -0.0551 Ry
        Total length         46.3494 bohr
 

     total cpu time spent up to now is     1186.5 secs

     total energy              =   -2939.00588154 Ry
     estimated scf accuracy    <       0.00000748 Ry

     iteration # 59     ecut=    29.40 Ry     beta= 0.05
     Davidson diagonalization with overlap
     ethr =  1.89E-09,  avg # of iterations =  9.3

     negative rho (up, down):  1.645E-02 0.000E+00
 
     Adding external electric field

     Computed dipole along edir(3) : 
        Dipole                0.3154 Ry au,          0.8016 Debye
        Dipole field          0.0006 Ry au, 
 
        Potential amp.       -0.0552 Ry
        Total length         46.3494 bohr
 

     total cpu time spent up to now is     1199.6 secs

     total energy              =   -2939.00589128 Ry
     estimated scf accuracy    <       0.00000497 Ry

     iteration # 60     ecut=    29.40 Ry     beta= 0.05
     Davidson diagonalization with overlap
     ethr =  1.26E-09,  avg # of iterations = 14.2

     negative rho (up, down):  1.648E-02 0.000E+00
 
     Adding external electric field

     Computed dipole along edir(3) : 
        Dipole                0.3138 Ry au,          0.7976 Debye
        Dipole field          0.0006 Ry au, 
 
        Potential amp.       -0.0549 Ry
        Total length         46.3494 bohr
 

     total cpu time spent up to now is     1220.6 secs

     total energy              =   -2939.00590032 Ry
     estimated scf accuracy    <       0.00001437 Ry

     iteration # 61     ecut=    29.40 Ry     beta= 0.05
     Davidson diagonalization with overlap
     ethr =  1.26E-09,  avg # of iterations = 10.1

     negative rho (up, down):  1.646E-02 0.000E+00
 
     Adding external electric field

     Computed dipole along edir(3) : 
        Dipole                0.3137 Ry au,          0.7973 Debye
        Dipole field          0.0006 Ry au, 
 
        Potential amp.       -0.0549 Ry
        Total length         46.3494 bohr
 

     total cpu time spent up to now is     1238.5 secs

     total energy              =   -2939.00591031 Ry
     estimated scf accuracy    <       0.00000201 Ry

     iteration # 62     ecut=    29.40 Ry     beta= 0.05
     Davidson diagonalization with overlap
     ethr =  5.08E-10,  avg # of iterations = 11.6

     negative rho (up, down):  1.645E-02 0.000E+00
 
     Adding external electric field

     Computed dipole along edir(3) : 
        Dipole                0.3133 Ry au,          0.7964 Debye
        Dipole field          0.0006 Ry au, 
 
        Potential amp.       -0.0548 Ry
        Total length         46.3494 bohr
 

     total cpu time spent up to now is     1253.5 secs

     total energy              =   -2939.00591805 Ry
     estimated scf accuracy    <       0.00000166 Ry

     iteration # 63     ecut=    29.40 Ry     beta= 0.05
     Davidson diagonalization with overlap
     c_bands:  1 eigenvalues not converged
     ethr =  4.19E-10,  avg # of iterations = 11.6

     negative rho (up, down):  1.645E-02 0.000E+00
 
     Adding external electric field

     Computed dipole along edir(3) : 
        Dipole                0.3132 Ry au,          0.7961 Debye
        Dipole field          0.0006 Ry au, 
 
        Potential amp.       -0.0548 Ry
        Total length         46.3494 bohr
 

     total cpu time spent up to now is     1270.2 secs

     total energy              =   -2939.00592519 Ry
     estimated scf accuracy    <       0.00000153 Ry

     iteration # 64     ecut=    29.40 Ry     beta= 0.05
     Davidson diagonalization with overlap
     ethr =  3.87E-10,  avg # of iterations =  1.3

     negative rho (up, down):  1.647E-02 0.000E+00
 
     Adding external electric field

     Computed dipole along edir(3) : 
        Dipole                0.3128 Ry au,          0.7950 Debye
        Dipole field          0.0006 Ry au, 
 
        Potential amp.       -0.0547 Ry
        Total length         46.3494 bohr
 

     total cpu time spent up to now is     1280.3 secs

     total energy              =   -2939.00593129 Ry
     estimated scf accuracy    <       0.00000135 Ry

     iteration # 65     ecut=    29.40 Ry     beta= 0.05
     Davidson diagonalization with overlap
     ethr =  3.42E-10,  avg # of iterations =  9.6

     negative rho (up, down):  1.643E-02 0.000E+00
 
     Adding external electric field

     Computed dipole along edir(3) : 
        Dipole                0.3127 Ry au,          0.7947 Debye
        Dipole field          0.0006 Ry au, 
 
        Potential amp.       -0.0547 Ry
        Total length         46.3494 bohr
 

     total cpu time spent up to now is     1294.5 secs

     total energy              =   -2939.00593710 Ry
     estimated scf accuracy    <       0.00000076 Ry

     iteration # 66     ecut=    29.40 Ry     beta= 0.05
     Davidson diagonalization with overlap
     ethr =  1.92E-10,  avg # of iterations =  9.7

     negative rho (up, down):  1.642E-02 0.000E+00
 
     Adding external electric field

     Computed dipole along edir(3) : 
        Dipole                0.3120 Ry au,          0.7931 Debye
        Dipole field          0.0006 Ry au, 
 
        Potential amp.       -0.0546 Ry
        Total length         46.3494 bohr
 

     total cpu time spent up to now is     1311.1 secs

     total energy              =   -2939.00594239 Ry
     estimated scf accuracy    <       0.00000113 Ry

     iteration # 67     ecut=    29.40 Ry     beta= 0.05
     Davidson diagonalization with overlap
     ethr =  1.92E-10,  avg # of iterations =  4.2

     negative rho (up, down):  1.642E-02 0.000E+00
 
     Adding external electric field

     Computed dipole along edir(3) : 
        Dipole                0.3112 Ry au,          0.7909 Debye
        Dipole field          0.0006 Ry au, 
 
        Potential amp.       -0.0544 Ry
        Total length         46.3494 bohr
 

     total cpu time spent up to now is     1368.3 secs

     total energy              =   -2939.00594689 Ry
     estimated scf accuracy    <       0.00000060 Ry

     iteration # 68     ecut=    29.40 Ry     beta= 0.05
     Davidson diagonalization with overlap
     c_bands:  2 eigenvalues not converged
     ethr =  1.52E-10,  avg # of iterations = 13.1

     negative rho (up, down):  1.642E-02 0.000E+00
 
     Adding external electric field

     Computed dipole along edir(3) : 
        Dipole                0.3113 Ry au,          0.7914 Debye
        Dipole field          0.0006 Ry au, 
 
        Potential amp.       -0.0545 Ry
        Total length         46.3494 bohr
 

     total cpu time spent up to now is     1413.4 secs

     total energy              =   -2939.00595124 Ry
     estimated scf accuracy    <       0.00000044 Ry

     iteration # 69     ecut=    29.40 Ry     beta= 0.05
     Davidson diagonalization with overlap
     ethr =  1.11E-10,  avg # of iterations =  4.5

     negative rho (up, down):  1.642E-02 0.000E+00
 
     Adding external electric field

     Computed dipole along edir(3) : 
        Dipole                0.3113 Ry au,          0.7913 Debye
        Dipole field          0.0006 Ry au, 
 
        Potential amp.       -0.0545 Ry
        Total length         46.3494 bohr
 

     total cpu time spent up to now is     1424.9 secs

     total energy              =   -2939.00595502 Ry
     estimated scf accuracy    <       0.00000023 Ry

     iteration # 70     ecut=    29.40 Ry     beta= 0.05
     Davidson diagonalization with overlap
     ethr =  5.85E-11,  avg # of iterations =  4.0

     negative rho (up, down):  1.642E-02 0.000E+00
 
     Adding external electric field

     Computed dipole along edir(3) : 
        Dipole                0.3114 Ry au,          0.7914 Debye
        Dipole field          0.0006 Ry au, 
 
        Potential amp.       -0.0545 Ry
        Total length         46.3494 bohr
 

     total cpu time spent up to now is     1436.3 secs

     total energy              =   -2939.00595844 Ry
     estimated scf accuracy    <       0.00000021 Ry

     iteration # 71     ecut=    29.40 Ry     beta= 0.05
     Davidson diagonalization with overlap
     ethr =  5.34E-11,  avg # of iterations =  1.8

     negative rho (up, down):  1.642E-02 0.000E+00
 
     Adding external electric field

     Computed dipole along edir(3) : 
        Dipole                0.3115 Ry au,          0.7918 Debye
        Dipole field          0.0006 Ry au, 
 
        Potential amp.       -0.0545 Ry
        Total length         46.3494 bohr
 

     total cpu time spent up to now is     1451.6 secs

     total energy              =   -2939.00596148 Ry
     estimated scf accuracy    <       0.00000018 Ry

     iteration # 72     ecut=    29.40 Ry     beta= 0.05
     Davidson diagonalization with overlap
     ethr =  4.68E-11,  avg # of iterations = 11.3

     negative rho (up, down):  1.646E-02 0.000E+00
 
     Adding external electric field

     Computed dipole along edir(3) : 
        Dipole                0.3109 Ry au,          0.7902 Debye
        Dipole field          0.0006 Ry au, 
 
        Potential amp.       -0.0544 Ry
        Total length         46.3494 bohr
 

     total cpu time spent up to now is     1477.3 secs

     End of self-consistent calculation

          k = 0.0000 0.0000 0.0000 ( 18029 PWs)   bands (ev):

   -56.1026 -56.1002 -56.0685 -56.0639 -55.9906 -55.9572 -55.9503 -55.9164
   -55.9000 -55.8658 -55.8646 -55.8304 -55.6436 -55.5820 -55.0722 -55.0382
   -32.6593 -32.5837 -32.4822 -32.4232 -32.4080 -32.4037 -32.3950 -32.3558
   -32.3426 -32.3279 -32.3029 -32.2808 -32.2754 -32.2549 -32.2478 -32.2411
   -32.2057 -32.1935 -32.1898 -32.1853 -32.1814 -32.1599 -32.1540 -32.1376
   -32.1126 -32.0986 -32.0974 -32.0973 -32.0915 -32.0880 -32.0668 -32.0400
   -32.0394 -32.0259 -32.0178 -31.9980 -31.9766 -31.9493 -31.8719 -31.8430
   -31.7978 -31.7334 -31.4789 -31.3916 -31.3691 -31.2959 -31.2094 -31.0981
   -18.0029 -16.8690 -16.5791 -16.3653 -16.2582 -16.2427 -16.1366 -15.9511
   -15.8176 -15.7896 -15.6827 -15.6765 -15.6348 -15.6239 -15.5937 -15.5713
   -15.5633 -15.5357 -15.5335 -15.5162 -15.4722 -15.4488 -15.4297 -15.3342
   -15.2937 -15.2328 -15.2134 -15.1499 -15.0277 -14.7940 -13.5744 -13.4581
   -13.3620  -8.0638  -6.3728  -4.4026  -4.2431  -4.0663  -4.0052  -3.9711
    -3.9597  -3.7153  -3.6830  -3.3236  -3.2913  -3.2729  -3.2613  -3.2499
    -3.1477  -3.0152  -2.9605  -2.9175  -2.9070  -2.8966  -2.8890  -2.8764
    -2.8504  -2.8280  -2.7269  -2.6834  -2.6497  -2.5404  -2.5206  -2.4387
    -2.4127  -2.4029  -2.3682  -2.3475  -2.3384  -2.3124  -2.3009  -2.2791
    -2.1908  -2.1413  -2.0255  -1.9686  -1.8854  -1.8500  -1.6991  -1.6573
    -1.5702  -1.5634  -1.5436  -1.5205  -1.4873  -1.4013  -1.3321  -1.2382
    -1.1977  -1.1588  -1.1228  -1.0794  -0.9993  -0.9790  -0.9616  -0.8652
    -0.8609  -0.8515  -0.8100  -0.6082  -0.5868  -0.5491  -0.5361  -0.4610
    -0.4000  -0.3853  -0.3629  -0.3156  -0.2544  -0.1916  -0.1459  -0.1305
    -0.1189  -0.1153  -0.0824  -0.0556   0.0873   0.0977   0.1916   0.2042
     0.2259   0.3513   0.5273   0.5667   0.5812   0.7039   0.8808   0.9502
     1.0515   1.1431   1.5204   1.5657   2.4331   3.0353   3.1214   3.1551
     3.1746   3.2799   3.3116   3.4827   3.4979   3.5330   3.5523

          k = 0.0000 0.0419 0.0000 ( 17933 PWs)   bands (ev):

   -56.0975 -56.0949 -56.0734 -56.0690 -55.9866 -55.9541 -55.9531 -55.9204
   -55.8950 -55.8706 -55.8598 -55.8351 -55.6419 -55.5835 -55.0672 -55.0431
   -32.6014 -32.5297 -32.4285 -32.3937 -32.3907 -32.3806 -32.3688 -32.3270
   -32.3178 -32.3158 -32.3096 -32.2986 -32.2803 -32.2623 -32.2622 -32.2579
   -32.2410 -32.1872 -32.1818 -32.1792 -32.1738 -32.1681 -32.1563 -32.1422
   -32.1316 -32.1157 -32.1021 -32.1012 -32.0929 -32.0859 -32.0801 -32.0713
   -32.0695 -32.0364 -32.0353 -32.0266 -32.0202 -31.9526 -31.8771 -31.8413
   -31.7977 -31.7590 -31.4248 -31.3881 -31.3722 -31.2833 -31.2219 -31.1552
   -17.9992 -16.7326 -16.4592 -16.2569 -16.1545 -16.1398 -16.0982 -15.9830
   -15.8898 -15.8513 -15.7054 -15.6840 -15.6532 -15.6258 -15.6207 -15.5768
   -15.5749 -15.5546 -15.5479 -15.5103 -15.4787 -15.4670 -15.4226 -15.3498
   -15.2973 -15.2912 -15.2674 -15.2064 -15.0592 -14.8827 -13.5785 -13.4976
   -13.3617  -8.0642  -6.3665  -4.3819  -4.0511  -3.9022  -3.8281  -3.8184
    -3.8008  -3.5618  -3.4448  -3.3536  -3.2876  -3.2093  -3.1671  -3.1448
    -3.1244  -3.0909  -3.0709  -3.0422  -2.9922  -2.9886  -2.9456  -2.8844
    -2.8521  -2.8428  -2.7980  -2.7831  -2.7558  -2.7266  -2.6203  -2.5861
    -2.5586  -2.5192  -2.5114  -2.3697  -2.3655  -2.3402  -2.2895  -2.2152
    -2.1161  -1.9959  -1.9520  -1.8888  -1.8611  -1.7805  -1.7444  -1.6749
    -1.5168  -1.4700  -1.3987  -1.3682  -1.3343  -1.2864  -1.2085  -1.1340
    -1.1198  -1.0750  -1.0494  -1.0159  -0.9921  -0.9804  -0.9241  -0.9059
    -0.8576  -0.7938  -0.7711  -0.7215  -0.6955  -0.6259  -0.5931  -0.5622
    -0.5353  -0.4551  -0.3857  -0.3551  -0.3237  -0.2914  -0.2887  -0.2519
    -0.2177  -0.1478  -0.1166  -0.0674   0.0092   0.0688   0.0949   0.1290
     0.2372   0.2403   0.2590   0.3725   0.5476   0.5693   0.6983   0.9297
     1.1398   1.2258   1.4743   1.4778   2.4391   3.2299   3.2713   3.2830
     3.3389   3.3904   3.4406   3.4915   3.5065   3.5372   3.5710

          k = 0.0000-0.0839 0.0000 ( 17884 PWs)   bands (ev):

   -56.0866 -56.0843 -56.0839 -56.0800 -55.9813 -55.9593 -55.9475 -55.9259
   -55.8849 -55.8806 -55.8507 -55.8441 -55.6402 -55.5851 -55.0552 -55.0550
   -32.4622 -32.4578 -32.3982 -32.3968 -32.3813 -32.3796 -32.3616 -32.3493
   -32.3090 -32.2921 -32.2864 -32.2832 -32.2816 -32.2704 -32.2344 -32.2158
   -32.2149 -32.2087 -32.2062 -32.1965 -32.1740 -32.1730 -32.1654 -32.1627
   -32.1508 -32.1487 -32.1366 -32.1347 -32.1342 -32.1278 -32.0831 -32.0778
   -32.0683 -32.0617 -32.0567 -32.0294 -32.0260 -31.9674 -31.8824 -31.8347
   -31.7983 -31.7896 -31.3800 -31.3799 -31.2919 -31.2917 -31.2527 -31.2526
   -17.9956 -16.3944 -16.3781 -16.1816 -16.1721 -16.0306 -16.0062 -15.9370
   -15.9087 -15.8889 -15.8597 -15.8275 -15.8142 -15.6585 -15.6521 -15.5890
   -15.5020 -15.4918 -15.4709 -15.4702 -15.4501 -15.4337 -15.4325 -15.4079
   -15.3849 -15.3480 -15.3374 -15.1831 -15.1056 -15.0271 -13.5606 -13.5601
   -13.3616  -8.0648  -6.3607  -4.3656  -3.6037  -3.5841  -3.5257  -3.5045
    -3.4799  -3.4725  -3.4688  -3.3893  -3.3889  -3.3477  -3.2863  -3.2504
    -3.2169  -3.1922  -3.1739  -3.0651  -3.0589  -3.0376  -3.0134  -2.9605
    -2.9247  -2.8788  -2.8553  -2.8242  -2.8084  -2.7549  -2.7025  -2.6623
    -2.5843  -2.5339  -2.4783  -2.4440  -2.3978  -2.2119  -2.1837  -2.0307
    -2.0128  -1.9439  -1.8531  -1.7959  -1.7666  -1.7392  -1.5838  -1.5807
    -1.5313  -1.5207  -1.4749  -1.4608  -1.4496  -1.4072  -1.3824  -1.2861
    -1.2273  -1.1781  -1.1490  -0.9382  -0.9025  -0.8627  -0.7821  -0.7698
    -0.7304  -0.7143  -0.7031  -0.6981  -0.6121  -0.5915  -0.5590  -0.5476
    -0.5398  -0.4962  -0.4877  -0.4455  -0.4012  -0.3609  -0.3531  -0.3129
    -0.3053  -0.2792  -0.2471  -0.2067  -0.1912  -0.0951  -0.0264   0.1109
     0.1494   0.1540   0.1765   0.2780   0.5055   0.5834   0.6900   0.7483
     1.2835   1.2840   1.4106   1.4131   2.4470   3.3345   3.3577   3.3750
     3.4019   3.4707   3.4824   3.5684   3.5952   3.6254   3.6381

          k = 0.0380 0.0000 0.0000 ( 17913 PWs)   bands (ev):

   -56.1025 -56.1000 -56.0684 -56.0638 -55.9905 -55.9571 -55.9501 -55.9163
   -55.8997 -55.8657 -55.8647 -55.8303 -55.6435 -55.5819 -55.0721 -55.0381
   -32.6595 -32.5845 -32.4873 -32.4245 -32.4078 -32.4038 -32.3948 -32.3604
   -32.3426 -32.3106 -32.3020 -32.2807 -32.2753 -32.2520 -32.2415 -32.2406
   -32.2054 -32.2032 -32.1895 -32.1883 -32.1611 -32.1597 -32.1554 -32.1379
   -32.1137 -32.0975 -32.0972 -32.0937 -32.0924 -32.0811 -32.0666 -32.0609
   -32.0391 -32.0256 -32.0180 -31.9969 -31.9771 -31.9495 -31.8728 -31.8442
   -31.7980 -31.7332 -31.4784 -31.3949 -31.3671 -31.2957 -31.2093 -31.0979
   -18.0008 -16.8005 -16.4952 -16.2980 -16.2561 -16.1553 -16.1361 -15.9936
   -15.8245 -15.8170 -15.7902 -15.7869 -15.7232 -15.7099 -15.6772 -15.6432
   -15.6232 -15.4909 -15.4528 -15.4455 -15.3929 -15.3660 -15.3477 -15.3434
   -15.2903 -15.2707 -15.2504 -15.2087 -15.0184 -14.7938 -13.5711 -13.4578
   -13.3708  -8.0415  -6.3447  -4.4164  -4.1726  -3.8620  -3.8059  -3.7675
    -3.7248  -3.6707  -3.6387  -3.5849  -3.3409  -3.3265  -3.3163  -3.2146
    -3.1753  -3.1463  -3.0249  -2.9811  -2.8989  -2.8881  -2.8380  -2.8057
    -2.7925  -2.6998  -2.6827  -2.6600  -2.5664  -2.5235  -2.5007  -2.4728
    -2.3886  -2.3716  -2.3456  -2.3098  -2.2975  -2.2417  -2.2012  -2.1016
    -2.0780  -2.0365  -2.0032  -1.9392  -1.8877  -1.8273  -1.7841  -1.6966
    -1.6539  -1.6344  -1.5429  -1.5334  -1.5001  -1.4156  -1.3888  -1.3726
    -1.3447  -1.2501  -1.1893  -1.1187  -1.0298  -0.9650  -0.9345  -0.9094
    -0.8915  -0.8269  -0.7782  -0.6950  -0.6442  -0.5876  -0.5392  -0.5134
    -0.4188  -0.3893  -0.3663  -0.3367  -0.3144  -0.2924  -0.2603  -0.2390
    -0.2267  -0.2137  -0.1352  -0.0462   0.0016   0.0528   0.1205   0.1557
     0.2278   0.2761   0.3520   0.4647   0.5991   0.6086   0.8835   0.9145
     0.9620   1.1127   1.4090   1.4828   2.4269   3.0695   3.0959   3.3591
     3.3799   3.4111   3.4522   3.4654   3.4846   3.4979   3.5452

          k = 0.0380 0.0419 0.0000 ( 17878 PWs)   bands (ev):

   -56.0975 -56.0948 -56.0733 -56.0690 -55.9866 -55.9541 -55.9530 -55.9204
   -55.8948 -55.8705 -55.8598 -55.8351 -55.6419 -55.5834 -55.0671 -55.0431
   -32.6016 -32.5305 -32.4344 -32.3934 -32.3905 -32.3807 -32.3701 -32.3269
   -32.3181 -32.3127 -32.3029 -32.2991 -32.2802 -32.2624 -32.2617 -32.2490
   -32.2386 -32.1989 -32.1856 -32.1751 -32.1734 -32.1552 -32.1508 -32.1454
   -32.1341 -32.1168 -32.0969 -32.0918 -32.0909 -32.0865 -32.0798 -32.0710
   -32.0696 -32.0590 -32.0310 -32.0260 -32.0248 -31.9530 -31.8776 -31.8426
   -31.7986 -31.7588 -31.4244 -31.3907 -31.3712 -31.2831 -31.2220 -31.1551
   -17.9976 -16.6700 -16.3818 -16.1949 -16.1510 -16.0979 -16.0531 -15.9857
   -15.9246 -15.8540 -15.7537 -15.7418 -15.7299 -15.7000 -15.6881 -15.5921
   -15.5683 -15.5464 -15.5056 -15.4842 -15.4611 -15.4230 -15.4178 -15.3499
   -15.3404 -15.3316 -15.2997 -15.2289 -15.0505 -14.8829 -13.5763 -13.4979
   -13.3692  -8.0424  -6.3409  -4.4087  -3.9959  -3.6900  -3.6559  -3.6167
    -3.5517  -3.4889  -3.4498  -3.4158  -3.2790  -3.2134  -3.1913  -3.1237
    -3.1126  -3.0810  -3.0215  -2.9826  -2.9753  -2.9229  -2.9017  -2.8805
    -2.8333  -2.8108  -2.7943  -2.7440  -2.7245  -2.7099  -2.6330  -2.5792
    -2.5525  -2.4380  -2.4203  -2.3584  -2.3168  -2.2690  -2.2356  -2.1375
    -2.0958  -2.0585  -2.0206  -1.9377  -1.8413  -1.8001  -1.6846  -1.6258
    -1.5654  -1.5227  -1.4967  -1.4292  -1.4022  -1.3701  -1.3176  -1.2667
    -1.2457  -1.1971  -1.1184  -1.0891  -1.0408  -1.0288  -0.9948  -0.9455
    -0.8749  -0.8502  -0.8222  -0.7913  -0.7739  -0.7226  -0.6905  -0.6511
    -0.5852  -0.5598  -0.5418  -0.4924  -0.4273  -0.3885  -0.3276  -0.2935
    -0.2727  -0.2042  -0.1534  -0.0420   0.0250   0.0853   0.1224   0.1759
     0.2555   0.3009   0.3228   0.3828   0.4663   0.5249   0.6178   0.8657
     1.1508   1.2306   1.3968   1.4585   2.4306   3.2115   3.2797   3.3429
     3.3814   3.4466   3.4570   3.5436   3.5848   3.6207   3.6302

          k = 0.0380-0.0839 0.0000 ( 17916 PWs)   bands (ev):

   -56.0866 -56.0843 -56.0839 -56.0800 -55.9814 -55.9593 -55.9475 -55.9259
   -55.8848 -55.8806 -55.8509 -55.8442 -55.6403 -55.5851 -55.0552 -55.0550
   -32.4625 -32.4580 -32.3989 -32.3976 -32.3814 -32.3797 -32.3617 -32.3494
   -32.3228 -32.3041 -32.2877 -32.2717 -32.2641 -32.2551 -32.2351 -32.2163
   -32.2160 -32.2075 -32.2050 -32.1972 -32.1835 -32.1829 -32.1764 -32.1639
   -32.1574 -32.1489 -32.1326 -32.1277 -32.1135 -32.1116 -32.0830 -32.0776
   -32.0680 -32.0618 -32.0568 -32.0411 -32.0379 -31.9673 -31.8830 -31.8355
   -31.7998 -31.7897 -31.3810 -31.3808 -31.2918 -31.2916 -31.2527 -31.2526
   -17.9943 -16.3491 -16.3431 -16.1320 -16.1210 -16.0095 -15.9805 -15.9357
   -15.8751 -15.8508 -15.8445 -15.8029 -15.7909 -15.6772 -15.6639 -15.5986
   -15.5561 -15.5489 -15.5091 -15.5064 -15.5038 -15.4672 -15.4497 -15.4383
   -15.3985 -15.3924 -15.3831 -15.1673 -15.0974 -15.0222 -13.5604 -13.5599
   -13.3682  -8.0429  -6.3367  -4.3947  -3.5976  -3.5779  -3.3944  -3.3731
    -3.3371  -3.3097  -3.2935  -3.2696  -3.2007  -3.1834  -3.1719  -3.1607
    -3.1290  -3.1121  -3.0919  -3.0200  -2.9720  -2.9579  -2.9366  -2.9201
    -2.8923  -2.8700  -2.8376  -2.8171  -2.7973  -2.7240  -2.7115  -2.6884
    -2.6303  -2.5379  -2.4901  -2.2893  -2.2475  -2.1995  -2.1419  -2.0438
    -2.0013  -1.9826  -1.9541  -1.9102  -1.8870  -1.8498  -1.7884  -1.7732
    -1.7327  -1.7149  -1.6239  -1.5833  -1.5025  -1.4629  -1.3715  -1.3381
    -1.2583  -1.2385  -1.1185  -1.0765  -1.0284  -0.9910  -0.9319  -0.9025
    -0.8492  -0.8464  -0.8076  -0.8024  -0.7661  -0.7119  -0.6892  -0.6725
    -0.6668  -0.6456  -0.6226  -0.5356  -0.5230  -0.4414  -0.3823  -0.3121
    -0.2860  -0.1749  -0.1349  -0.0129  -0.0044   0.0216   0.0424   0.0712
     0.1023   0.2116   0.2941   0.3364   0.4661   0.5447   0.6257   0.7144
     1.2967   1.2973   1.3999   1.4016   2.4384   3.3224   3.3466   3.3979
     3.4147   3.4598   3.4692   3.6250   3.6420   3.6657   3.6711

          k = 0.0380-0.0419 0.0000 ( 17876 PWs)   bands (ev):

   -56.0975 -56.0948 -56.0733 -56.0690 -55.9866 -55.9541 -55.9530 -55.9203
   -55.8948 -55.8705 -55.8598 -55.8351 -55.6419 -55.5834 -55.0671 -55.0431
   -32.6016 -32.5305 -32.4344 -32.3935 -32.3905 -32.3807 -32.3701 -32.3269
   -32.3181 -32.3124 -32.3024 -32.2996 -32.2803 -32.2623 -32.2618 -32.2486
   -32.2386 -32.2000 -32.1853 -32.1752 -32.1734 -32.1543 -32.1507 -32.1459
   -32.1328 -32.1154 -32.1001 -32.0918 -32.0909 -32.0866 -32.0797 -32.0711
   -32.0697 -32.0590 -32.0310 -32.0258 -32.0249 -31.9524 -31.8778 -31.8421
   -31.7986 -31.7590 -31.4244 -31.3907 -31.3712 -31.2831 -31.2220 -31.1551
   -17.9974 -16.6706 -16.3819 -16.1988 -16.1497 -16.0983 -16.0536 -15.9841
   -15.9252 -15.8540 -15.7540 -15.7335 -15.7092 -15.6936 -15.6907 -15.6205
   -15.5876 -15.5339 -15.5103 -15.4854 -15.4620 -15.4226 -15.4148 -15.3435
   -15.3374 -15.3311 -15.2990 -15.2302 -15.0500 -14.8831 -13.5763 -13.4979
   -13.3697  -8.0419  -6.3400  -4.3999  -3.9953  -3.6942  -3.6461  -3.5994
    -3.5509  -3.4885  -3.4481  -3.4153  -3.2765  -3.2395  -3.1991  -3.1400
    -3.1164  -3.0824  -3.0417  -2.9978  -2.9728  -2.9261  -2.9063  -2.8837
    -2.8517  -2.8127  -2.7951  -2.7427  -2.7285  -2.6671  -2.6139  -2.5664
    -2.5532  -2.5280  -2.4280  -2.3508  -2.3339  -2.2710  -2.2479  -2.1346
    -2.0891  -2.0717  -1.9857  -1.8995  -1.8442  -1.7832  -1.6796  -1.6195
    -1.5591  -1.5105  -1.4812  -1.4315  -1.3984  -1.3670  -1.3038  -1.2529
    -1.2100  -1.1680  -1.1207  -1.0745  -1.0474  -1.0155  -0.9872  -0.9277
    -0.8867  -0.8647  -0.8233  -0.7959  -0.7449  -0.7110  -0.6856  -0.6385
    -0.6179  -0.5643  -0.5563  -0.4764  -0.4068  -0.3883  -0.3377  -0.2845
    -0.2566  -0.2267  -0.1761  -0.0669   0.0046   0.0534   0.1128   0.1680
     0.2005   0.2858   0.3231   0.3760   0.4678   0.5313   0.6339   0.8658
     1.1508   1.2305   1.3966   1.4591   2.4334   3.2161   3.2813   3.3497
     3.3812   3.4395   3.4687   3.5484   3.5790   3.6206   3.6393

          k =-0.0760-0.0000 0.0000 ( 17886 PWs)   bands (ev):

   -56.1024 -56.0999 -56.0684 -56.0637 -55.9905 -55.9570 -55.9502 -55.9163
   -55.8995 -55.8656 -55.8648 -55.8303 -55.6435 -55.5819 -55.0721 -55.0381
   -32.6596 -32.5854 -32.4922 -32.4259 -32.4076 -32.4039 -32.3947 -32.3649
   -32.3427 -32.3036 -32.2821 -32.2789 -32.2744 -32.2491 -32.2407 -32.2360
   -32.2324 -32.2053 -32.1895 -32.1834 -32.1601 -32.1569 -32.1385 -32.1152
   -32.1145 -32.1082 -32.0975 -32.0948 -32.0942 -32.0910 -32.0748 -32.0665
   -32.0390 -32.0255 -32.0190 -31.9959 -31.9780 -31.9498 -31.8742 -31.8457
   -31.7983 -31.7332 -31.4780 -31.3982 -31.3658 -31.2956 -31.2092 -31.0979
   -17.9987 -16.7131 -16.4134 -16.2348 -16.2084 -16.1366 -16.0920 -15.9722
   -15.9031 -15.8732 -15.8101 -15.7925 -15.7878 -15.7757 -15.7731 -15.7324
   -15.6415 -15.4935 -15.4554 -15.4510 -15.4023 -15.3713 -15.3435 -15.3359
   -15.3073 -15.2540 -15.2008 -15.1822 -15.0142 -14.7937 -13.5681 -13.4575
   -13.3797  -8.0194  -6.3150  -4.4395  -4.1528  -3.7806  -3.7181  -3.6582
    -3.5327  -3.5036  -3.4992  -3.4335  -3.3585  -3.3467  -3.3246  -3.3113
    -3.1625  -3.1315  -2.9790  -2.9030  -2.8931  -2.8688  -2.8499  -2.7200
    -2.6628  -2.6603  -2.6001  -2.5805  -2.5268  -2.4898  -2.4575  -2.4214
    -2.3882  -2.3865  -2.3288  -2.3227  -2.3198  -2.3056  -2.2370  -2.2198
    -2.1471  -2.0395  -1.9236  -1.8925  -1.8332  -1.7407  -1.6969  -1.6904
    -1.6813  -1.6540  -1.6473  -1.5643  -1.5359  -1.4734  -1.4383  -1.4023
    -1.3763  -1.3317  -1.2884  -1.2623  -1.2545  -1.1023  -0.9725  -0.9501
    -0.8765  -0.8361  -0.7907  -0.7745  -0.7089  -0.6472  -0.5913  -0.5580
    -0.5312  -0.4845  -0.4737  -0.4361  -0.3661  -0.3577  -0.3142  -0.2780
    -0.2655  -0.2297  -0.0987  -0.0706  -0.0392  -0.0085   0.1582   0.1866
     0.2428   0.3551   0.3994   0.4647   0.4845   0.5972   0.6605   0.8969
     0.9832   1.0884   1.2797   1.4272   2.4205   3.0720   3.0775   3.1728
     3.3228   3.3655   3.4475   3.4822   3.4897   3.5352   3.5632

          k =-0.0760 0.0419 0.0000 ( 17914 PWs)   bands (ev):

   -56.0975 -56.0947 -56.0734 -56.0690 -55.9866 -55.9541 -55.9530 -55.9204
   -55.8946 -55.8705 -55.8600 -55.8351 -55.6419 -55.5835 -55.0671 -55.0431
   -32.6019 -32.5315 -32.4402 -32.3935 -32.3905 -32.3809 -32.3717 -32.3270
   -32.3182 -32.3152 -32.3042 -32.2817 -32.2774 -32.2626 -32.2618 -32.2395
   -32.2365 -32.2217 -32.1858 -32.1733 -32.1711 -32.1541 -32.1498 -32.1352
   -32.1170 -32.1165 -32.0983 -32.0962 -32.0901 -32.0866 -32.0794 -32.0783
   -32.0700 -32.0685 -32.0320 -32.0285 -32.0278 -31.9529 -31.8785 -31.8437
   -31.7995 -31.7590 -31.4242 -31.3935 -31.3705 -31.2831 -31.2220 -31.1551
   -17.9959 -16.5920 -16.3011 -16.1446 -16.1053 -16.0956 -16.0028 -15.9887
   -15.8759 -15.8453 -15.8354 -15.7695 -15.7602 -15.7464 -15.7251 -15.6813
   -15.6442 -15.5572 -15.5053 -15.4868 -15.4748 -15.4404 -15.3983 -15.3802
   -15.3601 -15.3443 -15.2732 -15.2130 -15.0453 -14.8837 -13.5742 -13.4982
   -13.3772  -8.0202  -6.3126  -4.4330  -3.9822  -3.6225  -3.4629  -3.4414
    -3.3817  -3.3510  -3.2648  -3.2284  -3.2177  -3.1845  -3.1465  -3.1150
    -3.0979  -3.0642  -3.0471  -3.0136  -2.9580  -2.9389  -2.8740  -2.8153
    -2.8090  -2.7853  -2.7693  -2.7168  -2.6781  -2.5822  -2.5790  -2.5751
    -2.5193  -2.4435  -2.4194  -2.2976  -2.2509  -2.2147  -2.2030  -2.1545
    -2.1067  -2.0687  -1.9720  -1.9477  -1.8829  -1.7398  -1.7083  -1.6560
    -1.6406  -1.5852  -1.5454  -1.5085  -1.4489  -1.4167  -1.4067  -1.3690
    -1.3216  -1.3043  -1.2635  -1.2456  -1.1964  -1.1624  -1.1382  -1.1082
    -1.0361  -0.9794  -0.9560  -0.8835  -0.8610  -0.8264  -0.7852  -0.7457
    -0.7122  -0.6563  -0.6167  -0.5682  -0.4591  -0.4035  -0.3664  -0.2889
    -0.2643  -0.1727  -0.1466  -0.0183   0.0734   0.1575   0.2180   0.2478
     0.2746   0.3164   0.3712   0.4231   0.4767   0.5034   0.5110   0.7246
     1.1656   1.2341   1.3203   1.4478   2.4250   3.1921   3.2406   3.2775
     3.3538   3.3927   3.4010   3.5166   3.5545   3.6305   3.6974

          k =-0.0760-0.0839 0.0000 ( 17948 PWs)   bands (ev):

   -56.0866 -56.0843 -56.0839 -56.0799 -55.9814 -55.9594 -55.9475 -55.9259
   -55.8847 -55.8805 -55.8510 -55.8443 -55.6403 -55.5851 -55.0552 -55.0551
   -32.4628 -32.4584 -32.3997 -32.3983 -32.3814 -32.3797 -32.3619 -32.3495
   -32.3302 -32.3107 -32.2880 -32.2718 -32.2450 -32.2357 -32.2352 -32.2172
   -32.2160 -32.2063 -32.2038 -32.1982 -32.1972 -32.1895 -32.1837 -32.1691
   -32.1643 -32.1470 -32.1308 -32.1274 -32.0844 -32.0825 -32.0808 -32.0768
   -32.0680 -32.0658 -32.0621 -32.0605 -32.0563 -31.9672 -31.8836 -31.8362
   -31.8011 -31.7898 -31.3819 -31.3818 -31.2918 -31.2915 -31.2527 -31.2526
   -17.9931 -16.3049 -16.2889 -16.0721 -16.0279 -16.0238 -16.0025 -15.9144
   -15.8248 -15.8056 -15.7906 -15.7737 -15.7589 -15.6785 -15.6523 -15.6300
   -15.6261 -15.6145 -15.5588 -15.5538 -15.5506 -15.5445 -15.5247 -15.4916
   -15.4090 -15.4040 -15.3943 -15.1558 -15.0908 -15.0183 -13.5602 -13.5597
   -13.3748  -8.0211  -6.3109  -4.4279  -3.5979  -3.5790  -3.3568  -3.3187
    -3.2803  -3.2711  -3.1557  -3.0539  -3.0232  -3.0105  -2.9723  -2.9537
    -2.9422  -2.9294  -2.9162  -2.8969  -2.8710  -2.8386  -2.8333  -2.7880
    -2.7695  -2.7484  -2.7309  -2.7093  -2.7083  -2.6678  -2.6626  -2.6235
    -2.5854  -2.5421  -2.4342  -2.3768  -2.3464  -2.2935  -2.2319  -2.2219
    -2.2127  -2.1579  -2.1527  -2.1217  -2.0351  -1.9594  -1.8238  -1.8010
    -1.7681  -1.7292  -1.6946  -1.5990  -1.5548  -1.5049  -1.4522  -1.3972
    -1.3847  -1.3425  -1.3058  -1.2386  -1.2215  -1.1822  -1.1613  -1.0989
    -1.0559  -1.0519  -0.9895  -0.9224  -0.8646  -0.8622  -0.8422  -0.8244
    -0.7677  -0.7194  -0.6527  -0.6034  -0.5616  -0.4663  -0.4083  -0.2948
    -0.1835  -0.0653   0.0070   0.0101   0.0660   0.1430   0.1877   0.2242
     0.2326   0.2492   0.3440   0.4148   0.4351   0.4473   0.5058   0.7019
     1.3149   1.3161   1.3850   1.3858   2.4305   3.3232   3.3609   3.3756
     3.4061   3.5518   3.5545   3.5668   3.5706   3.6887   3.7223

     the Fermi energy is     3.0323 ev

!    total energy              =   -2939.00598997 Ry
     estimated scf accuracy    <       0.00000006 Ry
     smearing contrib. (-TS)   =      -0.02207878 Ry
     internal energy E=F+TS    =   -2938.98391120 Ry

     The total energy is F=E-TS. E is the sum of the following terms:
     one-electron contribution =  -24454.90700042 Ry
     hartree contribution      =   12312.55682356 Ry
     xc contribution           =    -485.14077442 Ry
     ewald contribution        =    9688.50685768 Ry
     electric field correction =       0.00018241 Ry

     convergence has been achieved in  72 iterations

     Forces acting on atoms (cartesian axes, Ry/au):

     atom    1 type  1   force =     0.00018781   -0.00028402    0.09688719
     atom    2 type  1   force =     0.00006598   -0.00078865   -0.17500080
     atom    3 type  2   force =     0.00014650   -0.00008819   -0.02552634
     atom    4 type  2   force =    -0.00003276   -0.00142597    0.05154870
     atom    5 type  2   force =    -0.01205834   -0.00173737    0.00279549
     atom    6 type  2   force =     0.01347833   -0.00134572    0.00223481
     atom    7 type  1   force =     0.00040484    0.00016032   -0.01208143
     atom    8 type  1   force =     0.00019292    0.02418695    0.02899518
     atom    9 type  2   force =    -0.00004276    0.00052480   -0.00006678
     atom   10 type  2   force =    -0.00266133    0.00014378   -0.01164234
     atom   11 type  2   force =    -0.00002548    0.00027234    0.00006409
     atom   12 type  2   force =    -0.00025436   -0.00001039    0.00016013
     atom   13 type  1   force =    -0.00012075    0.00114524   -0.00016684
     atom   14 type  1   force =    -0.00000501    0.00050468   -0.00000057
     atom   15 type  2   force =     0.00011207   -0.00018306   -0.00010624
     atom   16 type  2   force =    -0.00020813    0.00023099   -0.00020247
     atom   17 type  2   force =     0.00032076    0.00019214   -0.00026205
     atom   18 type  2   force =    -0.00030399    0.00008577   -0.00005598
     atom   19 type  1   force =    -0.00007726   -0.00025380   -0.00086087
     atom   20 type  1   force =     0.00007257    0.00002215   -0.00044390
     atom   21 type  2   force =     0.00006851   -0.00007115    0.10298170
     atom   22 type  2   force =     0.00010081   -0.00005536   -0.00014252
     atom   23 type  2   force =    -0.07167687   -0.00016815   -0.02792633
     atom   24 type  2   force =     0.07158093    0.00028974   -0.02796732
     atom   25 type  1   force =     0.00003166   -0.00025235    0.09678542
     atom   26 type  1   force =    -0.00000542   -0.00018068   -0.17517225
     atom   27 type  2   force =     0.00015628   -0.00026777   -0.02419180
     atom   28 type  2   force =     0.00001387   -0.00117997    0.05210079
     atom   29 type  2   force =    -0.01221402    0.00077609    0.00247214
     atom   30 type  2   force =     0.01351764    0.00125930    0.00188278
     atom   31 type  1   force =     0.00044676    0.00287448   -0.01397283
     atom   32 type  1   force =     0.00039082   -0.02517492    0.03049304
     atom   33 type  2   force =     0.00004231   -0.00008173   -0.00017346
     atom   34 type  2   force =    -0.00184239   -0.00049947   -0.02071224
     atom   35 type  2   force =    -0.00000087    0.00021585   -0.00003811
     atom   36 type  2   force =     0.00016442    0.00032451    0.00018033
     atom   37 type  1   force =    -0.00020263   -0.00086234   -0.00002001
     atom   38 type  1   force =     0.00008377    0.00012102   -0.00025745
     atom   39 type  2   force =     0.00008642    0.00032170   -0.00018707
     atom   40 type  2   force =    -0.00007536    0.00009043    0.00049513
     atom   41 type  2   force =     0.00060056    0.00002116   -0.00001677
     atom   42 type  2   force =    -0.00042155   -0.00010408   -0.00008223
     atom   43 type  1   force =    -0.00034339    0.00037479   -0.00008434
     atom   44 type  1   force =    -0.00023728    0.00027289   -0.00080969
     atom   45 type  2   force =     0.00005319   -0.00006704    0.10300415
     atom   46 type  2   force =    -0.07170572   -0.00012085   -0.02792964
     atom   47 type  2   force =     0.07159315    0.00025479   -0.02795454
     atom   48 type  3   force =    -0.00611812   -0.00028205   -0.00866381
     atom   49 type  4   force =     0.00359459    0.00121120    0.01162558
     atom   50 type  5   force =     0.00324302   -0.00052428   -0.00315485
     atom   51 type  3   force =    -0.00032671    0.00039547    0.00088727
     atom   52 type  5   force =     0.00007585   -0.00010876    0.00007427
     atom   53 type  5   force =     0.00013411   -0.00015449    0.00020569

     Total force =     0.369377     Total SCF correction =     0.000526
  @ DRIVER MODE: Message from server: STATUS
  @ DRIVER MODE: Message from server: GETFORCE
  @ DRIVER MODE: Returning v,forces,stress,ensemble 

     Writing output data file ./calc.save/
  @ DRIVER MODE: Message from server: EXIT
  @ DRIVE MODE: Exiting  
 
     init_run     :     13.52s CPU     13.81s WALL (       1 calls)
     electrons    :   1380.77s CPU   1463.18s WALL (       1 calls)
     forces       :      2.29s CPU      2.39s WALL (       1 calls)

     Called by init_run:
     wfcinit      :      5.22s CPU      5.31s WALL (       1 calls)
     potinit      :      6.13s CPU      6.20s WALL (       1 calls)
     hinit0       :      1.25s CPU      1.28s WALL (       1 calls)

     Called by electrons:
     c_bands      :   1185.58s CPU   1256.67s WALL (      72 calls)
     sum_band     :    136.45s CPU    140.25s WALL (      72 calls)
     v_of_rho     :     42.14s CPU     44.38s WALL (      73 calls)
     newd         :     17.24s CPU     21.00s WALL (      73 calls)
     mix_rho      :      4.38s CPU      5.79s WALL (      72 calls)
     vdW_kernel   :      5.25s CPU      5.27s WALL (       1 calls)

     Called by c_bands:
     init_us_2    :      6.05s CPU      6.10s WALL (    1460 calls)
     cegterg      :   1166.43s CPU   1237.00s WALL (     729 calls)

     Called by *egterg:
     cdiaghg      :    285.23s CPU    317.80s WALL (    7541 calls)
     h_psi        :    581.51s CPU    612.37s WALL (    7551 calls)
     s_psi        :     66.88s CPU     67.26s WALL (    7551 calls)
     g_psi        :      1.73s CPU      1.74s WALL (    6812 calls)

     Called by h_psi:
     h_psi:calbec :     66.86s CPU     68.07s WALL (    7551 calls)
     vloc_psi     :    444.25s CPU    473.04s WALL (    7551 calls)
     add_vuspsi   :     67.99s CPU     68.62s WALL (    7551 calls)

     General routines
     calbec       :     88.15s CPU     89.43s WALL (    8311 calls)
     fft          :     22.97s CPU     23.19s WALL (    4599 calls)
     ffts         :      0.20s CPU      0.21s WALL (     145 calls)
     fftw         :    510.73s CPU    540.02s WALL (  966162 calls)
     interpolate  :      0.51s CPU      0.52s WALL (      73 calls)
     davcio       :      0.00s CPU      0.21s WALL (      10 calls)
 
     Parallel routines
 
     PWSCF        :  23m17.35s CPU  24m40.66s WALL

 
   This run was terminated on:   2: 2:45   9Sep2021            

=------------------------------------------------------------------------------=
   JOB DONE.
=------------------------------------------------------------------------------=
