
     Program PWSCF v.6.7GPU starts on 19Oct2021 at  5:43:13 

     This program is part of the open-source Quantum ESPRESSO suite
     for quantum simulation of materials; please cite
         "P. Giannozzi et al., J. Phys.:Condens. Matter 21 395502 (2009);
         "P. Giannozzi et al., J. Phys.:Condens. Matter 29 465901 (2017);
         "P. Giannozzi et al., J. Chem. Phys. 152 154105 (2020);
          URL http://www.quantum-espresso.org", 
     in publications or presentations arising from this work. More details at
     http://www.quantum-espresso.org/quote

     Parallel version (MPI), running on     8 processors

     MPI processes distributed on     1 nodes
     R & G space division:  proc/nbgrp/npool/nimage =       8
     Reading input from /storage/home/hcoda1/3/ntian30/research/carbon/CxH_vib/Thiel_calc/ads_slab/NH2NH3H_perslab/out_0038/pw.inp
Warning: card &CELL ignored
Warning: card   CELL_DYNAMICS='IPI', ignored
Warning: card / ignored

     Current dimensions of program PWSCF are:
     Max number of different atomic species (ntypx) = 10
     Max number of k-points (npk) =  40000
     Max angular momentum in pseudopotentials (lmaxx) =  3
     Presently no symmetry can be used with electric field

     Message from routine cell_base_init:
     DEPRECATED: use true lattice parameter, not A to a.u. conversion factor

     **************************************************************************
     Initializing libbeef V0.1.2 with the BEEF-vdW functional.
     Citation: Wellendorff et al., PRB 85, 235149 (2012).
     **************************************************************************


     IMPORTANT: XC functional enforced from input :
     Exchange-correlation= BEEF-VDW
                           (   1   4  43  14   2   0   0)
     Any further DFT definition will be discarded
     Please, verify this is what you really want


     Subspace diagonalization in iterative solution of the eigenvalue problem:
     one sub-group per band group will be used
     scalapack distributed-memory algorithm (size of sub-group:  2*  2 procs)

  @ DRIVER MODE: Connecting to 
 qe_1139763_3255138.sched-torque.pace.gatech.edusd11_vdk_scratch
  using UNIX socket
  @ DRIVER MODE: Message from server: STATUS
  @ DRIVER MODE: Message from server: INIT
  @ DRIVER MODE: Receiving replica           0          -1
  @ DRIVER MODE: Receiving encoded integer          25
  @ DRIVER MODE:  SCF:  T  FORCE:  T  STRESS:  F  VC:  F  ENSEMBLE:  F
  @ DRIVER MODE:  SCF:  T  FORCE:  T  STRESS:  F  VC:  F  ENSEMBLE:  F
 
     Parallelization info
     --------------------
     sticks:   dense  smooth     PW     G-vecs:    dense   smooth      PW
     Min         614     246     69               106272    26887    3981
     Max         615     248     70               106275    26893    3990
     Sum        4915    1977    553               850181   215109   31863
 
     Using Slab Decomposition
 


     bravais-lattice index     =            0
     lattice parameter (alat)  =       1.8897  a.u.
     unit-cell volume          =    9988.4706 (a.u.)^3
     number of atoms/cell      =           61
     number of atomic types    =            4
     number of electrons       =       442.00
     number of Kohn-Sham states=          231
     kinetic-energy cutoff     =      29.3995  Ry
     charge density cutoff     =     293.9946  Ry
     scf convergence threshold =      7.3E-08
     mixing beta               =       0.0500
     number of iterations used =            8  plain     mixing
     Exchange-correlation= BEEF-VDW
                           (   1   4  43  14   2   0   0)

     celldm(1)=   1.889726  celldm(2)=   0.000000  celldm(3)=   0.000000
     celldm(4)=   0.000000  celldm(5)=   0.000000  celldm(6)=   0.000000

     crystal axes: (cart. coord. in units of alat)
               a(1) = (   6.579727   0.000000   0.000000 )  
               a(2) = (  -0.001163   8.942395   0.000000 )  
               a(3) = (   0.000000   0.000000  25.155947 )  

     reciprocal axes: (cart. coord. in units 2 pi/alat)
               b(1) = (  0.151982  0.000020  0.000000 )  
               b(2) = (  0.000000  0.111827  0.000000 )  
               b(3) = (  0.000000  0.000000  0.039752 )  


     PseudoPot. # 1 for O  read from file:
     /storage/coda1/p-amedford6/0/shared/rich_project_chbe-medford/medford-share/data/pseudos_module/espresso/nninc/pbe/van/O.UPF
     MD5 check sum: 78c19812648e8988a0fe644b0f25305e
     Pseudo is Ultrasoft, Zval =  6.0
     Generated by new atomic code, or converted to UPF format
     Using radial grid of  737 points,  4 beta functions with: 
                l(1) =   0
                l(2) =   0
                l(3) =   1
                l(4) =   1
     Q(r) pseudized with  8 coefficients,  rinner =    0.800   0.800   0.800


     PseudoPot. # 2 for Ti read from file:
     /storage/coda1/p-amedford6/0/shared/rich_project_chbe-medford/medford-share/data/pseudos_module/espresso/nninc/pbe/van/Ti.UPF
     MD5 check sum: 8e4df49b7f0d34bbd5052bf3f5ea0213
     Pseudo is Ultrasoft, Zval = 12.0
     Generated by new atomic code, or converted to UPF format
     Using radial grid of  851 points,  6 beta functions with: 
                l(1) =   0
                l(2) =   0
                l(3) =   1
                l(4) =   1
                l(5) =   2
                l(6) =   2
     Q(r) pseudized with  8 coefficients,  rinner =    1.000   1.000   1.000
                                                       1.000   1.000

     PseudoPot. # 3 for N  read from file:
     /storage/coda1/p-amedford6/0/shared/rich_project_chbe-medford/medford-share/data/pseudos_module/espresso/nninc/pbe/van/N.UPF
     MD5 check sum: 90d10febe142ad51ac9d5be1deb811c4
     Pseudo is Ultrasoft, Zval =  5.0
     Generated by new atomic code, or converted to UPF format
     Using radial grid of  729 points,  4 beta functions with: 
                l(1) =   0
                l(2) =   0
                l(3) =   1
                l(4) =   1
     Q(r) pseudized with  8 coefficients,  rinner =    0.800   0.800   0.800


     PseudoPot. # 4 for H  read from file:
     /storage/coda1/p-amedford6/0/shared/rich_project_chbe-medford/medford-share/data/pseudos_module/espresso/nninc/pbe/van/H.UPF
     MD5 check sum: b5ee9d7bfd3a09ee7748110bda690ff7
     Pseudo is Ultrasoft, Zval =  1.0
     Generated by new atomic code, or converted to UPF format
     Using radial grid of  615 points,  1 beta functions with: 
                l(1) =   0
     Q(r) pseudized with  8 coefficients,  rinner =    0.800

     atomic species   valence    mass     pseudopotential
        O1             6.00    15.99900     O ( 1.00)
        Ti1           12.00    47.86700     Ti( 1.00)
        N1             5.00    14.00700     N ( 1.00)
        H1             1.00     1.00800     H ( 1.00)

     No symmetry found



   Cartesian axes

     site n.     atom                  positions (alat units)
         1           O1  tau(   1) = (   0.0007354   0.0005023  10.5931620  )
         2           O1  tau(   2) = (   3.2893251   8.9324977  13.8850595  )
         3           O1  tau(   3) = (   0.0000810   0.0519898  17.3357851  )
         4           O1  tau(   4) = (   0.0006271   0.0005054   7.9858123  )
         5           O1  tau(   5) = (   3.2891750   8.9291278  11.1853435  )
         6           O1  tau(   6) = (   0.0004222   0.0485762  14.6167438  )
         7           O1  tau(   7) = (   1.9868534   1.4903216   9.2879459  )
         8           O1  tau(   8) = (   5.2393499   1.5905449  12.5682489  )
         9           O1  tau(   9) = (   1.9991366   1.5492019  16.1124644  )
        10           Ti1 tau(  10) = (   0.0007404   1.4906270   9.2895810  )
        11           Ti1 tau(  11) = (   3.2902999   1.3249318  12.4520864  )
        12           Ti1 tau(  12) = (   0.0005939   1.3452645  15.7597600  )
        13           O1  tau(  13) = (   4.5942328   1.4918067   9.2879030  )
        14           O1  tau(  14) = (   1.3411764   1.5910169  12.5684512  )
        15           O1  tau(  15) = (   4.5798538   1.5480364  16.1129854  )
        16           Ti1 tau(  16) = (   3.2902859   2.9801868   9.2893338  )
        17           Ti1 tau(  17) = (   0.0006295   2.8174385  12.4372122  )
        18           Ti1 tau(  18) = (   3.2897038   2.9127836  15.6935398  )
        19           O1  tau(  19) = (   0.0003479   2.9813005  10.5931620  )
        20           O1  tau(  20) = (   3.2904107   2.9319293  13.8952334  )
        21           O1  tau(  21) = (   0.0002396   2.9813036   7.9858123  )
        22           O1  tau(  22) = (   3.2903884   2.9732875  11.2024877  )
        23           O1  tau(  23) = (   6.5791771   2.9400465  14.7470945  )
        24           O1  tau(  24) = (   1.9864658   4.4711199   9.2879459  )
        25           O1  tau(  25) = (   5.2507180   4.5586503  12.6053682  )
        26           O1  tau(  26) = (   1.9989508   4.4013585  16.0758979  )
        27           Ti1 tau(  27) = (   0.0003529   4.4714252   9.2895810  )
        28           Ti1 tau(  28) = (   3.2908498   4.3294621  12.5515864  )
        29           Ti1 tau(  29) = (   0.0012874   4.5361023  15.7587160  )
        30           O1  tau(  30) = (   4.5938453   4.4726049   9.2879030  )
        31           O1  tau(  31) = (   1.3295807   4.5581274  12.6051842  )
        32           O1  tau(  32) = (   4.5807093   4.4011557  16.0767203  )
        33           Ti1 tau(  33) = (   3.2898983   5.9609850   9.2893338  )
        34           Ti1 tau(  34) = (   0.0011720   5.8030845  12.4395124  )
        35           Ti1 tau(  35) = (   3.2913837   5.8399099  16.1904745  )
        36           O1  tau(  36) = (  -0.0000397   5.9620987  10.5931620  )
        37           O1  tau(  37) = (   3.2897076   5.9457256  13.9643012  )
        38           O1  tau(  38) = (   0.0001823   5.8979554  17.1998916  )
        39           O1  tau(  39) = (  -0.0001480   5.9621018   7.9858123  )
        40           O1  tau(  40) = (   3.2897623   5.9362706  11.2341171  )
        41           O1  tau(  41) = (   0.0004469   5.9800359  14.6665197  )
        42           O1  tau(  42) = (   1.9860782   7.4519181   9.2879459  )
        43           O1  tau(  43) = (   5.2507221   7.5245448  12.5933772  )
        44           O1  tau(  44) = (   1.9799843   7.5745874  16.0532815  )
        45           Ti1 tau(  45) = (  -0.0000347   7.4522234   9.2895810  )
        46           Ti1 tau(  46) = (   3.2894177   7.1911746  12.6495270  )
        47           Ti1 tau(  47) = (   0.0007314   7.2822180  16.1322395  )
        48           O1  tau(  48) = (   4.5934577   7.4534031   9.2879030  )
        49           O1  tau(  49) = (   1.3275845   7.5244469  12.5935105  )
        50           O1  tau(  50) = (   4.5990354   7.5728923  16.0522427  )
        51           Ti1 tau(  51) = (   3.2895107   8.9417832   9.2893338  )
        52           Ti1 tau(  52) = (  -0.0007012   8.7603021  12.4499776  )
        53           Ti1 tau(  53) = (   3.2901857   8.8509785  15.6953962  )
        54           N1  tau(  54) = (   3.2899770   5.9827455  18.1265562  )
        55           H1  tau(  55) = (   3.2886311   5.2071789  18.7771882  )
        56           H1  tau(  56) = (   3.2869209   6.8541504  18.6418389  )
        57           H1  tau(  57) = (   6.5771076   8.8877891  18.2917622  )
        58           N1  tau(  58) = (   6.5788838   3.2021548  17.9140464  )
        59           H1  tau(  59) = (   6.5785461   2.2502248  18.2648563  )
        60           H1  tau(  60) = (   5.7691345   3.6762813  18.2792932  )
        61           H1  tau(  61) = (   0.8178175   3.6764091  18.2810048  )

     number of k points=    10  Fermi-Dirac smearing, width (Ry)=  0.0073
                       cart. coord. in units 2pi/alat
        k(    1) = (   0.0000000   0.0000000   0.0000000), wk =   0.1250000
        k(    2) = (   0.0000000   0.0279567   0.0000000), wk =   0.2500000
        k(    3) = (   0.0000000  -0.0559134   0.0000000), wk =   0.1250000
        k(    4) = (   0.0379955   0.0000049   0.0000000), wk =   0.2500000
        k(    5) = (   0.0379955   0.0279617   0.0000000), wk =   0.2500000
        k(    6) = (   0.0379955  -0.0559085   0.0000000), wk =   0.2500000
        k(    7) = (   0.0379955  -0.0279518   0.0000000), wk =   0.2500000
        k(    8) = (  -0.0759910  -0.0000099   0.0000000), wk =   0.1250000
        k(    9) = (  -0.0759910   0.0279468   0.0000000), wk =   0.2500000
        k(   10) = (  -0.0759910  -0.0559233   0.0000000), wk =   0.1250000

     Dense  grid:   850181 G-vectors     FFT dimensions: (  72,  96, 270)

     Smooth grid:   215109 G-vectors     FFT dimensions: (  45,  60, 180)

     Estimated max dynamical RAM per process >     706.97 MB

     Estimated total dynamical RAM >       5.52 GB
     Cannot read rho : file not found

     Initial potential from superposition of free atoms

     starting charge  423.99908, renormalised to  442.00000

     negative rho (up, down):  3.661E-02 0.000E+00


     %%%%%%%%%%%%%%%%%%%%%%%%%%%%%%%%%%%%%%%%%%%%%%%%%%%%%%%%%%%%%%%%%%%%%%%%
     %                                                                      %
     % You are using vdW-DF, which was implemented by the Thonhauser group. %
     % Please cite the following two papers that made this development      %
     % possible and the two reviews that describe the various versions:     %
     %                                                                      %
     %   T. Thonhauser et al., PRL 115, 136402 (2015).                      %
     %   T. Thonhauser et al., PRB 76, 125112 (2007).                       %
     %   K. Berland et al., Rep. Prog. Phys. 78, 066501 (2015).             %
     %   D.C. Langreth et al., J. Phys.: Condens. Matter 21, 084203 (2009). %
     %                                                                      %
     %                                                                      %
     % If you are calculating the stress with vdW-DF, please also cite:     %
     %                                                                      %
     %   R. Sabatini et al., J. Phys.: Condens. Matter 24, 424209 (2012).   %
     %                                                                      %
     %%%%%%%%%%%%%%%%%%%%%%%%%%%%%%%%%%%%%%%%%%%%%%%%%%%%%%%%%%%%%%%%%%%%%%%%


 
     Adding external electric field

     Computed dipole along edir(3) : 
        Dipole               -6.2843 Ry au,        -15.9732 Debye
        Dipole field         -0.0079 Ry au, 
 
        Potential amp.        0.7329 Ry
        Total length         46.3494 bohr
 
     Starting wfcs are  334 atomic wfcs
  @ DRIVER MODE: Message from server: STATUS
  @ DRIVER MODE: Message from server: POSDATA
  @ DRIVER MODE: Reading and sharing cell 
  @ DRIVER MODE: Reading and sharing positions 
  @ DRIVER MODE: Received positions 

     total cpu time spent up to now is       18.7 secs

     Self-consistent Calculation

     iteration #  1     ecut=    29.40 Ry     beta= 0.05
     Davidson diagonalization with overlap
     c_bands:  2 eigenvalues not converged
     c_bands:  4 eigenvalues not converged
     c_bands:  3 eigenvalues not converged
     c_bands:  4 eigenvalues not converged
     c_bands:  5 eigenvalues not converged
     c_bands:  4 eigenvalues not converged
     c_bands:  2 eigenvalues not converged
     c_bands:  2 eigenvalues not converged
     ethr =  1.00E-05,  avg # of iterations = 21.5

     negative rho (up, down):  3.610E-02 0.000E+00
 
     Adding external electric field

     Computed dipole along edir(3) : 
        Dipole                6.7036 Ry au,         17.0388 Debye
        Dipole field          0.0084 Ry au, 
 
        Potential amp.       -0.7818 Ry
        Total length         46.3494 bohr
 

     total cpu time spent up to now is      103.1 secs

     total energy              =   -3276.11161235 Ry
     estimated scf accuracy    <     260.18543722 Ry

     iteration #  2     ecut=    29.40 Ry     beta= 0.05
     Davidson diagonalization with overlap
     ethr =  1.00E-02,  avg # of iterations = 15.1

     negative rho (up, down):  3.469E-02 0.000E+00
 
     Adding external electric field

     Computed dipole along edir(3) : 
        Dipole               -1.8872 Ry au,         -4.7969 Debye
        Dipole field         -0.0024 Ry au, 
 
        Potential amp.        0.2201 Ry
        Total length         46.3494 bohr
 

     total cpu time spent up to now is      147.7 secs

     total energy              =   -3272.69963810 Ry
     estimated scf accuracy    <    1179.30976323 Ry

     iteration #  3     ecut=    29.40 Ry     beta= 0.05
     Davidson diagonalization with overlap
     ethr =  1.00E-02,  avg # of iterations = 13.1

     negative rho (up, down):  3.433E-02 0.000E+00
 
     Adding external electric field

     Computed dipole along edir(3) : 
        Dipole               -1.7861 Ry au,         -4.5399 Debye
        Dipole field         -0.0022 Ry au, 
 
        Potential amp.        0.2083 Ry
        Total length         46.3494 bohr
 

     total cpu time spent up to now is      181.0 secs

     total energy              =   -3297.37263782 Ry
     estimated scf accuracy    <      11.53210852 Ry

     iteration #  4     ecut=    29.40 Ry     beta= 0.05
     Davidson diagonalization with overlap
     ethr =  2.61E-03,  avg # of iterations =  2.4

     negative rho (up, down):  3.493E-02 0.000E+00
 
     Adding external electric field

     Computed dipole along edir(3) : 
        Dipole               -0.7238 Ry au,         -1.8398 Debye
        Dipole field         -0.0009 Ry au, 
 
        Potential amp.        0.0844 Ry
        Total length         46.3494 bohr
 

     total cpu time spent up to now is      203.9 secs

     total energy              =   -3294.19953368 Ry
     estimated scf accuracy    <      10.12837250 Ry

     iteration #  5     ecut=    29.40 Ry     beta= 0.05
     Davidson diagonalization with overlap
     c_bands:  2 eigenvalues not converged
     c_bands:  1 eigenvalues not converged
     c_bands:  1 eigenvalues not converged
     c_bands:  1 eigenvalues not converged
     ethr =  2.29E-03,  avg # of iterations = 18.0

     negative rho (up, down):  3.470E-02 0.000E+00
 
     Adding external electric field

     Computed dipole along edir(3) : 
        Dipole               -0.3160 Ry au,         -0.8031 Debye
        Dipole field         -0.0004 Ry au, 
 
        Potential amp.        0.0369 Ry
        Total length         46.3494 bohr
 

     total cpu time spent up to now is      241.3 secs

     total energy              =   -3295.45941996 Ry
     estimated scf accuracy    <       3.41568812 Ry

     iteration #  6     ecut=    29.40 Ry     beta= 0.05
     Davidson diagonalization with overlap
     ethr =  7.73E-04,  avg # of iterations =  7.5

     negative rho (up, down):  3.416E-02 0.000E+00
 
     Adding external electric field

     Computed dipole along edir(3) : 
        Dipole                0.0960 Ry au,          0.2440 Debye
        Dipole field          0.0001 Ry au, 
 
        Potential amp.       -0.0112 Ry
        Total length         46.3494 bohr
 

     total cpu time spent up to now is      269.8 secs

     total energy              =   -3295.67585440 Ry
     estimated scf accuracy    <       2.70234470 Ry

     iteration #  7     ecut=    29.40 Ry     beta= 0.05
     Davidson diagonalization with overlap
     ethr =  6.11E-04,  avg # of iterations =  8.9

     negative rho (up, down):  3.439E-02 0.000E+00
 
     Adding external electric field

     Computed dipole along edir(3) : 
        Dipole                0.8267 Ry au,          2.1014 Debye
        Dipole field          0.0010 Ry au, 
 
        Potential amp.       -0.0964 Ry
        Total length         46.3494 bohr
 

     total cpu time spent up to now is      295.2 secs

     total energy              =   -3295.67428007 Ry
     estimated scf accuracy    <       1.02533692 Ry

     iteration #  8     ecut=    29.40 Ry     beta= 0.05
     Davidson diagonalization with overlap
     c_bands:  2 eigenvalues not converged
     ethr =  2.32E-04,  avg # of iterations = 14.1

     negative rho (up, down):  3.456E-02 0.000E+00
 
     Adding external electric field

     Computed dipole along edir(3) : 
        Dipole                0.8572 Ry au,          2.1789 Debye
        Dipole field          0.0011 Ry au, 
 
        Potential amp.       -0.1000 Ry
        Total length         46.3494 bohr
 

     total cpu time spent up to now is      331.2 secs

     total energy              =   -3295.80743679 Ry
     estimated scf accuracy    <       0.42415519 Ry

     iteration #  9     ecut=    29.40 Ry     beta= 0.05
     Davidson diagonalization with overlap
     c_bands:  2 eigenvalues not converged
     c_bands:  1 eigenvalues not converged
     c_bands:  5 eigenvalues not converged
     c_bands:  2 eigenvalues not converged
     c_bands:  1 eigenvalues not converged
     c_bands:  4 eigenvalues not converged
     c_bands:  1 eigenvalues not converged
     ethr =  9.60E-05,  avg # of iterations = 18.5

     negative rho (up, down):  3.414E-02 0.000E+00
 
     Adding external electric field

     Computed dipole along edir(3) : 
        Dipole                0.8991 Ry au,          2.2853 Debye
        Dipole field          0.0011 Ry au, 
 
        Potential amp.       -0.1049 Ry
        Total length         46.3494 bohr
 

     total cpu time spent up to now is      374.8 secs

     total energy              =   -3295.80087518 Ry
     estimated scf accuracy    <       2.06124869 Ry

     iteration # 10     ecut=    29.40 Ry     beta= 0.05
     Davidson diagonalization with overlap
     ethr =  9.60E-05,  avg # of iterations =  3.7

     negative rho (up, down):  3.396E-02 0.000E+00
 
     Adding external electric field

     Computed dipole along edir(3) : 
        Dipole                1.0087 Ry au,          2.5640 Debye
        Dipole field          0.0013 Ry au, 
 
        Potential amp.       -0.1176 Ry
        Total length         46.3494 bohr
 

     total cpu time spent up to now is      397.9 secs

     total energy              =   -3295.70623225 Ry
     estimated scf accuracy    <       0.98405365 Ry

     iteration # 11     ecut=    29.40 Ry     beta= 0.05
     Davidson diagonalization with overlap
     c_bands:  1 eigenvalues not converged
     c_bands:  4 eigenvalues not converged
     c_bands:  2 eigenvalues not converged
     c_bands:  1 eigenvalues not converged
     ethr =  9.60E-05,  avg # of iterations = 16.9

     negative rho (up, down):  3.452E-02 0.000E+00
 
     Adding external electric field

     Computed dipole along edir(3) : 
        Dipole                1.4881 Ry au,          3.7824 Debye
        Dipole field          0.0019 Ry au, 
 
        Potential amp.       -0.1735 Ry
        Total length         46.3494 bohr
 

     total cpu time spent up to now is      439.3 secs

     total energy              =   -3295.80605784 Ry
     estimated scf accuracy    <       0.29462082 Ry

     iteration # 12     ecut=    29.40 Ry     beta= 0.05
     Davidson diagonalization with overlap
     c_bands:  2 eigenvalues not converged
     c_bands:  1 eigenvalues not converged
     c_bands:  1 eigenvalues not converged
     ethr =  6.67E-05,  avg # of iterations = 14.2

     negative rho (up, down):  3.645E-02 0.000E+00
 
     Adding external electric field

     Computed dipole along edir(3) : 
        Dipole                2.4055 Ry au,          6.1142 Debye
        Dipole field          0.0030 Ry au, 
 
        Potential amp.       -0.2805 Ry
        Total length         46.3494 bohr
 

     total cpu time spent up to now is      469.8 secs

     total energy              =   -3295.83378650 Ry
     estimated scf accuracy    <       0.28621525 Ry

     iteration # 13     ecut=    29.40 Ry     beta= 0.05
     Davidson diagonalization with overlap
     c_bands:  1 eigenvalues not converged
     c_bands:  1 eigenvalues not converged
     c_bands:  1 eigenvalues not converged
     c_bands:  1 eigenvalues not converged
     c_bands:  2 eigenvalues not converged
     c_bands:  2 eigenvalues not converged
     ethr =  6.48E-05,  avg # of iterations = 17.2

     negative rho (up, down):  3.591E-02 0.000E+00
 
     Adding external electric field

     Computed dipole along edir(3) : 
        Dipole                2.3278 Ry au,          5.9168 Debye
        Dipole field          0.0029 Ry au, 
 
        Potential amp.       -0.2715 Ry
        Total length         46.3494 bohr
 

     total cpu time spent up to now is      506.5 secs

     total energy              =   -3295.86617132 Ry
     estimated scf accuracy    <       0.41960614 Ry

     iteration # 14     ecut=    29.40 Ry     beta= 0.05
     Davidson diagonalization with overlap
     ethr =  6.48E-05,  avg # of iterations =  2.9

     negative rho (up, down):  3.586E-02 0.000E+00
 
     Adding external electric field

     Computed dipole along edir(3) : 
        Dipole                2.3391 Ry au,          5.9455 Debye
        Dipole field          0.0029 Ry au, 
 
        Potential amp.       -0.2728 Ry
        Total length         46.3494 bohr
 

     total cpu time spent up to now is      528.4 secs

     total energy              =   -3295.88278845 Ry
     estimated scf accuracy    <       0.45005041 Ry

     iteration # 15     ecut=    29.40 Ry     beta= 0.05
     Davidson diagonalization with overlap
     ethr =  6.48E-05,  avg # of iterations =  3.4

     negative rho (up, down):  3.728E-02 0.000E+00
 
     Adding external electric field

     Computed dipole along edir(3) : 
        Dipole                2.4454 Ry au,          6.2155 Debye
        Dipole field          0.0031 Ry au, 
 
        Potential amp.       -0.2852 Ry
        Total length         46.3494 bohr
 

     total cpu time spent up to now is      551.2 secs

     total energy              =   -3295.83723610 Ry
     estimated scf accuracy    <       0.52212224 Ry

     iteration # 16     ecut=    29.40 Ry     beta= 0.05
     Davidson diagonalization with overlap
     c_bands:  1 eigenvalues not converged
     ethr =  6.48E-05,  avg # of iterations =  7.7

     negative rho (up, down):  3.738E-02 0.000E+00
 
     Adding external electric field

     Computed dipole along edir(3) : 
        Dipole                2.1832 Ry au,          5.5492 Debye
        Dipole field          0.0027 Ry au, 
 
        Potential amp.       -0.2546 Ry
        Total length         46.3494 bohr
 

     total cpu time spent up to now is      575.8 secs

     total energy              =   -3295.81746734 Ry
     estimated scf accuracy    <       0.60890881 Ry

     iteration # 17     ecut=    29.40 Ry     beta= 0.05
     Davidson diagonalization with overlap
     c_bands:  1 eigenvalues not converged
     c_bands:  1 eigenvalues not converged
     ethr =  6.48E-05,  avg # of iterations = 13.2

     negative rho (up, down):  3.669E-02 0.000E+00
 
     Adding external electric field

     Computed dipole along edir(3) : 
        Dipole                2.2317 Ry au,          5.6725 Debye
        Dipole field          0.0028 Ry au, 
 
        Potential amp.       -0.2603 Ry
        Total length         46.3494 bohr
 

     total cpu time spent up to now is      609.3 secs

     total energy              =   -3295.83845829 Ry
     estimated scf accuracy    <       0.59543647 Ry

     iteration # 18     ecut=    29.40 Ry     beta= 0.05
     Davidson diagonalization with overlap
     ethr =  6.48E-05,  avg # of iterations =  1.0

     negative rho (up, down):  3.603E-02 0.000E+00
 
     Adding external electric field

     Computed dipole along edir(3) : 
        Dipole                2.3687 Ry au,          6.0206 Debye
        Dipole field          0.0030 Ry au, 
 
        Potential amp.       -0.2762 Ry
        Total length         46.3494 bohr
 

     total cpu time spent up to now is      629.9 secs

     total energy              =   -3295.85157810 Ry
     estimated scf accuracy    <       0.62910454 Ry

     iteration # 19     ecut=    29.40 Ry     beta= 0.05
     Davidson diagonalization with overlap
     ethr =  6.48E-05,  avg # of iterations =  4.9

     negative rho (up, down):  3.424E-02 0.000E+00
 
     Adding external electric field

     Computed dipole along edir(3) : 
        Dipole                1.7501 Ry au,          4.4482 Debye
        Dipole field          0.0022 Ry au, 
 
        Potential amp.       -0.2041 Ry
        Total length         46.3494 bohr
 

     total cpu time spent up to now is      653.5 secs

     total energy              =   -3295.78376479 Ry
     estimated scf accuracy    <       0.46724767 Ry

     iteration # 20     ecut=    29.40 Ry     beta= 0.05
     Davidson diagonalization with overlap
     c_bands:  1 eigenvalues not converged
     c_bands:  1 eigenvalues not converged
     c_bands:  1 eigenvalues not converged
     ethr =  6.48E-05,  avg # of iterations = 17.3

     negative rho (up, down):  3.559E-02 0.000E+00
 
     Adding external electric field

     Computed dipole along edir(3) : 
        Dipole                2.0339 Ry au,          5.1696 Debye
        Dipole field          0.0026 Ry au, 
 
        Potential amp.       -0.2372 Ry
        Total length         46.3494 bohr
 

     total cpu time spent up to now is      686.5 secs

     total energy              =   -3295.81280377 Ry
     estimated scf accuracy    <       0.08578725 Ry

     iteration # 21     ecut=    29.40 Ry     beta= 0.05
     Davidson diagonalization with overlap
     ethr =  1.94E-05,  avg # of iterations = 10.7

     negative rho (up, down):  3.693E-02 0.000E+00
 
     Adding external electric field

     Computed dipole along edir(3) : 
        Dipole                1.6548 Ry au,          4.2061 Debye
        Dipole field          0.0021 Ry au, 
 
        Potential amp.       -0.1930 Ry
        Total length         46.3494 bohr
 

     total cpu time spent up to now is      714.0 secs

     total energy              =   -3295.81581630 Ry
     estimated scf accuracy    <       0.07058118 Ry

     iteration # 22     ecut=    29.40 Ry     beta= 0.05
     Davidson diagonalization with overlap
     c_bands:  2 eigenvalues not converged
     c_bands:  3 eigenvalues not converged
     c_bands:  2 eigenvalues not converged
     c_bands:  2 eigenvalues not converged
     c_bands:  5 eigenvalues not converged
     c_bands:  4 eigenvalues not converged
     c_bands:  4 eigenvalues not converged
     c_bands:  5 eigenvalues not converged
     ethr =  1.60E-05,  avg # of iterations = 24.0

     negative rho (up, down):  3.664E-02 0.000E+00
 
     Adding external electric field

     Computed dipole along edir(3) : 
        Dipole                1.8122 Ry au,          4.6062 Debye
        Dipole field          0.0023 Ry au, 
 
        Potential amp.       -0.2113 Ry
        Total length         46.3494 bohr
 

     total cpu time spent up to now is      773.2 secs

     total energy              =   -3295.83875135 Ry
     estimated scf accuracy    <       1.21302799 Ry

     iteration # 23     ecut=    29.40 Ry     beta= 0.05
     Davidson diagonalization with overlap
     c_bands:  1 eigenvalues not converged
     ethr =  1.60E-05,  avg # of iterations = 11.4

     negative rho (up, down):  3.650E-02 0.000E+00
 
     Adding external electric field

     Computed dipole along edir(3) : 
        Dipole                1.8468 Ry au,          4.6942 Debye
        Dipole field          0.0023 Ry au, 
 
        Potential amp.       -0.2154 Ry
        Total length         46.3494 bohr
 

     total cpu time spent up to now is      800.9 secs

     total energy              =   -3295.83687920 Ry
     estimated scf accuracy    <       0.60197197 Ry

     iteration # 24     ecut=    29.40 Ry     beta= 0.05
     Davidson diagonalization with overlap
     ethr =  1.60E-05,  avg # of iterations = 10.7

     negative rho (up, down):  3.639E-02 0.000E+00
 
     Adding external electric field

     Computed dipole along edir(3) : 
        Dipole                1.8583 Ry au,          4.7234 Debye
        Dipole field          0.0023 Ry au, 
 
        Potential amp.       -0.2167 Ry
        Total length         46.3494 bohr
 

     total cpu time spent up to now is      826.2 secs

     total energy              =   -3295.83013035 Ry
     estimated scf accuracy    <       0.48966546 Ry

     iteration # 25     ecut=    29.40 Ry     beta= 0.05
     Davidson diagonalization with overlap
     ethr =  1.60E-05,  avg # of iterations =  8.9

     negative rho (up, down):  3.625E-02 0.000E+00
 
     Adding external electric field

     Computed dipole along edir(3) : 
        Dipole                1.7870 Ry au,          4.5421 Debye
        Dipole field          0.0022 Ry au, 
 
        Potential amp.       -0.2084 Ry
        Total length         46.3494 bohr
 

     total cpu time spent up to now is      851.7 secs

     total energy              =   -3295.82375038 Ry
     estimated scf accuracy    <       0.32471463 Ry

     iteration # 26     ecut=    29.40 Ry     beta= 0.05
     Davidson diagonalization with overlap
     c_bands:  1 eigenvalues not converged
     c_bands:  1 eigenvalues not converged
     c_bands:  1 eigenvalues not converged
     c_bands:  1 eigenvalues not converged
     ethr =  1.60E-05,  avg # of iterations = 14.3

     negative rho (up, down):  3.603E-02 0.000E+00
 
     Adding external electric field

     Computed dipole along edir(3) : 
        Dipole                1.9738 Ry au,          5.0168 Debye
        Dipole field          0.0025 Ry au, 
 
        Potential amp.       -0.2302 Ry
        Total length         46.3494 bohr
 

     total cpu time spent up to now is      883.3 secs

     total energy              =   -3295.81168683 Ry
     estimated scf accuracy    <       0.35918997 Ry

     iteration # 27     ecut=    29.40 Ry     beta= 0.05
     Davidson diagonalization with overlap
     c_bands:  1 eigenvalues not converged
     c_bands:  1 eigenvalues not converged
     c_bands:  2 eigenvalues not converged
     c_bands:  3 eigenvalues not converged
     c_bands:  3 eigenvalues not converged
     c_bands:  3 eigenvalues not converged
     c_bands:  3 eigenvalues not converged
     ethr =  1.60E-05,  avg # of iterations = 18.9

     negative rho (up, down):  3.584E-02 0.000E+00
 
     Adding external electric field

     Computed dipole along edir(3) : 
        Dipole                2.0040 Ry au,          5.0936 Debye
        Dipole field          0.0025 Ry au, 
 
        Potential amp.       -0.2337 Ry
        Total length         46.3494 bohr
 

     total cpu time spent up to now is      918.4 secs

     total energy              =   -3295.82075743 Ry
     estimated scf accuracy    <       0.00911708 Ry

     iteration # 28     ecut=    29.40 Ry     beta= 0.05
     Davidson diagonalization with overlap
     c_bands:  2 eigenvalues not converged
     c_bands:  2 eigenvalues not converged
     c_bands:  2 eigenvalues not converged
     c_bands:  2 eigenvalues not converged
     c_bands:  4 eigenvalues not converged
     c_bands:  2 eigenvalues not converged
     c_bands:  2 eigenvalues not converged
     ethr =  2.06E-06,  avg # of iterations = 19.7

     negative rho (up, down):  3.587E-02 0.000E+00
 
     Adding external electric field

     Computed dipole along edir(3) : 
        Dipole                2.0291 Ry au,          5.1574 Debye
        Dipole field          0.0026 Ry au, 
 
        Potential amp.       -0.2366 Ry
        Total length         46.3494 bohr
 

     total cpu time spent up to now is      970.4 secs

     total energy              =   -3295.82385115 Ry
     estimated scf accuracy    <       0.01923958 Ry

     iteration # 29     ecut=    29.40 Ry     beta= 0.05
     Davidson diagonalization with overlap
     c_bands:  1 eigenvalues not converged
     c_bands:  1 eigenvalues not converged
     ethr =  2.06E-06,  avg # of iterations =  9.8

     negative rho (up, down):  3.576E-02 0.000E+00
 
     Adding external electric field

     Computed dipole along edir(3) : 
        Dipole                2.0032 Ry au,          5.0917 Debye
        Dipole field          0.0025 Ry au, 
 
        Potential amp.       -0.2336 Ry
        Total length         46.3494 bohr
 

     total cpu time spent up to now is      996.4 secs

     total energy              =   -3295.82277116 Ry
     estimated scf accuracy    <       0.02114483 Ry

     iteration # 30     ecut=    29.40 Ry     beta= 0.05
     Davidson diagonalization with overlap
     c_bands:  1 eigenvalues not converged
     ethr =  2.06E-06,  avg # of iterations =  7.9

     negative rho (up, down):  3.575E-02 0.000E+00
 
     Adding external electric field

     Computed dipole along edir(3) : 
        Dipole                1.9177 Ry au,          4.8742 Debye
        Dipole field          0.0024 Ry au, 
 
        Potential amp.       -0.2236 Ry
        Total length         46.3494 bohr
 

     total cpu time spent up to now is     1023.1 secs

     total energy              =   -3295.82250518 Ry
     estimated scf accuracy    <       0.01003388 Ry

     iteration # 31     ecut=    29.40 Ry     beta= 0.05
     Davidson diagonalization with overlap
     c_bands:  1 eigenvalues not converged
     ethr =  2.06E-06,  avg # of iterations = 15.7

     negative rho (up, down):  3.571E-02 0.000E+00
 
     Adding external electric field

     Computed dipole along edir(3) : 
        Dipole                1.9347 Ry au,          4.9175 Debye
        Dipole field          0.0024 Ry au, 
 
        Potential amp.       -0.2256 Ry
        Total length         46.3494 bohr
 

     total cpu time spent up to now is     1063.2 secs

     total energy              =   -3295.82368724 Ry
     estimated scf accuracy    <       0.00747598 Ry

     iteration # 32     ecut=    29.40 Ry     beta= 0.05
     Davidson diagonalization with overlap
     ethr =  1.69E-06,  avg # of iterations =  1.4

     negative rho (up, down):  3.562E-02 0.000E+00
 
     Adding external electric field

     Computed dipole along edir(3) : 
        Dipole                1.9242 Ry au,          4.8909 Debye
        Dipole field          0.0024 Ry au, 
 
        Potential amp.       -0.2244 Ry
        Total length         46.3494 bohr
 

     total cpu time spent up to now is     1084.4 secs

     total energy              =   -3295.82307038 Ry
     estimated scf accuracy    <       0.00287647 Ry

     iteration # 33     ecut=    29.40 Ry     beta= 0.05
     Davidson diagonalization with overlap
     ethr =  6.51E-07,  avg # of iterations = 12.1

     negative rho (up, down):  3.558E-02 0.000E+00
 
     Adding external electric field

     Computed dipole along edir(3) : 
        Dipole                1.9240 Ry au,          4.8904 Debye
        Dipole field          0.0024 Ry au, 
 
        Potential amp.       -0.2244 Ry
        Total length         46.3494 bohr
 

     total cpu time spent up to now is     1119.8 secs

     total energy              =   -3295.82373771 Ry
     estimated scf accuracy    <       0.00096741 Ry

     iteration # 34     ecut=    29.40 Ry     beta= 0.05
     Davidson diagonalization with overlap
     ethr =  2.19E-07,  avg # of iterations =  3.6

     negative rho (up, down):  3.554E-02 0.000E+00
 
     Adding external electric field

     Computed dipole along edir(3) : 
        Dipole                1.9174 Ry au,          4.8735 Debye
        Dipole field          0.0024 Ry au, 
 
        Potential amp.       -0.2236 Ry
        Total length         46.3494 bohr
 

     total cpu time spent up to now is     1142.8 secs

     total energy              =   -3295.82385193 Ry
     estimated scf accuracy    <       0.00083384 Ry

     iteration # 35     ecut=    29.40 Ry     beta= 0.05
     Davidson diagonalization with overlap
     c_bands:  2 eigenvalues not converged
     ethr =  1.89E-07,  avg # of iterations = 14.0

     negative rho (up, down):  3.544E-02 0.000E+00
 
     Adding external electric field

     Computed dipole along edir(3) : 
        Dipole                1.9260 Ry au,          4.8954 Debye
        Dipole field          0.0024 Ry au, 
 
        Potential amp.       -0.2246 Ry
        Total length         46.3494 bohr
 

     total cpu time spent up to now is     1191.6 secs

     total energy              =   -3295.82435834 Ry
     estimated scf accuracy    <       0.00622693 Ry

     iteration # 36     ecut=    29.40 Ry     beta= 0.05
     Davidson diagonalization with overlap
     ethr =  1.89E-07,  avg # of iterations = 14.0

     negative rho (up, down):  3.542E-02 0.000E+00
 
     Adding external electric field

     Computed dipole along edir(3) : 
        Dipole                1.9267 Ry au,          4.8972 Debye
        Dipole field          0.0024 Ry au, 
 
        Potential amp.       -0.2247 Ry
        Total length         46.3494 bohr
 

     total cpu time spent up to now is     1224.4 secs

     total energy              =   -3295.82403331 Ry
     estimated scf accuracy    <       0.00583912 Ry

     iteration # 37     ecut=    29.40 Ry     beta= 0.05
     Davidson diagonalization with overlap
     ethr =  1.89E-07,  avg # of iterations =  5.6

     negative rho (up, down):  3.540E-02 0.000E+00
 
     Adding external electric field

     Computed dipole along edir(3) : 
        Dipole                1.9233 Ry au,          4.8884 Debye
        Dipole field          0.0024 Ry au, 
 
        Potential amp.       -0.2243 Ry
        Total length         46.3494 bohr
 

     total cpu time spent up to now is     1252.8 secs

     total energy              =   -3295.82370169 Ry
     estimated scf accuracy    <       0.00315692 Ry

     iteration # 38     ecut=    29.40 Ry     beta= 0.05
     Davidson diagonalization with overlap
     ethr =  1.89E-07,  avg # of iterations = 11.6

     negative rho (up, down):  3.538E-02 0.000E+00
 
     Adding external electric field

     Computed dipole along edir(3) : 
        Dipole                1.9241 Ry au,          4.8905 Debye
        Dipole field          0.0024 Ry au, 
 
        Potential amp.       -0.2244 Ry
        Total length         46.3494 bohr
 

     total cpu time spent up to now is     1290.3 secs

     total energy              =   -3295.82398573 Ry
     estimated scf accuracy    <       0.00032477 Ry

     iteration # 39     ecut=    29.40 Ry     beta= 0.05
     Davidson diagonalization with overlap
     ethr =  7.35E-08,  avg # of iterations =  8.7

     negative rho (up, down):  3.538E-02 0.000E+00
 
     Adding external electric field

     Computed dipole along edir(3) : 
        Dipole                1.9273 Ry au,          4.8986 Debye
        Dipole field          0.0024 Ry au, 
 
        Potential amp.       -0.2248 Ry
        Total length         46.3494 bohr
 

     total cpu time spent up to now is     1316.6 secs

     total energy              =   -3295.82404664 Ry
     estimated scf accuracy    <       0.00018337 Ry

     iteration # 40     ecut=    29.40 Ry     beta= 0.05
     Davidson diagonalization with overlap
     ethr =  4.15E-08,  avg # of iterations = 14.6

     negative rho (up, down):  3.537E-02 0.000E+00
 
     Adding external electric field

     Computed dipole along edir(3) : 
        Dipole                1.9303 Ry au,          4.9064 Debye
        Dipole field          0.0024 Ry au, 
 
        Potential amp.       -0.2251 Ry
        Total length         46.3494 bohr
 

     total cpu time spent up to now is     1351.6 secs

     total energy              =   -3295.82412885 Ry
     estimated scf accuracy    <       0.00009783 Ry

     iteration # 41     ecut=    29.40 Ry     beta= 0.05
     Davidson diagonalization with overlap
     ethr =  2.21E-08,  avg # of iterations =  6.1

     negative rho (up, down):  3.536E-02 0.000E+00
 
     Adding external electric field

     Computed dipole along edir(3) : 
        Dipole                1.9308 Ry au,          4.9077 Debye
        Dipole field          0.0024 Ry au, 
 
        Potential amp.       -0.2252 Ry
        Total length         46.3494 bohr
 

     total cpu time spent up to now is     1376.5 secs

     total energy              =   -3295.82415803 Ry
     estimated scf accuracy    <       0.00005675 Ry

     iteration # 42     ecut=    29.40 Ry     beta= 0.05
     Davidson diagonalization with overlap
     ethr =  1.28E-08,  avg # of iterations = 13.0

     negative rho (up, down):  3.534E-02 0.000E+00
 
     Adding external electric field

     Computed dipole along edir(3) : 
        Dipole                1.9315 Ry au,          4.9093 Debye
        Dipole field          0.0024 Ry au, 
 
        Potential amp.       -0.2253 Ry
        Total length         46.3494 bohr
 

     total cpu time spent up to now is     1413.8 secs

     total energy              =   -3295.82419124 Ry
     estimated scf accuracy    <       0.00002774 Ry

     iteration # 43     ecut=    29.40 Ry     beta= 0.05
     Davidson diagonalization with overlap
     ethr =  6.27E-09,  avg # of iterations =  2.0

     negative rho (up, down):  3.534E-02 0.000E+00
 
     Adding external electric field

     Computed dipole along edir(3) : 
        Dipole                1.9342 Ry au,          4.9162 Debye
        Dipole field          0.0024 Ry au, 
 
        Potential amp.       -0.2256 Ry
        Total length         46.3494 bohr
 

     total cpu time spent up to now is     1436.2 secs

     total energy              =   -3295.82421541 Ry
     estimated scf accuracy    <       0.00002140 Ry

     iteration # 44     ecut=    29.40 Ry     beta= 0.05
     Davidson diagonalization with overlap
     ethr =  4.84E-09,  avg # of iterations = 12.1

     negative rho (up, down):  3.533E-02 0.000E+00
 
     Adding external electric field

     Computed dipole along edir(3) : 
        Dipole                1.9335 Ry au,          4.9145 Debye
        Dipole field          0.0024 Ry au, 
 
        Potential amp.       -0.2255 Ry
        Total length         46.3494 bohr
 

     total cpu time spent up to now is     1474.8 secs

     total energy              =   -3295.82423747 Ry
     estimated scf accuracy    <       0.00001971 Ry

     iteration # 45     ecut=    29.40 Ry     beta= 0.05
     Davidson diagonalization with overlap
     ethr =  4.46E-09,  avg # of iterations = 11.1

     negative rho (up, down):  3.533E-02 0.000E+00
 
     Adding external electric field

     Computed dipole along edir(3) : 
        Dipole                1.9345 Ry au,          4.9170 Debye
        Dipole field          0.0024 Ry au, 
 
        Potential amp.       -0.2256 Ry
        Total length         46.3494 bohr
 

     total cpu time spent up to now is     1512.1 secs

     total energy              =   -3295.82425909 Ry
     estimated scf accuracy    <       0.00001211 Ry

     iteration # 46     ecut=    29.40 Ry     beta= 0.05
     Davidson diagonalization with overlap
     ethr =  2.74E-09,  avg # of iterations =  8.0

     negative rho (up, down):  3.532E-02 0.000E+00
 
     Adding external electric field

     Computed dipole along edir(3) : 
        Dipole                1.9347 Ry au,          4.9174 Debye
        Dipole field          0.0024 Ry au, 
 
        Potential amp.       -0.2256 Ry
        Total length         46.3494 bohr
 

     total cpu time spent up to now is     1542.2 secs

     total energy              =   -3295.82427732 Ry
     estimated scf accuracy    <       0.00000301 Ry

     iteration # 47     ecut=    29.40 Ry     beta= 0.05
     Davidson diagonalization with overlap
     c_bands:  1 eigenvalues not converged
     ethr =  6.80E-10,  avg # of iterations = 14.0

     negative rho (up, down):  3.532E-02 0.000E+00
 
     Adding external electric field

     Computed dipole along edir(3) : 
        Dipole                1.9347 Ry au,          4.9175 Debye
        Dipole field          0.0024 Ry au, 
 
        Potential amp.       -0.2256 Ry
        Total length         46.3494 bohr
 

     total cpu time spent up to now is     1583.7 secs

     total energy              =   -3295.82429269 Ry
     estimated scf accuracy    <       0.00000528 Ry

     iteration # 48     ecut=    29.40 Ry     beta= 0.05
     Davidson diagonalization with overlap
     ethr =  6.80E-10,  avg # of iterations = 11.6

     negative rho (up, down):  3.532E-02 0.000E+00
 
     Adding external electric field

     Computed dipole along edir(3) : 
        Dipole                1.9342 Ry au,          4.9162 Debye
        Dipole field          0.0024 Ry au, 
 
        Potential amp.       -0.2256 Ry
        Total length         46.3494 bohr
 

     total cpu time spent up to now is     1611.7 secs

     total energy              =   -3295.82430559 Ry
     estimated scf accuracy    <       0.00000297 Ry

     iteration # 49     ecut=    29.40 Ry     beta= 0.05
     Davidson diagonalization with overlap
     ethr =  6.71E-10,  avg # of iterations =  8.2

     negative rho (up, down):  3.531E-02 0.000E+00
 
     Adding external electric field

     Computed dipole along edir(3) : 
        Dipole                1.9342 Ry au,          4.9163 Debye
        Dipole field          0.0024 Ry au, 
 
        Potential amp.       -0.2256 Ry
        Total length         46.3494 bohr
 

     total cpu time spent up to now is     1643.5 secs

     total energy              =   -3295.82431821 Ry
     estimated scf accuracy    <       0.00000081 Ry

     iteration # 50     ecut=    29.40 Ry     beta= 0.05
     Davidson diagonalization with overlap
     c_bands:  1 eigenvalues not converged
     ethr =  1.83E-10,  avg # of iterations = 14.8

     negative rho (up, down):  3.531E-02 0.000E+00
 
     Adding external electric field

     Computed dipole along edir(3) : 
        Dipole                1.9342 Ry au,          4.9162 Debye
        Dipole field          0.0024 Ry au, 
 
        Potential amp.       -0.2256 Ry
        Total length         46.3494 bohr
 

     total cpu time spent up to now is     1679.7 secs

     total energy              =   -3295.82432911 Ry
     estimated scf accuracy    <       0.00000033 Ry

     iteration # 51     ecut=    29.40 Ry     beta= 0.05
     Davidson diagonalization with overlap
     ethr =  7.38E-11,  avg # of iterations =  8.6

     negative rho (up, down):  3.531E-02 0.000E+00
 
     Adding external electric field

     Computed dipole along edir(3) : 
        Dipole                1.9340 Ry au,          4.9158 Debye
        Dipole field          0.0024 Ry au, 
 
        Potential amp.       -0.2256 Ry
        Total length         46.3494 bohr
 

     total cpu time spent up to now is     1706.0 secs

     total energy              =   -3295.82433891 Ry
     estimated scf accuracy    <       0.00000019 Ry

     iteration # 52     ecut=    29.40 Ry     beta= 0.05
     Davidson diagonalization with overlap
     ethr =  4.31E-11,  avg # of iterations = 16.7

     negative rho (up, down):  3.531E-02 0.000E+00
 
     Adding external electric field

     Computed dipole along edir(3) : 
        Dipole                1.9338 Ry au,          4.9153 Debye
        Dipole field          0.0024 Ry au, 
 
        Potential amp.       -0.2255 Ry
        Total length         46.3494 bohr
 

     total cpu time spent up to now is     1747.2 secs

     total energy              =   -3295.82434772 Ry
     estimated scf accuracy    <       0.00000017 Ry

     iteration # 53     ecut=    29.40 Ry     beta= 0.05
     Davidson diagonalization with overlap
     ethr =  3.86E-11,  avg # of iterations = 13.4

     negative rho (up, down):  3.546E-02 0.000E+00
 
     Adding external electric field

     Computed dipole along edir(3) : 
        Dipole                1.9334 Ry au,          4.9142 Debye
        Dipole field          0.0024 Ry au, 
 
        Potential amp.       -0.2255 Ry
        Total length         46.3494 bohr
 

     total cpu time spent up to now is     1778.7 secs

     End of self-consistent calculation

          k = 0.0000 0.0000 0.0000 ( 26871 PWs)   bands (ev):

   -57.4681 -57.4326 -57.4200 -57.3808 -57.3717 -57.3640 -57.3530 -57.3417
   -57.3213 -57.2829 -57.2760 -57.2395 -57.2181 -57.2015 -57.1819 -56.5415
   -56.5172 -56.5111 -33.9391 -33.8522 -33.8520 -33.8289 -33.8091 -33.7916
   -33.7738 -33.7699 -33.7662 -33.7529 -33.7278 -33.7068 -33.7021 -33.6871
   -33.6854 -33.6809 -33.6601 -33.6512 -33.6296 -33.6242 -33.5927 -33.5781
   -33.5603 -33.5562 -33.5487 -33.5475 -33.5438 -33.5368 -33.5246 -33.5214
   -33.5148 -33.5005 -33.4919 -33.4909 -33.4841 -33.4827 -33.4740 -33.4718
   -33.4640 -33.4531 -33.4413 -33.4244 -33.4086 -33.4023 -33.3875 -32.8602
   -32.8519 -32.8510 -32.8343 -32.8289 -32.7695 -32.7083 -32.7009 -32.5693
   -19.3435 -18.2725 -17.9754 -17.7767 -17.7255 -17.6922 -17.6017 -17.5486
   -17.4953 -17.4417 -17.4051 -17.3632 -17.2876 -17.2469 -17.2446 -17.2212
   -17.1671 -17.1431 -17.1351 -17.1249 -17.1232 -17.0985 -17.0491 -17.0452
   -16.9884 -16.9471 -16.9153 -16.9049 -16.8966 -16.8641 -16.8568 -16.8034
   -16.6046 -15.0244 -15.0074 -14.9485 -14.9450  -7.8892  -7.6404  -7.3905
    -6.4602  -5.5810  -5.4291  -5.3977  -5.2342  -4.9631  -4.9111  -4.8680
    -4.8214  -4.7840  -4.7455  -4.7225  -4.6935  -4.6620  -4.6105  -4.5796
    -4.5631  -4.5296  -4.5095  -4.4786  -4.4487  -4.4435  -4.4139  -4.3251
    -4.3162  -4.2921  -4.2744  -4.2390  -4.2206  -4.2178  -4.1688  -4.1574
    -4.0693  -3.9821  -3.8967  -3.8435  -3.8173  -3.7936  -3.7467  -3.7091
    -3.6800  -3.6354  -3.6154  -3.5470  -3.5193  -3.5083  -3.4328  -3.3976
    -3.3025  -3.2636  -3.2524  -3.2318  -3.1893  -3.1775  -3.0960  -3.0825
    -2.9734  -2.9541  -2.8652  -2.7907  -2.7411  -2.7135  -2.6754  -2.6137
    -2.5940  -2.5487  -2.5209  -2.4601  -2.4463  -2.3205  -2.2524  -2.2489
    -2.2289  -2.1904  -2.1611  -2.1469  -2.1247  -2.1217  -2.0433  -2.0344
    -1.9846  -1.9095  -1.8836  -1.8470  -1.8342  -1.7990  -1.7568  -1.6920
    -1.6864  -1.6509  -1.5631  -1.5021  -1.5010  -1.3547  -1.3486  -1.3153
    -1.2671  -1.2133  -1.1828  -0.7804  -0.6044  -0.4348  -0.3088  -0.2481
    -0.2468   0.0279   0.0329   0.1653   1.6141   1.7652   1.8256   1.9595
     1.9780   2.0369   2.1186   2.1410   2.2077   2.2351   2.2446

          k = 0.0000 0.0280 0.0000 ( 26907 PWs)   bands (ev):

   -57.4673 -57.4351 -57.4184 -57.3799 -57.3703 -57.3648 -57.3566 -57.3398
   -57.3212 -57.2828 -57.2763 -57.2378 -57.2213 -57.2000 -57.1819 -56.5395
   -56.5229 -56.5075 -33.9656 -33.9085 -33.8388 -33.8219 -33.8057 -33.7850
   -33.7737 -33.7650 -33.7592 -33.7472 -33.7386 -33.7111 -33.6968 -33.6774
   -33.6722 -33.6460 -33.6243 -33.6200 -33.6158 -33.6045 -33.6011 -33.5844
   -33.5764 -33.5763 -33.5525 -33.5414 -33.5410 -33.5356 -33.5333 -33.5245
   -33.5128 -33.5059 -33.4976 -33.4918 -33.4903 -33.4837 -33.4756 -33.4736
   -33.4667 -33.4497 -33.4472 -33.4409 -33.4164 -33.4030 -33.3967 -32.9241
   -32.8499 -32.8372 -32.8273 -32.7649 -32.7612 -32.7261 -32.6887 -32.5952
   -19.3415 -18.2225 -17.9530 -17.8553 -17.7262 -17.6716 -17.6112 -17.5826
   -17.5136 -17.4537 -17.3837 -17.3565 -17.3119 -17.2700 -17.2536 -17.2225
   -17.1654 -17.1619 -17.1455 -17.1246 -17.0906 -17.0470 -17.0441 -17.0191
   -16.9944 -16.9847 -16.9258 -16.9130 -16.8773 -16.8387 -16.8082 -16.8058
   -16.6318 -15.0245 -15.0090 -14.9866 -14.9042  -7.8939  -7.6405  -7.3895
    -6.4604  -5.5089  -5.3731  -5.3178  -5.1875  -5.0271  -4.9727  -4.9308
    -4.8750  -4.8121  -4.8050  -4.7738  -4.7456  -4.7207  -4.6682  -4.6175
    -4.5843  -4.5458  -4.5085  -4.5079  -4.4245  -4.4238  -4.3740  -4.3461
    -4.3424  -4.2931  -4.2815  -4.2573  -4.2384  -4.1621  -4.0765  -4.0513
    -4.0330  -3.9938  -3.9785  -3.9201  -3.8744  -3.8619  -3.8112  -3.7747
    -3.6794  -3.6682  -3.6181  -3.5222  -3.4353  -3.4201  -3.3799  -3.3371
    -3.3267  -3.2549  -3.1918  -3.1617  -3.1189  -3.0579  -3.0372  -2.9307
    -2.9105  -2.8815  -2.8095  -2.7351  -2.7334  -2.6839  -2.6814  -2.6428
    -2.5830  -2.5162  -2.4981  -2.4974  -2.4483  -2.3520  -2.3510  -2.3198
    -2.2561  -2.1763  -2.1669  -2.1374  -2.1324  -2.0733  -2.0500  -2.0325
    -2.0000  -1.9124  -1.8890  -1.8555  -1.8219  -1.7763  -1.7645  -1.7256
    -1.7160  -1.6802  -1.6716  -1.5950  -1.5561  -1.3887  -1.3451  -1.3188
    -1.2701  -1.1080  -1.1057  -0.8370  -0.7381  -0.4251  -0.3955  -0.2843
    -0.1659  -0.0049   0.0910   0.1193   1.6930   1.8183   1.8501   1.8803
     2.0260   2.0814   2.0902   2.1034   2.1574   2.1959   2.2317

          k = 0.0000-0.0559 0.0000 ( 26942 PWs)   bands (ev):

   -57.4665 -57.4373 -57.4170 -57.3788 -57.3690 -57.3647 -57.3609 -57.3383
   -57.3210 -57.2826 -57.2766 -57.2357 -57.2248 -57.1987 -57.1818 -56.5363
   -56.5281 -56.5055 -33.9835 -33.9327 -33.8573 -33.8188 -33.8026 -33.7835
   -33.7816 -33.7751 -33.7646 -33.7436 -33.7141 -33.6962 -33.6581 -33.6571
   -33.6371 -33.6362 -33.6200 -33.6159 -33.6133 -33.6130 -33.5930 -33.5902
   -33.5841 -33.5689 -33.5511 -33.5438 -33.5350 -33.5274 -33.5243 -33.5237
   -33.5202 -33.5139 -33.5110 -33.4941 -33.4915 -33.4897 -33.4835 -33.4774
   -33.4743 -33.4687 -33.4469 -33.4412 -33.4364 -33.4037 -33.3997 -32.9485
   -32.8485 -32.8399 -32.8262 -32.7523 -32.7436 -32.6833 -32.6702 -32.6624
   -19.3395 -18.1160 -18.0390 -17.8807 -17.6941 -17.6640 -17.6067 -17.5776
   -17.5519 -17.5164 -17.4416 -17.3263 -17.2934 -17.2616 -17.2585 -17.2343
   -17.1847 -17.1587 -17.1154 -17.1030 -17.0916 -17.0664 -17.0129 -17.0120
   -17.0075 -16.9638 -16.9552 -16.8943 -16.8911 -16.8267 -16.8082 -16.7113
   -16.7016 -15.0245 -15.0086 -15.0042 -14.8858  -7.8985  -7.6406  -7.3886
    -6.4605  -5.3374  -5.3050  -5.2654  -5.1104  -5.0974  -5.0884  -5.0224
    -4.9735  -4.9185  -4.8713  -4.8416  -4.7098  -4.6973  -4.6590  -4.6437
    -4.6095  -4.5614  -4.5278  -4.4835  -4.4680  -4.4326  -4.3868  -4.3413
    -4.3179  -4.2982  -4.2936  -4.2534  -4.2199  -4.1806  -4.1246  -4.1057
    -4.0324  -3.9694  -3.9550  -3.9527  -3.8935  -3.8428  -3.8083  -3.7701
    -3.7052  -3.6129  -3.5706  -3.5017  -3.4939  -3.4534  -3.3996  -3.3337
    -3.3029  -3.2455  -3.1370  -3.0827  -2.9765  -2.9264  -2.8939  -2.8901
    -2.8484  -2.8172  -2.7948  -2.7704  -2.6883  -2.6773  -2.5721  -2.5471
    -2.5249  -2.5058  -2.4755  -2.4134  -2.3861  -2.3809  -2.3483  -2.3443
    -2.3281  -2.2171  -2.2151  -2.2039  -2.1821  -2.1541  -2.1109  -2.0759
    -2.0269  -1.9944  -1.9284  -1.9224  -1.8722  -1.8289  -1.7904  -1.7697
    -1.6978  -1.6710  -1.5893  -1.5579  -1.5501  -1.4635  -1.3714  -1.3294
    -1.0748  -1.0676  -1.0254  -0.9617  -0.9601  -0.4900  -0.4151  -0.2056
    -0.1883   0.0301   0.0405   0.1153   1.7528   1.8035   1.8908   1.9577
     2.0191   2.0380   2.1154   2.1306   2.1369   2.1650   2.1932

          k = 0.0380 0.0000 0.0000 ( 26897 PWs)   bands (ev):

   -57.4680 -57.4327 -57.4200 -57.3804 -57.3719 -57.3640 -57.3531 -57.3417
   -57.3213 -57.2829 -57.2760 -57.2395 -57.2182 -57.2015 -57.1820 -56.5414
   -56.5173 -56.5112 -33.9394 -33.8533 -33.8525 -33.8301 -33.8110 -33.7922
   -33.7744 -33.7703 -33.7677 -33.7549 -33.7289 -33.7118 -33.7036 -33.6906
   -33.6882 -33.6828 -33.6621 -33.6337 -33.6253 -33.6051 -33.5828 -33.5626
   -33.5592 -33.5561 -33.5473 -33.5433 -33.5423 -33.5363 -33.5341 -33.5215
   -33.5131 -33.5031 -33.5004 -33.4898 -33.4848 -33.4828 -33.4795 -33.4720
   -33.4716 -33.4597 -33.4414 -33.4240 -33.4109 -33.4090 -33.3878 -32.8602
   -32.8543 -32.8520 -32.8344 -32.8285 -32.7693 -32.7084 -32.7010 -32.5691
   -19.3418 -18.1928 -17.8989 -17.7721 -17.6834 -17.6627 -17.6052 -17.5367
   -17.4835 -17.4580 -17.4059 -17.3870 -17.3378 -17.2795 -17.2452 -17.2231
   -17.2064 -17.2018 -17.1784 -17.1436 -17.1146 -17.0604 -17.0425 -17.0170
   -16.9952 -16.9638 -16.9606 -16.9221 -16.8593 -16.8555 -16.8521 -16.7959
   -16.6915 -15.0246 -15.0039 -14.9490 -14.9454  -7.8879  -7.6491  -7.3866
    -6.4562  -5.4528  -5.2213  -5.1690  -5.1254  -4.9891  -4.9181  -4.8813
    -4.8321  -4.7876  -4.7179  -4.6777  -4.6386  -4.6208  -4.6062  -4.5675
    -4.5347  -4.5299  -4.4898  -4.4366  -4.4148  -4.3708  -4.3526  -4.3338
    -4.3200  -4.3011  -4.2562  -4.2314  -4.1712  -4.1637  -4.0909  -4.0808
    -4.0451  -3.9788  -3.9300  -3.8820  -3.8567  -3.8214  -3.7999  -3.7540
    -3.7420  -3.6611  -3.6335  -3.6289  -3.5722  -3.5068  -3.4425  -3.3700
    -3.2969  -3.2873  -3.2631  -3.2357  -3.2087  -3.1376  -3.0662  -3.0125
    -2.9819  -2.9360  -2.8618  -2.8343  -2.7767  -2.7264  -2.6958  -2.6118
    -2.5888  -2.5665  -2.5264  -2.4718  -2.4240  -2.4049  -2.3800  -2.3561
    -2.3139  -2.2887  -2.2083  -2.2040  -2.1538  -2.1200  -2.0667  -2.0400
    -2.0177  -1.9845  -1.9601  -1.9208  -1.8830  -1.8038  -1.7597  -1.6878
    -1.6334  -1.5961  -1.5861  -1.5475  -1.5134  -1.4214  -1.3987  -1.3862
    -1.3398  -1.1611  -1.1491  -0.9248  -0.5976  -0.4232  -0.3391  -0.2359
    -0.2341  -0.0191  -0.0163   0.0749   1.6282   1.7726   1.8649   1.9054
     1.9372   1.9736   2.0077   2.0565   2.1193   2.1517   2.1995

          k = 0.0380 0.0280 0.0000 ( 26880 PWs)   bands (ev):

   -57.4673 -57.4351 -57.4183 -57.3795 -57.3704 -57.3649 -57.3568 -57.3397
   -57.3211 -57.2828 -57.2762 -57.2379 -57.2213 -57.1999 -57.1819 -56.5395
   -56.5229 -56.5075 -33.9658 -33.9094 -33.8415 -33.8222 -33.8059 -33.7850
   -33.7738 -33.7657 -33.7639 -33.7477 -33.7393 -33.7120 -33.6971 -33.6792
   -33.6744 -33.6290 -33.6229 -33.6199 -33.6117 -33.5983 -33.5916 -33.5766
   -33.5754 -33.5618 -33.5528 -33.5460 -33.5382 -33.5353 -33.5330 -33.5283
   -33.5115 -33.5066 -33.5013 -33.4975 -33.4902 -33.4837 -33.4805 -33.4796
   -33.4732 -33.4531 -33.4458 -33.4407 -33.4172 -33.4115 -33.3965 -32.9236
   -32.8529 -32.8384 -32.8259 -32.7649 -32.7612 -32.7261 -32.6886 -32.5953
   -19.3400 -18.1466 -17.8890 -17.8054 -17.7134 -17.6367 -17.5902 -17.5654
   -17.5083 -17.4426 -17.3919 -17.3794 -17.3493 -17.3130 -17.2938 -17.2463
   -17.2253 -17.1804 -17.1547 -17.1344 -17.1102 -17.0694 -17.0350 -17.0135
   -16.9856 -16.9751 -16.9607 -16.9298 -16.8664 -16.8383 -16.8008 -16.7654
   -16.7163 -15.0247 -15.0060 -14.9864 -14.9042  -7.8929  -7.6491  -7.3854
    -6.4561  -5.3883  -5.1735  -5.1179  -5.0461  -5.0116  -4.9711  -4.9484
    -4.9125  -4.8420  -4.8157  -4.7438  -4.6975  -4.6704  -4.6208  -4.5704
    -4.5520  -4.5157  -4.4940  -4.4701  -4.4273  -4.4023  -4.3637  -4.3257
    -4.2892  -4.2745  -4.2408  -4.2108  -4.1941  -4.1618  -4.1118  -4.0734
    -4.0175  -3.9788  -3.9560  -3.8792  -3.8580  -3.8143  -3.8036  -3.7459
    -3.6748  -3.6556  -3.5692  -3.5335  -3.4994  -3.4769  -3.3888  -3.3550
    -3.2961  -3.2748  -3.2151  -3.1778  -3.1671  -3.0978  -3.0425  -3.0171
    -2.9762  -2.8960  -2.8772  -2.8043  -2.7637  -2.7107  -2.6840  -2.6480
    -2.6076  -2.5835  -2.5343  -2.4744  -2.4332  -2.4047  -2.3598  -2.3436
    -2.3213  -2.2653  -2.2269  -2.2052  -2.1566  -2.1154  -2.0769  -2.0254
    -2.0138  -1.9807  -1.9599  -1.9297  -1.8695  -1.8458  -1.7988  -1.7754
    -1.7473  -1.6938  -1.6185  -1.5389  -1.5239  -1.4446  -1.4108  -1.3967
    -1.2993  -1.1173  -1.0244  -0.9523  -0.7465  -0.4176  -0.3848  -0.2857
    -0.1521  -0.0085  -0.0062   0.0689   1.6964   1.7908   1.8130   1.8944
     1.9650   2.0206   2.0518   2.0786   2.1067   2.1276   2.1617

          k = 0.0380-0.0559 0.0000 ( 26850 PWs)   bands (ev):

   -57.4665 -57.4373 -57.4169 -57.3785 -57.3684 -57.3651 -57.3611 -57.3382
   -57.3209 -57.2826 -57.2765 -57.2357 -57.2248 -57.1986 -57.1818 -56.5363
   -56.5281 -56.5054 -33.9837 -33.9337 -33.8601 -33.8187 -33.8028 -33.7862
   -33.7835 -33.7754 -33.7650 -33.7438 -33.7145 -33.6966 -33.6585 -33.6574
   -33.6366 -33.6276 -33.6142 -33.6112 -33.6053 -33.6000 -33.5895 -33.5855
   -33.5798 -33.5683 -33.5509 -33.5437 -33.5411 -33.5272 -33.5244 -33.5220
   -33.5202 -33.5144 -33.5081 -33.5000 -33.4935 -33.4903 -33.4851 -33.4820
   -33.4805 -33.4732 -33.4478 -33.4410 -33.4362 -33.4123 -33.3994 -32.9480
   -32.8506 -32.8422 -32.8243 -32.7523 -32.7436 -32.6832 -32.6701 -32.6623
   -19.3382 -18.0531 -17.9712 -17.8211 -17.6728 -17.6184 -17.6040 -17.5607
   -17.5362 -17.4585 -17.4175 -17.3679 -17.3606 -17.3440 -17.2990 -17.2585
   -17.2227 -17.1890 -17.1757 -17.1015 -17.0914 -17.0684 -17.0315 -17.0236
   -17.0054 -16.9790 -16.9402 -16.9372 -16.8267 -16.8084 -16.7860 -16.7755
   -16.7269 -15.0247 -15.0069 -15.0025 -14.8855  -7.8977  -7.6493  -7.3841
    -6.4560  -5.2639  -5.1639  -5.0832  -5.0598  -5.0141  -5.0037  -4.9343
    -4.8838  -4.8761  -4.8374  -4.8225  -4.8163  -4.7990  -4.6660  -4.6185
    -4.6063  -4.5034  -4.4833  -4.4610  -4.4271  -4.3905  -4.3550  -4.3229
    -4.2768  -4.2704  -4.2524  -4.2239  -4.1863  -4.1556  -4.1359  -4.1216
    -4.0114  -3.9814  -3.9614  -3.8944  -3.8831  -3.8487  -3.7544  -3.6996
    -3.6226  -3.5583  -3.5490  -3.4752  -3.4389  -3.4137  -3.3810  -3.3129
    -3.2484  -3.2079  -3.1704  -3.1182  -3.0978  -3.0915  -3.0256  -2.9895
    -2.9446  -2.9140  -2.8599  -2.8239  -2.7895  -2.7356  -2.7019  -2.6484
    -2.5837  -2.5543  -2.5076  -2.4668  -2.4368  -2.3952  -2.3536  -2.3423
    -2.3219  -2.2913  -2.2132  -2.1778  -2.1566  -2.1392  -2.1295  -2.1110
    -2.0518  -2.0087  -1.9913  -1.9252  -1.9068  -1.8757  -1.8435  -1.7775
    -1.7642  -1.7199  -1.6393  -1.5568  -1.5403  -1.4799  -1.4562  -1.3811
    -1.1268  -1.1190  -1.0046  -0.9541  -0.9046  -0.4778  -0.4110  -0.1953
    -0.1789  -0.0002   0.0298   0.0347   1.7432   1.7973   1.8482   1.9021
     1.9578   2.0009   2.0376   2.0515   2.0714   2.1201   2.2053

          k = 0.0380-0.0280 0.0000 ( 26873 PWs)   bands (ev):

   -57.4673 -57.4351 -57.4183 -57.3795 -57.3704 -57.3649 -57.3568 -57.3397
   -57.3211 -57.2828 -57.2762 -57.2379 -57.2213 -57.1999 -57.1819 -56.5395
   -56.5229 -56.5074 -33.9658 -33.9094 -33.8414 -33.8222 -33.8059 -33.7850
   -33.7738 -33.7656 -33.7639 -33.7476 -33.7393 -33.7120 -33.6971 -33.6792
   -33.6743 -33.6290 -33.6230 -33.6199 -33.6116 -33.5982 -33.5915 -33.5766
   -33.5754 -33.5617 -33.5528 -33.5463 -33.5381 -33.5352 -33.5330 -33.5284
   -33.5115 -33.5066 -33.5013 -33.4975 -33.4902 -33.4837 -33.4805 -33.4796
   -33.4732 -33.4532 -33.4457 -33.4407 -33.4171 -33.4115 -33.3965 -32.9236
   -32.8528 -32.8384 -32.8259 -32.7649 -32.7612 -32.7261 -32.6886 -32.5953
   -19.3400 -18.1466 -17.8889 -17.8054 -17.7134 -17.6366 -17.5902 -17.5655
   -17.5084 -17.4423 -17.3918 -17.3795 -17.3495 -17.3131 -17.2939 -17.2464
   -17.2252 -17.1801 -17.1547 -17.1344 -17.1102 -17.0697 -17.0351 -17.0136
   -16.9857 -16.9753 -16.9606 -16.9296 -16.8655 -16.8383 -16.8008 -16.7657
   -16.7165 -15.0247 -15.0060 -14.9864 -14.9042  -7.8928  -7.6493  -7.3852
    -6.4561  -5.3883  -5.1736  -5.1179  -5.0457  -5.0117  -4.9708  -4.9481
    -4.9123  -4.8417  -4.8157  -4.7442  -4.6972  -4.6705  -4.6211  -4.5704
    -4.5520  -4.5160  -4.4946  -4.4704  -4.4276  -4.4023  -4.3639  -4.3258
    -4.2893  -4.2741  -4.2407  -4.2111  -4.1943  -4.1617  -4.1121  -4.0733
    -4.0173  -3.9792  -3.9556  -3.8794  -3.8577  -3.8141  -3.8034  -3.7460
    -3.6746  -3.6550  -3.5694  -3.5339  -3.4988  -3.4765  -3.3887  -3.3552
    -3.2957  -3.2742  -3.2150  -3.1772  -3.1670  -3.0980  -3.0423  -3.0173
    -2.9764  -2.8964  -2.8772  -2.8049  -2.7639  -2.7109  -2.6839  -2.6481
    -2.6071  -2.5839  -2.5342  -2.4749  -2.4328  -2.4049  -2.3603  -2.3440
    -2.3213  -2.2648  -2.2266  -2.2045  -2.1561  -2.1155  -2.0764  -2.0252
    -2.0134  -1.9802  -1.9599  -1.9300  -1.8692  -1.8461  -1.7992  -1.7756
    -1.7476  -1.6945  -1.6184  -1.5386  -1.5240  -1.4446  -1.4112  -1.3967
    -1.2994  -1.1176  -1.0243  -0.9521  -0.7465  -0.4176  -0.3848  -0.2858
    -0.1520  -0.0089  -0.0063   0.0694   1.6964   1.7906   1.8132   1.8948
     1.9655   2.0208   2.0518   2.0786   2.1070   2.1278   2.1612

          k =-0.0760-0.0000 0.0000 ( 26902 PWs)   bands (ev):

   -57.4680 -57.4326 -57.4201 -57.3799 -57.3722 -57.3640 -57.3532 -57.3418
   -57.3212 -57.2830 -57.2759 -57.2395 -57.2182 -57.2015 -57.1821 -56.5414
   -56.5173 -56.5112 -33.9396 -33.8543 -33.8528 -33.8311 -33.8130 -33.7926
   -33.7753 -33.7706 -33.7691 -33.7563 -33.7298 -33.7166 -33.7054 -33.6941
   -33.6898 -33.6835 -33.6635 -33.6221 -33.6054 -33.5760 -33.5725 -33.5591
   -33.5571 -33.5559 -33.5473 -33.5453 -33.5424 -33.5361 -33.5333 -33.5256
   -33.5192 -33.5187 -33.5002 -33.4882 -33.4874 -33.4859 -33.4829 -33.4725
   -33.4715 -33.4635 -33.4417 -33.4292 -33.4173 -33.4096 -33.3882 -32.8600
   -32.8577 -32.8518 -32.8344 -32.8282 -32.7692 -32.7084 -32.7010 -32.5692
   -19.3401 -18.0721 -17.8799 -17.6943 -17.6937 -17.6607 -17.5432 -17.5165
   -17.4813 -17.4524 -17.4396 -17.4187 -17.3142 -17.3042 -17.3035 -17.2537
   -17.2298 -17.2274 -17.1939 -17.1687 -17.1523 -17.0645 -17.0401 -17.0265
   -17.0115 -16.9712 -16.9645 -16.9507 -16.8544 -16.8235 -16.8222 -16.7901
   -16.7794 -15.0248 -15.0007 -14.9494 -14.9458  -7.8867  -7.6576  -7.3831
    -6.4523  -5.3787  -5.0572  -4.9291  -4.9077  -4.8888  -4.8398  -4.8157
    -4.7962  -4.7575  -4.7108  -4.6669  -4.6407  -4.6089  -4.5922  -4.5767
    -4.5295  -4.5135  -4.4173  -4.4156  -4.3889  -4.3843  -4.3702  -4.3311
    -4.3062  -4.2713  -4.2525  -4.2320  -4.1958  -4.1302  -4.1194  -4.0979
    -4.0674  -4.0277  -3.9907  -3.8966  -3.8408  -3.7746  -3.7314  -3.7145
    -3.7123  -3.6831  -3.6473  -3.6146  -3.4912  -3.4720  -3.4670  -3.4210
    -3.3269  -3.2751  -3.2540  -3.2402  -3.1899  -3.1483  -3.0819  -3.0506
    -3.0207  -3.0164  -2.9503  -2.8796  -2.8277  -2.7849  -2.6683  -2.6506
    -2.6466  -2.5843  -2.5669  -2.5360  -2.4774  -2.4742  -2.4516  -2.4140
    -2.3905  -2.2524  -2.2479  -2.2199  -2.2053  -2.1919  -2.1469  -2.1306
    -2.0711  -2.0192  -1.9436  -1.9249  -1.9066  -1.8140  -1.7089  -1.7017
    -1.6867  -1.6840  -1.6521  -1.6101  -1.5629  -1.4506  -1.3629  -1.3258
    -1.2009  -1.1634  -1.1239  -1.1178  -0.5932  -0.4114  -0.3617  -0.2185
    -0.2161  -0.0656  -0.0605   0.0122   1.6286   1.6952   1.7530   1.8675
     1.8990   1.9537   1.9914   2.0760   2.0907   2.1153   2.1338

          k =-0.0760 0.0279 0.0000 ( 26908 PWs)   bands (ev):

   -57.4673 -57.4351 -57.4183 -57.3792 -57.3705 -57.3649 -57.3569 -57.3397
   -57.3211 -57.2828 -57.2761 -57.2380 -57.2213 -57.1999 -57.1820 -56.5395
   -56.5229 -56.5075 -33.9661 -33.9106 -33.8442 -33.8224 -33.8061 -33.7850
   -33.7740 -33.7696 -33.7655 -33.7483 -33.7400 -33.7131 -33.6974 -33.6810
   -33.6757 -33.6266 -33.6173 -33.6134 -33.6016 -33.5776 -33.5765 -33.5743
   -33.5708 -33.5656 -33.5522 -33.5422 -33.5400 -33.5372 -33.5330 -33.5283
   -33.5207 -33.5154 -33.5053 -33.4970 -33.4922 -33.4892 -33.4845 -33.4838
   -33.4730 -33.4522 -33.4471 -33.4406 -33.4226 -33.4171 -33.3966 -32.9233
   -32.8560 -32.8396 -32.8249 -32.7649 -32.7612 -32.7262 -32.6886 -32.5953
   -19.3385 -18.0336 -17.8581 -17.7416 -17.6843 -17.6501 -17.5488 -17.5369
   -17.4751 -17.4518 -17.4387 -17.4062 -17.3269 -17.3226 -17.2869 -17.2628
   -17.2546 -17.2430 -17.1994 -17.1710 -17.1513 -17.0912 -17.0465 -17.0348
   -16.9811 -16.9800 -16.9653 -16.9391 -16.8947 -16.8387 -16.8014 -16.7946
   -16.6877 -15.0249 -15.0033 -14.9861 -14.9043  -7.8918  -7.6578  -7.3814
    -6.4520  -5.3185  -5.0863  -5.0284  -5.0232  -4.9511  -4.8731  -4.8294
    -4.7866  -4.7619  -4.6729  -4.6719  -4.6655  -4.6327  -4.5857  -4.5535
    -4.5341  -4.4975  -4.4674  -4.4311  -4.4173  -4.4092  -4.3928  -4.2877
    -4.2560  -4.2331  -4.2153  -4.1709  -4.1386  -4.1263  -4.0864  -4.0455
    -4.0439  -3.9856  -3.9634  -3.9050  -3.8902  -3.8362  -3.8275  -3.7414
    -3.7056  -3.6731  -3.6023  -3.5777  -3.5220  -3.4158  -3.4157  -3.3641
    -3.2700  -3.2560  -3.2099  -3.1850  -3.1362  -3.1238  -3.0899  -3.0354
    -2.9753  -2.9564  -2.8783  -2.8398  -2.8327  -2.8030  -2.7290  -2.7110
    -2.6393  -2.5945  -2.5677  -2.5273  -2.4973  -2.4784  -2.4421  -2.4238
    -2.3772  -2.3424  -2.3012  -2.2635  -2.2221  -2.1966  -2.1724  -2.0919
    -2.0912  -2.0480  -2.0271  -1.9589  -1.9427  -1.8705  -1.8176  -1.7474
    -1.7148  -1.6978  -1.6006  -1.5405  -1.5192  -1.4821  -1.3221  -1.2468
    -1.2278  -1.1847  -1.1581  -0.9468  -0.7674  -0.4088  -0.3692  -0.2866
    -0.1364  -0.1110  -0.0095   0.0358   1.6821   1.7183   1.7513   1.8112
     1.9439   1.9451   1.9931   2.0080   2.0494   2.1242   2.1617

          k =-0.0760-0.0559 0.0000 ( 26868 PWs)   bands (ev):

   -57.4664 -57.4373 -57.4169 -57.3782 -57.3675 -57.3659 -57.3613 -57.3382
   -57.3209 -57.2826 -57.2764 -57.2357 -57.2248 -57.1986 -57.1819 -56.5363
   -56.5281 -56.5054 -33.9840 -33.9347 -33.8630 -33.8187 -33.8032 -33.7906
   -33.7834 -33.7756 -33.7652 -33.7439 -33.7149 -33.6968 -33.6590 -33.6575
   -33.6370 -33.6240 -33.6092 -33.5958 -33.5945 -33.5900 -33.5856 -33.5760
   -33.5723 -33.5653 -33.5632 -33.5507 -33.5426 -33.5275 -33.5221 -33.5202
   -33.5157 -33.5150 -33.5110 -33.5083 -33.5060 -33.4945 -33.4884 -33.4844
   -33.4815 -33.4743 -33.4469 -33.4409 -33.4353 -33.4235 -33.3994 -32.9476
   -32.8529 -32.8446 -32.8230 -32.7523 -32.7436 -32.6831 -32.6701 -32.6623
   -19.3369 -17.9696 -17.8325 -17.8309 -17.6570 -17.6100 -17.5995 -17.5299
   -17.4843 -17.4459 -17.4344 -17.4030 -17.3542 -17.3301 -17.3008 -17.2747
   -17.2588 -17.2240 -17.1826 -17.1816 -17.1479 -17.1148 -17.0881 -17.0459
   -17.0392 -16.9851 -16.9209 -16.8835 -16.8592 -16.8567 -16.8207 -16.7950
   -16.6377 -15.0249 -15.0053 -15.0010 -14.8851  -7.8970  -7.6579  -7.3798
    -6.4517  -5.2153  -5.1778  -5.1321  -5.0391  -5.0016  -4.9695  -4.8340
    -4.7732  -4.7317  -4.6863  -4.6441  -4.6362  -4.6220  -4.5663  -4.5488
    -4.5333  -4.4872  -4.4463  -4.4263  -4.4032  -4.4019  -4.3983  -4.3949
    -4.2630  -4.2519  -4.1985  -4.1782  -4.1559  -4.1330  -4.1305  -4.0762
    -4.0343  -3.9932  -3.9808  -3.9555  -3.8929  -3.8367  -3.7568  -3.6576
    -3.6469  -3.5900  -3.5797  -3.4872  -3.4816  -3.3898  -3.3252  -3.2817
    -3.2519  -3.2269  -3.1506  -3.1454  -3.1364  -3.0860  -3.0525  -3.0241
    -2.9754  -2.9651  -2.9204  -2.8179  -2.7822  -2.7241  -2.6972  -2.6939
    -2.6362  -2.6324  -2.5949  -2.5932  -2.5866  -2.5418  -2.4871  -2.4535
    -2.4360  -2.4045  -2.3156  -2.2916  -2.2388  -2.2308  -2.1653  -2.1495
    -2.1364  -2.0728  -2.0211  -1.9899  -1.9817  -1.9080  -1.8045  -1.7461
    -1.7242  -1.7029  -1.5970  -1.5484  -1.4928  -1.4500  -1.2677  -1.2555
    -1.1830  -1.1434  -1.0904  -1.0417  -0.8546  -0.4559  -0.4042  -0.1865
    -0.1712  -0.1338   0.0326   0.0383   1.7067   1.7183   1.8157   1.8570
     1.9189   1.9298   1.9741   1.9912   2.0010   2.0472   2.0525

     the Fermi energy is     1.6456 ev

!    total energy              =   -3295.82442840 Ry
     estimated scf accuracy    <       0.00000006 Ry
     smearing contrib. (-TS)   =      -0.03670653 Ry
     internal energy E=F+TS    =   -3295.78772188 Ry

     The total energy is F=E-TS. E is the sum of the following terms:
     one-electron contribution =  -34289.99222143 Ry
     hartree contribution      =   17213.99141479 Ry
     xc contribution           =    -543.78023772 Ry
     ewald contribution        =   14323.98861974 Ry
     electric field correction =       0.00470274 Ry

     convergence has been achieved in  53 iterations

     Forces acting on atoms (cartesian axes, Ry/au):

     atom    1 type  1   force =     0.00001441    0.00239521    0.05211471
     atom    2 type  1   force =    -0.00004315   -0.00061547   -0.00560190
     atom    3 type  1   force =     0.00003664   -0.00286437   -0.00284980
     atom    4 type  1   force =     0.00005467   -0.00037239    0.10764459
     atom    5 type  1   force =    -0.00002271    0.00171634    0.00529046
     atom    6 type  1   force =     0.00000912   -0.00048888    0.00058348
     atom    7 type  1   force =     0.06434017    0.00077599   -0.03002240
     atom    8 type  1   force =     0.00531871   -0.02658808    0.00244240
     atom    9 type  1   force =     0.00842525   -0.01290445   -0.00075482
     atom   10 type  2   force =    -0.00006224   -0.00537835   -0.18729598
     atom   11 type  2   force =     0.00012309    0.02015067   -0.00479847
     atom   12 type  2   force =    -0.00012464    0.01843745   -0.00063641
     atom   13 type  1   force =    -0.06444455    0.00030023   -0.02998068
     atom   14 type  1   force =    -0.00513526   -0.02679651    0.00246979
     atom   15 type  1   force =    -0.00838109   -0.01281907   -0.00075229
     atom   16 type  2   force =     0.00009566   -0.00106552    0.07211541
     atom   17 type  2   force =    -0.00026621    0.03303407    0.00614575
     atom   18 type  2   force =     0.00005324    0.00461760   -0.00750141
     atom   19 type  1   force =     0.00001576    0.00395445    0.05309182
     atom   20 type  1   force =    -0.00004120   -0.00053993   -0.00173217
     atom   21 type  1   force =     0.00005459    0.00130628    0.10849203
     atom   22 type  1   force =    -0.00002549   -0.00118669    0.00629722
     atom   23 type  1   force =     0.00003325   -0.00518132    0.00194189
     atom   24 type  1   force =     0.06586525    0.00140187   -0.02848686
     atom   25 type  1   force =     0.00545934   -0.02923977    0.00262620
     atom   26 type  1   force =     0.00975752   -0.00190814   -0.00023781
     atom   27 type  2   force =    -0.00006920   -0.00076061   -0.19125728
     atom   28 type  2   force =     0.00014767    0.02480001   -0.00468702
     atom   29 type  2   force =    -0.00011830   -0.00420204    0.00927158
     atom   30 type  1   force =    -0.06596944    0.00096209   -0.02845785
     atom   31 type  1   force =    -0.00530934   -0.02936122    0.00266447
     atom   32 type  1   force =    -0.00964687   -0.00191698   -0.00022513
     atom   33 type  2   force =     0.00013534    0.00070138    0.08050657
     atom   34 type  2   force =    -0.00029087    0.03538663    0.00620747
     atom   35 type  2   force =     0.00006913    0.01541273    0.00202324
     atom   36 type  1   force =     0.00006622    0.00027342    0.05321024
     atom   37 type  1   force =    -0.00003385    0.00177640   -0.00893743
     atom   38 type  1   force =     0.00000411    0.00131079   -0.00006942
     atom   39 type  1   force =     0.00005483   -0.00117075    0.10820923
     atom   40 type  1   force =    -0.00003493   -0.00138445    0.00603614
     atom   41 type  1   force =     0.00001873    0.00391625    0.00144516
     atom   42 type  1   force =     0.06612381   -0.00349791   -0.02908540
     atom   43 type  1   force =     0.00366276   -0.02410554    0.00085280
     atom   44 type  1   force =     0.01421118   -0.01861764    0.00311455
     atom   45 type  2   force =    -0.00009514    0.00311885   -0.18717956
     atom   46 type  2   force =     0.00013764    0.01621876    0.00225090
     atom   47 type  2   force =    -0.00007362    0.01857773   -0.00294294
     atom   48 type  1   force =    -0.06622241   -0.00393461   -0.02904342
     atom   49 type  1   force =    -0.00341305   -0.02429721    0.00086671
     atom   50 type  1   force =    -0.01420759   -0.01856367    0.00311485
     atom   51 type  2   force =     0.00012922   -0.00295786    0.07342194
     atom   52 type  2   force =    -0.00027713    0.03102165    0.00785368
     atom   53 type  2   force =     0.00001180    0.02028981    0.00050996
     atom   54 type  3   force =    -0.00001515   -0.00076103   -0.00281958
     atom   55 type  4   force =     0.00003321   -0.00040281    0.00064895
     atom   56 type  4   force =    -0.00004211    0.00035802   -0.00028770
     atom   57 type  4   force =    -0.00005726   -0.00020397   -0.00005109
     atom   58 type  3   force =     0.01084335   -0.00485191   -0.00373904
     atom   59 type  4   force =    -0.00008267    0.00038652    0.00045047
     atom   60 type  4   force =    -0.01183502    0.00626663    0.00518575
     atom   61 type  4   force =     0.00103483    0.00007129    0.00033344

     Total force =     0.459777     Total SCF correction =     0.000717
  @ DRIVER MODE: Message from server: STATUS
  @ DRIVER MODE: Message from server: GETFORCE
  @ DRIVER MODE: Returning v,forces,stress,ensemble 

     Writing output data file ./calc.save/
  @ DRIVER MODE: Message from server: EXIT
  @ DRIVE MODE: Exiting  
 
     init_run     :     18.07s CPU     18.52s WALL (       1 calls)
     electrons    :   1728.25s CPU   1760.00s WALL (       1 calls)
     forces       :      4.52s CPU      4.71s WALL (       1 calls)

     Called by init_run:
     wfcinit      :      9.77s CPU      9.92s WALL (       1 calls)
     potinit      :      7.29s CPU      7.38s WALL (       1 calls)
     hinit0       :      0.42s CPU      0.45s WALL (       1 calls)

     Called by electrons:
     c_bands      :   1470.17s CPU   1487.00s WALL (      53 calls)
     sum_band     :    178.07s CPU    185.09s WALL (      53 calls)
     v_of_rho     :     61.61s CPU     63.74s WALL (      54 calls)
     newd         :     22.17s CPU     27.86s WALL (      54 calls)
     mix_rho      :      2.35s CPU      2.48s WALL (      53 calls)
     vdW_kernel   :      5.83s CPU      5.85s WALL (       1 calls)

     Called by c_bands:
     init_us_2    :     10.37s CPU     10.44s WALL (    1080 calls)
     cegterg      :   1440.69s CPU   1457.09s WALL (     535 calls)

     Called by *egterg:
     cdiaghg      :    223.56s CPU    224.55s WALL (    6520 calls)
     h_psi        :    777.20s CPU    786.96s WALL (    6532 calls)
     s_psi        :    110.99s CPU    111.31s WALL (    6532 calls)
     g_psi        :      2.72s CPU      2.73s WALL (    5987 calls)

     Called by h_psi:
     h_psi:calbec :    101.58s CPU    102.48s WALL (    6532 calls)
     vloc_psi     :    559.58s CPU    564.27s WALL (    6532 calls)
     add_vuspsi   :    111.80s CPU    113.31s WALL (    6532 calls)

     General routines
     calbec       :    133.91s CPU    134.91s WALL (    7102 calls)
     fft          :     34.80s CPU     34.94s WALL (    3402 calls)
     ffts         :      0.18s CPU      0.19s WALL (     107 calls)
     fftw         :    619.94s CPU    625.03s WALL (  782144 calls)
     interpolate  :      0.67s CPU      0.67s WALL (      54 calls)
     davcio       :      0.00s CPU      0.25s WALL (      10 calls)
 
     Parallel routines
 
     PWSCF        :  29m11.09s CPU  29m44.07s WALL

 
   This run was terminated on:   6:12:57  19Oct2021            

=------------------------------------------------------------------------------=
   JOB DONE.
=------------------------------------------------------------------------------=
