
     Program PWSCF v.6.7GPU starts on  9Sep2021 at  2:21:49 

     This program is part of the open-source Quantum ESPRESSO suite
     for quantum simulation of materials; please cite
         "P. Giannozzi et al., J. Phys.:Condens. Matter 21 395502 (2009);
         "P. Giannozzi et al., J. Phys.:Condens. Matter 29 465901 (2017);
         "P. Giannozzi et al., J. Chem. Phys. 152 154105 (2020);
          URL http://www.quantum-espresso.org", 
     in publications or presentations arising from this work. More details at
     http://www.quantum-espresso.org/quote

     Parallel version (MPI), running on    10 processors

     MPI processes distributed on     1 nodes
     R & G space division:  proc/nbgrp/npool/nimage =      10
     Reading input from /storage/home/hcoda1/3/ntian30/research/carbon/CxH_vib/CH_calc/ads_slab/CHOH_a/out_0013/pw.inp
Warning: card &CELL ignored
Warning: card   CELL_DYNAMICS='IPI', ignored
Warning: card / ignored

     Current dimensions of program PWSCF are:
     Max number of different atomic species (ntypx) = 10
     Max number of k-points (npk) =  40000
     Max angular momentum in pseudopotentials (lmaxx) =  3
     Presently no symmetry can be used with electric field

     Message from routine cell_base_init:
     DEPRECATED: use true lattice parameter, not A to a.u. conversion factor

     **************************************************************************
     Initializing libbeef V0.1.2 with the BEEF-vdW functional.
     Citation: Wellendorff et al., PRB 85, 235149 (2012).
     **************************************************************************


     IMPORTANT: XC functional enforced from input :
     Exchange-correlation= BEEF-VDW
                           (   1   4  43  14   2   0   0)
     Any further DFT definition will be discarded
     Please, verify this is what you really want


     Subspace diagonalization in iterative solution of the eigenvalue problem:
     one sub-group per band group will be used
     scalapack distributed-memory algorithm (size of sub-group:  3*  3 procs)

  @ DRIVER MODE: Connecting to 
 qe_1139763_2767384.sched-torque.pace.gatech.eduj6jswbww_scratch
  using UNIX socket
  @ DRIVER MODE: Message from server: STATUS
  @ DRIVER MODE: Message from server: INIT
  @ DRIVER MODE: Receiving replica           0          -1
  @ DRIVER MODE: Receiving encoded integer          25
  @ DRIVER MODE:  SCF:  T  FORCE:  T  STRESS:  F  VC:  F  ENSEMBLE:  F
  @ DRIVER MODE:  SCF:  T  FORCE:  T  STRESS:  F  VC:  F  ENSEMBLE:  F
 
     Parallelization info
     --------------------
     sticks:   dense  smooth     PW     G-vecs:    dense   smooth      PW
     Min         327     131     37                56683    14340    2191
     Max         328     133     38                56694    14346    2206
     Sum        3275    1317    379               566857   143421   21985
 
     Using Slab Decomposition
 


     bravais-lattice index     =            0
     lattice parameter (alat)  =       1.8897  a.u.
     unit-cell volume          =    6658.9804 (a.u.)^3
     number of atoms/cell      =           51
     number of atomic types    =            4
     number of electrons       =       390.00
     number of Kohn-Sham states=          205
     kinetic-energy cutoff     =      29.3995  Ry
     charge density cutoff     =     293.9946  Ry
     scf convergence threshold =      7.3E-08
     mixing beta               =       0.0500
     number of iterations used =            8  plain     mixing
     Exchange-correlation= BEEF-VDW
                           (   1   4  43  14   2   0   0)

     celldm(1)=   1.889726  celldm(2)=   0.000000  celldm(3)=   0.000000
     celldm(4)=   0.000000  celldm(5)=   0.000000  celldm(6)=   0.000000

     crystal axes: (cart. coord. in units of alat)
               a(1) = (   6.579727   0.000000   0.000000 )  
               a(2) = (  -0.000775   5.961596   0.000000 )  
               a(3) = (   0.000000   0.000000  25.155947 )  

     reciprocal axes: (cart. coord. in units 2 pi/alat)
               b(1) = (  0.151982  0.000020  0.000000 )  
               b(2) = (  0.000000  0.167740  0.000000 )  
               b(3) = (  0.000000  0.000000  0.039752 )  


     PseudoPot. # 1 for Ti read from file:
     /storage/coda1/p-amedford6/0/shared/rich_project_chbe-medford/medford-share/data/pseudos_module/espresso/nninc/pbe/van/Ti.UPF
     MD5 check sum: 8e4df49b7f0d34bbd5052bf3f5ea0213
     Pseudo is Ultrasoft, Zval = 12.0
     Generated by new atomic code, or converted to UPF format
     Using radial grid of  851 points,  6 beta functions with: 
                l(1) =   0
                l(2) =   0
                l(3) =   1
                l(4) =   1
                l(5) =   2
                l(6) =   2
     Q(r) pseudized with  8 coefficients,  rinner =    1.000   1.000   1.000
                                                       1.000   1.000

     PseudoPot. # 2 for O  read from file:
     /storage/coda1/p-amedford6/0/shared/rich_project_chbe-medford/medford-share/data/pseudos_module/espresso/nninc/pbe/van/O.UPF
     MD5 check sum: 78c19812648e8988a0fe644b0f25305e
     Pseudo is Ultrasoft, Zval =  6.0
     Generated by new atomic code, or converted to UPF format
     Using radial grid of  737 points,  4 beta functions with: 
                l(1) =   0
                l(2) =   0
                l(3) =   1
                l(4) =   1
     Q(r) pseudized with  8 coefficients,  rinner =    0.800   0.800   0.800


     PseudoPot. # 3 for C  read from file:
     /storage/coda1/p-amedford6/0/shared/rich_project_chbe-medford/medford-share/data/pseudos_module/espresso/nninc/pbe/van/C.UPF
     MD5 check sum: 1a69bf6b8db32088f5b2163dbdb77a27
     Pseudo is Ultrasoft, Zval =  4.0
     Generated by new atomic code, or converted to UPF format
     Using radial grid of  721 points,  4 beta functions with: 
                l(1) =   0
                l(2) =   0
                l(3) =   1
                l(4) =   1
     Q(r) pseudized with  8 coefficients,  rinner =    0.800   0.800   0.800


     PseudoPot. # 4 for H  read from file:
     /storage/coda1/p-amedford6/0/shared/rich_project_chbe-medford/medford-share/data/pseudos_module/espresso/nninc/pbe/van/H.UPF
     MD5 check sum: b5ee9d7bfd3a09ee7748110bda690ff7
     Pseudo is Ultrasoft, Zval =  1.0
     Generated by new atomic code, or converted to UPF format
     Using radial grid of  615 points,  1 beta functions with: 
                l(1) =   0
     Q(r) pseudized with  8 coefficients,  rinner =    0.800

     atomic species   valence    mass     pseudopotential
        Ti1           12.00    47.86700     Ti( 1.00)
        O1             6.00    15.99900     O ( 1.00)
        C1             4.00    12.01100     C ( 1.00)
        H1             1.00     1.00800     H ( 1.00)

     No symmetry found



   Cartesian axes

     site n.     atom                  positions (alat units)
         1           Ti1 tau(   1) = (   0.0004258   2.9801865   6.0000000  )
         2           Ti1 tau(   2) = (   3.2906075   1.4906267   6.0002472  )
         3           O1  tau(   3) = (   0.0006271   0.0005054   7.9858123  )
         4           O1  tau(   4) = (   3.2906025   0.0005020   7.3038282  )
         5           O1  tau(   5) = (   4.5942328   1.4918067   9.2879030  )
         6           O1  tau(   6) = (   1.9868534   1.4903216   9.2879459  )
         7           Ti1 tau(   7) = (   3.3189338   3.0017716   9.1565052  )
         8           Ti1 tau(   8) = (   0.0346667   1.4969860   9.2640968  )
         9           O1  tau(   9) = (   3.3073125   0.0088267  11.3792119  )
        10           O1  tau(  10) = (   0.0062670   0.0029933  10.6068016  )
        11           O1  tau(  11) = (   1.3062705   1.5014067  12.6543524  )
        12           O1  tau(  12) = (   5.3087205   1.4988994  12.6673500  )
        13           Ti1 tau(  13) = (   0.0213988   2.9921491  12.5260324  )
        14           Ti1 tau(  14) = (   3.3097092   1.5009918  12.5223738  )
        15           O1  tau(  15) = (   0.0424616   0.0075488  14.6717754  )
        16           O1  tau(  16) = (   3.3005110   0.0073529  14.0105724  )
        17           O1  tau(  17) = (   4.5952227   1.5195780  16.1612446  )
        18           O1  tau(  18) = (   2.0693493   1.5297702  16.1935428  )
        19           Ti1 tau(  19) = (   3.3356741   2.9939547  15.7500326  )
        20           Ti1 tau(  20) = (   0.0335386   1.3679084  15.9371528  )
        21           O1  tau(  21) = (   3.2904802   0.0005063   4.7018136  )
        22           O1  tau(  22) = (   0.0353059   0.0153350  17.1923242  )
        23           O1  tau(  23) = (   1.3043587   1.4918075   6.0039043  )
        24           O1  tau(  24) = (   5.2767064   1.4903225   6.0039473  )
        25           Ti1 tau(  25) = (   0.0000382   5.9609847   6.0000000  )
        26           Ti1 tau(  26) = (   3.2902200   4.4714249   6.0002472  )
        27           O1  tau(  27) = (   0.0002396   2.9813036   7.9858123  )
        28           O1  tau(  28) = (   3.2902150   2.9813002   7.3038282  )
        29           O1  tau(  29) = (   4.5938453   4.4726049   9.2879030  )
        30           O1  tau(  30) = (   1.9864658   4.4711199   9.2879459  )
        31           Ti1 tau(  31) = (   3.3154861   0.0215470   9.1550440  )
        32           Ti1 tau(  32) = (   0.0344056   4.4691587   9.2644328  )
        33           O1  tau(  33) = (   3.3078462   2.9871797  11.3713074  )
        34           O1  tau(  34) = (   0.0058747   2.9832696  10.6292865  )
        35           O1  tau(  35) = (   1.3058732   4.4754499  12.6504552  )
        36           O1  tau(  36) = (   5.3084772   4.4777640  12.6640448  )
        37           Ti1 tau(  37) = (   0.0171148   0.0128214  12.4806662  )
        38           Ti1 tau(  38) = (   3.3088916   4.4784539  12.5193958  )
        39           O1  tau(  39) = (   0.0434956   2.9958159  14.9132474  )
        40           O1  tau(  40) = (   3.3089563   2.9921379  13.9620076  )
        41           O1  tau(  41) = (   4.5951427   4.4669482  16.1652122  )
        42           O1  tau(  42) = (   2.0688924   4.4538916  16.2081353  )
        43           Ti1 tau(  43) = (   3.3160161   0.0142155  15.8078792  )
        44           Ti1 tau(  44) = (   0.0219142   4.6036306  15.9252304  )
        45           O1  tau(  45) = (   3.2900926   2.9813045   4.7018136  )
        46           O1  tau(  46) = (   1.3039711   4.4726057   6.0039043  )
        47           O1  tau(  47) = (   5.2763189   4.4711207   6.0039473  )
        48           C1  tau(  48) = (   6.0523360   2.9466228  19.1488008  )
        49           O1  tau(  49) = (   0.1918362   3.0047394  18.0201065  )
        50           H1  tau(  50) = (   5.0052694   2.8496317  18.7632286  )
        51           H1  tau(  51) = (   1.1393832   3.0938607  18.2382470  )

     number of k points=    10  Fermi-Dirac smearing, width (Ry)=  0.0073
                       cart. coord. in units 2pi/alat
        k(    1) = (   0.0000000   0.0000000   0.0000000), wk =   0.1250000
        k(    2) = (   0.0000000   0.0419351   0.0000000), wk =   0.2500000
        k(    3) = (   0.0000000  -0.0838702   0.0000000), wk =   0.1250000
        k(    4) = (   0.0379955   0.0000049   0.0000000), wk =   0.2500000
        k(    5) = (   0.0379955   0.0419400   0.0000000), wk =   0.2500000
        k(    6) = (   0.0379955  -0.0838652   0.0000000), wk =   0.2500000
        k(    7) = (   0.0379955  -0.0419301   0.0000000), wk =   0.2500000
        k(    8) = (  -0.0759910  -0.0000099   0.0000000), wk =   0.1250000
        k(    9) = (  -0.0759910   0.0419252   0.0000000), wk =   0.2500000
        k(   10) = (  -0.0759910  -0.0838800   0.0000000), wk =   0.1250000

     Dense  grid:   566857 G-vectors     FFT dimensions: (  72,  64, 270)

     Smooth grid:   143421 G-vectors     FFT dimensions: (  45,  40, 180)

     Estimated max dynamical RAM per process >     362.05 MB

     Estimated total dynamical RAM >       3.54 GB
     Cannot read rho : file not found

     Initial potential from superposition of free atoms

     starting charge  373.99919, renormalised to  390.00000

     negative rho (up, down):  1.784E-02 0.000E+00


     %%%%%%%%%%%%%%%%%%%%%%%%%%%%%%%%%%%%%%%%%%%%%%%%%%%%%%%%%%%%%%%%%%%%%%%%
     %                                                                      %
     % You are using vdW-DF, which was implemented by the Thonhauser group. %
     % Please cite the following two papers that made this development      %
     % possible and the two reviews that describe the various versions:     %
     %                                                                      %
     %   T. Thonhauser et al., PRL 115, 136402 (2015).                      %
     %   T. Thonhauser et al., PRB 76, 125112 (2007).                       %
     %   K. Berland et al., Rep. Prog. Phys. 78, 066501 (2015).             %
     %   D.C. Langreth et al., J. Phys.: Condens. Matter 21, 084203 (2009). %
     %                                                                      %
     %                                                                      %
     % If you are calculating the stress with vdW-DF, please also cite:     %
     %                                                                      %
     %   R. Sabatini et al., J. Phys.: Condens. Matter 24, 424209 (2012).   %
     %                                                                      %
     %%%%%%%%%%%%%%%%%%%%%%%%%%%%%%%%%%%%%%%%%%%%%%%%%%%%%%%%%%%%%%%%%%%%%%%%


 
     Adding external electric field

     Computed dipole along edir(3) : 
        Dipole               -6.1554 Ry au,        -15.6454 Debye
        Dipole field         -0.0116 Ry au, 
 
        Potential amp.        1.0768 Ry
        Total length         46.3494 bohr
 
     Starting wfcs are  294 atomic wfcs
  @ DRIVER MODE: Message from server: STATUS
  @ DRIVER MODE: Message from server: POSDATA
  @ DRIVER MODE: Reading and sharing cell 
  @ DRIVER MODE: Reading and sharing positions 
  @ DRIVER MODE: Received positions 

     total cpu time spent up to now is       13.3 secs

     Self-consistent Calculation

     iteration #  1     ecut=    29.40 Ry     beta= 0.05
     Davidson diagonalization with overlap
     c_bands:  1 eigenvalues not converged
     c_bands:  1 eigenvalues not converged
     c_bands:  1 eigenvalues not converged
     ethr =  1.00E-05,  avg # of iterations = 16.7

     negative rho (up, down):  1.709E-02 0.000E+00
 
     Adding external electric field

     Computed dipole along edir(3) : 
        Dipole               28.0662 Ry au,         71.3371 Debye
        Dipole field          0.0530 Ry au, 
 
        Potential amp.       -4.9098 Ry
        Total length         46.3494 bohr
 

     total cpu time spent up to now is       49.2 secs

     total energy              =   -2756.81005735 Ry
     estimated scf accuracy    <    1910.62576339 Ry

     iteration #  2     ecut=    29.40 Ry     beta= 0.05
     Davidson diagonalization with overlap
     c_bands:  1 eigenvalues not converged
     ethr =  1.00E-02,  avg # of iterations = 19.2

     negative rho (up, down):  7.046E-03 0.000E+00
 
     Adding external electric field

     Computed dipole along edir(3) : 
        Dipole               -2.2705 Ry au,         -5.7709 Debye
        Dipole field         -0.0043 Ry au, 
 
        Potential amp.        0.3972 Ry
        Total length         46.3494 bohr
 

     total cpu time spent up to now is       99.7 secs

     total energy              =   -2654.48056647 Ry
     estimated scf accuracy    <   37487.47410851 Ry

     iteration #  3     ecut=    29.40 Ry     beta= 0.05
     Davidson diagonalization with overlap
     ethr =  1.00E-02,  avg # of iterations = 15.2

     negative rho (up, down):  7.096E-03 0.000E+00
 
     Adding external electric field

     Computed dipole along edir(3) : 
        Dipole               -3.4620 Ry au,         -8.7994 Debye
        Dipole field         -0.0065 Ry au, 
 
        Potential amp.        0.6056 Ry
        Total length         46.3494 bohr
 

     total cpu time spent up to now is      141.0 secs

     total energy              =   -2917.91482595 Ry
     estimated scf accuracy    <    1652.10699483 Ry

     iteration #  4     ecut=    29.40 Ry     beta= 0.05
     Davidson diagonalization with overlap
     ethr =  1.00E-02,  avg # of iterations =  5.9

     negative rho (up, down):  7.250E-03 0.000E+00
 
     Adding external electric field

     Computed dipole along edir(3) : 
        Dipole               -4.6882 Ry au,        -11.9162 Debye
        Dipole field         -0.0088 Ry au, 
 
        Potential amp.        0.8201 Ry
        Total length         46.3494 bohr
 

     total cpu time spent up to now is      153.1 secs

     total energy              =   -2902.87460020 Ry
     estimated scf accuracy    <    1376.18670908 Ry

     iteration #  5     ecut=    29.40 Ry     beta= 0.05
     Davidson diagonalization with overlap
     ethr =  1.00E-02,  avg # of iterations = 13.0

     negative rho (up, down):  6.543E-03 0.000E+00
 
     Adding external electric field

     Computed dipole along edir(3) : 
        Dipole               -3.9501 Ry au,        -10.0400 Debye
        Dipole field         -0.0075 Ry au, 
 
        Potential amp.        0.6910 Ry
        Total length         46.3494 bohr
 

     total cpu time spent up to now is      176.5 secs

     total energy              =   -2932.60151403 Ry
     estimated scf accuracy    <      36.29508824 Ry

     iteration #  6     ecut=    29.40 Ry     beta= 0.05
     Davidson diagonalization with overlap
     ethr =  9.31E-03,  avg # of iterations =  1.0

     negative rho (up, down):  6.713E-03 0.000E+00
 
     Adding external electric field

     Computed dipole along edir(3) : 
        Dipole               -3.1625 Ry au,         -8.0382 Debye
        Dipole field         -0.0060 Ry au, 
 
        Potential amp.        0.5532 Ry
        Total length         46.3494 bohr
 

     total cpu time spent up to now is      186.4 secs

     total energy              =   -2931.46035256 Ry
     estimated scf accuracy    <      29.08310044 Ry

     iteration #  7     ecut=    29.40 Ry     beta= 0.05
     Davidson diagonalization with overlap
     ethr =  7.46E-03,  avg # of iterations =  1.0

     negative rho (up, down):  6.899E-03 0.000E+00
 
     Adding external electric field

     Computed dipole along edir(3) : 
        Dipole               -3.4727 Ry au,         -8.8268 Debye
        Dipole field         -0.0066 Ry au, 
 
        Potential amp.        0.6075 Ry
        Total length         46.3494 bohr
 

     total cpu time spent up to now is      196.3 secs

     total energy              =   -2931.57881777 Ry
     estimated scf accuracy    <      10.48802164 Ry

     iteration #  8     ecut=    29.40 Ry     beta= 0.05
     Davidson diagonalization with overlap
     ethr =  2.69E-03,  avg # of iterations =  1.0

     negative rho (up, down):  1.439E-02 0.000E+00
 
     Adding external electric field

     Computed dipole along edir(3) : 
        Dipole               -2.5592 Ry au,         -6.5049 Debye
        Dipole field         -0.0048 Ry au, 
 
        Potential amp.        0.4477 Ry
        Total length         46.3494 bohr
 

     total cpu time spent up to now is      206.1 secs

     total energy              =   -2928.13543032 Ry
     estimated scf accuracy    <      14.46832384 Ry

     iteration #  9     ecut=    29.40 Ry     beta= 0.05
     Davidson diagonalization with overlap
     c_bands:  3 eigenvalues not converged
     c_bands:  1 eigenvalues not converged
     c_bands:  1 eigenvalues not converged
     ethr =  2.69E-03,  avg # of iterations = 19.4

     negative rho (up, down):  1.373E-02 0.000E+00
 
     Adding external electric field

     Computed dipole along edir(3) : 
        Dipole               -2.4370 Ry au,         -6.1943 Debye
        Dipole field         -0.0046 Ry au, 
 
        Potential amp.        0.4263 Ry
        Total length         46.3494 bohr
 

     total cpu time spent up to now is      230.4 secs

     total energy              =   -2933.76449337 Ry
     estimated scf accuracy    <     417.04618570 Ry

     iteration # 10     ecut=    29.40 Ry     beta= 0.05
     Davidson diagonalization with overlap
     ethr =  2.69E-03,  avg # of iterations =  1.4

     negative rho (up, down):  1.695E-02 0.000E+00
 
     Adding external electric field

     Computed dipole along edir(3) : 
        Dipole               -2.2422 Ry au,         -5.6992 Debye
        Dipole field         -0.0042 Ry au, 
 
        Potential amp.        0.3922 Ry
        Total length         46.3494 bohr
 

     total cpu time spent up to now is      241.8 secs

     total energy              =   -2936.45484588 Ry
     estimated scf accuracy    <     451.66852685 Ry

     iteration # 11     ecut=    29.40 Ry     beta= 0.05
     Davidson diagonalization with overlap
     ethr =  2.69E-03,  avg # of iterations =  2.4

     negative rho (up, down):  1.785E-02 0.000E+00
 
     Adding external electric field

     Computed dipole along edir(3) : 
        Dipole               -2.2217 Ry au,         -5.6469 Debye
        Dipole field         -0.0042 Ry au, 
 
        Potential amp.        0.3886 Ry
        Total length         46.3494 bohr
 

     total cpu time spent up to now is      252.5 secs

     total energy              =   -2936.39828151 Ry
     estimated scf accuracy    <     804.78795203 Ry

     iteration # 12     ecut=    29.40 Ry     beta= 0.05
     Davidson diagonalization with overlap
     ethr =  2.69E-03,  avg # of iterations =  1.0

     negative rho (up, down):  1.741E-02 0.000E+00
 
     Adding external electric field

     Computed dipole along edir(3) : 
        Dipole               -2.2646 Ry au,         -5.7560 Debye
        Dipole field         -0.0043 Ry au, 
 
        Potential amp.        0.3962 Ry
        Total length         46.3494 bohr
 

     total cpu time spent up to now is      262.4 secs

     total energy              =   -2935.26183481 Ry
     estimated scf accuracy    <     690.55804968 Ry

     iteration # 13     ecut=    29.40 Ry     beta= 0.05
     Davidson diagonalization with overlap
     ethr =  2.69E-03,  avg # of iterations =  1.0

     negative rho (up, down):  1.645E-02 0.000E+00
 
     Adding external electric field

     Computed dipole along edir(3) : 
        Dipole               -2.2814 Ry au,         -5.7986 Debye
        Dipole field         -0.0043 Ry au, 
 
        Potential amp.        0.3991 Ry
        Total length         46.3494 bohr
 

     total cpu time spent up to now is      272.4 secs

     total energy              =   -2934.17636176 Ry
     estimated scf accuracy    <     533.38447741 Ry

     iteration # 14     ecut=    29.40 Ry     beta= 0.05
     Davidson diagonalization with overlap
     ethr =  2.69E-03,  avg # of iterations =  1.0

     negative rho (up, down):  1.569E-02 0.000E+00
 
     Adding external electric field

     Computed dipole along edir(3) : 
        Dipole               -2.0913 Ry au,         -5.3154 Debye
        Dipole field         -0.0039 Ry au, 
 
        Potential amp.        0.3658 Ry
        Total length         46.3494 bohr
 

     total cpu time spent up to now is      282.4 secs

     total energy              =   -2933.48061991 Ry
     estimated scf accuracy    <     416.23382064 Ry

     iteration # 15     ecut=    29.40 Ry     beta= 0.05
     Davidson diagonalization with overlap
     ethr =  2.69E-03,  avg # of iterations =  1.0

     negative rho (up, down):  9.039E-03 0.000E+00
 
     Adding external electric field

     Computed dipole along edir(3) : 
        Dipole               -1.9306 Ry au,         -4.9071 Debye
        Dipole field         -0.0036 Ry au, 
 
        Potential amp.        0.3377 Ry
        Total length         46.3494 bohr
 

     total cpu time spent up to now is      292.4 secs

     total energy              =   -2923.84317683 Ry
     estimated scf accuracy    <     341.61674941 Ry

     iteration # 16     ecut=    29.40 Ry     beta= 0.05
     Davidson diagonalization with overlap
     c_bands:  5 eigenvalues not converged
     c_bands:  4 eigenvalues not converged
     c_bands:  5 eigenvalues not converged
     c_bands:  1 eigenvalues not converged
     c_bands:  2 eigenvalues not converged
     c_bands:  3 eigenvalues not converged
     c_bands:  1 eigenvalues not converged
     ethr =  2.69E-03,  avg # of iterations = 17.6

     negative rho (up, down):  8.844E-03 0.000E+00
 
     Adding external electric field

     Computed dipole along edir(3) : 
        Dipole               -1.8573 Ry au,         -4.7208 Debye
        Dipole field         -0.0035 Ry au, 
 
        Potential amp.        0.3249 Ry
        Total length         46.3494 bohr
 

     total cpu time spent up to now is      314.3 secs

     total energy              =   -2930.40276980 Ry
     estimated scf accuracy    <       7.91652343 Ry

     iteration # 17     ecut=    29.40 Ry     beta= 0.05
     Davidson diagonalization with overlap
     c_bands:  5 eigenvalues not converged
     ethr =  2.03E-03,  avg # of iterations =  4.2

     negative rho (up, down):  7.927E-03 0.000E+00
 
     Adding external electric field

     Computed dipole along edir(3) : 
        Dipole               -1.7096 Ry au,         -4.3455 Debye
        Dipole field         -0.0032 Ry au, 
 
        Potential amp.        0.2991 Ry
        Total length         46.3494 bohr
 

     total cpu time spent up to now is      325.7 secs

     total energy              =   -2930.37489971 Ry
     estimated scf accuracy    <       6.91353117 Ry

     iteration # 18     ecut=    29.40 Ry     beta= 0.05
     Davidson diagonalization with overlap
     ethr =  1.77E-03,  avg # of iterations = 10.3

     negative rho (up, down):  8.449E-03 0.000E+00
 
     Adding external electric field

     Computed dipole along edir(3) : 
        Dipole               -1.6146 Ry au,         -4.1040 Debye
        Dipole field         -0.0030 Ry au, 
 
        Potential amp.        0.2825 Ry
        Total length         46.3494 bohr
 

     total cpu time spent up to now is      340.1 secs

     total energy              =   -2930.55645048 Ry
     estimated scf accuracy    <       5.25050362 Ry

     iteration # 19     ecut=    29.40 Ry     beta= 0.05
     Davidson diagonalization with overlap
     ethr =  1.35E-03,  avg # of iterations =  3.4

     negative rho (up, down):  8.073E-03 0.000E+00
 
     Adding external electric field

     Computed dipole along edir(3) : 
        Dipole               -1.7821 Ry au,         -4.5297 Debye
        Dipole field         -0.0034 Ry au, 
 
        Potential amp.        0.3118 Ry
        Total length         46.3494 bohr
 

     total cpu time spent up to now is      351.6 secs

     total energy              =   -2930.33211050 Ry
     estimated scf accuracy    <      33.51913647 Ry

     iteration # 20     ecut=    29.40 Ry     beta= 0.05
     Davidson diagonalization with overlap
     ethr =  1.35E-03,  avg # of iterations =  5.5

     negative rho (up, down):  8.404E-03 0.000E+00
 
     Adding external electric field

     Computed dipole along edir(3) : 
        Dipole               -1.7544 Ry au,         -4.4591 Debye
        Dipole field         -0.0033 Ry au, 
 
        Potential amp.        0.3069 Ry
        Total length         46.3494 bohr
 

     total cpu time spent up to now is      363.3 secs

     total energy              =   -2930.30776823 Ry
     estimated scf accuracy    <       6.34878838 Ry

     iteration # 21     ecut=    29.40 Ry     beta= 0.05
     Davidson diagonalization with overlap
     ethr =  1.35E-03,  avg # of iterations =  1.1

     negative rho (up, down):  8.371E-03 0.000E+00
 
     Adding external electric field

     Computed dipole along edir(3) : 
        Dipole               -1.7335 Ry au,         -4.4061 Debye
        Dipole field         -0.0033 Ry au, 
 
        Potential amp.        0.3033 Ry
        Total length         46.3494 bohr
 

     total cpu time spent up to now is      373.3 secs

     total energy              =   -2930.35256480 Ry
     estimated scf accuracy    <       9.78405312 Ry

     iteration # 22     ecut=    29.40 Ry     beta= 0.05
     Davidson diagonalization with overlap
     ethr =  1.35E-03,  avg # of iterations =  1.0

     negative rho (up, down):  8.483E-03 0.000E+00
 
     Adding external electric field

     Computed dipole along edir(3) : 
        Dipole               -1.8174 Ry au,         -4.6194 Debye
        Dipole field         -0.0034 Ry au, 
 
        Potential amp.        0.3179 Ry
        Total length         46.3494 bohr
 

     total cpu time spent up to now is      385.0 secs

     total energy              =   -2930.15928260 Ry
     estimated scf accuracy    <       7.77037783 Ry

     iteration # 23     ecut=    29.40 Ry     beta= 0.05
     Davidson diagonalization with overlap
     ethr =  1.35E-03,  avg # of iterations =  1.5

     negative rho (up, down):  8.484E-03 0.000E+00
 
     Adding external electric field

     Computed dipole along edir(3) : 
        Dipole               -1.5898 Ry au,         -4.0409 Debye
        Dipole field         -0.0030 Ry au, 
 
        Potential amp.        0.2781 Ry
        Total length         46.3494 bohr
 

     total cpu time spent up to now is      402.6 secs

     total energy              =   -2929.76025128 Ry
     estimated scf accuracy    <      16.20066262 Ry

     iteration # 24     ecut=    29.40 Ry     beta= 0.05
     Davidson diagonalization with overlap
     ethr =  1.35E-03,  avg # of iterations =  2.7

     negative rho (up, down):  8.908E-03 0.000E+00
 
     Adding external electric field

     Computed dipole along edir(3) : 
        Dipole               -1.3849 Ry au,         -3.5200 Debye
        Dipole field         -0.0026 Ry au, 
 
        Potential amp.        0.2423 Ry
        Total length         46.3494 bohr
 

     total cpu time spent up to now is      413.4 secs

     total energy              =   -2929.73826151 Ry
     estimated scf accuracy    <       1.94906925 Ry

     iteration # 25     ecut=    29.40 Ry     beta= 0.05
     Davidson diagonalization with overlap
     c_bands:  2 eigenvalues not converged
     c_bands:  1 eigenvalues not converged
     c_bands:  2 eigenvalues not converged
     c_bands:  4 eigenvalues not converged
     c_bands:  2 eigenvalues not converged
     ethr =  5.00E-04,  avg # of iterations = 20.1

     negative rho (up, down):  9.122E-03 0.000E+00
 
     Adding external electric field

     Computed dipole along edir(3) : 
        Dipole               -1.3822 Ry au,         -3.5132 Debye
        Dipole field         -0.0026 Ry au, 
 
        Potential amp.        0.2418 Ry
        Total length         46.3494 bohr
 

     total cpu time spent up to now is      436.6 secs

     total energy              =   -2930.40255248 Ry
     estimated scf accuracy    <      10.18157734 Ry

     iteration # 26     ecut=    29.40 Ry     beta= 0.05
     Davidson diagonalization with overlap
     ethr =  5.00E-04,  avg # of iterations =  2.4

     negative rho (up, down):  9.202E-03 0.000E+00
 
     Adding external electric field

     Computed dipole along edir(3) : 
        Dipole               -1.3947 Ry au,         -3.5449 Debye
        Dipole field         -0.0026 Ry au, 
 
        Potential amp.        0.2440 Ry
        Total length         46.3494 bohr
 

     total cpu time spent up to now is      447.1 secs

     total energy              =   -2930.17974701 Ry
     estimated scf accuracy    <      10.32723871 Ry

     iteration # 27     ecut=    29.40 Ry     beta= 0.05
     Davidson diagonalization with overlap
     ethr =  5.00E-04,  avg # of iterations =  3.2

     negative rho (up, down):  8.918E-03 0.000E+00
 
     Adding external electric field

     Computed dipole along edir(3) : 
        Dipole               -1.3640 Ry au,         -3.4669 Debye
        Dipole field         -0.0026 Ry au, 
 
        Potential amp.        0.2386 Ry
        Total length         46.3494 bohr
 

     total cpu time spent up to now is      457.8 secs

     total energy              =   -2929.74141903 Ry
     estimated scf accuracy    <       8.80899753 Ry

     iteration # 28     ecut=    29.40 Ry     beta= 0.05
     Davidson diagonalization with overlap
     c_bands:  3 eigenvalues not converged
     c_bands:  1 eigenvalues not converged
     c_bands:  1 eigenvalues not converged
     c_bands:  3 eigenvalues not converged
     c_bands:  2 eigenvalues not converged
     c_bands:  5 eigenvalues not converged
     ethr =  5.00E-04,  avg # of iterations = 18.8

     negative rho (up, down):  8.603E-03 0.000E+00
 
     Adding external electric field

     Computed dipole along edir(3) : 
        Dipole               -1.2836 Ry au,         -3.2627 Debye
        Dipole field         -0.0024 Ry au, 
 
        Potential amp.        0.2246 Ry
        Total length         46.3494 bohr
 

     total cpu time spent up to now is      476.1 secs

     total energy              =   -2929.97538692 Ry
     estimated scf accuracy    <       2.72427398 Ry

     iteration # 29     ecut=    29.40 Ry     beta= 0.05
     Davidson diagonalization with overlap
     c_bands:  1 eigenvalues not converged
     ethr =  5.00E-04,  avg # of iterations =  5.4

     negative rho (up, down):  8.409E-03 0.000E+00
 
     Adding external electric field

     Computed dipole along edir(3) : 
        Dipole               -0.8798 Ry au,         -2.2363 Debye
        Dipole field         -0.0017 Ry au, 
 
        Potential amp.        0.1539 Ry
        Total length         46.3494 bohr
 

     total cpu time spent up to now is      488.1 secs

     total energy              =   -2930.03523056 Ry
     estimated scf accuracy    <       2.66744833 Ry

     iteration # 30     ecut=    29.40 Ry     beta= 0.05
     Davidson diagonalization with overlap
     c_bands:  2 eigenvalues not converged
     c_bands:  1 eigenvalues not converged
     ethr =  5.00E-04,  avg # of iterations = 11.2

     negative rho (up, down):  8.440E-03 0.000E+00
 
     Adding external electric field

     Computed dipole along edir(3) : 
        Dipole               -0.6126 Ry au,         -1.5571 Debye
        Dipole field         -0.0012 Ry au, 
 
        Potential amp.        0.1072 Ry
        Total length         46.3494 bohr
 

     total cpu time spent up to now is      504.0 secs

     total energy              =   -2930.06998727 Ry
     estimated scf accuracy    <       4.83924426 Ry

     iteration # 31     ecut=    29.40 Ry     beta= 0.05
     Davidson diagonalization with overlap
     ethr =  5.00E-04,  avg # of iterations =  3.7

     negative rho (up, down):  8.772E-03 0.000E+00
 
     Adding external electric field

     Computed dipole along edir(3) : 
        Dipole               -0.2875 Ry au,         -0.7307 Debye
        Dipole field         -0.0005 Ry au, 
 
        Potential amp.        0.0503 Ry
        Total length         46.3494 bohr
 

     total cpu time spent up to now is      515.0 secs

     total energy              =   -2929.88118472 Ry
     estimated scf accuracy    <       2.63494104 Ry

     iteration # 32     ecut=    29.40 Ry     beta= 0.05
     Davidson diagonalization with overlap
     c_bands:  3 eigenvalues not converged
     c_bands:  1 eigenvalues not converged
     c_bands:  1 eigenvalues not converged
     c_bands:  5 eigenvalues not converged
     ethr =  5.00E-04,  avg # of iterations = 14.3

     negative rho (up, down):  8.445E-03 0.000E+00
 
     Adding external electric field

     Computed dipole along edir(3) : 
        Dipole               -0.3219 Ry au,         -0.8182 Debye
        Dipole field         -0.0006 Ry au, 
 
        Potential amp.        0.0563 Ry
        Total length         46.3494 bohr
 

     total cpu time spent up to now is      529.6 secs

     total energy              =   -2930.02515806 Ry
     estimated scf accuracy    <       2.80393212 Ry

     iteration # 33     ecut=    29.40 Ry     beta= 0.05
     Davidson diagonalization with overlap
     ethr =  5.00E-04,  avg # of iterations =  2.8

     negative rho (up, down):  8.860E-03 0.000E+00
 
     Adding external electric field

     Computed dipole along edir(3) : 
        Dipole               -0.0529 Ry au,         -0.1345 Debye
        Dipole field         -0.0001 Ry au, 
 
        Potential amp.        0.0093 Ry
        Total length         46.3494 bohr
 

     total cpu time spent up to now is      540.3 secs

     total energy              =   -2930.14236215 Ry
     estimated scf accuracy    <       2.66586587 Ry

     iteration # 34     ecut=    29.40 Ry     beta= 0.05
     Davidson diagonalization with overlap
     ethr =  5.00E-04,  avg # of iterations =  5.0

     negative rho (up, down):  8.411E-03 0.000E+00
 
     Adding external electric field

     Computed dipole along edir(3) : 
        Dipole               -0.1567 Ry au,         -0.3984 Debye
        Dipole field         -0.0003 Ry au, 
 
        Potential amp.        0.0274 Ry
        Total length         46.3494 bohr
 

     total cpu time spent up to now is      552.3 secs

     total energy              =   -2929.99365334 Ry
     estimated scf accuracy    <       3.32199306 Ry

     iteration # 35     ecut=    29.40 Ry     beta= 0.05
     Davidson diagonalization with overlap
     ethr =  5.00E-04,  avg # of iterations =  1.8

     negative rho (up, down):  8.281E-03 0.000E+00
 
     Adding external electric field

     Computed dipole along edir(3) : 
        Dipole               -0.2828 Ry au,         -0.7189 Debye
        Dipole field         -0.0005 Ry au, 
 
        Potential amp.        0.0495 Ry
        Total length         46.3494 bohr
 

     total cpu time spent up to now is      563.1 secs

     total energy              =   -2930.00511957 Ry
     estimated scf accuracy    <       0.81396469 Ry

     iteration # 36     ecut=    29.40 Ry     beta= 0.05
     Davidson diagonalization with overlap
     c_bands:  1 eigenvalues not converged
     c_bands:  1 eigenvalues not converged
     ethr =  2.09E-04,  avg # of iterations =  5.6

     negative rho (up, down):  7.908E-03 0.000E+00
 
     Adding external electric field

     Computed dipole along edir(3) : 
        Dipole               -0.7512 Ry au,         -1.9093 Debye
        Dipole field         -0.0014 Ry au, 
 
        Potential amp.        0.1314 Ry
        Total length         46.3494 bohr
 

     total cpu time spent up to now is      574.8 secs

     total energy              =   -2929.89670936 Ry
     estimated scf accuracy    <       0.78560039 Ry

     iteration # 37     ecut=    29.40 Ry     beta= 0.05
     Davidson diagonalization with overlap
     c_bands:  4 eigenvalues not converged
     c_bands:  1 eigenvalues not converged
     c_bands:  1 eigenvalues not converged
     c_bands:  2 eigenvalues not converged
     c_bands:  2 eigenvalues not converged
     ethr =  2.01E-04,  avg # of iterations = 18.6

     negative rho (up, down):  8.513E-03 0.000E+00
 
     Adding external electric field

     Computed dipole along edir(3) : 
        Dipole               -0.1641 Ry au,         -0.4171 Debye
        Dipole field         -0.0003 Ry au, 
 
        Potential amp.        0.0287 Ry
        Total length         46.3494 bohr
 

     total cpu time spent up to now is      595.6 secs

     total energy              =   -2929.81087812 Ry
     estimated scf accuracy    <       0.62399529 Ry

     iteration # 38     ecut=    29.40 Ry     beta= 0.05
     Davidson diagonalization with overlap
     c_bands:  1 eigenvalues not converged
     c_bands:  1 eigenvalues not converged
     c_bands:  1 eigenvalues not converged
     c_bands:  1 eigenvalues not converged
     ethr =  1.60E-04,  avg # of iterations = 18.2

     negative rho (up, down):  8.520E-03 0.000E+00
 
     Adding external electric field

     Computed dipole along edir(3) : 
        Dipole               -0.3224 Ry au,         -0.8194 Debye
        Dipole field         -0.0006 Ry au, 
 
        Potential amp.        0.0564 Ry
        Total length         46.3494 bohr
 

     total cpu time spent up to now is      617.4 secs

     total energy              =   -2930.00436336 Ry
     estimated scf accuracy    <       1.78308840 Ry

     iteration # 39     ecut=    29.40 Ry     beta= 0.05
     Davidson diagonalization with overlap
     ethr =  1.60E-04,  avg # of iterations =  1.2

     negative rho (up, down):  8.967E-03 0.000E+00
 
     Adding external electric field

     Computed dipole along edir(3) : 
        Dipole                0.0021 Ry au,          0.0053 Debye
        Dipole field          0.0000 Ry au, 
 
        Potential amp.       -0.0004 Ry
        Total length         46.3494 bohr
 

     total cpu time spent up to now is      627.4 secs

     total energy              =   -2930.13719991 Ry
     estimated scf accuracy    <       2.08692021 Ry

     iteration # 40     ecut=    29.40 Ry     beta= 0.05
     Davidson diagonalization with overlap
     c_bands:  4 eigenvalues not converged
     ethr =  1.60E-04,  avg # of iterations =  7.4

     negative rho (up, down):  8.826E-03 0.000E+00
 
     Adding external electric field

     Computed dipole along edir(3) : 
        Dipole               -0.4005 Ry au,         -1.0180 Debye
        Dipole field         -0.0008 Ry au, 
 
        Potential amp.        0.0701 Ry
        Total length         46.3494 bohr
 

     total cpu time spent up to now is      640.3 secs

     total energy              =   -2929.98393342 Ry
     estimated scf accuracy    <       3.08162938 Ry

     iteration # 41     ecut=    29.40 Ry     beta= 0.05
     Davidson diagonalization with overlap
     ethr =  1.60E-04,  avg # of iterations =  4.3

     negative rho (up, down):  9.050E-03 0.000E+00
 
     Adding external electric field

     Computed dipole along edir(3) : 
        Dipole               -0.2603 Ry au,         -0.6616 Debye
        Dipole field         -0.0005 Ry au, 
 
        Potential amp.        0.0455 Ry
        Total length         46.3494 bohr
 

     total cpu time spent up to now is      654.1 secs

     total energy              =   -2930.03046926 Ry
     estimated scf accuracy    <       2.39695922 Ry

     iteration # 42     ecut=    29.40 Ry     beta= 0.05
     Davidson diagonalization with overlap
     c_bands:  1 eigenvalues not converged
     ethr =  1.60E-04,  avg # of iterations = 11.0

     negative rho (up, down):  8.638E-03 0.000E+00
 
     Adding external electric field

     Computed dipole along edir(3) : 
        Dipole                0.0237 Ry au,          0.0602 Debye
        Dipole field          0.0000 Ry au, 
 
        Potential amp.       -0.0041 Ry
        Total length         46.3494 bohr
 

     total cpu time spent up to now is      667.8 secs

     total energy              =   -2930.02825062 Ry
     estimated scf accuracy    <       1.26685442 Ry

     iteration # 43     ecut=    29.40 Ry     beta= 0.05
     Davidson diagonalization with overlap
     ethr =  1.60E-04,  avg # of iterations =  8.3

     negative rho (up, down):  8.673E-03 0.000E+00
 
     Adding external electric field

     Computed dipole along edir(3) : 
        Dipole                0.1753 Ry au,          0.4455 Debye
        Dipole field          0.0003 Ry au, 
 
        Potential amp.       -0.0307 Ry
        Total length         46.3494 bohr
 

     total cpu time spent up to now is      681.3 secs

     total energy              =   -2930.02030997 Ry
     estimated scf accuracy    <       2.28907167 Ry

     iteration # 44     ecut=    29.40 Ry     beta= 0.05
     Davidson diagonalization with overlap
     ethr =  1.60E-04,  avg # of iterations =  5.1

     negative rho (up, down):  8.739E-03 0.000E+00
 
     Adding external electric field

     Computed dipole along edir(3) : 
        Dipole                0.0883 Ry au,          0.2245 Debye
        Dipole field          0.0002 Ry au, 
 
        Potential amp.       -0.0155 Ry
        Total length         46.3494 bohr
 

     total cpu time spent up to now is      692.9 secs

     total energy              =   -2930.02291793 Ry
     estimated scf accuracy    <       0.74640643 Ry

     iteration # 45     ecut=    29.40 Ry     beta= 0.05
     Davidson diagonalization with overlap
     ethr =  1.60E-04,  avg # of iterations =  1.3

     negative rho (up, down):  8.573E-03 0.000E+00
 
     Adding external electric field

     Computed dipole along edir(3) : 
        Dipole                0.0906 Ry au,          0.2302 Debye
        Dipole field          0.0002 Ry au, 
 
        Potential amp.       -0.0158 Ry
        Total length         46.3494 bohr
 

     total cpu time spent up to now is      702.9 secs

     total energy              =   -2930.02980173 Ry
     estimated scf accuracy    <       1.22078569 Ry

     iteration # 46     ecut=    29.40 Ry     beta= 0.05
     Davidson diagonalization with overlap
     ethr =  1.60E-04,  avg # of iterations =  1.2

     negative rho (up, down):  7.857E-03 0.000E+00
 
     Adding external electric field

     Computed dipole along edir(3) : 
        Dipole               -0.2959 Ry au,         -0.7520 Debye
        Dipole field         -0.0006 Ry au, 
 
        Potential amp.        0.0518 Ry
        Total length         46.3494 bohr
 

     total cpu time spent up to now is      713.9 secs

     total energy              =   -2929.90597262 Ry
     estimated scf accuracy    <       0.83937457 Ry

     iteration # 47     ecut=    29.40 Ry     beta= 0.05
     Davidson diagonalization with overlap
     c_bands:  4 eigenvalues not converged
     c_bands:  1 eigenvalues not converged
     c_bands:  1 eigenvalues not converged
     c_bands:  2 eigenvalues not converged
     c_bands:  2 eigenvalues not converged
     c_bands:  4 eigenvalues not converged
     c_bands:  2 eigenvalues not converged
     c_bands:  2 eigenvalues not converged
     ethr =  1.60E-04,  avg # of iterations = 18.5

     negative rho (up, down):  8.141E-03 0.000E+00
 
     Adding external electric field

     Computed dipole along edir(3) : 
        Dipole               -0.1017 Ry au,         -0.2586 Debye
        Dipole field         -0.0002 Ry au, 
 
        Potential amp.        0.0178 Ry
        Total length         46.3494 bohr
 

     total cpu time spent up to now is      733.2 secs

     total energy              =   -2929.93034796 Ry
     estimated scf accuracy    <       0.65743643 Ry

     iteration # 48     ecut=    29.40 Ry     beta= 0.05
     Davidson diagonalization with overlap
     ethr =  1.60E-04,  avg # of iterations = 10.4

     negative rho (up, down):  8.127E-03 0.000E+00
 
     Adding external electric field

     Computed dipole along edir(3) : 
        Dipole               -0.1371 Ry au,         -0.3484 Debye
        Dipole field         -0.0003 Ry au, 
 
        Potential amp.        0.0240 Ry
        Total length         46.3494 bohr
 

     total cpu time spent up to now is      746.5 secs

     total energy              =   -2929.96051190 Ry
     estimated scf accuracy    <       0.81694830 Ry

     iteration # 49     ecut=    29.40 Ry     beta= 0.05
     Davidson diagonalization with overlap
     ethr =  1.60E-04,  avg # of iterations =  1.0

     negative rho (up, down):  8.180E-03 0.000E+00
 
     Adding external electric field

     Computed dipole along edir(3) : 
        Dipole               -0.1184 Ry au,         -0.3010 Debye
        Dipole field         -0.0002 Ry au, 
 
        Potential amp.        0.0207 Ry
        Total length         46.3494 bohr
 

     total cpu time spent up to now is      756.4 secs

     total energy              =   -2929.97121178 Ry
     estimated scf accuracy    <       0.63533044 Ry

     iteration # 50     ecut=    29.40 Ry     beta= 0.05
     Davidson diagonalization with overlap
     ethr =  1.60E-04,  avg # of iterations =  1.3

     negative rho (up, down):  8.358E-03 0.000E+00
 
     Adding external electric field

     Computed dipole along edir(3) : 
        Dipole               -0.0889 Ry au,         -0.2259 Debye
        Dipole field         -0.0002 Ry au, 
 
        Potential amp.        0.0155 Ry
        Total length         46.3494 bohr
 

     total cpu time spent up to now is      766.5 secs

     total energy              =   -2929.93976678 Ry
     estimated scf accuracy    <       1.16926494 Ry

     iteration # 51     ecut=    29.40 Ry     beta= 0.05
     Davidson diagonalization with overlap
     ethr =  1.60E-04,  avg # of iterations = 14.2

     negative rho (up, down):  8.366E-03 0.000E+00
 
     Adding external electric field

     Computed dipole along edir(3) : 
        Dipole                0.1308 Ry au,          0.3326 Debye
        Dipole field          0.0002 Ry au, 
 
        Potential amp.       -0.0229 Ry
        Total length         46.3494 bohr
 

     total cpu time spent up to now is      780.9 secs

     total energy              =   -2929.97084009 Ry
     estimated scf accuracy    <       1.35007017 Ry

     iteration # 52     ecut=    29.40 Ry     beta= 0.05
     Davidson diagonalization with overlap
     ethr =  1.60E-04,  avg # of iterations =  3.4

     negative rho (up, down):  8.576E-03 0.000E+00
 
     Adding external electric field

     Computed dipole along edir(3) : 
        Dipole                0.2436 Ry au,          0.6192 Debye
        Dipole field          0.0005 Ry au, 
 
        Potential amp.       -0.0426 Ry
        Total length         46.3494 bohr
 

     total cpu time spent up to now is      791.8 secs

     total energy              =   -2929.98871984 Ry
     estimated scf accuracy    <       1.37255390 Ry

     iteration # 53     ecut=    29.40 Ry     beta= 0.05
     Davidson diagonalization with overlap
     ethr =  1.60E-04,  avg # of iterations =  1.1

     negative rho (up, down):  8.275E-03 0.000E+00
 
     Adding external electric field

     Computed dipole along edir(3) : 
        Dipole               -0.1584 Ry au,         -0.4026 Debye
        Dipole field         -0.0003 Ry au, 
 
        Potential amp.        0.0277 Ry
        Total length         46.3494 bohr
 

     total cpu time spent up to now is      801.8 secs

     total energy              =   -2929.93245662 Ry
     estimated scf accuracy    <       1.43577226 Ry

     iteration # 54     ecut=    29.40 Ry     beta= 0.05
     Davidson diagonalization with overlap
     ethr =  1.60E-04,  avg # of iterations =  4.8

     negative rho (up, down):  8.294E-03 0.000E+00
 
     Adding external electric field

     Computed dipole along edir(3) : 
        Dipole               -0.2438 Ry au,         -0.6198 Debye
        Dipole field         -0.0005 Ry au, 
 
        Potential amp.        0.0427 Ry
        Total length         46.3494 bohr
 

     total cpu time spent up to now is      813.2 secs

     total energy              =   -2929.95402655 Ry
     estimated scf accuracy    <       0.49528865 Ry

     iteration # 55     ecut=    29.40 Ry     beta= 0.05
     Davidson diagonalization with overlap
     ethr =  1.27E-04,  avg # of iterations =  5.2

     negative rho (up, down):  8.116E-03 0.000E+00
 
     Adding external electric field

     Computed dipole along edir(3) : 
        Dipole               -0.2657 Ry au,         -0.6754 Debye
        Dipole field         -0.0005 Ry au, 
 
        Potential amp.        0.0465 Ry
        Total length         46.3494 bohr
 

     total cpu time spent up to now is      824.7 secs

     total energy              =   -2929.99170734 Ry
     estimated scf accuracy    <       0.34820179 Ry

     iteration # 56     ecut=    29.40 Ry     beta= 0.05
     Davidson diagonalization with overlap
     c_bands:  1 eigenvalues not converged
     c_bands:  4 eigenvalues not converged
     c_bands:  2 eigenvalues not converged
     c_bands:  2 eigenvalues not converged
     c_bands:  3 eigenvalues not converged
     c_bands:  1 eigenvalues not converged
     c_bands:  2 eigenvalues not converged
     c_bands:  1 eigenvalues not converged
     c_bands:  1 eigenvalues not converged
     ethr =  8.93E-05,  avg # of iterations = 21.5

     negative rho (up, down):  8.198E-03 0.000E+00
 
     Adding external electric field

     Computed dipole along edir(3) : 
        Dipole               -0.3057 Ry au,         -0.7770 Debye
        Dipole field         -0.0006 Ry au, 
 
        Potential amp.        0.0535 Ry
        Total length         46.3494 bohr
 

     total cpu time spent up to now is      845.7 secs

     total energy              =   -2929.91273092 Ry
     estimated scf accuracy    <       1.41164157 Ry

     iteration # 57     ecut=    29.40 Ry     beta= 0.05
     Davidson diagonalization with overlap
     c_bands:  2 eigenvalues not converged
     ethr =  8.93E-05,  avg # of iterations = 15.2

     negative rho (up, down):  8.219E-03 0.000E+00
 
     Adding external electric field

     Computed dipole along edir(3) : 
        Dipole               -0.3037 Ry au,         -0.7719 Debye
        Dipole field         -0.0006 Ry au, 
 
        Potential amp.        0.0531 Ry
        Total length         46.3494 bohr
 

     total cpu time spent up to now is      861.9 secs

     total energy              =   -2929.92192787 Ry
     estimated scf accuracy    <       0.24724444 Ry

     iteration # 58     ecut=    29.40 Ry     beta= 0.05
     Davidson diagonalization with overlap
     c_bands:  3 eigenvalues not converged
     c_bands:  4 eigenvalues not converged
     c_bands:  3 eigenvalues not converged
     c_bands:  1 eigenvalues not converged
     ethr =  6.34E-05,  avg # of iterations = 15.2

     negative rho (up, down):  8.480E-03 0.000E+00
 
     Adding external electric field

     Computed dipole along edir(3) : 
        Dipole                0.0457 Ry au,          0.1161 Debye
        Dipole field          0.0001 Ry au, 
 
        Potential amp.       -0.0080 Ry
        Total length         46.3494 bohr
 

     total cpu time spent up to now is      878.3 secs

     total energy              =   -2929.93163684 Ry
     estimated scf accuracy    <       0.14135880 Ry

     iteration # 59     ecut=    29.40 Ry     beta= 0.05
     Davidson diagonalization with overlap
     c_bands:  2 eigenvalues not converged
     c_bands:  4 eigenvalues not converged
     c_bands:  2 eigenvalues not converged
     c_bands:  2 eigenvalues not converged
     c_bands:  2 eigenvalues not converged
     ethr =  3.62E-05,  avg # of iterations = 17.4

     negative rho (up, down):  8.855E-03 0.000E+00
 
     Adding external electric field

     Computed dipole along edir(3) : 
        Dipole                0.1617 Ry au,          0.4111 Debye
        Dipole field          0.0003 Ry au, 
 
        Potential amp.       -0.0283 Ry
        Total length         46.3494 bohr
 

     total cpu time spent up to now is      897.8 secs

     total energy              =   -2929.89330041 Ry
     estimated scf accuracy    <       0.64888437 Ry

     iteration # 60     ecut=    29.40 Ry     beta= 0.05
     Davidson diagonalization with overlap
     c_bands:  1 eigenvalues not converged
     c_bands:  2 eigenvalues not converged
     c_bands:  1 eigenvalues not converged
     c_bands:  1 eigenvalues not converged
     c_bands:  1 eigenvalues not converged
     ethr =  3.62E-05,  avg # of iterations = 18.5

     negative rho (up, down):  8.855E-03 0.000E+00
 
     Adding external electric field

     Computed dipole along edir(3) : 
        Dipole                0.1615 Ry au,          0.4105 Debye
        Dipole field          0.0003 Ry au, 
 
        Potential amp.       -0.0283 Ry
        Total length         46.3494 bohr
 

     total cpu time spent up to now is      920.0 secs

     total energy              =   -2929.93871508 Ry
     estimated scf accuracy    <       0.10450938 Ry

     iteration # 61     ecut=    29.40 Ry     beta= 0.05
     Davidson diagonalization with overlap
     ethr =  2.68E-05,  avg # of iterations =  3.2

     negative rho (up, down):  8.693E-03 0.000E+00
 
     Adding external electric field

     Computed dipole along edir(3) : 
        Dipole                0.1211 Ry au,          0.3079 Debye
        Dipole field          0.0002 Ry au, 
 
        Potential amp.       -0.0212 Ry
        Total length         46.3494 bohr
 

     total cpu time spent up to now is      930.8 secs

     total energy              =   -2929.93217601 Ry
     estimated scf accuracy    <       0.07443858 Ry

     iteration # 62     ecut=    29.40 Ry     beta= 0.05
     Davidson diagonalization with overlap
     c_bands:  1 eigenvalues not converged
     c_bands:  1 eigenvalues not converged
     ethr =  1.91E-05,  avg # of iterations = 16.1

     negative rho (up, down):  9.797E-03 0.000E+00
 
     Adding external electric field

     Computed dipole along edir(3) : 
        Dipole                0.2546 Ry au,          0.6471 Debye
        Dipole field          0.0005 Ry au, 
 
        Potential amp.       -0.0445 Ry
        Total length         46.3494 bohr
 

     total cpu time spent up to now is      947.3 secs

     total energy              =   -2929.93702387 Ry
     estimated scf accuracy    <       0.02498620 Ry

     iteration # 63     ecut=    29.40 Ry     beta= 0.05
     Davidson diagonalization with overlap
     c_bands:  2 eigenvalues not converged
     ethr =  6.41E-06,  avg # of iterations = 14.9

     negative rho (up, down):  1.103E-02 0.000E+00
 
     Adding external electric field

     Computed dipole along edir(3) : 
        Dipole                0.2940 Ry au,          0.7472 Debye
        Dipole field          0.0006 Ry au, 
 
        Potential amp.       -0.0514 Ry
        Total length         46.3494 bohr
 

     total cpu time spent up to now is      967.4 secs

     total energy              =   -2929.94436042 Ry
     estimated scf accuracy    <       0.04808286 Ry

     iteration # 64     ecut=    29.40 Ry     beta= 0.05
     Davidson diagonalization with overlap
     c_bands:  1 eigenvalues not converged
     c_bands:  1 eigenvalues not converged
     c_bands:  2 eigenvalues not converged
     c_bands:  1 eigenvalues not converged
     ethr =  6.41E-06,  avg # of iterations = 16.4

     negative rho (up, down):  1.073E-02 0.000E+00
 
     Adding external electric field

     Computed dipole along edir(3) : 
        Dipole                0.2735 Ry au,          0.6951 Debye
        Dipole field          0.0005 Ry au, 
 
        Potential amp.       -0.0478 Ry
        Total length         46.3494 bohr
 

     total cpu time spent up to now is      984.5 secs

     total energy              =   -2929.94548990 Ry
     estimated scf accuracy    <       0.08105184 Ry

     iteration # 65     ecut=    29.40 Ry     beta= 0.05
     Davidson diagonalization with overlap
     ethr =  6.41E-06,  avg # of iterations =  4.6

     negative rho (up, down):  1.132E-02 0.000E+00
 
     Adding external electric field

     Computed dipole along edir(3) : 
        Dipole                0.2782 Ry au,          0.7071 Debye
        Dipole field          0.0005 Ry au, 
 
        Potential amp.       -0.0487 Ry
        Total length         46.3494 bohr
 

     total cpu time spent up to now is      996.8 secs

     total energy              =   -2929.93834274 Ry
     estimated scf accuracy    <       0.08218267 Ry

     iteration # 66     ecut=    29.40 Ry     beta= 0.05
     Davidson diagonalization with overlap
     ethr =  6.41E-06,  avg # of iterations = 11.5

     negative rho (up, down):  1.318E-02 0.000E+00
 
     Adding external electric field

     Computed dipole along edir(3) : 
        Dipole                0.3349 Ry au,          0.8512 Debye
        Dipole field          0.0006 Ry au, 
 
        Potential amp.       -0.0586 Ry
        Total length         46.3494 bohr
 

     total cpu time spent up to now is     1011.5 secs

     total energy              =   -2929.93720034 Ry
     estimated scf accuracy    <       0.02441981 Ry

     iteration # 67     ecut=    29.40 Ry     beta= 0.05
     Davidson diagonalization with overlap
     c_bands:  1 eigenvalues not converged
     c_bands:  1 eigenvalues not converged
     c_bands:  1 eigenvalues not converged
     c_bands:  1 eigenvalues not converged
     ethr =  6.26E-06,  avg # of iterations = 18.4

     negative rho (up, down):  1.224E-02 0.000E+00
 
     Adding external electric field

     Computed dipole along edir(3) : 
        Dipole                0.2992 Ry au,          0.7605 Debye
        Dipole field          0.0006 Ry au, 
 
        Potential amp.       -0.0523 Ry
        Total length         46.3494 bohr
 

     total cpu time spent up to now is     1033.9 secs

     total energy              =   -2929.94324538 Ry
     estimated scf accuracy    <       0.02002993 Ry

     iteration # 68     ecut=    29.40 Ry     beta= 0.05
     Davidson diagonalization with overlap
     c_bands:  1 eigenvalues not converged
     ethr =  5.14E-06,  avg # of iterations =  3.5

     negative rho (up, down):  1.272E-02 0.000E+00
 
     Adding external electric field

     Computed dipole along edir(3) : 
        Dipole                0.3193 Ry au,          0.8117 Debye
        Dipole field          0.0006 Ry au, 
 
        Potential amp.       -0.0559 Ry
        Total length         46.3494 bohr
 

     total cpu time spent up to now is     1044.9 secs

     total energy              =   -2929.94447579 Ry
     estimated scf accuracy    <       0.03343854 Ry

     iteration # 69     ecut=    29.40 Ry     beta= 0.05
     Davidson diagonalization with overlap
     ethr =  5.14E-06,  avg # of iterations =  2.2

     negative rho (up, down):  1.270E-02 0.000E+00
 
     Adding external electric field

     Computed dipole along edir(3) : 
        Dipole                0.3231 Ry au,          0.8212 Debye
        Dipole field          0.0006 Ry au, 
 
        Potential amp.       -0.0565 Ry
        Total length         46.3494 bohr
 

     total cpu time spent up to now is     1057.1 secs

     total energy              =   -2929.94418532 Ry
     estimated scf accuracy    <       0.03922003 Ry

     iteration # 70     ecut=    29.40 Ry     beta= 0.05
     Davidson diagonalization with overlap
     ethr =  5.14E-06,  avg # of iterations =  1.1

     negative rho (up, down):  1.300E-02 0.000E+00
 
     Adding external electric field

     Computed dipole along edir(3) : 
        Dipole                0.3255 Ry au,          0.8273 Debye
        Dipole field          0.0006 Ry au, 
 
        Potential amp.       -0.0569 Ry
        Total length         46.3494 bohr
 

     total cpu time spent up to now is     1067.1 secs

     total energy              =   -2929.94526404 Ry
     estimated scf accuracy    <       0.03484027 Ry

     iteration # 71     ecut=    29.40 Ry     beta= 0.05
     Davidson diagonalization with overlap
     ethr =  5.14E-06,  avg # of iterations =  1.0

     negative rho (up, down):  1.352E-02 0.000E+00
 
     Adding external electric field

     Computed dipole along edir(3) : 
        Dipole                0.3301 Ry au,          0.8389 Debye
        Dipole field          0.0006 Ry au, 
 
        Potential amp.       -0.0577 Ry
        Total length         46.3494 bohr
 

     total cpu time spent up to now is     1077.1 secs

     total energy              =   -2929.94445675 Ry
     estimated scf accuracy    <       0.04419118 Ry

     iteration # 72     ecut=    29.40 Ry     beta= 0.05
     Davidson diagonalization with overlap
     ethr =  5.14E-06,  avg # of iterations =  1.0

     negative rho (up, down):  1.296E-02 0.000E+00
 
     Adding external electric field

     Computed dipole along edir(3) : 
        Dipole                0.3152 Ry au,          0.8010 Debye
        Dipole field          0.0006 Ry au, 
 
        Potential amp.       -0.0551 Ry
        Total length         46.3494 bohr
 

     total cpu time spent up to now is     1087.1 secs

     total energy              =   -2929.94293099 Ry
     estimated scf accuracy    <       0.03682225 Ry

     iteration # 73     ecut=    29.40 Ry     beta= 0.05
     Davidson diagonalization with overlap
     ethr =  5.14E-06,  avg # of iterations =  1.3

     negative rho (up, down):  1.273E-02 0.000E+00
 
     Adding external electric field

     Computed dipole along edir(3) : 
        Dipole                0.3095 Ry au,          0.7867 Debye
        Dipole field          0.0006 Ry au, 
 
        Potential amp.       -0.0541 Ry
        Total length         46.3494 bohr
 

     total cpu time spent up to now is     1097.2 secs

     total energy              =   -2929.94205596 Ry
     estimated scf accuracy    <       0.02475972 Ry

     iteration # 74     ecut=    29.40 Ry     beta= 0.05
     Davidson diagonalization with overlap
     ethr =  5.14E-06,  avg # of iterations =  1.4

     negative rho (up, down):  1.271E-02 0.000E+00
 
     Adding external electric field

     Computed dipole along edir(3) : 
        Dipole                0.3049 Ry au,          0.7750 Debye
        Dipole field          0.0006 Ry au, 
 
        Potential amp.       -0.0533 Ry
        Total length         46.3494 bohr
 

     total cpu time spent up to now is     1107.5 secs

     total energy              =   -2929.94130562 Ry
     estimated scf accuracy    <       0.01830495 Ry

     iteration # 75     ecut=    29.40 Ry     beta= 0.05
     Davidson diagonalization with overlap
     ethr =  4.69E-06,  avg # of iterations =  5.2

     negative rho (up, down):  1.306E-02 0.000E+00
 
     Adding external electric field

     Computed dipole along edir(3) : 
        Dipole                0.3549 Ry au,          0.9021 Debye
        Dipole field          0.0007 Ry au, 
 
        Potential amp.       -0.0621 Ry
        Total length         46.3494 bohr
 

     total cpu time spent up to now is     1119.1 secs

     total energy              =   -2929.93924526 Ry
     estimated scf accuracy    <       0.01188496 Ry

     iteration # 76     ecut=    29.40 Ry     beta= 0.05
     Davidson diagonalization with overlap
     c_bands:  1 eigenvalues not converged
     c_bands:  1 eigenvalues not converged
     c_bands:  1 eigenvalues not converged
     ethr =  3.05E-06,  avg # of iterations = 15.3

     negative rho (up, down):  1.344E-02 0.000E+00
 
     Adding external electric field

     Computed dipole along edir(3) : 
        Dipole                0.3515 Ry au,          0.8935 Debye
        Dipole field          0.0007 Ry au, 
 
        Potential amp.       -0.0615 Ry
        Total length         46.3494 bohr
 

     total cpu time spent up to now is     1136.7 secs

     total energy              =   -2929.94056630 Ry
     estimated scf accuracy    <       0.00242965 Ry

     iteration # 77     ecut=    29.40 Ry     beta= 0.05
     Davidson diagonalization with overlap
     c_bands:  1 eigenvalues not converged
     c_bands:  1 eigenvalues not converged
     c_bands:  1 eigenvalues not converged
     ethr =  6.23E-07,  avg # of iterations = 16.3

     negative rho (up, down):  1.523E-02 0.000E+00
 
     Adding external electric field

     Computed dipole along edir(3) : 
        Dipole                0.3882 Ry au,          0.9866 Debye
        Dipole field          0.0007 Ry au, 
 
        Potential amp.       -0.0679 Ry
        Total length         46.3494 bohr
 

     total cpu time spent up to now is     1156.6 secs

     total energy              =   -2929.94084542 Ry
     estimated scf accuracy    <       0.00319010 Ry

     iteration # 78     ecut=    29.40 Ry     beta= 0.05
     Davidson diagonalization with overlap
     c_bands:  2 eigenvalues not converged
     ethr =  6.23E-07,  avg # of iterations = 16.6

     negative rho (up, down):  1.528E-02 0.000E+00
 
     Adding external electric field

     Computed dipole along edir(3) : 
        Dipole                0.3862 Ry au,          0.9816 Debye
        Dipole field          0.0007 Ry au, 
 
        Potential amp.       -0.0676 Ry
        Total length         46.3494 bohr
 

     total cpu time spent up to now is     1174.1 secs

     total energy              =   -2929.94106667 Ry
     estimated scf accuracy    <       0.00112027 Ry

     iteration # 79     ecut=    29.40 Ry     beta= 0.05
     Davidson diagonalization with overlap
     c_bands:  2 eigenvalues not converged
     ethr =  2.87E-07,  avg # of iterations =  3.7

     negative rho (up, down):  1.501E-02 0.000E+00
 
     Adding external electric field

     Computed dipole along edir(3) : 
        Dipole                0.3861 Ry au,          0.9814 Debye
        Dipole field          0.0007 Ry au, 
 
        Potential amp.       -0.0675 Ry
        Total length         46.3494 bohr
 

     total cpu time spent up to now is     1185.2 secs

     total energy              =   -2929.94096018 Ry
     estimated scf accuracy    <       0.00108534 Ry

     iteration # 80     ecut=    29.40 Ry     beta= 0.05
     Davidson diagonalization with overlap
     ethr =  2.78E-07,  avg # of iterations =  6.3

     negative rho (up, down):  1.483E-02 0.000E+00
 
     Adding external electric field

     Computed dipole along edir(3) : 
        Dipole                0.3807 Ry au,          0.9676 Debye
        Dipole field          0.0007 Ry au, 
 
        Potential amp.       -0.0666 Ry
        Total length         46.3494 bohr
 

     total cpu time spent up to now is     1197.7 secs

     total energy              =   -2929.94085845 Ry
     estimated scf accuracy    <       0.00085450 Ry

     iteration # 81     ecut=    29.40 Ry     beta= 0.05
     Davidson diagonalization with overlap
     ethr =  2.19E-07,  avg # of iterations = 10.0

     negative rho (up, down):  1.535E-02 0.000E+00
 
     Adding external electric field

     Computed dipole along edir(3) : 
        Dipole                0.3719 Ry au,          0.9454 Debye
        Dipole field          0.0007 Ry au, 
 
        Potential amp.       -0.0651 Ry
        Total length         46.3494 bohr
 

     total cpu time spent up to now is     1211.3 secs

     total energy              =   -2929.94076117 Ry
     estimated scf accuracy    <       0.00062215 Ry

     iteration # 82     ecut=    29.40 Ry     beta= 0.05
     Davidson diagonalization with overlap
     c_bands:  1 eigenvalues not converged
     c_bands:  1 eigenvalues not converged
     c_bands:  2 eigenvalues not converged
     c_bands:  1 eigenvalues not converged
     ethr =  1.60E-07,  avg # of iterations = 18.0

     negative rho (up, down):  1.587E-02 0.000E+00
 
     Adding external electric field

     Computed dipole along edir(3) : 
        Dipole                0.3863 Ry au,          0.9819 Debye
        Dipole field          0.0007 Ry au, 
 
        Potential amp.       -0.0676 Ry
        Total length         46.3494 bohr
 

     total cpu time spent up to now is     1235.5 secs

     total energy              =   -2929.94076352 Ry
     estimated scf accuracy    <       0.00148532 Ry

     iteration # 83     ecut=    29.40 Ry     beta= 0.05
     Davidson diagonalization with overlap
     ethr =  1.60E-07,  avg # of iterations = 13.6

     negative rho (up, down):  1.628E-02 0.000E+00
 
     Adding external electric field

     Computed dipole along edir(3) : 
        Dipole                0.3830 Ry au,          0.9735 Debye
        Dipole field          0.0007 Ry au, 
 
        Potential amp.       -0.0670 Ry
        Total length         46.3494 bohr
 

     total cpu time spent up to now is     1255.4 secs

     total energy              =   -2929.94092723 Ry
     estimated scf accuracy    <       0.00017206 Ry

     iteration # 84     ecut=    29.40 Ry     beta= 0.05
     Davidson diagonalization with overlap
     ethr =  4.41E-08,  avg # of iterations = 16.3

     negative rho (up, down):  1.640E-02 0.000E+00
 
     Adding external electric field

     Computed dipole along edir(3) : 
        Dipole                0.3827 Ry au,          0.9728 Debye
        Dipole field          0.0007 Ry au, 
 
        Potential amp.       -0.0669 Ry
        Total length         46.3494 bohr
 

     total cpu time spent up to now is     1275.6 secs

     total energy              =   -2929.94095231 Ry
     estimated scf accuracy    <       0.00013669 Ry

     iteration # 85     ecut=    29.40 Ry     beta= 0.05
     Davidson diagonalization with overlap
     ethr =  3.50E-08,  avg # of iterations =  6.4

     negative rho (up, down):  1.650E-02 0.000E+00
 
     Adding external electric field

     Computed dipole along edir(3) : 
        Dipole                0.3840 Ry au,          0.9761 Debye
        Dipole field          0.0007 Ry au, 
 
        Potential amp.       -0.0672 Ry
        Total length         46.3494 bohr
 

     total cpu time spent up to now is     1287.4 secs

     total energy              =   -2929.94095089 Ry
     estimated scf accuracy    <       0.00008684 Ry

     iteration # 86     ecut=    29.40 Ry     beta= 0.05
     Davidson diagonalization with overlap
     ethr =  2.23E-08,  avg # of iterations = 14.7

     negative rho (up, down):  1.663E-02 0.000E+00
 
     Adding external electric field

     Computed dipole along edir(3) : 
        Dipole                0.3841 Ry au,          0.9764 Debye
        Dipole field          0.0007 Ry au, 
 
        Potential amp.       -0.0672 Ry
        Total length         46.3494 bohr
 

     total cpu time spent up to now is     1306.9 secs

     total energy              =   -2929.94096234 Ry
     estimated scf accuracy    <       0.00004641 Ry

     iteration # 87     ecut=    29.40 Ry     beta= 0.05
     Davidson diagonalization with overlap
     ethr =  1.19E-08,  avg # of iterations = 12.3

     negative rho (up, down):  1.677E-02 0.000E+00
 
     Adding external electric field

     Computed dipole along edir(3) : 
        Dipole                0.3848 Ry au,          0.9781 Debye
        Dipole field          0.0007 Ry au, 
 
        Potential amp.       -0.0673 Ry
        Total length         46.3494 bohr
 

     total cpu time spent up to now is     1323.2 secs

     total energy              =   -2929.94097211 Ry
     estimated scf accuracy    <       0.00002042 Ry

     iteration # 88     ecut=    29.40 Ry     beta= 0.05
     Davidson diagonalization with overlap
     ethr =  5.24E-09,  avg # of iterations =  6.4

     negative rho (up, down):  1.679E-02 0.000E+00
 
     Adding external electric field

     Computed dipole along edir(3) : 
        Dipole                0.3858 Ry au,          0.9805 Debye
        Dipole field          0.0007 Ry au, 
 
        Potential amp.       -0.0675 Ry
        Total length         46.3494 bohr
 

     total cpu time spent up to now is     1336.2 secs

     total energy              =   -2929.94097430 Ry
     estimated scf accuracy    <       0.00001046 Ry

     iteration # 89     ecut=    29.40 Ry     beta= 0.05
     Davidson diagonalization with overlap
     ethr =  2.68E-09,  avg # of iterations = 16.5

     negative rho (up, down):  1.683E-02 0.000E+00
 
     Adding external electric field

     Computed dipole along edir(3) : 
        Dipole                0.3861 Ry au,          0.9813 Debye
        Dipole field          0.0007 Ry au, 
 
        Potential amp.       -0.0675 Ry
        Total length         46.3494 bohr
 

     total cpu time spent up to now is     1360.9 secs

     total energy              =   -2929.94097722 Ry
     estimated scf accuracy    <       0.00002258 Ry

     iteration # 90     ecut=    29.40 Ry     beta= 0.05
     Davidson diagonalization with overlap
     ethr =  2.68E-09,  avg # of iterations =  9.1

     negative rho (up, down):  1.675E-02 0.000E+00
 
     Adding external electric field

     Computed dipole along edir(3) : 
        Dipole                0.3855 Ry au,          0.9799 Debye
        Dipole field          0.0007 Ry au, 
 
        Potential amp.       -0.0674 Ry
        Total length         46.3494 bohr
 

     total cpu time spent up to now is     1373.6 secs

     total energy              =   -2929.94097477 Ry
     estimated scf accuracy    <       0.00001351 Ry

     iteration # 91     ecut=    29.40 Ry     beta= 0.05
     Davidson diagonalization with overlap
     ethr =  2.68E-09,  avg # of iterations = 13.5

     negative rho (up, down):  1.677E-02 0.000E+00
 
     Adding external electric field

     Computed dipole along edir(3) : 
        Dipole                0.3857 Ry au,          0.9804 Debye
        Dipole field          0.0007 Ry au, 
 
        Potential amp.       -0.0675 Ry
        Total length         46.3494 bohr
 

     total cpu time spent up to now is     1392.2 secs

     total energy              =   -2929.94097745 Ry
     estimated scf accuracy    <       0.00000395 Ry

     iteration # 92     ecut=    29.40 Ry     beta= 0.05
     Davidson diagonalization with overlap
     ethr =  1.01E-09,  avg # of iterations = 10.4

     negative rho (up, down):  1.679E-02 0.000E+00
 
     Adding external electric field

     Computed dipole along edir(3) : 
        Dipole                0.3857 Ry au,          0.9804 Debye
        Dipole field          0.0007 Ry au, 
 
        Potential amp.       -0.0675 Ry
        Total length         46.3494 bohr
 

     total cpu time spent up to now is     1410.7 secs

     total energy              =   -2929.94097865 Ry
     estimated scf accuracy    <       0.00000325 Ry

     iteration # 93     ecut=    29.40 Ry     beta= 0.05
     Davidson diagonalization with overlap
     ethr =  8.33E-10,  avg # of iterations = 10.6

     negative rho (up, down):  1.682E-02 0.000E+00
 
     Adding external electric field

     Computed dipole along edir(3) : 
        Dipole                0.3858 Ry au,          0.9806 Debye
        Dipole field          0.0007 Ry au, 
 
        Potential amp.       -0.0675 Ry
        Total length         46.3494 bohr
 

     total cpu time spent up to now is     1424.3 secs

     total energy              =   -2929.94097939 Ry
     estimated scf accuracy    <       0.00000155 Ry

     iteration # 94     ecut=    29.40 Ry     beta= 0.05
     Davidson diagonalization with overlap
     ethr =  3.97E-10,  avg # of iterations = 10.7

     negative rho (up, down):  1.682E-02 0.000E+00
 
     Adding external electric field

     Computed dipole along edir(3) : 
        Dipole                0.3860 Ry au,          0.9810 Debye
        Dipole field          0.0007 Ry au, 
 
        Potential amp.       -0.0675 Ry
        Total length         46.3494 bohr
 

     total cpu time spent up to now is     1439.9 secs

     total energy              =   -2929.94097978 Ry
     estimated scf accuracy    <       0.00000131 Ry

     iteration # 95     ecut=    29.40 Ry     beta= 0.05
     Davidson diagonalization with overlap
     ethr =  3.36E-10,  avg # of iterations =  5.4

     negative rho (up, down):  1.682E-02 0.000E+00
 
     Adding external electric field

     Computed dipole along edir(3) : 
        Dipole                0.3861 Ry au,          0.9814 Debye
        Dipole field          0.0007 Ry au, 
 
        Potential amp.       -0.0675 Ry
        Total length         46.3494 bohr
 

     total cpu time spent up to now is     1451.7 secs

     total energy              =   -2929.94098006 Ry
     estimated scf accuracy    <       0.00000075 Ry

     iteration # 96     ecut=    29.40 Ry     beta= 0.05
     Davidson diagonalization with overlap
     c_bands:  1 eigenvalues not converged
     ethr =  1.92E-10,  avg # of iterations = 16.5

     negative rho (up, down):  1.683E-02 0.000E+00
 
     Adding external electric field

     Computed dipole along edir(3) : 
        Dipole                0.3860 Ry au,          0.9811 Debye
        Dipole field          0.0007 Ry au, 
 
        Potential amp.       -0.0675 Ry
[...]
    -2.7392  -2.6908  -2.6800  -2.6507  -2.6174  -2.6035  -2.4451  -2.4181
    -2.3663  -2.3634  -2.2995  -2.2846  -2.2811  -2.2343  -2.1692  -2.1604
    -2.0987  -2.0860  -1.9904  -1.9571  -1.8581  -1.8066  -1.7880  -1.6999
    -1.6304  -1.5386  -1.5319  -1.5120  -1.4694  -1.4571  -1.3974  -1.3602
    -1.3573  -1.1416  -1.0857  -1.0125  -0.9535  -0.9187  -0.9122  -0.8828
    -0.8441  -0.7231  -0.6883  -0.6382  -0.6203  -0.6035  -0.5315  -0.5050
    -0.4514  -0.3792  -0.3712  -0.3573  -0.3042  -0.2800  -0.2381  -0.2131
    -0.1664  -0.0996  -0.0464  -0.0098   0.0095   0.0269   0.1409   0.1494
     0.3021   0.4126   0.5866   0.7811   0.8442   0.9600   1.0746   1.2926
     1.4187   1.5041   3.0974   3.1694   3.3106   3.3976   3.4057   3.4624
     3.5116   3.5441   3.5593   3.5922   3.6183

          k = 0.0380 0.0419 0.0000 ( 17878 PWs)   bands (ev):

   -56.0125 -55.9870 -55.9756 -55.9514 -55.9075 -55.8945 -55.8617 -55.8605
   -55.8495 -55.8252 -55.8100 -55.8066 -55.7946 -55.7706 -55.0727 -55.0486
   -32.5298 -32.4800 -32.4251 -32.3352 -32.3225 -32.2813 -32.2754 -32.2713
   -32.2685 -32.2639 -32.2449 -32.2175 -32.2062 -32.2005 -32.1920 -32.1733
   -32.1560 -32.1533 -32.1411 -32.1327 -32.1273 -32.1170 -32.1115 -32.1075
   -32.1007 -32.0865 -32.0864 -32.0537 -32.0509 -32.0441 -32.0333 -32.0268
   -32.0257 -32.0181 -31.9954 -31.9916 -31.9880 -31.9879 -31.9749 -31.9677
   -31.9429 -31.9277 -31.4357 -31.3867 -31.3674 -31.2937 -31.2327 -31.1661
   -21.6110 -16.6566 -16.4436 -16.3784 -16.1938 -16.0864 -16.0328 -16.0115
   -15.9329 -15.9153 -15.8314 -15.7817 -15.7504 -15.7092 -15.6940 -15.6762
   -15.6497 -15.6344 -15.5885 -15.5509 -15.5437 -15.4953 -15.4423 -15.4083
   -15.3775 -15.3638 -15.3213 -15.3008 -15.2741 -14.9223 -13.5787 -13.4981
   -10.7129  -5.9961  -4.9963  -4.3064  -3.8853  -3.7717  -3.6299  -3.5230
    -3.5086  -3.4870  -3.4106  -3.3724  -3.3413  -3.2768  -3.2140  -3.1524
    -3.1045  -3.0671  -3.0569  -3.0231  -2.9751  -2.9497  -2.8973  -2.8594
    -2.8526  -2.8180  -2.7983  -2.7444  -2.7097  -2.6933  -2.6334  -2.5841
    -2.5611  -2.4674  -2.4444  -2.4218  -2.3634  -2.3137  -2.2406  -2.0977
    -2.0362  -2.0273  -1.9530  -1.8947  -1.8366  -1.7453  -1.6911  -1.6007
    -1.5330  -1.5078  -1.4504  -1.4262  -1.4075  -1.3768  -1.3049  -1.2673
    -1.2077  -1.1488  -1.1345  -1.0953  -1.0220  -0.9726  -0.9419  -0.9181
    -0.8561  -0.7939  -0.7798  -0.7354  -0.7256  -0.6816  -0.6613  -0.6483
    -0.6078  -0.5626  -0.4777  -0.4695  -0.4176  -0.3853  -0.3008  -0.2722
    -0.1971  -0.1328  -0.0324   0.0018   0.0691   0.1048   0.1307   0.2111
     0.2917   0.3417   0.4031   0.4980   0.7448   1.1407   1.2009   1.2935
     1.4086   1.4789   3.2531   3.2842   3.3021   3.4185   3.4619   3.4859
     3.5242   3.5635   3.6018   3.6378   3.6505

          k = 0.0380-0.0839 0.0000 ( 17916 PWs)   bands (ev):

   -56.0009 -55.9986 -55.9648 -55.9622 -55.9061 -55.8893 -55.8666 -55.8575
   -55.8392 -55.8355 -55.8136 -55.8080 -55.7832 -55.7821 -55.0607 -55.0607
   -32.4399 -32.3913 -32.3885 -32.3065 -32.2935 -32.2911 -32.2729 -32.2578
   -32.2527 -32.2199 -32.2188 -32.2090 -32.2071 -32.1640 -32.1627 -32.1593
   -32.1533 -32.1522 -32.1491 -32.1476 -32.1441 -32.1303 -32.1217 -32.0992
   -32.0982 -32.0930 -32.0917 -32.0882 -32.0850 -32.0832 -32.0719 -32.0620
   -32.0616 -32.0476 -32.0415 -32.0298 -31.9906 -31.9903 -31.9875 -31.9725
   -31.9686 -31.9678 -31.3770 -31.3770 -31.3029 -31.3028 -31.2633 -31.2633
   -21.6106 -16.4995 -16.3078 -16.2154 -16.1250 -16.0932 -15.9795 -15.9592
   -15.8979 -15.8936 -15.8805 -15.8405 -15.7692 -15.7252 -15.6781 -15.6738
   -15.6072 -15.6034 -15.5867 -15.5758 -15.5097 -15.5053 -15.4968 -15.4840
   -15.4144 -15.4132 -15.3809 -15.3787 -15.3071 -15.1670 -13.5605 -13.5600
   -10.7127  -5.9989  -4.9948  -4.2901  -3.5392  -3.5373  -3.4521  -3.3100
    -3.2860  -3.2735  -3.2217  -3.2068  -3.1642  -3.1363  -3.1297  -3.1244
    -3.1167  -3.1117  -3.0659  -3.0569  -3.0253  -3.0048  -2.9707  -2.9262
    -2.9176  -2.8945  -2.8772  -2.8516  -2.8262  -2.7220  -2.7158  -2.6610
    -2.6539  -2.5710  -2.4783  -2.2850  -2.2483  -2.1915  -2.1207  -2.0345
    -2.0297  -2.0034  -1.9946  -1.9337  -1.8788  -1.8011  -1.7894  -1.7181
    -1.6975  -1.6933  -1.6420  -1.6332  -1.5015  -1.4027  -1.3645  -1.3584
    -1.2939  -1.2854  -1.0947  -1.0766  -1.0475  -0.9859  -0.9520  -0.8910
    -0.8398  -0.8326  -0.8299  -0.8096  -0.7289  -0.6840  -0.6691  -0.6437
    -0.6012  -0.5790  -0.5263  -0.5036  -0.4682  -0.3182  -0.2986  -0.2976
    -0.2045  -0.1291  -0.0736   0.0008   0.0112   0.0715   0.1035   0.1886
     0.1930   0.3022   0.3405   0.5194   0.5386   1.2807   1.2818   1.2877
     1.4162   1.4172   3.2780   3.3106   3.3555   3.4062   3.4616   3.4860
     3.5245   3.5460   3.6623   3.6751   3.7294

          k = 0.0380-0.0419 0.0000 ( 17876 PWs)   bands (ev):

   -56.0125 -55.9870 -55.9756 -55.9514 -55.9075 -55.8945 -55.8617 -55.8605
   -55.8495 -55.8252 -55.8099 -55.8066 -55.7946 -55.7706 -55.0727 -55.0486
   -32.5298 -32.4800 -32.4251 -32.3352 -32.3225 -32.2813 -32.2754 -32.2713
   -32.2685 -32.2639 -32.2449 -32.2175 -32.2062 -32.2005 -32.1920 -32.1733
   -32.1560 -32.1532 -32.1411 -32.1319 -32.1279 -32.1170 -32.1115 -32.1075
   -32.1007 -32.0865 -32.0864 -32.0536 -32.0509 -32.0449 -32.0333 -32.0262
   -32.0257 -32.0178 -31.9953 -31.9918 -31.9878 -31.9872 -31.9755 -31.9678
   -31.9429 -31.9277 -31.4356 -31.3867 -31.3674 -31.2937 -31.2327 -31.1661
   -21.6110 -16.6568 -16.4436 -16.3782 -16.1934 -16.0859 -16.0329 -16.0114
   -15.9332 -15.9153 -15.8313 -15.7826 -15.7508 -15.7096 -15.6943 -15.6763
   -15.6493 -15.6343 -15.5876 -15.5511 -15.5434 -15.4951 -15.4423 -15.4087
   -15.3775 -15.3631 -15.3212 -15.3011 -15.2743 -14.9221 -13.5787 -13.4981
   -10.7128  -5.9959  -4.9969  -4.3086  -3.8852  -3.7719  -3.6297  -3.5228
    -3.5079  -3.4864  -3.4102  -3.3719  -3.3412  -3.2771  -3.2136  -3.1515
    -3.1046  -3.0665  -3.0568  -3.0232  -2.9759  -2.9502  -2.8961  -2.8602
    -2.8525  -2.8182  -2.7963  -2.7450  -2.7093  -2.6929  -2.6332  -2.5841
    -2.5613  -2.4721  -2.4476  -2.4211  -2.3588  -2.3165  -2.2404  -2.0970
    -2.0330  -2.0281  -1.9523  -1.8957  -1.8381  -1.7453  -1.6901  -1.6007
    -1.5326  -1.5049  -1.4512  -1.4272  -1.4041  -1.3764  -1.3038  -1.2677
    -1.2091  -1.1478  -1.1356  -1.0945  -1.0222  -0.9733  -0.9441  -0.9178
    -0.8563  -0.7960  -0.7842  -0.7407  -0.7269  -0.6806  -0.6620  -0.6464
    -0.6062  -0.5624  -0.4790  -0.4642  -0.4167  -0.3824  -0.3000  -0.2722
    -0.1968  -0.1335  -0.0317  -0.0010   0.0716   0.1053   0.1315   0.2103
     0.2880   0.3413   0.4053   0.4980   0.7451   1.1407   1.2010   1.2937
     1.4084   1.4796   3.2528   3.2843   3.3018   3.4205   3.4665   3.4875
     3.5201   3.5580   3.5984   3.6324   3.6489

          k =-0.0760-0.0000 0.0000 ( 17886 PWs)   bands (ev):

   -56.0177 -55.9817 -55.9806 -55.9464 -55.9088 -55.8985 -55.8642 -55.8572
   -55.8543 -55.8202 -55.8066 -55.8055 -55.7996 -55.7656 -55.0777 -55.0436
   -32.5873 -32.5155 -32.4803 -32.3939 -32.3381 -32.3333 -32.3265 -32.3112
   -32.2696 -32.2634 -32.2246 -32.2160 -32.1924 -32.1878 -32.1821 -32.1707
   -32.1449 -32.1411 -32.1271 -32.1245 -32.1189 -32.1126 -32.1111 -32.1072
   -32.0987 -32.0832 -32.0829 -32.0644 -32.0374 -32.0357 -32.0238 -32.0134
   -32.0035 -31.9986 -31.9982 -31.9937 -31.9781 -31.9526 -31.9357 -31.9337
   -31.9134 -31.8839 -31.4892 -31.3946 -31.3621 -31.3062 -31.2199 -31.1089
   -21.6113 -16.6256 -16.5744 -16.3820 -16.2259 -16.1059 -16.0699 -16.0504
   -15.9496 -15.8875 -15.8633 -15.8417 -15.8335 -15.8097 -15.7974 -15.7720
   -15.7317 -15.6262 -15.5466 -15.5167 -15.4723 -15.4375 -15.4149 -15.4121
   -15.3304 -15.3257 -15.2843 -15.1895 -15.1688 -14.7863 -13.5719 -13.4585
   -10.7152  -5.9901  -4.9870  -4.3359  -4.0263  -3.9054  -3.6562  -3.5594
    -3.5110  -3.5047  -3.5015  -3.4793  -3.4417  -3.4178  -3.3179  -3.3157
    -3.2952  -3.1534  -2.9585  -2.9568  -2.9337  -2.7521  -2.6873  -2.6563
    -2.6419  -2.6353  -2.6149  -2.6110  -2.5379  -2.5280  -2.4648  -2.4124
    -2.3862  -2.3631  -2.3603  -2.3566  -2.3121  -2.2578  -2.1919  -2.1635
    -2.0853  -1.9947  -1.9300  -1.8430  -1.7776  -1.7630  -1.7233  -1.7197
    -1.6476  -1.6281  -1.5972  -1.5490  -1.5131  -1.4926  -1.4846  -1.3736
    -1.3615  -1.3159  -1.3027  -1.2619  -1.0065  -0.9984  -0.9547  -0.9080
    -0.8659  -0.7997  -0.7656  -0.7279  -0.6654  -0.6427  -0.5596  -0.5303
    -0.5257  -0.5107  -0.4398  -0.3997  -0.3626  -0.3372  -0.3230  -0.2731
    -0.2486  -0.2023  -0.1477  -0.0412  -0.0086   0.0068   0.1235   0.2393
     0.2631   0.4321   0.5236   0.6003   0.8480   0.9821   1.0483   1.2830
     1.2996   1.4462   3.0983   3.1348   3.2194   3.3673   3.3747   3.4349
     3.5368   3.5591   3.5700   3.6057   3.6584

          k =-0.0760 0.0419 0.0000 ( 17914 PWs)   bands (ev):

   -56.0124 -55.9870 -55.9756 -55.9514 -55.9074 -55.8945 -55.8618 -55.8606
   -55.8494 -55.8252 -55.8097 -55.8069 -55.7947 -55.7706 -55.0727 -55.0487
   -32.5302 -32.4802 -32.4262 -32.3413 -32.3226 -32.2854 -32.2786 -32.2718
   -32.2691 -32.2640 -32.2449 -32.2178 -32.2059 -32.1922 -32.1832 -32.1728
   -32.1563 -32.1441 -32.1410 -32.1313 -32.1145 -32.1116 -32.1074 -32.1060
   -32.1057 -32.0865 -32.0713 -32.0660 -32.0528 -32.0507 -32.0445 -32.0365
   -32.0165 -32.0072 -32.0015 -31.9962 -31.9946 -31.9870 -31.9837 -31.9684
   -31.9430 -31.9276 -31.4354 -31.3899 -31.3667 -31.2937 -31.2327 -31.1661
   -21.6109 -16.5192 -16.5089 -16.2885 -16.1383 -16.0342 -16.0014 -15.9852
   -15.9314 -15.8686 -15.8140 -15.8115 -15.8041 -15.7871 -15.7683 -15.7554
   -15.7163 -15.6347 -15.5699 -15.5654 -15.5535 -15.4800 -15.4668 -15.4179
   -15.3794 -15.3781 -15.3749 -15.2958 -15.2667 -14.9218 -13.5765 -13.4984
   -10.7148  -5.9947  -4.9869  -4.3049  -3.8611  -3.7564  -3.4398  -3.4012
    -3.3541  -3.3015  -3.2824  -3.2411  -3.2370  -3.2141  -3.1507  -3.1121
    -3.0959  -3.0390  -3.0209  -3.0030  -2.9726  -2.9309  -2.8912  -2.8246
    -2.8094  -2.7492  -2.7163  -2.6204  -2.5961  -2.5914  -2.5614  -2.5507
    -2.5306  -2.5236  -2.5034  -2.3692  -2.2566  -2.2256  -2.2198  -2.1882
    -2.0995  -2.0310  -1.8377  -1.8288  -1.7996  -1.7853  -1.7159  -1.6456
    -1.6153  -1.5971  -1.5342  -1.4903  -1.4280  -1.4233  -1.3938  -1.3474
    -1.3033  -1.2912  -1.2823  -1.2681  -1.2234  -1.1877  -1.1208  -1.1018
    -1.0106  -0.9717  -0.9161  -0.8637  -0.8175  -0.8045  -0.7812  -0.7278
    -0.7010  -0.5917  -0.5346  -0.5117  -0.4613  -0.3506  -0.2898  -0.2867
    -0.2425  -0.1321  -0.0338   0.0133   0.0941   0.2086   0.2216   0.2414
     0.3413   0.3631   0.4234   0.4542   0.5883   1.1553   1.2032   1.3002
     1.3306   1.4666   3.2541   3.2814   3.2912   3.3072   3.3977   3.4456
     3.4638   3.5210   3.5860   3.6246   3.6946

          k =-0.0760-0.0839 0.0000 ( 17948 PWs)   bands (ev):

   -56.0009 -55.9986 -55.9649 -55.9622 -55.9060 -55.8893 -55.8666 -55.8575
   -55.8392 -55.8355 -55.8133 -55.8084 -55.7832 -55.7821 -55.0607 -55.0607
   -32.4401 -32.3917 -32.3888 -32.3066 -32.2944 -32.2920 -32.2731 -32.2579
   -32.2528 -32.2280 -32.2189 -32.2160 -32.2085 -32.1668 -32.1563 -32.1554
   -32.1539 -32.1496 -32.1450 -32.1424 -32.1373 -32.1301 -32.1105 -32.0993
   -32.0990 -32.0973 -32.0931 -32.0894 -32.0852 -32.0835 -32.0817 -32.0578
   -32.0376 -32.0373 -32.0360 -32.0192 -32.0104 -32.0093 -31.9997 -31.9774
   -31.9687 -31.9678 -31.3782 -31.3781 -31.3029 -31.3028 -31.2633 -31.2633
   -21.6106 -16.4702 -16.2548 -16.1923 -16.0380 -16.0331 -16.0027 -15.9749
   -15.8456 -15.8229 -15.8092 -15.7891 -15.7648 -15.7477 -15.7401 -15.7253
   -15.6197 -15.6125 -15.6017 -15.5957 -15.5365 -15.5330 -15.5230 -15.5100
   -15.4772 -15.4745 -15.4474 -15.4440 -15.2969 -15.1593 -13.5603 -13.5598
   -10.7142  -5.9991  -4.9867  -4.2851  -3.5314  -3.5298  -3.4512  -3.2573
    -3.2192  -3.1853  -3.1733  -3.0978  -3.0223  -3.0146  -3.0077  -2.9256
    -2.9191  -2.9161  -2.9138  -2.8518  -2.8452  -2.8081  -2.8035  -2.7535
    -2.7232  -2.7182  -2.7091  -2.6857  -2.6828  -2.6672  -2.6490  -2.6289
    -2.6164  -2.5334  -2.4885  -2.3883  -2.3568  -2.3258  -2.2494  -2.2404
    -2.1566  -2.1271  -2.1067  -2.0687  -2.0236  -2.0070  -1.8477  -1.8147
    -1.8100  -1.7472  -1.6775  -1.6530  -1.6219  -1.5664  -1.5030  -1.4942
    -1.4049  -1.3491  -1.3460  -1.2213  -1.2109  -1.1588  -1.0527  -1.0207
    -1.0121  -1.0084  -0.9996  -0.9366  -0.9258  -0.8610  -0.8111  -0.7634
    -0.7457  -0.7331  -0.5377  -0.4962  -0.4418  -0.3413  -0.3012  -0.1096
    -0.0954  -0.0809   0.0025   0.0400   0.0553   0.1284   0.2482   0.2528
     0.3048   0.3609   0.4033   0.4105   0.4276   1.2945   1.2990   1.2999
     1.4040   1.4060   3.2382   3.2959   3.3235   3.4012   3.4761   3.4998
     3.5873   3.6055   3.6334   3.6383   3.7365

     the Fermi energy is     3.1378 ev

!    total energy              =   -2929.94098268 Ry
     estimated scf accuracy    <       0.00000005 Ry
     smearing contrib. (-TS)   =      -0.03724098 Ry
     internal energy E=F+TS    =   -2929.90374170 Ry

     The total energy is F=E-TS. E is the sum of the following terms:
     one-electron contribution =  -24334.56225249 Ry
     hartree contribution      =   12249.88809026 Ry
     xc contribution           =    -481.17341357 Ry
     ewald contribution        =    9635.94355415 Ry
     electric field correction =       0.00027994 Ry

     convergence has been achieved in 102 iterations

     Forces acting on atoms (cartesian axes, Ry/au):

     atom    1 type  1   force =    -0.00041042   -0.00001721    0.09181391
     atom    2 type  1   force =    -0.00028700    0.00032280   -0.18374697
     atom    3 type  2   force =     0.00041034    0.00008356   -0.02349665
     atom    4 type  2   force =     0.00072391    0.00037585    0.05121099
     atom    5 type  2   force =    -0.01350598    0.00018888    0.00468635
     atom    6 type  2   force =     0.01515136   -0.00002557    0.00541226
     atom    7 type  1   force =    -0.00053632    0.00016000   -0.00021566
     atom    8 type  1   force =     0.00025456    0.00019484    0.00007226
     atom    9 type  2   force =     0.00004486   -0.00004359   -0.00014774
     atom   10 type  2   force =    -0.00021235    0.00004906    0.00040209
     atom   11 type  2   force =     0.00004802   -0.00014490   -0.00013446
     atom   12 type  2   force =     0.00010539   -0.00001517   -0.00007974
     atom   13 type  1   force =    -0.00023488    0.00083625   -0.00046302
     atom   14 type  1   force =     0.00015916    0.00000473    0.00014538
     atom   15 type  2   force =     0.00000912    0.00033729    0.00037626
     atom   16 type  2   force =    -0.00000800    0.00008856    0.00057055
     atom   17 type  2   force =    -0.00027927   -0.00029873    0.00005020
     atom   18 type  2   force =    -0.00032341   -0.00035289    0.00032739
     atom   19 type  1   force =    -0.00003461    0.00011202    0.00026934
     atom   20 type  1   force =    -0.00041867    0.00031172    0.00015842
     atom   21 type  2   force =    -0.00007983    0.00001197    0.10506836
     atom   22 type  2   force =    -0.00005299   -0.00036703   -0.00006904
     atom   23 type  2   force =    -0.06789999   -0.00014420   -0.02654360
     atom   24 type  2   force =     0.06761893    0.00029819   -0.02662635
     atom   25 type  1   force =    -0.00034515   -0.00000521    0.09416883
     atom   26 type  1   force =    -0.00028919   -0.00041517   -0.18376051
     atom   27 type  2   force =     0.00036009    0.00013520   -0.02227979
     atom   28 type  2   force =     0.00077635    0.00030443    0.05092861
     atom   29 type  2   force =    -0.01349470    0.00044288    0.00481353
     atom   30 type  2   force =     0.01515976    0.00023439    0.00551679
     atom   31 type  1   force =    -0.00061030   -0.00030197   -0.00029223
     atom   32 type  1   force =     0.00026227   -0.00007756    0.00004281
     atom   33 type  2   force =     0.00000583    0.00003131   -0.00003973
     atom   34 type  2   force =    -0.00007128   -0.00005810    0.00010220
     atom   35 type  2   force =     0.00009236    0.00007989    0.00010889
     atom   36 type  2   force =     0.00005411   -0.00005801    0.00014246
     atom   37 type  1   force =    -0.00024469   -0.00076176   -0.00022235
     atom   38 type  1   force =     0.00021075    0.00007654    0.00068491
     atom   39 type  2   force =    -0.00005793   -0.00065040    0.00050604
     atom   40 type  2   force =    -0.00037832   -0.00017454   -0.00014340
     atom   41 type  2   force =    -0.00016568    0.00014076   -0.00019270
     atom   42 type  2   force =    -0.00036225    0.00001246    0.00018270
     atom   43 type  1   force =     0.00017907   -0.00018469   -0.00035548
     atom   44 type  1   force =    -0.00048243   -0.00014003    0.00002197
     atom   45 type  2   force =    -0.00004589    0.00002267    0.10505148
     atom   46 type  2   force =    -0.06790723   -0.00050946   -0.02656174
     atom   47 type  2   force =     0.06762790   -0.00006252   -0.02664207
     atom   48 type  3   force =    -0.00802064   -0.00074175   -0.00215339
     atom   49 type  2   force =    -0.00261800   -0.00014416   -0.00097552
     atom   50 type  4   force =     0.00926849    0.00084842    0.00162179
     atom   51 type  4   force =     0.00085476   -0.00001009    0.00068540

     Total force =     0.368064     Total SCF correction =     0.000509
  @ DRIVER MODE: Message from server: STATUS
  @ DRIVER MODE: Message from server: GETFORCE
  @ DRIVER MODE: Returning v,forces,stress,ensemble 

     Writing output data file ./calc.save/
  @ DRIVER MODE: Message from server: EXIT
  @ DRIVE MODE: Exiting  
 
     init_run     :     10.55s CPU     10.75s WALL (       1 calls)
     electrons    :   1527.55s CPU   1556.58s WALL (       1 calls)
     forces       :      2.24s CPU      2.32s WALL (       1 calls)

     Called by init_run:
     wfcinit      :      4.70s CPU      4.76s WALL (       1 calls)
     potinit      :      5.29s CPU      5.34s WALL (       1 calls)
     hinit0       :      0.24s CPU      0.25s WALL (       1 calls)

     Called by electrons:
     c_bands      :   1286.31s CPU   1300.28s WALL (     102 calls)
     sum_band     :    165.34s CPU    171.75s WALL (     102 calls)
     v_of_rho     :     55.18s CPU     58.31s WALL (     103 calls)
     newd         :     21.08s CPU     26.18s WALL (     103 calls)
     mix_rho      :      3.64s CPU      3.95s WALL (     102 calls)
     vdW_kernel   :      4.57s CPU      4.58s WALL (       1 calls)

     Called by c_bands:
     init_us_2    :      8.45s CPU      8.51s WALL (    2060 calls)
     cegterg      :   1258.71s CPU   1272.00s WALL (    1026 calls)

     Called by *egterg:
     cdiaghg      :    230.99s CPU    232.62s WALL (    9824 calls)
     h_psi        :    666.57s CPU    675.92s WALL (    9834 calls)
     s_psi        :     84.90s CPU     85.32s WALL (    9834 calls)
     g_psi        :      2.11s CPU      2.13s WALL (    8798 calls)

     Called by h_psi:
     h_psi:calbec :     83.64s CPU     84.25s WALL (    9834 calls)
     vloc_psi     :    494.03s CPU    501.85s WALL (    9834 calls)
     add_vuspsi   :     85.62s CPU     86.24s WALL (    9834 calls)

     General routines
     calbec       :    111.94s CPU    112.67s WALL (   10894 calls)
     fft          :     30.24s CPU     30.65s WALL (    6489 calls)
     ffts         :      0.29s CPU      0.29s WALL (     205 calls)
     fftw         :    565.93s CPU    575.17s WALL ( 1250246 calls)
     interpolate  :      0.75s CPU      0.76s WALL (     103 calls)
     davcio       :      0.00s CPU      0.10s WALL (      10 calls)
 
     Parallel routines
 
     PWSCF        :  25m42.88s CPU  26m12.57s WALL

 
   This run was terminated on:   2:48: 2   9Sep2021            

=------------------------------------------------------------------------------=
   JOB DONE.
=------------------------------------------------------------------------------=
