
     Program PWSCF v.6.7GPU starts on 15Sep2021 at 19:54:15 

     This program is part of the open-source Quantum ESPRESSO suite
     for quantum simulation of materials; please cite
         "P. Giannozzi et al., J. Phys.:Condens. Matter 21 395502 (2009);
         "P. Giannozzi et al., J. Phys.:Condens. Matter 29 465901 (2017);
         "P. Giannozzi et al., J. Chem. Phys. 152 154105 (2020);
          URL http://www.quantum-espresso.org", 
     in publications or presentations arising from this work. More details at
     http://www.quantum-espresso.org/quote

     Parallel version (MPI), running on    10 processors

     MPI processes distributed on     1 nodes
     R & G space division:  proc/nbgrp/npool/nimage =      10
     Reading input from /storage/home/hcoda1/3/ntian30/research/carbon/CxH_vib/H2O_calc/ads_slab/CH3NNHHHH2O_a/out_0012/pw.inp
Warning: card &CELL ignored
Warning: card   CELL_DYNAMICS='IPI', ignored
Warning: card / ignored

     Current dimensions of program PWSCF are:
     Max number of different atomic species (ntypx) = 10
     Max number of k-points (npk) =  40000
     Max angular momentum in pseudopotentials (lmaxx) =  3
     Presently no symmetry can be used with electric field

     Message from routine cell_base_init:
     DEPRECATED: use true lattice parameter, not A to a.u. conversion factor

     **************************************************************************
     Initializing libbeef V0.1.2 with the BEEF-vdW functional.
     Citation: Wellendorff et al., PRB 85, 235149 (2012).
     **************************************************************************


     IMPORTANT: XC functional enforced from input :
     Exchange-correlation= BEEF-VDW
                           (   1   4  43  14   2   0   0)
     Any further DFT definition will be discarded
     Please, verify this is what you really want


     Subspace diagonalization in iterative solution of the eigenvalue problem:
     one sub-group per band group will be used
     scalapack distributed-memory algorithm (size of sub-group:  3*  3 procs)

  @ DRIVER MODE: Connecting to 
 qe_1139763_2852622.sched-torque.pace.gatech.edu6ldyrbtl_scratch
  using UNIX socket
  @ DRIVER MODE: Message from server: STATUS
  @ DRIVER MODE: Message from server: INIT
  @ DRIVER MODE: Receiving replica           0          -1
  @ DRIVER MODE: Receiving encoded integer          25
  @ DRIVER MODE:  SCF:  T  FORCE:  T  STRESS:  F  VC:  F  ENSEMBLE:  F
  @ DRIVER MODE:  SCF:  T  FORCE:  T  STRESS:  F  VC:  F  ENSEMBLE:  F
 
     Parallelization info
     --------------------
     sticks:   dense  smooth     PW     G-vecs:    dense   smooth      PW
     Min         327     131     37                56683    14340    2191
     Max         328     133     38                56694    14346    2206
     Sum        3275    1317    379               566857   143421   21985
 
     Using Slab Decomposition
 


     bravais-lattice index     =            0
     lattice parameter (alat)  =       1.8897  a.u.
     unit-cell volume          =    6658.9804 (a.u.)^3
     number of atoms/cell      =           59
     number of atomic types    =            5
     number of electrons       =       406.00
     number of Kohn-Sham states=          213
     kinetic-energy cutoff     =      29.3995  Ry
     charge density cutoff     =     293.9946  Ry
     scf convergence threshold =      7.3E-08
     mixing beta               =       0.0500
     number of iterations used =            8  plain     mixing
     Exchange-correlation= BEEF-VDW
                           (   1   4  43  14   2   0   0)

     celldm(1)=   1.889726  celldm(2)=   0.000000  celldm(3)=   0.000000
     celldm(4)=   0.000000  celldm(5)=   0.000000  celldm(6)=   0.000000

     crystal axes: (cart. coord. in units of alat)
               a(1) = (   6.579727   0.000000   0.000000 )  
               a(2) = (  -0.000775   5.961596   0.000000 )  
               a(3) = (   0.000000   0.000000  25.155947 )  

     reciprocal axes: (cart. coord. in units 2 pi/alat)
               b(1) = (  0.151982  0.000020  0.000000 )  
               b(2) = (  0.000000  0.167740  0.000000 )  
               b(3) = (  0.000000  0.000000  0.039752 )  


     PseudoPot. # 1 for Ti read from file:
     /storage/coda1/p-amedford6/0/shared/rich_project_chbe-medford/medford-share/data/pseudos_module/espresso/nninc/pbe/van/Ti.UPF
     MD5 check sum: 8e4df49b7f0d34bbd5052bf3f5ea0213
     Pseudo is Ultrasoft, Zval = 12.0
     Generated by new atomic code, or converted to UPF format
     Using radial grid of  851 points,  6 beta functions with: 
                l(1) =   0
                l(2) =   0
                l(3) =   1
                l(4) =   1
                l(5) =   2
                l(6) =   2
     Q(r) pseudized with  8 coefficients,  rinner =    1.000   1.000   1.000
                                                       1.000   1.000

     PseudoPot. # 2 for O  read from file:
     /storage/coda1/p-amedford6/0/shared/rich_project_chbe-medford/medford-share/data/pseudos_module/espresso/nninc/pbe/van/O.UPF
     MD5 check sum: 78c19812648e8988a0fe644b0f25305e
     Pseudo is Ultrasoft, Zval =  6.0
     Generated by new atomic code, or converted to UPF format
     Using radial grid of  737 points,  4 beta functions with: 
                l(1) =   0
                l(2) =   0
                l(3) =   1
                l(4) =   1
     Q(r) pseudized with  8 coefficients,  rinner =    0.800   0.800   0.800


     PseudoPot. # 3 for N  read from file:
     /storage/coda1/p-amedford6/0/shared/rich_project_chbe-medford/medford-share/data/pseudos_module/espresso/nninc/pbe/van/N.UPF
     MD5 check sum: 90d10febe142ad51ac9d5be1deb811c4
     Pseudo is Ultrasoft, Zval =  5.0
     Generated by new atomic code, or converted to UPF format
     Using radial grid of  729 points,  4 beta functions with: 
                l(1) =   0
                l(2) =   0
                l(3) =   1
                l(4) =   1
     Q(r) pseudized with  8 coefficients,  rinner =    0.800   0.800   0.800


     PseudoPot. # 4 for C  read from file:
     /storage/coda1/p-amedford6/0/shared/rich_project_chbe-medford/medford-share/data/pseudos_module/espresso/nninc/pbe/van/C.UPF
     MD5 check sum: 1a69bf6b8db32088f5b2163dbdb77a27
     Pseudo is Ultrasoft, Zval =  4.0
     Generated by new atomic code, or converted to UPF format
     Using radial grid of  721 points,  4 beta functions with: 
                l(1) =   0
                l(2) =   0
                l(3) =   1
                l(4) =   1
     Q(r) pseudized with  8 coefficients,  rinner =    0.800   0.800   0.800


     PseudoPot. # 5 for H  read from file:
     /storage/coda1/p-amedford6/0/shared/rich_project_chbe-medford/medford-share/data/pseudos_module/espresso/nninc/pbe/van/H.UPF
     MD5 check sum: b5ee9d7bfd3a09ee7748110bda690ff7
     Pseudo is Ultrasoft, Zval =  1.0
     Generated by new atomic code, or converted to UPF format
     Using radial grid of  615 points,  1 beta functions with: 
                l(1) =   0
     Q(r) pseudized with  8 coefficients,  rinner =    0.800

     atomic species   valence    mass     pseudopotential
        Ti1           12.00    47.86700     Ti( 1.00)
        O1             6.00    15.99900     O ( 1.00)
        N1             5.00    14.00700     N ( 1.00)
        C1             4.00    12.01100     C ( 1.00)
        H1             1.00     1.00800     H ( 1.00)

     No symmetry found



   Cartesian axes

     site n.     atom                  positions (alat units)
         1           Ti1 tau(   1) = (   0.0004258   2.9801865   6.0000000  )
         2           Ti1 tau(   2) = (   3.2906075   1.4906267   6.0002472  )
         3           O1  tau(   3) = (   0.0006271   0.0005054   7.9858123  )
         4           O1  tau(   4) = (   3.2906025   0.0005020   7.3038282  )
         5           O1  tau(   5) = (   4.5942328   1.4918067   9.2879030  )
         6           O1  tau(   6) = (   1.9868534   1.4903216   9.2879459  )
         7           Ti1 tau(   7) = (   3.2907910   2.8959150   9.1758416  )
         8           Ti1 tau(   8) = (   0.0015273   1.4827037   9.2680791  )
         9           O1  tau(   9) = (   3.2800960   5.9426830  11.3808346  )
        10           O1  tau(  10) = (   0.0116148   5.9584955  10.6183126  )
        11           O1  tau(  11) = (   1.2797812   1.4911726  12.6624455  )
        12           O1  tau(  12) = (   5.2824698   1.4871998  12.6412817  )
        13           Ti1 tau(  13) = (   0.0041451   2.9720195  12.5119452  )
        14           Ti1 tau(  14) = (   3.3095611   1.4699318  12.5307708  )
        15           O1  tau(  15) = (   6.5436702   0.0697967  14.6864816  )
        16           O1  tau(  16) = (   3.2812162   5.9597207  14.0300411  )
        17           O1  tau(  17) = (   4.5129646   1.5046642  16.2361130  )
        18           O1  tau(  18) = (   1.9708392   1.5012857  16.1671103  )
        19           Ti1 tau(  19) = (   3.2655272   2.9480959  15.7331506  )
        20           Ti1 tau(  20) = (   6.5674642   1.4497656  15.9937491  )
        21           O1  tau(  21) = (   3.2904802   0.0005063   4.7018136  )
        22           O1  tau(  22) = (   6.5217933   5.8323795  17.2454964  )
        23           O1  tau(  23) = (   1.3043587   1.4918075   6.0039043  )
        24           O1  tau(  24) = (   5.2767064   1.4903225   6.0039473  )
        25           Ti1 tau(  25) = (   0.0000382   5.9609847   6.0000000  )
        26           Ti1 tau(  26) = (   3.2902200   4.4714249   6.0002472  )
        27           O1  tau(  27) = (   0.0002396   2.9813036   7.9858123  )
        28           O1  tau(  28) = (   3.2902150   2.9813002   7.3038282  )
        29           O1  tau(  29) = (   4.5938453   4.4726049   9.2879030  )
        30           O1  tau(  30) = (   1.9864658   4.4711199   9.2879459  )
        31           Ti1 tau(  31) = (   3.2891106   5.8743827   9.1763621  )
        32           Ti1 tau(  32) = (   0.0006254   4.4649316   9.2693709  )
        33           O1  tau(  33) = (   3.2830490   2.9749636  11.3746576  )
        34           O1  tau(  34) = (   0.0092240   2.9805883  10.6323155  )
        35           O1  tau(  35) = (   1.2760807   4.4612897  12.6946019  )
        36           O1  tau(  36) = (   5.2846406   4.4647657  12.6742532  )
        37           Ti1 tau(  37) = (   0.0173662   5.9591775  12.4970172  )
        38           Ti1 tau(  38) = (   3.3070294   4.4569304  12.5379467  )
        39           O1  tau(  39) = (   6.5190077   2.9374781  14.9220565  )
        40           O1  tau(  40) = (   3.2909943   2.9519766  13.9498127  )
        41           O1  tau(  41) = (   4.5146313   4.4149292  16.1460290  )
        42           O1  tau(  42) = (   1.9668235   4.4047650  16.1116202  )
        43           Ti1 tau(  43) = (   3.2426406   5.9218513  15.8539982  )
        44           Ti1 tau(  44) = (   6.5337747   4.6515477  15.8702276  )
        45           O1  tau(  45) = (   3.2900926   2.9813045   4.7018136  )
        46           O1  tau(  46) = (   1.3039711   4.4726057   6.0039043  )
        47           O1  tau(  47) = (   5.2763189   4.4711207   6.0039473  )
        48           N1  tau(  48) = (   1.0802268   3.0592680  18.8437747  )
        49           N1  tau(  49) = (   6.4825355   2.6367244  18.1256036  )
        50           C1  tau(  50) = (   0.7269815   3.7261681  20.0984356  )
        51           H1  tau(  51) = (   0.0344531   4.5672025  19.9493712  )
        52           H1  tau(  52) = (   0.2718923   3.0081313  20.7822053  )
        53           H1  tau(  53) = (   1.6424345   4.1087450  20.5485440  )
        54           H1  tau(  54) = (   5.7152520   3.3097272  18.2274121  )
        55           H1  tau(  55) = (   6.1788988   1.7551022  18.5268573  )
        56           H1  tau(  56) = (   1.5478348   3.7306874  18.2371031  )
        57           O1  tau(  57) = (   3.1661568   0.0027346  18.3937517  )
        58           H1  tau(  58) = (   4.0701885   0.3469208  18.4697374  )
        59           H1  tau(  59) = (   2.5798038   0.7742236  18.5044111  )

     number of k points=    10  Fermi-Dirac smearing, width (Ry)=  0.0073
                       cart. coord. in units 2pi/alat
        k(    1) = (   0.0000000   0.0000000   0.0000000), wk =   0.1250000
        k(    2) = (   0.0000000   0.0419351   0.0000000), wk =   0.2500000
        k(    3) = (   0.0000000  -0.0838702   0.0000000), wk =   0.1250000
        k(    4) = (   0.0379955   0.0000049   0.0000000), wk =   0.2500000
        k(    5) = (   0.0379955   0.0419400   0.0000000), wk =   0.2500000
        k(    6) = (   0.0379955  -0.0838652   0.0000000), wk =   0.2500000
        k(    7) = (   0.0379955  -0.0419301   0.0000000), wk =   0.2500000
        k(    8) = (  -0.0759910  -0.0000099   0.0000000), wk =   0.1250000
        k(    9) = (  -0.0759910   0.0419252   0.0000000), wk =   0.2500000
        k(   10) = (  -0.0759910  -0.0838800   0.0000000), wk =   0.1250000

     Dense  grid:   566857 G-vectors     FFT dimensions: (  72,  64, 270)

     Smooth grid:   143421 G-vectors     FFT dimensions: (  45,  40, 180)

     Estimated max dynamical RAM per process >     368.16 MB

     Estimated total dynamical RAM >       3.60 GB
     Cannot read rho : file not found

     Initial potential from superposition of free atoms

     starting charge  389.99912, renormalised to  406.00000

     negative rho (up, down):  1.307E-02 0.000E+00


     %%%%%%%%%%%%%%%%%%%%%%%%%%%%%%%%%%%%%%%%%%%%%%%%%%%%%%%%%%%%%%%%%%%%%%%%
     %                                                                      %
     % You are using vdW-DF, which was implemented by the Thonhauser group. %
     % Please cite the following two papers that made this development      %
     % possible and the two reviews that describe the various versions:     %
     %                                                                      %
     %   T. Thonhauser et al., PRL 115, 136402 (2015).                      %
     %   T. Thonhauser et al., PRB 76, 125112 (2007).                       %
     %   K. Berland et al., Rep. Prog. Phys. 78, 066501 (2015).             %
     %   D.C. Langreth et al., J. Phys.: Condens. Matter 21, 084203 (2009). %
     %                                                                      %
     %                                                                      %
     % If you are calculating the stress with vdW-DF, please also cite:     %
     %                                                                      %
     %   R. Sabatini et al., J. Phys.: Condens. Matter 24, 424209 (2012).   %
     %                                                                      %
     %%%%%%%%%%%%%%%%%%%%%%%%%%%%%%%%%%%%%%%%%%%%%%%%%%%%%%%%%%%%%%%%%%%%%%%%


 
     Adding external electric field

     Computed dipole along edir(3) : 
        Dipole              -16.1197 Ry au,        -40.9722 Debye
        Dipole field         -0.0304 Ry au, 
 
        Potential amp.        2.8199 Ry
        Total length         46.3494 bohr
 
     Starting wfcs are  308 atomic wfcs
  @ DRIVER MODE: Message from server: STATUS
  @ DRIVER MODE: Message from server: POSDATA
  @ DRIVER MODE: Reading and sharing cell 
  @ DRIVER MODE: Reading and sharing positions 
  @ DRIVER MODE: Received positions 

     total cpu time spent up to now is       11.5 secs

     Self-consistent Calculation

     iteration #  1     ecut=    29.40 Ry     beta= 0.05
     Davidson diagonalization with overlap
     c_bands:  2 eigenvalues not converged
     c_bands:  3 eigenvalues not converged
     c_bands:  2 eigenvalues not converged
     c_bands:  3 eigenvalues not converged
     c_bands:  4 eigenvalues not converged
     c_bands:  2 eigenvalues not converged
     c_bands:  1 eigenvalues not converged
     c_bands:  5 eigenvalues not converged
     c_bands:  1 eigenvalues not converged
     ethr =  1.00E-05,  avg # of iterations = 23.1

     negative rho (up, down):  7.467E-03 0.000E+00
 
     Adding external electric field

     Computed dipole along edir(3) : 
        Dipole               63.0713 Ry au,        160.3114 Debye
        Dipole field          0.1190 Ry au, 
 
        Potential amp.      -11.0334 Ry
        Total length         46.3494 bohr
 

     total cpu time spent up to now is       58.4 secs

     total energy              =   -2140.60823595 Ry
     estimated scf accuracy    <    9599.29471281 Ry

     iteration #  2     ecut=    29.40 Ry     beta= 0.05
     Davidson diagonalization with overlap
     ethr =  1.00E-02,  avg # of iterations = 32.6

     negative rho (up, down):  2.106E-04 0.000E+00
 
     Adding external electric field

     Computed dipole along edir(3) : 
        Dipole                0.0703 Ry au,          0.1787 Debye
        Dipole field          0.0001 Ry au, 
 
        Potential amp.       -0.0123 Ry
        Total length         46.3494 bohr
 

     total cpu time spent up to now is      157.3 secs

     total energy              =   -2440.65505349 Ry
     estimated scf accuracy    <   80562.06992115 Ry

     iteration #  3     ecut=    29.40 Ry     beta= 0.05
     Davidson diagonalization with overlap
     ethr =  1.00E-02,  avg # of iterations = 17.1

     negative rho (up, down):  2.545E-04 0.000E+00
 
     Adding external electric field

     Computed dipole along edir(3) : 
        Dipole               -3.7725 Ry au,         -9.5887 Debye
        Dipole field         -0.0071 Ry au, 
 
        Potential amp.        0.6599 Ry
        Total length         46.3494 bohr
 

     total cpu time spent up to now is      208.2 secs

     total energy              =   -2966.56997409 Ry
     estimated scf accuracy    <    8645.64664240 Ry

     iteration #  4     ecut=    29.40 Ry     beta= 0.05
     Davidson diagonalization with overlap
     ethr =  1.00E-02,  avg # of iterations = 11.5

     negative rho (up, down):  2.677E-04 0.000E+00
 
     Adding external electric field

     Computed dipole along edir(3) : 
        Dipole               -5.4368 Ry au,        -13.8189 Debye
        Dipole field         -0.0103 Ry au, 
 
        Potential amp.        0.9511 Ry
        Total length         46.3494 bohr
 

     total cpu time spent up to now is      232.0 secs

     total energy              =   -2970.62318034 Ry
     estimated scf accuracy    <    2752.17438464 Ry

     iteration #  5     ecut=    29.40 Ry     beta= 0.05
     Davidson diagonalization with overlap
     c_bands:  4 eigenvalues not converged
     c_bands:  1 eigenvalues not converged
     c_bands:  5 eigenvalues not converged
     ethr =  1.00E-02,  avg # of iterations = 18.7

     negative rho (up, down):  2.835E-04 0.000E+00
 
     Adding external electric field

     Computed dipole along edir(3) : 
        Dipole               -5.9995 Ry au,        -15.2493 Debye
        Dipole field         -0.0113 Ry au, 
 
        Potential amp.        1.0495 Ry
        Total length         46.3494 bohr
 

     total cpu time spent up to now is      254.1 secs

     total energy              =   -2973.47543314 Ry
     estimated scf accuracy    <     931.58041042 Ry

     iteration #  6     ecut=    29.40 Ry     beta= 0.05
     Davidson diagonalization with overlap
     ethr =  1.00E-02,  avg # of iterations =  3.3

     negative rho (up, down):  2.870E-04 0.000E+00
 
     Adding external electric field

     Computed dipole along edir(3) : 
        Dipole               -6.2444 Ry au,        -15.8718 Debye
        Dipole field         -0.0118 Ry au, 
 
        Potential amp.        1.0924 Ry
        Total length         46.3494 bohr
 

     total cpu time spent up to now is      265.8 secs

     total energy              =   -2972.86286014 Ry
     estimated scf accuracy    <     628.67426003 Ry

     iteration #  7     ecut=    29.40 Ry     beta= 0.05
     Davidson diagonalization with overlap
     ethr =  1.00E-02,  avg # of iterations =  2.8

     negative rho (up, down):  3.196E-04 0.000E+00
 
     Adding external electric field

     Computed dipole along edir(3) : 
        Dipole               -7.1967 Ry au,        -18.2922 Debye
        Dipole field         -0.0136 Ry au, 
 
        Potential amp.        1.2590 Ry
        Total length         46.3494 bohr
 

     total cpu time spent up to now is      276.7 secs

     total energy              =   -2962.65056700 Ry
     estimated scf accuracy    <     612.43836461 Ry

     iteration #  8     ecut=    29.40 Ry     beta= 0.05
     Davidson diagonalization with overlap
     ethr =  1.00E-02,  avg # of iterations =  9.1

     negative rho (up, down):  3.063E-04 0.000E+00
 
     Adding external electric field

     Computed dipole along edir(3) : 
        Dipole               -6.3030 Ry au,        -16.0206 Debye
        Dipole field         -0.0119 Ry au, 
 
        Potential amp.        1.1026 Ry
        Total length         46.3494 bohr
 

     total cpu time spent up to now is      296.7 secs

     total energy              =   -2981.43773528 Ry
     estimated scf accuracy    <      26.31465161 Ry

     iteration #  9     ecut=    29.40 Ry     beta= 0.05
     Davidson diagonalization with overlap
     ethr =  6.48E-03,  avg # of iterations =  1.6

     negative rho (up, down):  3.092E-04 0.000E+00
 
     Adding external electric field

     Computed dipole along edir(3) : 
        Dipole               -6.0721 Ry au,        -15.4336 Debye
        Dipole field         -0.0115 Ry au, 
 
        Potential amp.        1.0622 Ry
        Total length         46.3494 bohr
 

     total cpu time spent up to now is      307.2 secs

     total energy              =   -2981.64180640 Ry
     estimated scf accuracy    <      18.11981497 Ry

     iteration # 10     ecut=    29.40 Ry     beta= 0.05
     Davidson diagonalization with overlap
     ethr =  4.46E-03,  avg # of iterations =  1.1

     negative rho (up, down):  3.384E-04 0.000E+00
 
     Adding external electric field

     Computed dipole along edir(3) : 
        Dipole               -5.9366 Ry au,        -15.0893 Debye
        Dipole field         -0.0112 Ry au, 
 
        Potential amp.        1.0385 Ry
        Total length         46.3494 bohr
 

     total cpu time spent up to now is      317.4 secs

     total energy              =   -2980.74191293 Ry
     estimated scf accuracy    <      17.15469738 Ry

     iteration # 11     ecut=    29.40 Ry     beta= 0.05
     Davidson diagonalization with overlap
     ethr =  4.23E-03,  avg # of iterations =  1.2

     negative rho (up, down):  7.773E-04 0.000E+00
 
     Adding external electric field

     Computed dipole along edir(3) : 
        Dipole               -3.6756 Ry au,         -9.3424 Debye
        Dipole field         -0.0069 Ry au, 
 
        Potential amp.        0.6430 Ry
        Total length         46.3494 bohr
 

     total cpu time spent up to now is      327.7 secs

     total energy              =   -2975.58383303 Ry
     estimated scf accuracy    <      14.24476881 Ry

     iteration # 12     ecut=    29.40 Ry     beta= 0.05
     Davidson diagonalization with overlap
     ethr =  3.51E-03,  avg # of iterations =  9.7

     negative rho (up, down):  7.554E-04 0.000E+00
 
     Adding external electric field

     Computed dipole along edir(3) : 
        Dipole               -2.6576 Ry au,         -6.7550 Debye
        Dipole field         -0.0050 Ry au, 
 
        Potential amp.        0.4649 Ry
        Total length         46.3494 bohr
 

     total cpu time spent up to now is      348.8 secs

     total energy              =   -2975.84050418 Ry
     estimated scf accuracy    <     603.74988202 Ry

     iteration # 13     ecut=    29.40 Ry     beta= 0.05
     Davidson diagonalization with overlap
     ethr =  3.51E-03,  avg # of iterations =  5.0

     negative rho (up, down):  7.433E-04 0.000E+00
 
     Adding external electric field

     Computed dipole along edir(3) : 
        Dipole               -3.1989 Ry au,         -8.1307 Debye
        Dipole field         -0.0060 Ry au, 
 
        Potential amp.        0.5596 Ry
        Total length         46.3494 bohr
 

     total cpu time spent up to now is      360.7 secs

     total energy              =   -2979.17626260 Ry
     estimated scf accuracy    <      53.47838180 Ry

     iteration # 14     ecut=    29.40 Ry     beta= 0.05
     Davidson diagonalization with overlap
     ethr =  3.51E-03,  avg # of iterations =  1.0

     negative rho (up, down):  7.500E-04 0.000E+00
 
     Adding external electric field

     Computed dipole along edir(3) : 
        Dipole               -3.1716 Ry au,         -8.0615 Debye
        Dipole field         -0.0060 Ry au, 
 
        Potential amp.        0.5548 Ry
        Total length         46.3494 bohr
 

     total cpu time spent up to now is      370.8 secs

     total energy              =   -2979.67062958 Ry
     estimated scf accuracy    <     186.28439358 Ry

     iteration # 15     ecut=    29.40 Ry     beta= 0.05
     Davidson diagonalization with overlap
     ethr =  3.51E-03,  avg # of iterations =  1.0

     negative rho (up, down):  7.533E-04 0.000E+00
 
     Adding external electric field

     Computed dipole along edir(3) : 
        Dipole               -3.1764 Ry au,         -8.0736 Debye
        Dipole field         -0.0060 Ry au, 
 
        Potential amp.        0.5557 Ry
        Total length         46.3494 bohr
 

     total cpu time spent up to now is      380.9 secs

     total energy              =   -2979.65346575 Ry
     estimated scf accuracy    <     190.97719712 Ry

     iteration # 16     ecut=    29.40 Ry     beta= 0.05
     Davidson diagonalization with overlap
     ethr =  3.51E-03,  avg # of iterations =  1.0

     negative rho (up, down):  7.540E-04 0.000E+00
 
     Adding external electric field

     Computed dipole along edir(3) : 
        Dipole               -3.1239 Ry au,         -7.9402 Debye
        Dipole field         -0.0059 Ry au, 
 
        Potential amp.        0.5465 Ry
        Total length         46.3494 bohr
 

     total cpu time spent up to now is      391.0 secs

     total energy              =   -2979.97028252 Ry
     estimated scf accuracy    <     188.19648128 Ry

     iteration # 17     ecut=    29.40 Ry     beta= 0.05
     Davidson diagonalization with overlap
     ethr =  3.51E-03,  avg # of iterations =  1.0

     negative rho (up, down):  7.320E-04 0.000E+00
 
     Adding external electric field

     Computed dipole along edir(3) : 
        Dipole               -3.1223 Ry au,         -7.9361 Debye
        Dipole field         -0.0059 Ry au, 
 
        Potential amp.        0.5462 Ry
        Total length         46.3494 bohr
 

     total cpu time spent up to now is      401.1 secs

     total energy              =   -2979.32312984 Ry
     estimated scf accuracy    <     248.63633436 Ry

     iteration # 18     ecut=    29.40 Ry     beta= 0.05
     Davidson diagonalization with overlap
     ethr =  3.51E-03,  avg # of iterations =  1.2

     negative rho (up, down):  7.452E-04 0.000E+00
 
     Adding external electric field

     Computed dipole along edir(3) : 
        Dipole               -3.1581 Ry au,         -8.0271 Debye
        Dipole field         -0.0060 Ry au, 
 
        Potential amp.        0.5525 Ry
        Total length         46.3494 bohr
 

     total cpu time spent up to now is      411.3 secs

     total energy              =   -2980.15950503 Ry
     estimated scf accuracy    <     163.40724517 Ry

     iteration # 19     ecut=    29.40 Ry     beta= 0.05
     Davidson diagonalization with overlap
     ethr =  3.51E-03,  avg # of iterations =  1.0

     negative rho (up, down):  6.328E-04 0.000E+00
 
     Adding external electric field

     Computed dipole along edir(3) : 
        Dipole               -3.3143 Ry au,         -8.4240 Debye
        Dipole field         -0.0063 Ry au, 
 
        Potential amp.        0.5798 Ry
        Total length         46.3494 bohr
 

     total cpu time spent up to now is      421.4 secs

     total energy              =   -2974.37475440 Ry
     estimated scf accuracy    <     304.27817088 Ry

     iteration # 20     ecut=    29.40 Ry     beta= 0.05
     Davidson diagonalization with overlap
     ethr =  3.51E-03,  avg # of iterations =  3.1

     negative rho (up, down):  6.503E-04 0.000E+00
 
     Adding external electric field

     Computed dipole along edir(3) : 
        Dipole               -2.8606 Ry au,         -7.2709 Debye
        Dipole field         -0.0054 Ry au, 
 
        Potential amp.        0.5004 Ry
        Total length         46.3494 bohr
 

     total cpu time spent up to now is      432.3 secs

     total energy              =   -2977.07871786 Ry
     estimated scf accuracy    <      23.02968733 Ry

     iteration # 21     ecut=    29.40 Ry     beta= 0.05
     Davidson diagonalization with overlap
     ethr =  3.51E-03,  avg # of iterations =  2.5

     negative rho (up, down):  6.657E-04 0.000E+00
 
     Adding external electric field

     Computed dipole along edir(3) : 
        Dipole               -2.6037 Ry au,         -6.6178 Debye
        Dipole field         -0.0049 Ry au, 
 
        Potential amp.        0.4555 Ry
        Total length         46.3494 bohr
 

     total cpu time spent up to now is      443.2 secs

     total energy              =   -2976.99924213 Ry
     estimated scf accuracy    <      16.38085663 Ry

     iteration # 22     ecut=    29.40 Ry     beta= 0.05
     Davidson diagonalization with overlap
     ethr =  3.51E-03,  avg # of iterations =  1.2

     negative rho (up, down):  6.983E-04 0.000E+00
 
     Adding external electric field

     Computed dipole along edir(3) : 
        Dipole               -2.3951 Ry au,         -6.0876 Debye
        Dipole field         -0.0045 Ry au, 
 
        Potential amp.        0.4190 Ry
        Total length         46.3494 bohr
 

     total cpu time spent up to now is      453.5 secs

     total energy              =   -2976.86967133 Ry
     estimated scf accuracy    <      14.05269501 Ry

     iteration # 23     ecut=    29.40 Ry     beta= 0.05
     Davidson diagonalization with overlap
     ethr =  3.46E-03,  avg # of iterations =  4.9

     negative rho (up, down):  7.099E-04 0.000E+00
 
     Adding external electric field

     Computed dipole along edir(3) : 
        Dipole               -2.2954 Ry au,         -5.8342 Debye
        Dipole field         -0.0043 Ry au, 
 
        Potential amp.        0.4015 Ry
        Total length         46.3494 bohr
 

     total cpu time spent up to now is      465.2 secs

     total energy              =   -2977.41273858 Ry
     estimated scf accuracy    <       4.26849096 Ry

     iteration # 24     ecut=    29.40 Ry     beta= 0.05
     Davidson diagonalization with overlap
     c_bands:  1 eigenvalues not converged
     c_bands:  2 eigenvalues not converged
     c_bands:  1 eigenvalues not converged
     c_bands:  2 eigenvalues not converged
     c_bands:  4 eigenvalues not converged
     ethr =  1.05E-03,  avg # of iterations = 18.7

     negative rho (up, down):  7.390E-04 0.000E+00
 
     Adding external electric field

     Computed dipole along edir(3) : 
        Dipole               -2.0608 Ry au,         -5.2380 Debye
        Dipole field         -0.0039 Ry au, 
 
        Potential amp.        0.3605 Ry
        Total length         46.3494 bohr
 

     total cpu time spent up to now is      485.0 secs

     total energy              =   -2977.85591507 Ry
     estimated scf accuracy    <       2.50003983 Ry

     iteration # 25     ecut=    29.40 Ry     beta= 0.05
     Davidson diagonalization with overlap
     ethr =  6.16E-04,  avg # of iterations =  5.0

     negative rho (up, down):  8.599E-04 0.000E+00
 
     Adding external electric field

     Computed dipole along edir(3) : 
        Dipole               -1.4604 Ry au,         -3.7120 Debye
        Dipole field         -0.0028 Ry au, 
 
        Potential amp.        0.2555 Ry
        Total length         46.3494 bohr
 

     total cpu time spent up to now is      497.2 secs

     total energy              =   -2977.66813000 Ry
     estimated scf accuracy    <       1.28698680 Ry

     iteration # 26     ecut=    29.40 Ry     beta= 0.05
     Davidson diagonalization with overlap
     c_bands:  2 eigenvalues not converged
     c_bands:  2 eigenvalues not converged
     c_bands:  2 eigenvalues not converged
     c_bands:  3 eigenvalues not converged
     c_bands:  1 eigenvalues not converged
     ethr =  3.17E-04,  avg # of iterations = 18.4

     negative rho (up, down):  9.938E-04 0.000E+00
 
     Adding external electric field

     Computed dipole along edir(3) : 
        Dipole               -0.9160 Ry au,         -2.3281 Debye
        Dipole field         -0.0017 Ry au, 
 
        Potential amp.        0.1602 Ry
        Total length         46.3494 bohr
 

     total cpu time spent up to now is      517.6 secs

     total energy              =   -2977.92707928 Ry
     estimated scf accuracy    <       3.78693166 Ry

     iteration # 27     ecut=    29.40 Ry     beta= 0.05
     Davidson diagonalization with overlap
     ethr =  3.17E-04,  avg # of iterations =  1.7

     negative rho (up, down):  1.377E-03 0.000E+00
 
     Adding external electric field

     Computed dipole along edir(3) : 
        Dipole                0.1778 Ry au,          0.4519 Debye
        Dipole field          0.0003 Ry au, 
 
        Potential amp.       -0.0311 Ry
        Total length         46.3494 bohr
 

     total cpu time spent up to now is      528.4 secs

     total energy              =   -2977.72727162 Ry
     estimated scf accuracy    <       4.05869475 Ry

     iteration # 28     ecut=    29.40 Ry     beta= 0.05
     Davidson diagonalization with overlap
     ethr =  3.17E-04,  avg # of iterations =  5.1

     negative rho (up, down):  1.385E-03 0.000E+00
 
     Adding external electric field

     Computed dipole along edir(3) : 
        Dipole                0.2176 Ry au,          0.5531 Debye
        Dipole field          0.0004 Ry au, 
 
        Potential amp.       -0.0381 Ry
        Total length         46.3494 bohr
 

     total cpu time spent up to now is      540.3 secs

     total energy              =   -2977.77509744 Ry
     estimated scf accuracy    <       1.80727160 Ry

     iteration # 29     ecut=    29.40 Ry     beta= 0.05
     Davidson diagonalization with overlap
     ethr =  3.17E-04,  avg # of iterations =  4.4

     negative rho (up, down):  1.370E-03 0.000E+00
 
     Adding external electric field

     Computed dipole along edir(3) : 
        Dipole                0.2565 Ry au,          0.6520 Debye
        Dipole field          0.0005 Ry au, 
 
        Potential amp.       -0.0449 Ry
        Total length         46.3494 bohr
 

     total cpu time spent up to now is      552.0 secs

     total energy              =   -2977.81518346 Ry
     estimated scf accuracy    <       2.29859018 Ry

     iteration # 30     ecut=    29.40 Ry     beta= 0.05
     Davidson diagonalization with overlap
     ethr =  3.17E-04,  avg # of iterations =  1.4

     negative rho (up, down):  1.320E-03 0.000E+00
 
     Adding external electric field

     Computed dipole along edir(3) : 
        Dipole               -0.1508 Ry au,         -0.3832 Debye
        Dipole field         -0.0003 Ry au, 
 
        Potential amp.        0.0264 Ry
        Total length         46.3494 bohr
 

     total cpu time spent up to now is      562.4 secs

     total energy              =   -2977.76025771 Ry
     estimated scf accuracy    <       2.29326844 Ry

     iteration # 31     ecut=    29.40 Ry     beta= 0.05
     Davidson diagonalization with overlap
     ethr =  3.17E-04,  avg # of iterations =  1.2

     negative rho (up, down):  1.355E-03 0.000E+00
 
     Adding external electric field

     Computed dipole along edir(3) : 
        Dipole               -0.2749 Ry au,         -0.6986 Debye
        Dipole field         -0.0005 Ry au, 
 
        Potential amp.        0.0481 Ry
        Total length         46.3494 bohr
 

     total cpu time spent up to now is      572.7 secs

     total energy              =   -2977.60946953 Ry
     estimated scf accuracy    <       1.17536623 Ry

     iteration # 32     ecut=    29.40 Ry     beta= 0.05
     Davidson diagonalization with overlap
     c_bands:  1 eigenvalues not converged
     c_bands:  3 eigenvalues not converged
     c_bands:  2 eigenvalues not converged
     c_bands:  2 eigenvalues not converged
     c_bands:  5 eigenvalues not converged
     c_bands:  3 eigenvalues not converged
     c_bands:  1 eigenvalues not converged
     ethr =  2.89E-04,  avg # of iterations = 21.4

     negative rho (up, down):  1.542E-03 0.000E+00
 
     Adding external electric field

     Computed dipole along edir(3) : 
        Dipole                0.0878 Ry au,          0.2230 Debye
        Dipole field          0.0002 Ry au, 
 
        Potential amp.       -0.0154 Ry
        Total length         46.3494 bohr
 

     total cpu time spent up to now is      595.7 secs

     total energy              =   -2977.67122493 Ry
     estimated scf accuracy    <       2.37289394 Ry

     iteration # 33     ecut=    29.40 Ry     beta= 0.05
     Davidson diagonalization with overlap
     ethr =  2.89E-04,  avg # of iterations = 10.5

     negative rho (up, down):  1.727E-03 0.000E+00
 
     Adding external electric field

     Computed dipole along edir(3) : 
        Dipole                0.4115 Ry au,          1.0458 Debye
        Dipole field          0.0008 Ry au, 
 
        Potential amp.       -0.0720 Ry
        Total length         46.3494 bohr
 

     total cpu time spent up to now is      609.2 secs

     total energy              =   -2977.65906502 Ry
     estimated scf accuracy    <       0.55939883 Ry

     iteration # 34     ecut=    29.40 Ry     beta= 0.05
     Davidson diagonalization with overlap
     c_bands:  2 eigenvalues not converged
     c_bands:  3 eigenvalues not converged
     c_bands:  5 eigenvalues not converged
     c_bands:  2 eigenvalues not converged
     c_bands:  3 eigenvalues not converged
     c_bands:  3 eigenvalues not converged
     c_bands:  2 eigenvalues not converged
     c_bands:  1 eigenvalues not converged
     c_bands:  3 eigenvalues not converged
     ethr =  1.38E-04,  avg # of iterations = 19.6

     negative rho (up, down):  1.879E-03 0.000E+00
 
     Adding external electric field

     Computed dipole along edir(3) : 
        Dipole                0.6541 Ry au,          1.6625 Debye
        Dipole field          0.0012 Ry au, 
 
        Potential amp.       -0.1144 Ry
        Total length         46.3494 bohr
 

     total cpu time spent up to now is      631.9 secs

     total energy              =   -2977.70393804 Ry
     estimated scf accuracy    <       2.84662090 Ry

     iteration # 35     ecut=    29.40 Ry     beta= 0.05
     Davidson diagonalization with overlap
     ethr =  1.38E-04,  avg # of iterations =  6.2

     negative rho (up, down):  1.878E-03 0.000E+00
 
     Adding external electric field

     Computed dipole along edir(3) : 
        Dipole                0.6290 Ry au,          1.5988 Debye
        Dipole field          0.0012 Ry au, 
 
        Potential amp.       -0.1100 Ry
        Total length         46.3494 bohr
 

     total cpu time spent up to now is      644.2 secs

     total energy              =   -2977.66933871 Ry
     estimated scf accuracy    <       1.24211221 Ry

     iteration # 36     ecut=    29.40 Ry     beta= 0.05
     Davidson diagonalization with overlap
     c_bands:  1 eigenvalues not converged
     c_bands:  1 eigenvalues not converged
     c_bands:  2 eigenvalues not converged
     ethr =  1.38E-04,  avg # of iterations = 14.3

     negative rho (up, down):  1.925E-03 0.000E+00
 
     Adding external electric field

     Computed dipole along edir(3) : 
        Dipole                0.6383 Ry au,          1.6223 Debye
        Dipole field          0.0012 Ry au, 
 
        Potential amp.       -0.1117 Ry
        Total length         46.3494 bohr
 

     total cpu time spent up to now is      660.0 secs

     total energy              =   -2977.69820443 Ry
     estimated scf accuracy    <       0.24312062 Ry

     iteration # 37     ecut=    29.40 Ry     beta= 0.05
     Davidson diagonalization with overlap
     c_bands:  2 eigenvalues not converged
     c_bands:  1 eigenvalues not converged
     c_bands:  2 eigenvalues not converged
     c_bands:  1 eigenvalues not converged
     c_bands:  2 eigenvalues not converged
     ethr =  5.99E-05,  avg # of iterations = 17.5

     negative rho (up, down):  1.988E-03 0.000E+00
 
     Adding external electric field

     Computed dipole along edir(3) : 
        Dipole                0.6956 Ry au,          1.7680 Debye
        Dipole field          0.0013 Ry au, 
 
        Potential amp.       -0.1217 Ry
        Total length         46.3494 bohr
 

     total cpu time spent up to now is      677.2 secs

     total energy              =   -2977.71684713 Ry
     estimated scf accuracy    <       0.29184907 Ry

     iteration # 38     ecut=    29.40 Ry     beta= 0.05
     Davidson diagonalization with overlap
     ethr =  5.99E-05,  avg # of iterations =  9.7

     negative rho (up, down):  2.183E-03 0.000E+00
 
     Adding external electric field

     Computed dipole along edir(3) : 
        Dipole                1.0581 Ry au,          2.6895 Debye
        Dipole field          0.0020 Ry au, 
 
        Potential amp.       -0.1851 Ry
        Total length         46.3494 bohr
 

     total cpu time spent up to now is      690.6 secs

     total energy              =   -2977.67462927 Ry
     estimated scf accuracy    <       0.45321507 Ry

     iteration # 39     ecut=    29.40 Ry     beta= 0.05
     Davidson diagonalization with overlap
     c_bands:  3 eigenvalues not converged
     c_bands:  3 eigenvalues not converged
     c_bands:  5 eigenvalues not converged
     c_bands:  2 eigenvalues not converged
     ethr =  5.99E-05,  avg # of iterations = 17.1

     negative rho (up, down):  2.364E-03 0.000E+00
 
     Adding external electric field

     Computed dipole along edir(3) : 
        Dipole                1.1504 Ry au,          2.9241 Debye
        Dipole field          0.0022 Ry au, 
 
        Potential amp.       -0.2013 Ry
        Total length         46.3494 bohr
 

     total cpu time spent up to now is      708.1 secs

     total energy              =   -2977.71189732 Ry
     estimated scf accuracy    <       0.64296929 Ry

     iteration # 40     ecut=    29.40 Ry     beta= 0.05
     Davidson diagonalization with overlap
     c_bands:  1 eigenvalues not converged
     c_bands:  1 eigenvalues not converged
     ethr =  5.99E-05,  avg # of iterations = 13.0

     negative rho (up, down):  2.768E-03 0.000E+00
 
     Adding external electric field

     Computed dipole along edir(3) : 
        Dipole                1.2252 Ry au,          3.1141 Debye
        Dipole field          0.0023 Ry au, 
 
        Potential amp.       -0.2143 Ry
        Total length         46.3494 bohr
 

     total cpu time spent up to now is      722.8 secs

     total energy              =   -2977.71464292 Ry
     estimated scf accuracy    <       0.36814165 Ry

     iteration # 41     ecut=    29.40 Ry     beta= 0.05
     Davidson diagonalization with overlap
     ethr =  5.99E-05,  avg # of iterations = 10.0

     negative rho (up, down):  3.856E-03 0.000E+00
 
     Adding external electric field

     Computed dipole along edir(3) : 
        Dipole                1.3334 Ry au,          3.3890 Debye
        Dipole field          0.0025 Ry au, 
 
        Potential amp.       -0.2333 Ry
        Total length         46.3494 bohr
 

     total cpu time spent up to now is      736.3 secs

     total energy              =   -2977.76129988 Ry
     estimated scf accuracy    <       0.97022674 Ry

     iteration # 42     ecut=    29.40 Ry     beta= 0.05
     Davidson diagonalization with overlap
     c_bands:  1 eigenvalues not converged
     c_bands:  1 eigenvalues not converged
     c_bands:  1 eigenvalues not converged
     c_bands:  1 eigenvalues not converged
     c_bands:  1 eigenvalues not converged
     ethr =  5.99E-05,  avg # of iterations = 18.8

     negative rho (up, down):  2.890E-03 0.000E+00
 
     Adding external electric field

     Computed dipole along edir(3) : 
        Dipole                1.1469 Ry au,          2.9152 Debye
        Dipole field          0.0022 Ry au, 
 
        Potential amp.       -0.2006 Ry
        Total length         46.3494 bohr
 

     total cpu time spent up to now is      758.0 secs

     total energy              =   -2977.76828255 Ry
     estimated scf accuracy    <       1.14736257 Ry

     iteration # 43     ecut=    29.40 Ry     beta= 0.05
     Davidson diagonalization with overlap
     ethr =  5.99E-05,  avg # of iterations =  2.5

     negative rho (up, down):  3.412E-03 0.000E+00
 
     Adding external electric field

     Computed dipole along edir(3) : 
        Dipole                1.2802 Ry au,          3.2539 Debye
        Dipole field          0.0024 Ry au, 
 
        Potential amp.       -0.2240 Ry
        Total length         46.3494 bohr
 

     total cpu time spent up to now is      768.7 secs

     total energy              =   -2977.77652868 Ry
     estimated scf accuracy    <       1.22874171 Ry

     iteration # 44     ecut=    29.40 Ry     beta= 0.05
     Davidson diagonalization with overlap
     ethr =  5.99E-05,  avg # of iterations =  1.1

     negative rho (up, down):  3.422E-03 0.000E+00
 
     Adding external electric field

     Computed dipole along edir(3) : 
        Dipole                1.2520 Ry au,          3.1821 Debye
        Dipole field          0.0024 Ry au, 
 
        Potential amp.       -0.2190 Ry
        Total length         46.3494 bohr
 

     total cpu time spent up to now is      778.9 secs

     total energy              =   -2977.76595833 Ry
     estimated scf accuracy    <       1.02560771 Ry

     iteration # 45     ecut=    29.40 Ry     beta= 0.05
     Davidson diagonalization with overlap
     c_bands:  3 eigenvalues not converged
     c_bands:  2 eigenvalues not converged
     ethr =  5.99E-05,  avg # of iterations = 11.7

     negative rho (up, down):  3.084E-03 0.000E+00
 
     Adding external electric field

     Computed dipole along edir(3) : 
        Dipole                1.2782 Ry au,          3.2488 Debye
        Dipole field          0.0024 Ry au, 
 
        Potential amp.       -0.2236 Ry
        Total length         46.3494 bohr
 

     total cpu time spent up to now is      793.1 secs

     total energy              =   -2977.66742766 Ry
     estimated scf accuracy    <       0.79945916 Ry

     iteration # 46     ecut=    29.40 Ry     beta= 0.05
     Davidson diagonalization with overlap
     c_bands:  3 eigenvalues not converged
     c_bands:  2 eigenvalues not converged
     c_bands:  1 eigenvalues not converged
     c_bands:  1 eigenvalues not converged
     c_bands:  1 eigenvalues not converged
     c_bands:  1 eigenvalues not converged
     c_bands:  1 eigenvalues not converged
     c_bands:  1 eigenvalues not converged
     ethr =  5.99E-05,  avg # of iterations = 19.5

     negative rho (up, down):  3.370E-03 0.000E+00
 
     Adding external electric field

     Computed dipole along edir(3) : 
        Dipole                1.3936 Ry au,          3.5421 Debye
        Dipole field          0.0026 Ry au, 
 
        Potential amp.       -0.2438 Ry
        Total length         46.3494 bohr
 

     total cpu time spent up to now is      814.0 secs

     total energy              =   -2977.68625441 Ry
     estimated scf accuracy    <       0.57120775 Ry

     iteration # 47     ecut=    29.40 Ry     beta= 0.05
     Davidson diagonalization with overlap
     c_bands:  1 eigenvalues not converged
     c_bands:  1 eigenvalues not converged
     c_bands:  1 eigenvalues not converged
     c_bands:  1 eigenvalues not converged
     ethr =  5.99E-05,  avg # of iterations = 15.0

     negative rho (up, down):  4.238E-03 0.000E+00
 
     Adding external electric field

     Computed dipole along edir(3) : 
        Dipole                1.2262 Ry au,          3.1168 Debye
        Dipole field          0.0023 Ry au, 
 
        Potential amp.       -0.2145 Ry
        Total length         46.3494 bohr
 

     total cpu time spent up to now is      829.7 secs

     total energy              =   -2977.70576658 Ry
     estimated scf accuracy    <       0.10171680 Ry

     iteration # 48     ecut=    29.40 Ry     beta= 0.05
     Davidson diagonalization with overlap
     c_bands:  5 eigenvalues not converged
     c_bands:  3 eigenvalues not converged
     c_bands:  4 eigenvalues not converged
     c_bands:  2 eigenvalues not converged
     c_bands:  5 eigenvalues not converged
     c_bands:  3 eigenvalues not converged
     c_bands:  5 eigenvalues not converged
     c_bands:  4 eigenvalues not converged
     c_bands:  3 eigenvalues not converged
     c_bands:  1 eigenvalues not converged
     ethr =  2.51E-05,  avg # of iterations = 22.0

     negative rho (up, down):  4.698E-03 0.000E+00
 
     Adding external electric field

     Computed dipole along edir(3) : 
        Dipole                1.1521 Ry au,          2.9283 Debye
        Dipole field          0.0022 Ry au, 
 
        Potential amp.       -0.2015 Ry
        Total length         46.3494 bohr
 

     total cpu time spent up to now is      853.0 secs

     total energy              =   -2977.69667768 Ry
     estimated scf accuracy    <       0.94371238 Ry

     iteration # 49     ecut=    29.40 Ry     beta= 0.05
     Davidson diagonalization with overlap
     c_bands:  4 eigenvalues not converged
     c_bands:  3 eigenvalues not converged
     c_bands:  1 eigenvalues not converged
     c_bands:  1 eigenvalues not converged
     c_bands:  1 eigenvalues not converged
     c_bands:  1 eigenvalues not converged
     ethr =  2.51E-05,  avg # of iterations = 18.6

     negative rho (up, down):  4.650E-03 0.000E+00
 
     Adding external electric field

     Computed dipole along edir(3) : 
        Dipole                1.2483 Ry au,          3.1728 Debye
        Dipole field          0.0024 Ry au, 
 
        Potential amp.       -0.2184 Ry
        Total length         46.3494 bohr
 

     total cpu time spent up to now is      872.2 secs

     total energy              =   -2977.69786920 Ry
     estimated scf accuracy    <       1.23373370 Ry

     iteration # 50     ecut=    29.40 Ry     beta= 0.05
     Davidson diagonalization with overlap
     c_bands:  2 eigenvalues not converged
     c_bands:  1 eigenvalues not converged
     c_bands:  1 eigenvalues not converged
     c_bands:  1 eigenvalues not converged
     ethr =  2.51E-05,  avg # of iterations = 14.9

     negative rho (up, down):  5.004E-03 0.000E+00
 
     Adding external electric field

     Computed dipole along edir(3) : 
        Dipole                1.3309 Ry au,          3.3829 Debye
        Dipole field          0.0025 Ry au, 
 
        Potential amp.       -0.2328 Ry
        Total length         46.3494 bohr
 

     total cpu time spent up to now is      887.2 secs

     total energy              =   -2977.69239666 Ry
     estimated scf accuracy    <       0.36332723 Ry

     iteration # 51     ecut=    29.40 Ry     beta= 0.05
     Davidson diagonalization with overlap
     c_bands:  4 eigenvalues not converged
     c_bands:  4 eigenvalues not converged
     c_bands:  1 eigenvalues not converged
     c_bands:  5 eigenvalues not converged
     c_bands:  4 eigenvalues not converged
     c_bands:  2 eigenvalues not converged
     c_bands:  4 eigenvalues not converged
     c_bands:  1 eigenvalues not converged
     c_bands:  3 eigenvalues not converged
     c_bands:  3 eigenvalues not converged
     ethr =  2.51E-05,  avg # of iterations = 20.0

     negative rho (up, down):  6.766E-03 0.000E+00
 
     Adding external electric field

     Computed dipole along edir(3) : 
        Dipole                1.3600 Ry au,          3.4567 Debye
        Dipole field          0.0026 Ry au, 
 
        Potential amp.       -0.2379 Ry
        Total length         46.3494 bohr
 

     total cpu time spent up to now is      906.7 secs

     total energy              =   -2977.69204273 Ry
     estimated scf accuracy    <       0.09446207 Ry

     iteration # 52     ecut=    29.40 Ry     beta= 0.05
     Davidson diagonalization with overlap
     c_bands:  2 eigenvalues not converged
     c_bands:  3 eigenvalues not converged
     c_bands:  2 eigenvalues not converged
     c_bands:  1 eigenvalues not converged
     c_bands:  3 eigenvalues not converged
     c_bands:  1 eigenvalues not converged
     c_bands:  2 eigenvalues not converged
     ethr =  2.33E-05,  avg # of iterations = 19.4

     negative rho (up, down):  9.633E-03 0.000E+00
 
     Adding external electric field

     Computed dipole along edir(3) : 
        Dipole                1.4163 Ry au,          3.5998 Debye
        Dipole field          0.0027 Ry au, 
 
        Potential amp.       -0.2478 Ry
        Total length         46.3494 bohr
 

     total cpu time spent up to now is      925.0 secs

     total energy              =   -2977.69465227 Ry
     estimated scf accuracy    <       0.17729351 Ry

     iteration # 53     ecut=    29.40 Ry     beta= 0.05
     Davidson diagonalization with overlap
     c_bands:  1 eigenvalues not converged
     ethr =  2.33E-05,  avg # of iterations = 11.2

     negative rho (up, down):  9.831E-03 0.000E+00
 
     Adding external electric field

     Computed dipole along edir(3) : 
        Dipole                1.3842 Ry au,          3.5182 Debye
        Dipole field          0.0026 Ry au, 
 
        Potential amp.       -0.2421 Ry
        Total length         46.3494 bohr
 

     total cpu time spent up to now is      938.5 secs

     total energy              =   -2977.69904176 Ry
     estimated scf accuracy    <       0.04339027 Ry

     iteration # 54     ecut=    29.40 Ry     beta= 0.05
     Davidson diagonalization with overlap
     c_bands:  1 eigenvalues not converged
     c_bands:  1 eigenvalues not converged
     ethr =  1.07E-05,  avg # of iterations = 10.4

     negative rho (up, down):  9.272E-03 0.000E+00
 
     Adding external electric field

     Computed dipole along edir(3) : 
        Dipole                1.3120 Ry au,          3.3348 Debye
        Dipole field          0.0025 Ry au, 
 
        Potential amp.       -0.2295 Ry
        Total length         46.3494 bohr
 

     total cpu time spent up to now is      952.1 secs

     total energy              =   -2977.69943157 Ry
     estimated scf accuracy    <       0.00340001 Ry

     iteration # 55     ecut=    29.40 Ry     beta= 0.05
     Davidson diagonalization with overlap
     c_bands:  1 eigenvalues not converged
     c_bands:  1 eigenvalues not converged
     c_bands:  1 eigenvalues not converged
     c_bands:  3 eigenvalues not converged
     c_bands:  3 eigenvalues not converged
     c_bands:  1 eigenvalues not converged
     c_bands:  3 eigenvalues not converged
     ethr =  8.37E-07,  avg # of iterations = 19.3

     negative rho (up, down):  1.012E-02 0.000E+00
 
     Adding external electric field

     Computed dipole along edir(3) : 
        Dipole                1.2975 Ry au,          3.2979 Debye
        Dipole field          0.0024 Ry au, 
 
        Potential amp.       -0.2270 Ry
        Total length         46.3494 bohr
 

     total cpu time spent up to now is      974.7 secs

     total energy              =   -2977.69926201 Ry
     estimated scf accuracy    <       0.00624420 Ry

     iteration # 56     ecut=    29.40 Ry     beta= 0.05
     Davidson diagonalization with overlap
     c_bands:  3 eigenvalues not converged
     c_bands:  1 eigenvalues not converged
     c_bands:  1 eigenvalues not converged
     ethr =  8.37E-07,  avg # of iterations = 18.0

     negative rho (up, down):  1.060E-02 0.000E+00
 
     Adding external electric field

     Computed dipole along edir(3) : 
        Dipole                1.2761 Ry au,          3.2435 Debye
        Dipole field          0.0024 Ry au, 
 
        Potential amp.       -0.2232 Ry
        Total length         46.3494 bohr
 

     total cpu time spent up to now is      993.6 secs

     total energy              =   -2977.69986808 Ry
     estimated scf accuracy    <       0.00727141 Ry

     iteration # 57     ecut=    29.40 Ry     beta= 0.05
     Davidson diagonalization with overlap
     ethr =  8.37E-07,  avg # of iterations =  2.0

     negative rho (up, down):  1.123E-02 0.000E+00
 
     Adding external electric field

     Computed dipole along edir(3) : 
        Dipole                1.2845 Ry au,          3.2649 Debye
        Dipole field          0.0024 Ry au, 
 
        Potential amp.       -0.2247 Ry
        Total length         46.3494 bohr
 

     total cpu time spent up to now is     1004.6 secs

     total energy              =   -2977.69971232 Ry
     estimated scf accuracy    <       0.01115412 Ry

     iteration # 58     ecut=    29.40 Ry     beta= 0.05
     Davidson diagonalization with overlap
     c_bands:  1 eigenvalues not converged
     ethr =  8.37E-07,  avg # of iterations = 11.8

     negative rho (up, down):  1.148E-02 0.000E+00
 
     Adding external electric field

     Computed dipole along edir(3) : 
        Dipole                1.2910 Ry au,          3.2815 Debye
        Dipole field          0.0024 Ry au, 
 
        Potential amp.       -0.2258 Ry
        Total length         46.3494 bohr
 

     total cpu time spent up to now is     1018.7 secs

     total energy              =   -2977.69988301 Ry
     estimated scf accuracy    <       0.00119040 Ry

     iteration # 59     ecut=    29.40 Ry     beta= 0.05
     Davidson diagonalization with overlap
     c_bands:  1 eigenvalues not converged
     ethr =  2.93E-07,  avg # of iterations = 10.1

     negative rho (up, down):  1.229E-02 0.000E+00
 
     Adding external electric field

     Computed dipole along edir(3) : 
        Dipole                1.3083 Ry au,          3.3254 Debye
        Dipole field          0.0025 Ry au, 
 
        Potential amp.       -0.2289 Ry
        Total length         46.3494 bohr
 

     total cpu time spent up to now is     1031.9 secs

     total energy              =   -2977.69992486 Ry
     estimated scf accuracy    <       0.00081798 Ry

     iteration # 60     ecut=    29.40 Ry     beta= 0.05
     Davidson diagonalization with overlap
     ethr =  2.01E-07,  avg # of iterations = 10.1

     negative rho (up, down):  1.350E-02 0.000E+00
 
     Adding external electric field

     Computed dipole along edir(3) : 
        Dipole                1.3233 Ry au,          3.3634 Debye
        Dipole field          0.0025 Ry au, 
 
        Potential amp.       -0.2315 Ry
        Total length         46.3494 bohr
 

     total cpu time spent up to now is     1045.4 secs

     total energy              =   -2977.69997399 Ry
     estimated scf accuracy    <       0.00027495 Ry

     iteration # 61     ecut=    29.40 Ry     beta= 0.05
     Davidson diagonalization with overlap
     c_bands:  1 eigenvalues not converged
     ethr =  6.77E-08,  avg # of iterations = 17.0

     negative rho (up, down):  1.373E-02 0.000E+00
 
     Adding external electric field

     Computed dipole along edir(3) : 
        Dipole                1.3259 Ry au,          3.3701 Debye
        Dipole field          0.0025 Ry au, 
 
        Potential amp.       -0.2319 Ry
        Total length         46.3494 bohr
 

     total cpu time spent up to now is     1062.9 secs

     total energy              =   -2977.69997920 Ry
     estimated scf accuracy    <       0.00016511 Ry

     iteration # 62     ecut=    29.40 Ry     beta= 0.05
     Davidson diagonalization with overlap
     c_bands:  1 eigenvalues not converged
     ethr =  4.07E-08,  avg # of iterations = 15.2

     negative rho (up, down):  1.388E-02 0.000E+00
 
     Adding external electric field

     Computed dipole along edir(3) : 
        Dipole                1.3301 Ry au,          3.3807 Debye
        Dipole field          0.0025 Ry au, 
 
        Potential amp.       -0.2327 Ry
        Total length         46.3494 bohr
 

     total cpu time spent up to now is     1081.0 secs

     total energy              =   -2977.70000134 Ry
     estimated scf accuracy    <       0.00007965 Ry

     iteration # 63     ecut=    29.40 Ry     beta= 0.05
     Davidson diagonalization with overlap
     c_bands:  1 eigenvalues not converged
     c_bands:  2 eigenvalues not converged
     ethr =  1.96E-08,  avg # of iterations = 14.6

     negative rho (up, down):  1.395E-02 0.000E+00
 
     Adding external electric field

     Computed dipole along edir(3) : 
        Dipole                1.3324 Ry au,          3.3867 Debye
        Dipole field          0.0025 Ry au, 
 
        Potential amp.       -0.2331 Ry
        Total length         46.3494 bohr
 

     total cpu time spent up to now is     1096.9 secs

     total energy              =   -2977.70001167 Ry
     estimated scf accuracy    <       0.00003826 Ry

     iteration # 64     ecut=    29.40 Ry     beta= 0.05
     Davidson diagonalization with overlap
     ethr =  9.42E-09,  avg # of iterations = 11.3

     negative rho (up, down):  1.405E-02 0.000E+00
 
     Adding external electric field

     Computed dipole along edir(3) : 
        Dipole                1.3328 Ry au,          3.3876 Debye
        Dipole field          0.0025 Ry au, 
 
        Potential amp.       -0.2331 Ry
        Total length         46.3494 bohr
 

     total cpu time spent up to now is     1111.6 secs

     total energy              =   -2977.70001998 Ry
     estimated scf accuracy    <       0.00000840 Ry

     iteration # 65     ecut=    29.40 Ry     beta= 0.05
     Davidson diagonalization with overlap
     c_bands:  1 eigenvalues not converged
     ethr =  2.07E-09,  avg # of iterations = 14.4

     negative rho (up, down):  1.409E-02 0.000E+00
 
     Adding external electric field

     Computed dipole along edir(3) : 
        Dipole                1.3336 Ry au,          3.3896 Debye
        Dipole field          0.0025 Ry au, 
 
        Potential amp.       -0.2333 Ry
        Total length         46.3494 bohr
 

     total cpu time spent up to now is     1132.5 secs

     total energy              =   -2977.70002561 Ry
     estimated scf accuracy    <       0.00000765 Ry

     iteration # 66     ecut=    29.40 Ry     beta= 0.05
     Davidson diagonalization with overlap
     ethr =  1.88E-09,  avg # of iterations =  1.6

     negative rho (up, down):  1.410E-02 0.000E+00
 
     Adding external electric field

     Computed dipole along edir(3) : 
        Dipole                1.3342 Ry au,          3.3912 Debye
        Dipole field          0.0025 Ry au, 
 
        Potential amp.       -0.2334 Ry
        Total length         46.3494 bohr
 

     total cpu time spent up to now is     1143.1 secs

     total energy              =   -2977.70002908 Ry
     estimated scf accuracy    <       0.00000607 Ry

     iteration # 67     ecut=    29.40 Ry     beta= 0.05
     Davidson diagonalization with overlap
     ethr =  1.50E-09,  avg # of iterations = 11.2

     negative rho (up, down):  1.412E-02 0.000E+00
 
     Adding external electric field

     Computed dipole along edir(3) : 
        Dipole                1.3343 Ry au,          3.3914 Debye
        Dipole field          0.0025 Ry au, 
 
        Potential amp.       -0.2334 Ry
        Total length         46.3494 bohr
 

     total cpu time spent up to now is     1158.5 secs

     total energy              =   -2977.70003269 Ry
     estimated scf accuracy    <       0.00000438 Ry

     iteration # 68     ecut=    29.40 Ry     beta= 0.05
     Davidson diagonalization with overlap
     ethr =  1.08E-09,  avg # of iterations =  7.0

     negative rho (up, down):  1.412E-02 0.000E+00
 
     Adding external electric field

     Computed dipole along edir(3) : 
        Dipole                1.3336 Ry au,          3.3896 Debye
        Dipole field          0.0025 Ry au, 
 
        Potential amp.       -0.2333 Ry
        Total length         46.3494 bohr
 

     total cpu time spent up to now is     1171.6 secs

     total energy              =   -2977.70003594 Ry
     estimated scf accuracy    <       0.00000297 Ry

     iteration # 69     ecut=    29.40 Ry     beta= 0.05
     Davidson diagonalization with overlap
     ethr =  7.32E-10,  avg # of iterations = 11.8

     negative rho (up, down):  1.415E-02 0.000E+00
 
     Adding external electric field

     Computed dipole along edir(3) : 
        Dipole                1.3344 Ry au,          3.3916 Debye
        Dipole field          0.0025 Ry au, 
 
        Potential amp.       -0.2334 Ry
        Total length         46.3494 bohr
 

     total cpu time spent up to now is     1188.1 secs

     total energy              =   -2977.70003875 Ry
     estimated scf accuracy    <       0.00000210 Ry

     iteration # 70     ecut=    29.40 Ry     beta= 0.05
     Davidson diagonalization with overlap
     ethr =  5.16E-10,  avg # of iterations =  9.1

     negative rho (up, down):  1.416E-02 0.000E+00
 
     Adding external electric field

     Computed dipole along edir(3) : 
        Dipole                1.3346 Ry au,          3.3922 Debye
        Dipole field          0.0025 Ry au, 
 
        Potential amp.       -0.2335 Ry
        Total length         46.3494 bohr
 

     total cpu time spent up to now is     1201.1 secs

     total energy              =   -2977.70004094 Ry
     estimated scf accuracy    <       0.00000135 Ry

     iteration # 71     ecut=    29.40 Ry     beta= 0.05
     Davidson diagonalization with overlap
     c_bands:  1 eigenvalues not converged
     ethr =  3.32E-10,  avg # of iterations = 12.4

     negative rho (up, down):  1.411E-02 0.000E+00
 
     Adding external electric field

     Computed dipole along edir(3) : 
        Dipole                1.3337 Ry au,          3.3900 Debye
        Dipole field          0.0025 Ry au, 
 
        Potential amp.       -0.2333 Ry
        Total length         46.3494 bohr
 

     total cpu time spent up to now is     1220.3 secs

     total energy              =   -2977.70004321 Ry
     estimated scf accuracy    <       0.00000098 Ry

     iteration # 72     ecut=    29.40 Ry     beta= 0.05
     Davidson diagonalization with overlap
     ethr =  2.41E-10,  avg # of iterations = 11.6

     negative rho (up, down):  1.408E-02 0.000E+00
 
     Adding external electric field

     Computed dipole along edir(3) : 
        Dipole                1.3331 Ry au,          3.3885 Debye
        Dipole field          0.0025 Ry au, 
 
        Potential amp.       -0.2332 Ry
        Total length         46.3494 bohr
 

     total cpu time spent up to now is     1237.5 secs

     total energy              =   -2977.70004527 Ry
     estimated scf accuracy    <       0.00000046 Ry

     iteration # 73     ecut=    29.40 Ry     beta= 0.05
     Davidson diagonalization with overlap
     ethr =  1.14E-10,  avg # of iterations =  8.7

     negative rho (up, down):  1.408E-02 0.000E+00
 
     Adding external electric field

     Computed dipole along edir(3) : 
        Dipole                1.3330 Ry au,          3.3882 Debye
        Dipole field          0.0025 Ry au, 
 
        Potential amp.       -0.2332 Ry
        Total length         46.3494 bohr
 

     total cpu time spent up to now is     1253.3 secs

     total energy              =   -2977.70004709 Ry
     estimated scf accuracy    <       0.00000013 Ry

     iteration # 74     ecut=    29.40 Ry     beta= 0.05
     Davidson diagonalization with overlap
     c_bands:  1 eigenvalues not converged
     ethr =  3.16E-11,  avg # of iterations = 13.4

     negative rho (up, down):  1.407E-02 0.000E+00
 
     Adding external electric field

     Computed dipole along edir(3) : 
        Dipole                1.3329 Ry au,          3.3878 Debye
        Dipole field          0.0025 Ry au, 
 
        Potential amp.       -0.2332 Ry
        Total length         46.3494 bohr
 

     total cpu time spent up to now is     1269.7 secs

     total energy              =   -2977.70004871 Ry
     estimated scf accuracy    <       0.00000010 Ry

     iteration # 75     ecut=    29.40 Ry     beta= 0.05
     Davidson diagonalization with overlap
     c_bands:  1 eigenvalues not converged
     ethr =  2.52E-11,  avg # of iterations =  8.8

     negative rho (up, down):  1.405E-02 0.000E+00
 
     Adding external electric field

     Computed dipole along edir(3) : 
        Dipole                1.3327 Ry au,          3.3873 Debye
        Dipole field          0.0025 Ry au, 
 
        Potential amp.       -0.2331 Ry
        Total length         46.3494 bohr
 

     total cpu time spent up to now is     1285.5 secs

     total energy              =   -2977.70005016 Ry
     estimated scf accuracy    <       0.00000014 Ry

     iteration # 76     ecut=    29.40 Ry     beta= 0.05
     Davidson diagonalization with overlap
     c_bands:  2 eigenvalues not converged
     ethr =  2.52E-11,  avg # of iterations =  9.4

     negative rho (up, down):  1.407E-02 0.000E+00
 
     Adding external electric field

     Computed dipole along edir(3) : 
        Dipole                1.3317 Ry au,          3.3849 Debye
        Dipole field          0.0025 Ry au, 
 
        Potential amp.       -0.2330 Ry
        Total length         46.3494 bohr
 

     total cpu time spent up to now is     1303.8 secs

     End of self-consistent calculation

          k = 0.0000 0.0000 0.0000 ( 18029 PWs)   bands (ev):

   -55.1234 -55.0868 -55.0792 -55.0451 -55.0404 -55.0344 -55.0027 -54.9668
   -54.9482 -54.9135 -54.9096 -54.8928 -54.8759 -54.8421 -54.1090 -54.0749
   -31.6853 -31.5999 -31.5715 -31.4918 -31.4374 -31.4347 -31.4210 -31.4151
   -31.3681 -31.3453 -31.3351 -31.3239 -31.3178 -31.3146 -31.2962 -31.2884
   -31.2678 -31.2653 -31.2628 -31.2445 -31.2317 -31.2226 -31.2056 -31.2009
   -31.1929 -31.1815 -31.1783 -31.1492 -31.1364 -31.1335 -31.1286 -31.1081
   -31.1055 -31.0977 -31.0945 -31.0707 -31.0616 -31.0451 -31.0375 -31.0357
   -31.0206 -31.0198 -30.5183 -30.4241 -30.4020 -30.3347 -30.2479 -30.1370
   -18.8047 -17.8502 -15.9547 -15.6992 -15.5628 -15.4618 -15.3266 -15.2210
   -15.1392 -15.0252 -14.9753 -14.8604 -14.8276 -14.8232 -14.7835 -14.7523
   -14.7035 -14.6646 -14.6624 -14.6403 -14.6206 -14.6130 -14.5702 -14.5633
   -14.5236 -14.5217 -14.5018 -14.3659 -14.2842 -14.2141 -14.0322 -13.1919
   -12.6113 -12.4938  -9.7780  -6.5377  -6.4265  -5.4850  -4.9121  -3.5237
    -3.2879  -3.1433  -3.0892  -3.0548  -3.0194  -2.9613  -2.8854  -2.8017
    -2.6545  -2.5852  -2.5605  -2.4083  -2.3342  -2.3245  -2.2680  -2.1686
    -2.1431  -2.0967  -2.0540  -1.9899  -1.9519  -1.9288  -1.9070  -1.8719
    -1.8682  -1.8145  -1.7611  -1.6910  -1.6009  -1.5700  -1.5244  -1.4806
    -1.4580  -1.4550  -1.4154  -1.4088  -1.3959  -1.3541  -1.3474  -1.3178
    -1.2706  -1.1623  -1.0097  -0.9501  -0.8530  -0.7646  -0.7204  -0.7126
    -0.6936  -0.6329  -0.6102  -0.5727  -0.5051  -0.4568  -0.3778  -0.3308
    -0.3088  -0.2292  -0.1243  -0.1071  -0.0997  -0.0115   0.0801   0.0935
     0.1077   0.1178   0.2151   0.2806   0.3146   0.3562   0.4204   0.4294
     0.4887   0.5162   0.5679   0.6342   0.6671   0.7468   0.7862   0.8070
     0.8121   0.8346   0.8560   0.8676   0.9475   0.9562   0.9817   1.0703
     1.1747   1.3293   1.4752   1.4862   1.8195   1.8205   1.9141   2.0977
     2.4902   2.5385   3.9710   4.0466   4.1051   4.1163   4.1219   4.2068
     4.4559   4.4737   4.4851   4.4866   4.5217

          k = 0.0000 0.0419 0.0000 ( 17933 PWs)   bands (ev):

   -55.1183 -55.0918 -55.0741 -55.0500 -55.0394 -55.0334 -54.9979 -54.9714
   -54.9433 -54.9183 -54.9046 -54.8937 -54.8808 -54.8429 -54.1039 -54.0798
   -31.6284 -31.5612 -31.5175 -31.4370 -31.4096 -31.3858 -31.3839 -31.3724
   -31.3632 -31.3560 -31.3469 -31.3238 -31.3191 -31.3087 -31.3024 -31.2894
   -31.2811 -31.2724 -31.2611 -31.2495 -31.2298 -31.2277 -31.2178 -31.2104
   -31.2074 -31.1758 -31.1742 -31.1630 -31.1525 -31.1515 -31.1498 -31.1408
   -31.1176 -31.0993 -31.0971 -31.0943 -31.0898 -31.0782 -31.0746 -31.0604
   -31.0480 -31.0313 -30.4641 -30.4206 -30.4050 -30.3221 -30.2605 -30.1942
   -18.8042 -17.8488 -15.8286 -15.5876 -15.4817 -15.3881 -15.2216 -15.1608
   -15.1006 -15.0253 -14.9686 -14.9328 -14.8837 -14.8156 -14.7740 -14.7668
   -14.7308 -14.6959 -14.6829 -14.6338 -14.6263 -14.6086 -14.6066 -14.5781
   -14.5622 -14.5612 -14.4955 -14.4221 -14.3394 -14.2738 -14.1399 -13.1920
   -12.6148 -12.5330  -9.7758  -6.5407  -6.4171  -5.4884  -4.9157  -3.5066
    -3.1046  -2.9967  -2.9746  -2.9317  -2.8803  -2.8433  -2.7737  -2.7422
    -2.4768  -2.4668  -2.4319  -2.3574  -2.2887  -2.2848  -2.2266  -2.1949
    -2.1506  -2.1405  -2.1112  -2.0727  -2.0536  -2.0286  -1.9882  -1.9223
    -1.8969  -1.8674  -1.8412  -1.7649  -1.7489  -1.7201  -1.6847  -1.6775
    -1.6407  -1.5598  -1.5518  -1.4457  -1.4356  -1.3674  -1.2884  -1.1736
    -1.0809  -0.9911  -0.9544  -0.9282  -0.8419  -0.7400  -0.7236  -0.6725
    -0.5439  -0.4856  -0.4627  -0.4440  -0.4288  -0.4054  -0.3180  -0.2923
    -0.2295  -0.1389  -0.1176  -0.0760  -0.0615  -0.0506   0.0333   0.0518
     0.0643   0.1044   0.2041   0.2504   0.2645   0.2871   0.3263   0.3667
     0.4306   0.4755   0.5118   0.5714   0.6204   0.6251   0.6614   0.6808
     0.6877   0.8137   0.8294   0.8717   0.8955   0.9066   0.9872   1.0533
     1.1651   1.1700   1.1890   1.3451   1.5220   1.6948   2.0977   2.1737
     2.4451   2.4488   4.1659   4.1746   4.2061   4.2627   4.3465   4.3669
     4.3846   4.4082   4.4601   4.4682   4.5374

          k = 0.0000-0.0839 0.0000 ( 17884 PWs)   bands (ev):

   -55.1090 -55.1010 -55.0621 -55.0620 -55.0384 -55.0325 -54.9899 -54.9794
   -54.9338 -54.9277 -54.8947 -54.8931 -54.8921 -54.8437 -54.0919 -54.0917
   -31.5149 -31.4944 -31.4846 -31.3850 -31.3850 -31.3811 -31.3740 -31.3533
   -31.3533 -31.3166 -31.3121 -31.3076 -31.3001 -31.2979 -31.2963 -31.2927
   -31.2782 -31.2711 -31.2596 -31.2559 -31.2536 -31.2478 -31.2321 -31.2121
   -31.1991 -31.1982 -31.1946 -31.1911 -31.1840 -31.1840 -31.1833 -31.1670
   -31.1634 -31.1586 -31.1539 -31.1054 -31.0909 -31.0882 -31.0858 -31.0733
   -31.0727 -31.0283 -30.4126 -30.4125 -30.3310 -30.3309 -30.2914 -30.2912
   -18.8036 -17.8475 -15.5966 -15.4867 -15.3366 -15.2830 -15.1750 -15.1549
   -15.1313 -15.0419 -14.9651 -14.9578 -14.9497 -14.9079 -14.8126 -14.7375
   -14.7215 -14.7175 -14.7143 -14.7005 -14.6383 -14.5914 -14.5635 -14.5535
   -14.5342 -14.5311 -14.4774 -14.4698 -14.4191 -14.4163 -14.3052 -13.1923
   -12.5958 -12.5956  -9.7737  -6.5440  -6.4082  -5.4923  -4.9192  -3.4919
    -3.0010  -2.7922  -2.6956  -2.6767  -2.5991  -2.5756  -2.5636  -2.5531
    -2.5167  -2.4749  -2.4056  -2.4012  -2.3818  -2.3137  -2.2980  -2.2873
    -2.2695  -2.2562  -2.1834  -2.1391  -2.1172  -2.0503  -2.0174  -1.9947
    -1.9894  -1.9744  -1.9578  -1.8907  -1.8476  -1.7662  -1.7343  -1.6303
    -1.5735  -1.5058  -1.4934  -1.4528  -1.2721  -1.2593  -1.2098  -1.1993
    -1.0598  -0.9419  -0.9223  -0.8969  -0.8906  -0.6713  -0.6539  -0.6108
    -0.5999  -0.5827  -0.5763  -0.5366  -0.5113  -0.5009  -0.3742  -0.3068
    -0.2917  -0.2245  -0.1744  -0.1069  -0.0240   0.1314   0.1469   0.1706
     0.2077   0.2303   0.2508   0.2700   0.2780   0.2940   0.3367   0.3888
     0.3963   0.4243   0.4663   0.4992   0.5186   0.5420   0.5661   0.6160
     0.6380   0.6609   0.6621   0.6869   0.7019   0.8699   0.9856   1.0476
     1.0853   1.0864   1.2289   1.2410   1.4360   1.4465   2.2393   2.2405
     2.3808   2.3809   4.2486   4.2766   4.2871   4.3022   4.3864   4.4003
     4.4529   4.4582   4.5441   4.5640   4.5788

          k = 0.0380 0.0000 0.0000 ( 17913 PWs)   bands (ev):

   -55.1233 -55.0867 -55.0791 -55.0450 -55.0399 -55.0346 -55.0026 -54.9667
   -54.9480 -54.9134 -54.9096 -54.8927 -54.8758 -54.8420 -54.1089 -54.0748
   -31.6854 -31.6000 -31.5724 -31.4972 -31.4414 -31.4384 -31.4209 -31.4154
   -31.3679 -31.3451 -31.3239 -31.3190 -31.3169 -31.3147 -31.2961 -31.2725
   -31.2674 -31.2651 -31.2563 -31.2296 -31.2240 -31.2225 -31.2125 -31.2009
   -31.1989 -31.1926 -31.1780 -31.1492 -31.1361 -31.1328 -31.1211 -31.1169
   -31.1079 -31.1054 -31.0970 -31.0679 -31.0604 -31.0447 -31.0413 -31.0374
   -31.0210 -31.0202 -30.5178 -30.4276 -30.4000 -30.3345 -30.2478 -30.1368
   -18.8042 -17.8502 -15.8751 -15.6126 -15.5672 -15.4086 -15.2432 -15.2137
   -15.1442 -15.0484 -14.9811 -14.9505 -14.9011 -14.8970 -14.8247 -14.8201
   -14.7963 -14.7254 -14.6837 -14.6658 -14.6145 -14.5682 -14.5496 -14.5267
   -14.4844 -14.4390 -14.3814 -14.3590 -14.3482 -14.3007 -14.0305 -13.1931
   -12.6079 -12.4935  -9.7786  -6.5422  -6.4199  -5.4799  -4.9147  -3.5233
    -3.1639  -3.0345  -2.9651  -2.9100  -2.8652  -2.7822  -2.7713  -2.7333
    -2.6530  -2.6381  -2.5961  -2.5573  -2.4911  -2.4467  -2.2667  -2.2029
    -2.1935  -2.1098  -2.0375  -1.9114  -1.8992  -1.8690  -1.8412  -1.8120
    -1.7887  -1.7311  -1.7108  -1.6588  -1.5465  -1.5236  -1.4843  -1.4735
    -1.4579  -1.4482  -1.4047  -1.3797  -1.3631  -1.3101  -1.2131  -1.1900
    -1.1693  -1.0650  -0.9820  -0.9405  -0.8540  -0.8284  -0.7733  -0.7550
    -0.6967  -0.6494  -0.6368  -0.5825  -0.5461  -0.5396  -0.4726  -0.4378
    -0.4240  -0.2095  -0.1637  -0.1442  -0.0710  -0.0217  -0.0047   0.0352
     0.0900   0.1669   0.2031   0.2272   0.2651   0.3019   0.3551   0.4017
     0.4308   0.4849   0.5523   0.5713   0.6050   0.6266   0.6473   0.6863
     0.7311   0.7641   0.8208   0.8360   0.8727   0.9007   0.9209   0.9928
     1.0699   1.1083   1.3121   1.5370   1.6814   1.8254   1.9260   2.0665
     2.3775   2.4557   3.9854   4.0729   4.1886   4.2850   4.3084   4.3642
     4.4121   4.4197   4.4623   4.4755   4.4865

          k = 0.0380 0.0419 0.0000 ( 17878 PWs)   bands (ev):

   -55.1182 -55.0917 -55.0741 -55.0500 -55.0390 -55.0337 -54.9979 -54.9714
   -54.9431 -54.9182 -54.9046 -54.8937 -54.8808 -54.8429 -54.1038 -54.0798
   -31.6286 -31.5613 -31.5184 -31.4433 -31.4096 -31.3896 -31.3881 -31.3728
   -31.3630 -31.3560 -31.3470 -31.3194 -31.3111 -31.3080 -31.3024 -31.2895
   -31.2675 -31.2630 -31.2607 -31.2496 -31.2278 -31.2161 -31.2132 -31.2116
   -31.2094 -31.1919 -31.1739 -31.1606 -31.1529 -31.1497 -31.1432 -31.1387
   -31.1269 -31.1029 -31.0986 -31.0969 -31.0964 -31.0757 -31.0743 -31.0603
   -31.0480 -31.0375 -30.4637 -30.4234 -30.4040 -30.3219 -30.2606 -30.1941
   -18.8038 -17.8488 -15.7571 -15.5274 -15.4810 -15.3180 -15.1751 -15.1267
   -15.0944 -15.0241 -14.9942 -14.9406 -14.9191 -14.8735 -14.8292 -14.7989
   -14.7736 -14.7399 -14.7123 -14.6786 -14.6554 -14.6016 -14.5805 -14.5621
   -14.5386 -14.4919 -14.4502 -14.4175 -14.4073 -14.3546 -14.1393 -13.1931
   -12.6125 -12.5333  -9.7765  -6.5647  -6.3897  -5.4824  -4.9175  -3.5084
    -3.0150  -2.9445  -2.8784  -2.7930  -2.7436  -2.6753  -2.6210  -2.5610
    -2.5071  -2.4741  -2.4404  -2.3986  -2.3288  -2.2614  -2.1994  -2.1677
    -2.1443  -2.1246  -2.0608  -2.0215  -1.9990  -1.9618  -1.9441  -1.9216
    -1.8840  -1.8319  -1.8207  -1.7664  -1.7505  -1.7074  -1.6449  -1.6290
    -1.5878  -1.5717  -1.5211  -1.4510  -1.3396  -1.2834  -1.1952  -1.1479
    -1.1065  -0.9798  -0.9455  -0.8741  -0.8405  -0.8003  -0.7315  -0.6588
    -0.6112  -0.5700  -0.5298  -0.5171  -0.4888  -0.4565  -0.4054  -0.3799
    -0.3007  -0.2526  -0.2165  -0.1676  -0.0986  -0.0677  -0.0609  -0.0298
     0.0414   0.1059   0.1110   0.1571   0.1773   0.2181   0.2552   0.2820
     0.3029   0.3441   0.3923   0.4368   0.4727   0.5238   0.5972   0.6217
     0.7181   0.7510   0.8110   0.8548   0.8891   0.9364   0.9939   1.0268
     1.1073   1.1490   1.2929   1.2985   1.4682   1.6499   2.1085   2.1771
     2.3673   2.4305   4.1429   4.1695   4.1923   4.3157   4.3520   4.3865
     4.4057   4.4607   4.5214   4.5477   4.5759

          k = 0.0380-0.0839 0.0000 ( 17916 PWs)   bands (ev):

   -55.1090 -55.1010 -55.0621 -55.0620 -55.0381 -55.0328 -54.9899 -54.9795
   -54.9337 -54.9276 -54.8947 -54.8932 -54.8922 -54.8437 -54.0919 -54.0918
   -31.5152 -31.4947 -31.4848 -31.3858 -31.3858 -31.3811 -31.3743 -31.3533
   -31.3533 -31.3251 -31.3204 -31.3194 -31.3123 -31.2942 -31.2793 -31.2703
   -31.2694 -31.2619 -31.2610 -31.2579 -31.2569 -31.2535 -31.2324 -31.2179
   -31.2008 -31.2001 -31.1832 -31.1831 -31.1785 -31.1742 -31.1726 -31.1703
   -31.1668 -31.1622 -31.1586 -31.1067 -31.1025 -31.1000 -31.0806 -31.0733
   -31.0727 -31.0364 -30.4137 -30.4136 -30.3309 -30.3308 -30.2914 -30.2912
   -18.8034 -17.8472 -15.5676 -15.4454 -15.2987 -15.2303 -15.1611 -15.1128
   -15.0761 -15.0147 -14.9763 -14.9713 -14.9134 -14.8700 -14.8065 -14.7774
   -14.7493 -14.7442 -14.7193 -14.7071 -14.6983 -14.6138 -14.6072 -14.5649
   -14.5605 -14.5532 -14.4975 -14.4906 -14.4701 -14.4689 -14.2972 -13.1930
   -12.5955 -12.5954  -9.7742  -6.5729  -6.3726  -5.4872  -4.9210  -3.4944
    -2.9784  -2.7959  -2.6641  -2.6310  -2.4892  -2.4230  -2.4028  -2.3933
    -2.3546  -2.3124  -2.3044  -2.2545  -2.2412  -2.2277  -2.2055  -2.2018
    -2.1834  -2.1668  -2.1283  -2.1087  -2.0723  -2.0330  -2.0117  -1.9821
    -1.9639  -1.9032  -1.8942  -1.8456  -1.8137  -1.7865  -1.7505  -1.6949
    -1.6125  -1.4698  -1.4024  -1.3255  -1.2945  -1.2714  -1.2117  -1.1188
    -1.0916  -1.0572  -1.0202  -0.9868  -0.9257  -0.8832  -0.8284  -0.8092
    -0.8005  -0.7443  -0.6815  -0.6038  -0.4877  -0.4684  -0.4359  -0.3897
    -0.3527  -0.2754  -0.2085  -0.1696  -0.1502  -0.0837  -0.0344   0.0143
     0.0524   0.0607   0.0821   0.0995   0.1822   0.2300   0.2357   0.2672
     0.3071   0.3464   0.3561   0.3791   0.4008   0.5524   0.5938   0.6083
     0.6366   0.7512   0.7909   0.8868   0.9358   0.9390   0.9476   1.0279
     1.0915   1.1180   1.1959   1.2070   1.4256   1.4359   2.2527   2.2539
     2.3712   2.3719   4.1481   4.2248   4.2735   4.3037   4.3889   4.4242
     4.4303   4.4588   4.5543   4.5854   4.6243

          k = 0.0380-0.0419 0.0000 ( 17876 PWs)   bands (ev):

   -55.1182 -55.0917 -55.0741 -55.0500 -55.0390 -55.0337 -54.9979 -54.9714
   -54.9431 -54.9182 -54.9046 -54.8936 -54.8808 -54.8429 -54.1038 -54.0798
   -31.6286 -31.5613 -31.5183 -31.4433 -31.4096 -31.3898 -31.3882 -31.3728
   -31.3630 -31.3560 -31.3470 -31.3194 -31.3111 -31.3081 -31.3023 -31.2896
   -31.2661 -31.2630 -31.2606 -31.2496 -31.2280 -31.2161 -31.2148 -31.2115
   -31.2089 -31.1920 -31.1739 -31.1606 -31.1529 -31.1497 -31.1432 -31.1386
   -31.1272 -31.1026 -31.0987 -31.0981 -31.0964 -31.0749 -31.0742 -31.0590
   -31.0480 -31.0384 -30.4637 -30.4234 -30.4040 -30.3219 -30.2606 -30.1941
   -18.8038 -17.8486 -15.7572 -15.5277 -15.4803 -15.3147 -15.1737 -15.1271
   -15.0945 -15.0262 -14.9980 -14.9395 -14.9232 -14.8729 -14.8286 -14.7977
   -14.7740 -14.7397 -14.7083 -14.6782 -14.6554 -14.6017 -14.5833 -14.5630
   -14.5390 -14.4918 -14.4495 -14.4174 -14.4076 -14.3549 -14.1379 -13.1928
   -12.6125 -12.5333  -9.7762  -6.5537  -6.3985  -5.4843  -4.9182  -3.5081
    -3.0120  -2.9378  -2.8807  -2.8218  -2.7439  -2.6732  -2.6201  -2.5605
    -2.5045  -2.4703  -2.4393  -2.4011  -2.3227  -2.2569  -2.1992  -2.1669
    -2.1411  -2.1262  -2.0619  -2.0219  -2.0015  -1.9640  -1.9423  -1.9199
    -1.8849  -1.8308  -1.8206  -1.7648  -1.7494  -1.7080  -1.6417  -1.6243
    -1.5972  -1.5640  -1.5264  -1.4564  -1.3419  -1.2833  -1.1930  -1.1428
    -1.1069  -0.9871  -0.9522  -0.8745  -0.8395  -0.7867  -0.7376  -0.6589
    -0.6087  -0.5686  -0.5354  -0.5154  -0.4796  -0.4586  -0.4046  -0.3855
    -0.2993  -0.2442  -0.2131  -0.1601  -0.1022  -0.0767  -0.0663  -0.0282
     0.0389   0.0941   0.1204   0.1634   0.1770   0.2127   0.2557   0.2723
     0.3052   0.3481   0.4050   0.4415   0.4790   0.5244   0.5958   0.6106
     0.7006   0.7575   0.8211   0.8591   0.8939   0.9352   0.9862   1.0274
     1.0984   1.1497   1.2926   1.2992   1.4686   1.6502   2.1086   2.1771
     2.3671   2.4311   4.1411   4.1699   4.1914   4.3152   4.3560   4.3888
     4.4072   4.4626   4.5232   4.5499   4.5738

          k =-0.0760-0.0000 0.0000 ( 17886 PWs)   bands (ev):

   -55.1232 -55.0866 -55.0790 -55.0450 -55.0394 -55.0350 -55.0026 -54.9667
   -54.9478 -54.9133 -54.9097 -54.8927 -54.8758 -54.8420 -54.1088 -54.0748
   -31.6856 -31.6002 -31.5734 -31.5023 -31.4453 -31.4421 -31.4206 -31.4157
   -31.3678 -31.3450 -31.3239 -31.3177 -31.3153 -31.2961 -31.2929 -31.2674
   -31.2648 -31.2507 -31.2437 -31.2332 -31.2260 -31.2243 -31.2224 -31.2009
   -31.1926 -31.1902 -31.1783 -31.1513 -31.1490 -31.1364 -31.1327 -31.1128
   -31.1081 -31.1055 -31.1005 -31.0643 -31.0595 -31.0501 -31.0427 -31.0373
   -31.0217 -31.0207 -30.5174 -30.4310 -30.3986 -30.3345 -30.2477 -30.1369
   -18.8038 -17.8501 -15.7281 -15.6654 -15.4744 -15.3395 -15.2109 -15.1699
   -15.0961 -15.0541 -15.0243 -14.9974 -14.9773 -14.9491 -14.9030 -14.8797
   -14.8460 -14.8106 -14.6786 -14.6248 -14.6099 -14.5692 -14.5537 -14.5316
   -14.5222 -14.4561 -14.4023 -14.3719 -14.2914 -14.2600 -14.0294 -13.1943
   -12.6048 -12.4932  -9.7792  -6.5465  -6.4137  -5.4751  -4.9173  -3.5251
    -3.1271  -3.0148  -2.9539  -2.7970  -2.7624  -2.6751  -2.6455  -2.6283
    -2.6128  -2.5916  -2.5603  -2.5452  -2.4385  -2.3734  -2.3575  -2.1805
    -2.0795  -2.0202  -1.9757  -1.8693  -1.8063  -1.7785  -1.7698  -1.7285
    -1.7115  -1.6693  -1.6383  -1.6127  -1.6047  -1.5928  -1.5754  -1.4834
    -1.4587  -1.4386  -1.4150  -1.4049  -1.3309  -1.2848  -1.2368  -1.1382
    -1.1128  -1.0551  -0.9400  -0.8694  -0.7981  -0.7877  -0.7680  -0.7611
    -0.7354  -0.7142  -0.6909  -0.6363  -0.6019  -0.5697  -0.5326  -0.4645
    -0.4248  -0.3993  -0.3917  -0.3258  -0.1274  -0.1010  -0.0357  -0.0087
     0.0702   0.0980   0.1449   0.1784   0.2294   0.2677   0.3179   0.3486
     0.3786   0.3877   0.4522   0.4645   0.5358   0.5577   0.6257   0.6600
     0.6766   0.6974   0.7233   0.7675   0.8046   0.8573   0.8933   1.0024
     1.1164   1.1461   1.3636   1.4024   1.5622   1.8300   1.9474   2.0415
     2.2473   2.4006   3.9854   4.0307   4.1210   4.2422   4.2571   4.3557
     4.4137   4.4298   4.4616   4.4775   4.5551

          k =-0.0760 0.0419 0.0000 ( 17914 PWs)   bands (ev):

   -55.1181 -55.0917 -55.0741 -55.0500 -55.0386 -55.0341 -54.9979 -54.9715
   -54.9430 -54.9182 -54.9048 -54.8937 -54.8808 -54.8429 -54.1038 -54.0798
   -31.6289 -31.5615 -31.5194 -31.4495 -31.4100 -31.3934 -31.3925 -31.3734
   -31.3630 -31.3560 -31.3470 -31.3196 -31.3091 -31.3031 -31.2922 -31.2895
   -31.2609 -31.2535 -31.2499 -31.2400 -31.2332 -31.2277 -31.2133 -31.2114
   -31.2096 -31.1784 -31.1747 -31.1600 -31.1581 -31.1530 -31.1494 -31.1459
   -31.1166 -31.1135 -31.1045 -31.0992 -31.0971 -31.0750 -31.0719 -31.0577
   -31.0481 -31.0472 -30.4635 -30.4264 -30.4033 -30.3219 -30.2606 -30.1941
   -18.8035 -17.8486 -15.6144 -15.5992 -15.3847 -15.2483 -15.1406 -15.0938
   -15.0458 -15.0244 -15.0089 -14.9587 -14.9277 -14.9172 -14.9039 -14.8546
   -14.8291 -14.7828 -14.7198 -14.6874 -14.6752 -14.5993 -14.5854 -14.5738
   -14.5513 -14.5042 -14.5017 -14.4159 -14.3793 -14.3671 -14.1378 -13.1940
   -12.6103 -12.5337  -9.7770  -6.5741  -6.3749  -5.4784  -4.9201  -3.5107
    -2.9948  -2.9149  -2.8645  -2.8046  -2.5479  -2.4932  -2.4872  -2.4030
    -2.3992  -2.3726  -2.3646  -2.3268  -2.2658  -2.2077  -2.1571  -2.1378
    -2.0835  -2.0793  -2.0510  -2.0190  -1.9475  -1.9387  -1.8722  -1.8445
    -1.8048  -1.7879  -1.7619  -1.7368  -1.7066  -1.6866  -1.6772  -1.6669
    -1.5900  -1.5729  -1.3809  -1.3569  -1.2899  -1.2670  -1.2178  -1.1214
    -1.0699  -1.0298  -0.9246  -0.8939  -0.8159  -0.7812  -0.7582  -0.7279
    -0.7072  -0.6387  -0.6186  -0.6021  -0.5217  -0.5174  -0.4829  -0.4635
    -0.4034  -0.3763  -0.3616  -0.3340  -0.3040  -0.2573  -0.1955  -0.1802
    -0.1143  -0.0949   0.0080   0.0747   0.0927   0.1040   0.1375   0.1748
     0.1903   0.3233   0.3449   0.3887   0.4459   0.5039   0.5997   0.6147
     0.6926   0.7621   0.8058   0.8161   0.9036   0.9901   1.0711   1.1191
     1.1468   1.2136   1.2881   1.3700   1.3895   1.5275   2.1238   2.1792
     2.2894   2.4197   4.1479   4.1685   4.1710   4.1984   4.2832   4.3544
     4.3740   4.4430   4.4745   4.5801   4.6114

          k =-0.0760-0.0839 0.0000 ( 17948 PWs)   bands (ev):

   -55.1090 -55.1010 -55.0621 -55.0620 -55.0378 -55.0331 -54.9899 -54.9795
   -54.9337 -54.9276 -54.8947 -54.8933 -54.8923 -54.8438 -54.0919 -54.0918
   -31.5154 -31.4950 -31.4852 -31.3866 -31.3866 -31.3811 -31.3747 -31.3534
   -31.3534 -31.3331 -31.3278 -31.3223 -31.3125 -31.2943 -31.2802 -31.2656
   -31.2614 -31.2601 -31.2567 -31.2502 -31.2482 -31.2451 -31.2327 -31.2315
   -31.2020 -31.2013 -31.1842 -31.1818 -31.1817 -31.1733 -31.1729 -31.1668
   -31.1586 -31.1461 -31.1407 -31.1250 -31.1236 -31.1075 -31.0734 -31.0730
   -31.0717 -31.0482 -30.4147 -30.4146 -30.3308 -30.3308 -30.2915 -30.2912
   -18.8032 -17.8470 -15.5357 -15.3960 -15.2568 -15.1532 -15.1383 -15.0846
   -15.0355 -14.9940 -14.9521 -14.9078 -14.8978 -14.8798 -14.8513 -14.8242
   -14.7999 -14.7409 -14.7245 -14.7089 -14.6867 -14.6397 -14.6319 -14.6291
   -14.6220 -14.5757 -14.5731 -14.5492 -14.4794 -14.4774 -14.2908 -13.1938
   -12.5953 -12.5952  -9.7748  -6.5941  -6.3447  -5.4821  -4.9228  -3.4970
    -2.9546  -2.8160  -2.6580  -2.6224  -2.4762  -2.3762  -2.3309  -2.3025
    -2.2489  -2.2034  -2.1432  -2.1280  -2.1098  -2.0510  -2.0255  -2.0070
    -1.9754  -1.9564  -1.9428  -1.9236  -1.9068  -1.8788  -1.8525  -1.8439
    -1.8392  -1.8058  -1.7943  -1.7548  -1.7484  -1.7403  -1.6970  -1.6849
    -1.6590  -1.6012  -1.4950  -1.4847  -1.3323  -1.3299  -1.2880  -1.2503
    -1.2295  -1.2193  -1.1595  -1.1513  -1.1392  -0.8976  -0.8764  -0.8664
    -0.8393  -0.7805  -0.7639  -0.7009  -0.6904  -0.6074  -0.5927  -0.4903
    -0.4717  -0.4014  -0.3354  -0.3270  -0.3145  -0.2019  -0.1533  -0.1157
    -0.0901  -0.0799  -0.0625  -0.0247  -0.0246   0.0653   0.1087   0.1391
     0.1544   0.1840   0.3498   0.3973   0.4063   0.5452   0.5592   0.7087
     0.7704   0.7848   0.8757   0.8930   0.9808   0.9905   1.0301   1.1697
     1.1813   1.2047   1.2515   1.2798   1.3318   1.3370   2.2704   2.2717
     2.3584   2.3586   4.1035   4.2286   4.2351   4.2956   4.4051   4.4384
     4.4844   4.5181   4.5554   4.5581   4.6294

     the Fermi energy is     4.0331 ev

!    total energy              =   -2977.70006329 Ry
     estimated scf accuracy    <       0.00000004 Ry
     smearing contrib. (-TS)   =      -0.03675032 Ry
     internal energy E=F+TS    =   -2977.66331297 Ry

     The total energy is F=E-TS. E is the sum of the following terms:
     one-electron contribution =  -23080.49777995 Ry
     hartree contribution      =   11639.35751188 Ry
     xc contribution           =    -496.62858979 Ry
     ewald contribution        =    8960.10219813 Ry
     electric field correction =       0.00334676 Ry

     convergence has been achieved in  76 iterations

     Forces acting on atoms (cartesian axes, Ry/au):

     atom    1 type  1   force =     0.00018357   -0.00018793    0.09310994
     atom    2 type  1   force =    -0.00009979   -0.00033416   -0.17822423
     atom    3 type  2   force =     0.00001998   -0.00017699   -0.02036875
     atom    4 type  2   force =    -0.00002731   -0.00199971    0.05899770
     atom    5 type  2   force =    -0.01060205   -0.00142146    0.00859868
     atom    6 type  2   force =     0.01186404   -0.00070515    0.00712952
     atom    7 type  1   force =    -0.00088636    0.00312664   -0.01230199
     atom    8 type  1   force =     0.00055786    0.00113119   -0.00451099
     atom    9 type  2   force =    -0.00007452   -0.00037506    0.00015413
     atom   10 type  2   force =    -0.00129440   -0.00050848   -0.00193520
     atom   11 type  2   force =    -0.00022279   -0.00021841   -0.00005789
     atom   12 type  2   force =     0.00061271   -0.00007574   -0.00024132
     atom   13 type  1   force =    -0.00103201   -0.00062515    0.00018674
     atom   14 type  1   force =     0.00011944   -0.00005086    0.00015314
     atom   15 type  2   force =    -0.00026603   -0.00034227    0.00002210
     atom   16 type  2   force =    -0.00000787   -0.00007921    0.00066960
     atom   17 type  2   force =    -0.00019941    0.00028452    0.00057832
     atom   18 type  2   force =     0.00011132    0.00008320    0.00031515
     atom   19 type  1   force =     0.00023853    0.00004380    0.00064027
     atom   20 type  1   force =    -0.00023945   -0.00037230    0.00078879
     atom   21 type  2   force =     0.00007015   -0.00001286    0.10398494
     atom   22 type  2   force =     0.00005224   -0.00015051   -0.00122973
     atom   23 type  2   force =    -0.07039097   -0.00010184   -0.02688897
     atom   24 type  2   force =     0.07027003    0.00034354   -0.02692950
     atom   25 type  1   force =    -0.00000124   -0.00022426    0.09277881
     atom   26 type  1   force =    -0.00019243   -0.00035979   -0.17832947
     atom   27 type  2   force =     0.00010313   -0.00028795   -0.01934240
     atom   28 type  2   force =     0.00003719   -0.00163242    0.05807109
     atom   29 type  2   force =    -0.01068509   -0.00080272    0.00799835
     atom   30 type  2   force =     0.01180212   -0.00047478    0.00652336
     atom   31 type  1   force =    -0.00071889    0.00503524   -0.01494092
     atom   32 type  1   force =     0.00039420   -0.00139062   -0.00478183
     atom   33 type  2   force =    -0.00011294    0.00021774    0.00030097
     atom   34 type  2   force =    -0.00129003    0.00140478   -0.00090134
     atom   35 type  2   force =     0.00019224    0.00014381    0.00002416
     atom   36 type  2   force =     0.00012119   -0.00000877   -0.00011069
     atom   37 type  1   force =    -0.00103172    0.00056146   -0.00000880
     atom   38 type  1   force =     0.00013779   -0.00014353   -0.00006103
     atom   39 type  2   force =    -0.00002752   -0.00014754    0.00026307
     atom   40 type  2   force =    -0.00020730    0.00021030    0.00025304
     atom   41 type  2   force =     0.00004910   -0.00018887    0.00040201
     atom   42 type  2   force =    -0.00017485   -0.00005340    0.00004853
     atom   43 type  1   force =     0.00010359    0.00031200    0.00053359
     atom   44 type  1   force =    -0.00009380    0.00031341   -0.00023117
     atom   45 type  2   force =     0.00004409   -0.00005245    0.10397525
     atom   46 type  2   force =    -0.07038403   -0.00006315   -0.02691104
     atom   47 type  2   force =     0.07028972    0.00036749   -0.02694276
     atom   48 type  3   force =     0.00024896    0.00092490    0.00325853
     atom   49 type  3   force =    -0.00030736    0.00220130   -0.00976140
     atom   50 type  4   force =     0.00232052    0.00085695    0.00053025
     atom   51 type  5   force =     0.00012933   -0.00037528   -0.00004078
     atom   52 type  5   force =     0.00036918   -0.00061068    0.00038633
     atom   53 type  5   force =     0.00052205    0.00026228    0.00007188
     atom   54 type  5   force =     0.00009122    0.00052859    0.00109702
     atom   55 type  5   force =    -0.00081059   -0.00379157    0.00354052
     atom   56 type  5   force =    -0.00033036    0.00011436   -0.00016937
     atom   57 type  2   force =    -0.00035663    0.00065603   -0.00073002
     atom   58 type  5   force =     0.00075232   -0.00043513    0.00018142
     atom   59 type  5   force =     0.00025991   -0.00034253    0.00038439

     Total force =     0.366293     Total SCF correction =     0.000511
  @ DRIVER MODE: Message from server: STATUS
  @ DRIVER MODE: Message from server: GETFORCE
  @ DRIVER MODE: Returning v,forces,stress,ensemble 

     Writing output data file ./calc.save/
  @ DRIVER MODE: Message from server: EXIT
  @ DRIVE MODE: Exiting  
 
     init_run     :     10.99s CPU     11.19s WALL (       1 calls)
     electrons    :   1274.26s CPU   1292.33s WALL (       1 calls)
     forces       :      2.47s CPU      2.56s WALL (       1 calls)

     Called by init_run:
     wfcinit      :      4.94s CPU      5.01s WALL (       1 calls)
     potinit      :      5.34s CPU      5.40s WALL (       1 calls)
     hinit0       :      0.30s CPU      0.31s WALL (       1 calls)

     Called by electrons:
     c_bands      :   1090.32s CPU   1097.85s WALL (      76 calls)
     sum_band     :    124.40s CPU    128.68s WALL (      76 calls)
     v_of_rho     :     44.14s CPU     46.31s WALL (      77 calls)
     newd         :     18.32s CPU     22.41s WALL (      77 calls)
     mix_rho      :      1.66s CPU      1.68s WALL (      76 calls)
     vdW_kernel   :      4.55s CPU      4.56s WALL (       1 calls)

     Called by c_bands:
     init_us_2    :      8.87s CPU      8.90s WALL (    1540 calls)
     cegterg      :   1068.22s CPU   1075.43s WALL (     781 calls)

     Called by *egterg:
     cdiaghg      :    186.44s CPU    187.22s WALL (    8617 calls)
     h_psi        :    552.87s CPU    557.85s WALL (    8629 calls)
     s_psi        :     78.47s CPU     78.71s WALL (    8629 calls)
     g_psi        :      2.14s CPU      2.15s WALL (    7838 calls)

     Called by h_psi:
     h_psi:calbec :     73.16s CPU     73.50s WALL (    8629 calls)
     vloc_psi     :    395.93s CPU    399.88s WALL (    8629 calls)
     add_vuspsi   :     79.45s CPU     79.88s WALL (    8629 calls)

     General routines
     calbec       :     95.29s CPU     95.71s WALL (    9429 calls)
     fft          :     22.78s CPU     22.95s WALL (    4851 calls)
     ffts         :      0.14s CPU      0.15s WALL (     153 calls)
     fftw         :    442.73s CPU    447.20s WALL ( 1067800 calls)
     interpolate  :      0.47s CPU      0.47s WALL (      77 calls)
     davcio       :      0.00s CPU      0.97s WALL (      10 calls)
 
     Parallel routines
 
     PWSCF        :  21m27.95s CPU  21m51.05s WALL

 
   This run was terminated on:  20:16: 6  15Sep2021            

=------------------------------------------------------------------------------=
   JOB DONE.
=------------------------------------------------------------------------------=
