
     Program PWSCF v.6.7GPU starts on 16Sep2021 at  3:17:22 

     This program is part of the open-source Quantum ESPRESSO suite
     for quantum simulation of materials; please cite
         "P. Giannozzi et al., J. Phys.:Condens. Matter 21 395502 (2009);
         "P. Giannozzi et al., J. Phys.:Condens. Matter 29 465901 (2017);
         "P. Giannozzi et al., J. Chem. Phys. 152 154105 (2020);
          URL http://www.quantum-espresso.org", 
     in publications or presentations arising from this work. More details at
     http://www.quantum-espresso.org/quote

     Parallel version (MPI), running on    10 processors

     MPI processes distributed on     1 nodes
     R & G space division:  proc/nbgrp/npool/nimage =      10
     Reading input from /storage/home/hcoda1/3/ntian30/research/carbon/CxH_vib/H2O_calc/ads_slab/CH3NHNHH2O_a/out_0035/pw.inp
Warning: card &CELL ignored
Warning: card   CELL_DYNAMICS='IPI', ignored
Warning: card / ignored

     Current dimensions of program PWSCF are:
     Max number of different atomic species (ntypx) = 10
     Max number of k-points (npk) =  40000
     Max angular momentum in pseudopotentials (lmaxx) =  3
     Presently no symmetry can be used with electric field

     Message from routine cell_base_init:
     DEPRECATED: use true lattice parameter, not A to a.u. conversion factor

     **************************************************************************
     Initializing libbeef V0.1.2 with the BEEF-vdW functional.
     Citation: Wellendorff et al., PRB 85, 235149 (2012).
     **************************************************************************


     IMPORTANT: XC functional enforced from input :
     Exchange-correlation= BEEF-VDW
                           (   1   4  43  14   2   0   0)
     Any further DFT definition will be discarded
     Please, verify this is what you really want


     Subspace diagonalization in iterative solution of the eigenvalue problem:
     one sub-group per band group will be used
     scalapack distributed-memory algorithm (size of sub-group:  3*  3 procs)

  @ DRIVER MODE: Connecting to 
 qe_1139763_2852620.sched-torque.pace.gatech.edus59hiosv_scratch
  using UNIX socket
  @ DRIVER MODE: Message from server: STATUS
  @ DRIVER MODE: Message from server: INIT
  @ DRIVER MODE: Receiving replica           0          -1
  @ DRIVER MODE: Receiving encoded integer          25
  @ DRIVER MODE:  SCF:  T  FORCE:  T  STRESS:  F  VC:  F  ENSEMBLE:  F
  @ DRIVER MODE:  SCF:  T  FORCE:  T  STRESS:  F  VC:  F  ENSEMBLE:  F
 
     Parallelization info
     --------------------
     sticks:   dense  smooth     PW     G-vecs:    dense   smooth      PW
     Min         327     131     37                56683    14340    2191
     Max         328     133     38                56694    14346    2206
     Sum        3275    1317    379               566857   143421   21985
 
     Using Slab Decomposition
 


     bravais-lattice index     =            0
     lattice parameter (alat)  =       1.8897  a.u.
     unit-cell volume          =    6658.9804 (a.u.)^3
     number of atoms/cell      =           58
     number of atomic types    =            5
     number of electrons       =       405.00
     number of Kohn-Sham states=          212
     kinetic-energy cutoff     =      29.3995  Ry
     charge density cutoff     =     293.9946  Ry
     scf convergence threshold =      7.3E-08
     mixing beta               =       0.0500
     number of iterations used =            8  plain     mixing
     Exchange-correlation= BEEF-VDW
                           (   1   4  43  14   2   0   0)

     celldm(1)=   1.889726  celldm(2)=   0.000000  celldm(3)=   0.000000
     celldm(4)=   0.000000  celldm(5)=   0.000000  celldm(6)=   0.000000

     crystal axes: (cart. coord. in units of alat)
               a(1) = (   6.579727   0.000000   0.000000 )  
               a(2) = (  -0.000775   5.961596   0.000000 )  
               a(3) = (   0.000000   0.000000  25.155947 )  

     reciprocal axes: (cart. coord. in units 2 pi/alat)
               b(1) = (  0.151982  0.000020  0.000000 )  
               b(2) = (  0.000000  0.167740  0.000000 )  
               b(3) = (  0.000000  0.000000  0.039752 )  


     PseudoPot. # 1 for Ti read from file:
     /storage/coda1/p-amedford6/0/shared/rich_project_chbe-medford/medford-share/data/pseudos_module/espresso/nninc/pbe/van/Ti.UPF
     MD5 check sum: 8e4df49b7f0d34bbd5052bf3f5ea0213
     Pseudo is Ultrasoft, Zval = 12.0
     Generated by new atomic code, or converted to UPF format
     Using radial grid of  851 points,  6 beta functions with: 
                l(1) =   0
                l(2) =   0
                l(3) =   1
                l(4) =   1
                l(5) =   2
                l(6) =   2
     Q(r) pseudized with  8 coefficients,  rinner =    1.000   1.000   1.000
                                                       1.000   1.000

     PseudoPot. # 2 for O  read from file:
     /storage/coda1/p-amedford6/0/shared/rich_project_chbe-medford/medford-share/data/pseudos_module/espresso/nninc/pbe/van/O.UPF
     MD5 check sum: 78c19812648e8988a0fe644b0f25305e
     Pseudo is Ultrasoft, Zval =  6.0
     Generated by new atomic code, or converted to UPF format
     Using radial grid of  737 points,  4 beta functions with: 
                l(1) =   0
                l(2) =   0
                l(3) =   1
                l(4) =   1
     Q(r) pseudized with  8 coefficients,  rinner =    0.800   0.800   0.800


     PseudoPot. # 3 for N  read from file:
     /storage/coda1/p-amedford6/0/shared/rich_project_chbe-medford/medford-share/data/pseudos_module/espresso/nninc/pbe/van/N.UPF
     MD5 check sum: 90d10febe142ad51ac9d5be1deb811c4
     Pseudo is Ultrasoft, Zval =  5.0
     Generated by new atomic code, or converted to UPF format
     Using radial grid of  729 points,  4 beta functions with: 
                l(1) =   0
                l(2) =   0
                l(3) =   1
                l(4) =   1
     Q(r) pseudized with  8 coefficients,  rinner =    0.800   0.800   0.800


     PseudoPot. # 4 for C  read from file:
     /storage/coda1/p-amedford6/0/shared/rich_project_chbe-medford/medford-share/data/pseudos_module/espresso/nninc/pbe/van/C.UPF
     MD5 check sum: 1a69bf6b8db32088f5b2163dbdb77a27
     Pseudo is Ultrasoft, Zval =  4.0
     Generated by new atomic code, or converted to UPF format
     Using radial grid of  721 points,  4 beta functions with: 
                l(1) =   0
                l(2) =   0
                l(3) =   1
                l(4) =   1
     Q(r) pseudized with  8 coefficients,  rinner =    0.800   0.800   0.800


     PseudoPot. # 5 for H  read from file:
     /storage/coda1/p-amedford6/0/shared/rich_project_chbe-medford/medford-share/data/pseudos_module/espresso/nninc/pbe/van/H.UPF
     MD5 check sum: b5ee9d7bfd3a09ee7748110bda690ff7
     Pseudo is Ultrasoft, Zval =  1.0
     Generated by new atomic code, or converted to UPF format
     Using radial grid of  615 points,  1 beta functions with: 
                l(1) =   0
     Q(r) pseudized with  8 coefficients,  rinner =    0.800

     atomic species   valence    mass     pseudopotential
        Ti1           12.00    47.86700     Ti( 1.00)
        O1             6.00    15.99900     O ( 1.00)
        N1             5.00    14.00700     N ( 1.00)
        C1             4.00    12.01100     C ( 1.00)
        H1             1.00     1.00800     H ( 1.00)

     No symmetry found



   Cartesian axes

     site n.     atom                  positions (alat units)
         1           Ti1 tau(   1) = (   0.0004258   2.9801865   6.0000000  )
         2           Ti1 tau(   2) = (   3.2906075   1.4906267   6.0002472  )
         3           O1  tau(   3) = (   0.0006271   0.0005054   7.9858123  )
         4           O1  tau(   4) = (   3.2906025   0.0005020   7.3038282  )
         5           O1  tau(   5) = (   4.5942328   1.4918067   9.2879030  )
         6           O1  tau(   6) = (   1.9868534   1.4903216   9.2879459  )
         7           Ti1 tau(   7) = (   3.2907910   2.8959150   9.1758416  )
         8           Ti1 tau(   8) = (   0.0015273   1.4827037   9.2680791  )
         9           O1  tau(   9) = (   3.2925356   5.9605122  11.3387169  )
        10           O1  tau(  10) = (   0.0116148   5.9584955  10.6183126  )
        11           O1  tau(  11) = (   1.2897729   1.4809555  12.6268520  )
        12           O1  tau(  12) = (   5.2791511   1.4810064  12.6173870  )
        13           Ti1 tau(  13) = (   0.0595640   3.0140846  12.5912772  )
        14           Ti1 tau(  14) = (   3.3761946   1.4800080  12.4968112  )
        15           O1  tau(  15) = (   6.5629824   0.0009262  14.6613707  )
        16           O1  tau(  16) = (   3.3123588   5.9604043  13.9421911  )
        17           O1  tau(  17) = (   4.5376415   1.5680301  16.0260299  )
        18           O1  tau(  18) = (   2.0142527   1.4857506  15.9764776  )
        19           Ti1 tau(  19) = (   3.2467940   3.0138708  15.6952036  )
        20           Ti1 tau(  20) = (   6.5376764   1.5432071  15.7832198  )
        21           O1  tau(  21) = (   3.2904802   0.0005063   4.7018136  )
        22           O1  tau(  22) = (   6.4898080   0.0110182  17.2547379  )
        23           O1  tau(  23) = (   1.3043587   1.4918075   6.0039043  )
        24           O1  tau(  24) = (   5.2767064   1.4903225   6.0039473  )
        25           Ti1 tau(  25) = (   0.0000382   5.9609847   6.0000000  )
        26           Ti1 tau(  26) = (   3.2902200   4.4714249   6.0002472  )
        27           O1  tau(  27) = (   0.0002396   2.9813036   7.9858123  )
        28           O1  tau(  28) = (   3.2902150   2.9813002   7.3038282  )
        29           O1  tau(  29) = (   4.5938453   4.4726049   9.2879030  )
        30           O1  tau(  30) = (   1.9864658   4.4711199   9.2879459  )
        31           Ti1 tau(  31) = (   3.2891106   5.8743827   9.1763621  )
        32           Ti1 tau(  32) = (   0.0006254   4.4649316   9.2693709  )
        33           O1  tau(  33) = (   3.2967638   2.9790471  11.3409087  )
        34           O1  tau(  34) = (   0.0092240   2.9805883  10.6323155  )
        35           O1  tau(  35) = (   1.2869154   4.4778632  12.6304858  )
        36           O1  tau(  36) = (   5.2845859   4.4648683  12.6187650  )
        37           Ti1 tau(  37) = (   0.0627082   0.0241251  12.5486904  )
        38           Ti1 tau(  38) = (   3.3788516   4.4738568  12.4976958  )
        39           O1  tau(  39) = (   6.5772583   2.9562949  14.6416036  )
        40           O1  tau(  40) = (   3.2725681   2.9944745  13.9013672  )
        41           O1  tau(  41) = (   4.5452577   4.4055011  16.0651929  )
        42           O1  tau(  42) = (   2.0228361   4.5129635  16.0417754  )
        43           Ti1 tau(  43) = (   3.2583029   0.0391736  15.7773877  )
        44           Ti1 tau(  44) = (   6.5476622   4.6515957  16.1089089  )
        45           O1  tau(  45) = (   3.2900926   2.9813045   4.7018136  )
        46           O1  tau(  46) = (   1.3039711   4.4726057   6.0039043  )
        47           O1  tau(  47) = (   5.2763189   4.4711207   6.0039473  )
        48           N1  tau(  48) = (   1.2275869   2.8250850  18.3327965  )
        49           N1  tau(  49) = (   0.1007212   2.9268546  17.4424539  )
        50           C1  tau(  50) = (   0.9834745   3.5098297  19.5973225  )
        51           H1  tau(  51) = (   0.0800711   3.1483545  20.1177682  )
        52           H1  tau(  52) = (   1.8428167   3.3484677  20.2521386  )
        53           H1  tau(  53) = (   0.8645268   4.5787652  19.4045101  )
        54           H1  tau(  54) = (   1.4038961   1.8348574  18.5000659  )
        55           H1  tau(  55) = (   5.8167727   2.7947134  17.9807349  )
        56           O1  tau(  56) = (   3.6251350   0.0523402  18.1652986  )
        57           H1  tau(  57) = (   4.6063402   0.0342754  18.1216558  )
        58           H1  tau(  58) = (   3.3562690   5.1322054  18.4688733  )

     number of k points=    10  Fermi-Dirac smearing, width (Ry)=  0.0073
                       cart. coord. in units 2pi/alat
        k(    1) = (   0.0000000   0.0000000   0.0000000), wk =   0.1250000
        k(    2) = (   0.0000000   0.0419351   0.0000000), wk =   0.2500000
        k(    3) = (   0.0000000  -0.0838702   0.0000000), wk =   0.1250000
        k(    4) = (   0.0379955   0.0000049   0.0000000), wk =   0.2500000
        k(    5) = (   0.0379955   0.0419400   0.0000000), wk =   0.2500000
        k(    6) = (   0.0379955  -0.0838652   0.0000000), wk =   0.2500000
        k(    7) = (   0.0379955  -0.0419301   0.0000000), wk =   0.2500000
        k(    8) = (  -0.0759910  -0.0000099   0.0000000), wk =   0.1250000
        k(    9) = (  -0.0759910   0.0419252   0.0000000), wk =   0.2500000
        k(   10) = (  -0.0759910  -0.0838800   0.0000000), wk =   0.1250000

     Dense  grid:   566857 G-vectors     FFT dimensions: (  72,  64, 270)

     Smooth grid:   143421 G-vectors     FFT dimensions: (  45,  40, 180)

     Estimated max dynamical RAM per process >     367.84 MB

     Estimated total dynamical RAM >       3.59 GB
     Cannot read rho : file not found

     Initial potential from superposition of free atoms

     starting charge  388.99913, renormalised to  405.00000

     negative rho (up, down):  1.445E-02 0.000E+00


     %%%%%%%%%%%%%%%%%%%%%%%%%%%%%%%%%%%%%%%%%%%%%%%%%%%%%%%%%%%%%%%%%%%%%%%%
     %                                                                      %
     % You are using vdW-DF, which was implemented by the Thonhauser group. %
     % Please cite the following two papers that made this development      %
     % possible and the two reviews that describe the various versions:     %
     %                                                                      %
     %   T. Thonhauser et al., PRL 115, 136402 (2015).                      %
     %   T. Thonhauser et al., PRB 76, 125112 (2007).                       %
     %   K. Berland et al., Rep. Prog. Phys. 78, 066501 (2015).             %
     %   D.C. Langreth et al., J. Phys.: Condens. Matter 21, 084203 (2009). %
     %                                                                      %
     %                                                                      %
     % If you are calculating the stress with vdW-DF, please also cite:     %
     %                                                                      %
     %   R. Sabatini et al., J. Phys.: Condens. Matter 24, 424209 (2012).   %
     %                                                                      %
     %%%%%%%%%%%%%%%%%%%%%%%%%%%%%%%%%%%%%%%%%%%%%%%%%%%%%%%%%%%%%%%%%%%%%%%%


 
     Adding external electric field

     Computed dipole along edir(3) : 
        Dipole              -14.1493 Ry au,        -35.9640 Debye
        Dipole field         -0.0267 Ry au, 
 
        Potential amp.        2.4752 Ry
        Total length         46.3494 bohr
 
     Starting wfcs are  307 atomic wfcs
  @ DRIVER MODE: Message from server: STATUS
  @ DRIVER MODE: Message from server: POSDATA
  @ DRIVER MODE: Reading and sharing cell 
  @ DRIVER MODE: Reading and sharing positions 
  @ DRIVER MODE: Received positions 

     total cpu time spent up to now is       11.4 secs

     Self-consistent Calculation

     iteration #  1     ecut=    29.40 Ry     beta= 0.05
     Davidson diagonalization with overlap
     c_bands:  4 eigenvalues not converged
     c_bands:  1 eigenvalues not converged
     c_bands:  1 eigenvalues not converged
     c_bands:  3 eigenvalues not converged
     c_bands:  2 eigenvalues not converged
     ethr =  1.00E-05,  avg # of iterations = 29.4

     negative rho (up, down):  8.114E-03 0.000E+00
 
     Adding external electric field

     Computed dipole along edir(3) : 
        Dipole               59.5056 Ry au,        151.2480 Debye
        Dipole field          0.1123 Ry au, 
 
        Potential amp.      -10.4096 Ry
        Total length         46.3494 bohr
 

     total cpu time spent up to now is       63.2 secs

     total energy              =   -2232.58093615 Ry
     estimated scf accuracy    <    8442.75571987 Ry

     iteration #  2     ecut=    29.40 Ry     beta= 0.05
     Davidson diagonalization with overlap
     ethr =  1.00E-02,  avg # of iterations = 30.9

     negative rho (up, down):  2.505E-04 0.000E+00
 
     Adding external electric field

     Computed dipole along edir(3) : 
        Dipole                0.4496 Ry au,          1.1427 Debye
        Dipole field          0.0008 Ry au, 
 
        Potential amp.       -0.0786 Ry
        Total length         46.3494 bohr
 

     total cpu time spent up to now is      155.1 secs

     total energy              =   -2462.76057315 Ry
     estimated scf accuracy    <   76606.43939162 Ry

     iteration #  3     ecut=    29.40 Ry     beta= 0.05
     Davidson diagonalization with overlap
     ethr =  1.00E-02,  avg # of iterations = 15.7

     negative rho (up, down):  2.996E-04 0.000E+00
 
     Adding external electric field

     Computed dipole along edir(3) : 
        Dipole               -3.2757 Ry au,         -8.3259 Debye
        Dipole field         -0.0062 Ry au, 
 
        Potential amp.        0.5730 Ry
        Total length         46.3494 bohr
 

     total cpu time spent up to now is      204.1 secs

     total energy              =   -2958.02806973 Ry
     estimated scf accuracy    <    8149.12381731 Ry

     iteration #  4     ecut=    29.40 Ry     beta= 0.05
     Davidson diagonalization with overlap
     ethr =  1.00E-02,  avg # of iterations = 13.3

     negative rho (up, down):  3.134E-04 0.000E+00
 
     Adding external electric field

     Computed dipole along edir(3) : 
        Dipole               -4.8722 Ry au,        -12.3840 Debye
        Dipole field         -0.0092 Ry au, 
 
        Potential amp.        0.8523 Ry
        Total length         46.3494 bohr
 

     total cpu time spent up to now is      229.3 secs

     total energy              =   -2971.69317776 Ry
     estimated scf accuracy    <    2072.51742609 Ry

     iteration #  5     ecut=    29.40 Ry     beta= 0.05
     Davidson diagonalization with overlap
     ethr =  1.00E-02,  avg # of iterations =  4.8

     negative rho (up, down):  3.720E-04 0.000E+00
 
     Adding external electric field

     Computed dipole along edir(3) : 
        Dipole               -8.3004 Ry au,        -21.0976 Debye
        Dipole field         -0.0157 Ry au, 
 
        Potential amp.        1.4520 Ry
        Total length         46.3494 bohr
 

     total cpu time spent up to now is      241.2 secs

     total energy              =   -2936.63896769 Ry
     estimated scf accuracy    <    1892.67455293 Ry

     iteration #  6     ecut=    29.40 Ry     beta= 0.05
     Davidson diagonalization with overlap
     ethr =  1.00E-02,  avg # of iterations = 12.5

     negative rho (up, down):  3.446E-04 0.000E+00
 
     Adding external electric field

     Computed dipole along edir(3) : 
        Dipole               -6.1361 Ry au,        -15.5964 Debye
        Dipole field         -0.0116 Ry au, 
 
        Potential amp.        1.0734 Ry
        Total length         46.3494 bohr
 

     total cpu time spent up to now is      268.0 secs

     total energy              =   -2978.86596268 Ry
     estimated scf accuracy    <     272.79453466 Ry

     iteration #  7     ecut=    29.40 Ry     beta= 0.05
     Davidson diagonalization with overlap
     ethr =  1.00E-02,  avg # of iterations =  1.9

     negative rho (up, down):  3.584E-04 0.000E+00
 
     Adding external electric field

     Computed dipole along edir(3) : 
        Dipole               -5.6988 Ry au,        -14.4849 Debye
        Dipole field         -0.0108 Ry au, 
 
        Potential amp.        0.9969 Ry
        Total length         46.3494 bohr
 

     total cpu time spent up to now is      278.7 secs

     total energy              =   -2980.61732121 Ry
     estimated scf accuracy    <      25.30130820 Ry

     iteration #  8     ecut=    29.40 Ry     beta= 0.05
     Davidson diagonalization with overlap
     ethr =  6.25E-03,  avg # of iterations =  2.4

     negative rho (up, down):  4.136E-04 0.000E+00
 
     Adding external electric field

     Computed dipole along edir(3) : 
        Dipole               -4.4782 Ry au,        -11.3825 Debye
        Dipole field         -0.0085 Ry au, 
 
        Potential amp.        0.7834 Ry
        Total length         46.3494 bohr
 

     total cpu time spent up to now is      289.3 secs

     total energy              =   -2978.11160722 Ry
     estimated scf accuracy    <      19.38388563 Ry

     iteration #  9     ecut=    29.40 Ry     beta= 0.05
     Davidson diagonalization with overlap
     c_bands:  1 eigenvalues not converged
     ethr =  4.79E-03,  avg # of iterations = 14.4

     negative rho (up, down):  4.163E-04 0.000E+00
 
     Adding external electric field

     Computed dipole along edir(3) : 
        Dipole               -4.4694 Ry au,        -11.3601 Debye
        Dipole field         -0.0084 Ry au, 
 
        Potential amp.        0.7819 Ry
        Total length         46.3494 bohr
 

     total cpu time spent up to now is      306.4 secs

     total energy              =   -2980.71050544 Ry
     estimated scf accuracy    <      89.73407469 Ry

     iteration # 10     ecut=    29.40 Ry     beta= 0.05
     Davidson diagonalization with overlap
     ethr =  4.79E-03,  avg # of iterations =  3.2

     negative rho (up, down):  5.123E-04 0.000E+00
 
     Adding external electric field

     Computed dipole along edir(3) : 
        Dipole               -2.9568 Ry au,         -7.5154 Debye
        Dipole field         -0.0056 Ry au, 
 
        Potential amp.        0.5172 Ry
        Total length         46.3494 bohr
 

     total cpu time spent up to now is      317.6 secs

     total energy              =   -2985.62997558 Ry
     estimated scf accuracy    <     102.21820044 Ry

     iteration # 11     ecut=    29.40 Ry     beta= 0.05
     Davidson diagonalization with overlap
     c_bands:  1 eigenvalues not converged
     c_bands:  2 eigenvalues not converged
     ethr =  4.79E-03,  avg # of iterations = 17.6

     negative rho (up, down):  6.144E-04 0.000E+00
 
     Adding external electric field

     Computed dipole along edir(3) : 
        Dipole               -4.1349 Ry au,        -10.5100 Debye
        Dipole field         -0.0078 Ry au, 
 
        Potential amp.        0.7233 Ry
        Total length         46.3494 bohr
 

     total cpu time spent up to now is      340.2 secs

     total energy              =   -2978.02625724 Ry
     estimated scf accuracy    <    1527.46210386 Ry

     iteration # 12     ecut=    29.40 Ry     beta= 0.05
     Davidson diagonalization with overlap
     ethr =  4.79E-03,  avg # of iterations =  8.1

     negative rho (up, down):  6.057E-04 0.000E+00
 
     Adding external electric field

     Computed dipole along edir(3) : 
        Dipole               -6.0805 Ry au,        -15.4552 Debye
        Dipole field         -0.0115 Ry au, 
 
        Potential amp.        1.0637 Ry
        Total length         46.3494 bohr
 

     total cpu time spent up to now is      353.3 secs

     total energy              =   -2948.34981248 Ry
     estimated scf accuracy    <     906.04451864 Ry

     iteration # 13     ecut=    29.40 Ry     beta= 0.05
     Davidson diagonalization with overlap
     ethr =  4.79E-03,  avg # of iterations = 12.8

     negative rho (up, down):  6.566E-04 0.000E+00
 
     Adding external electric field

     Computed dipole along edir(3) : 
        Dipole               -3.7689 Ry au,         -9.5797 Debye
        Dipole field         -0.0071 Ry au, 
 
        Potential amp.        0.6593 Ry
        Total length         46.3494 bohr
 

     total cpu time spent up to now is      381.7 secs

     total energy              =   -2969.33765217 Ry
     estimated scf accuracy    <     668.83001792 Ry

     iteration # 14     ecut=    29.40 Ry     beta= 0.05
     Davidson diagonalization with overlap
     ethr =  4.79E-03,  avg # of iterations =  9.5

     negative rho (up, down):  6.522E-04 0.000E+00
 
     Adding external electric field

     Computed dipole along edir(3) : 
        Dipole               -3.7386 Ry au,         -9.5027 Debye
        Dipole field         -0.0071 Ry au, 
 
        Potential amp.        0.6540 Ry
        Total length         46.3494 bohr
 

     total cpu time spent up to now is      395.2 secs

     total energy              =   -2976.33587349 Ry
     estimated scf accuracy    <      74.90160733 Ry

     iteration # 15     ecut=    29.40 Ry     beta= 0.05
     Davidson diagonalization with overlap
     ethr =  4.79E-03,  avg # of iterations =  2.3

     negative rho (up, down):  6.213E-04 0.000E+00
 
     Adding external electric field

     Computed dipole along edir(3) : 
        Dipole               -4.1462 Ry au,        -10.5386 Debye
        Dipole field         -0.0078 Ry au, 
 
        Potential amp.        0.7253 Ry
        Total length         46.3494 bohr
 

     total cpu time spent up to now is      405.9 secs

     total energy              =   -2976.89056792 Ry
     estimated scf accuracy    <      79.57632455 Ry

     iteration # 16     ecut=    29.40 Ry     beta= 0.05
     Davidson diagonalization with overlap
     ethr =  4.79E-03,  avg # of iterations =  1.0

     negative rho (up, down):  6.225E-04 0.000E+00
 
     Adding external electric field

     Computed dipole along edir(3) : 
        Dipole               -4.8814 Ry au,        -12.4072 Debye
        Dipole field         -0.0092 Ry au, 
 
        Potential amp.        0.8539 Ry
        Total length         46.3494 bohr
 

     total cpu time spent up to now is      416.0 secs

     total energy              =   -2977.82033256 Ry
     estimated scf accuracy    <      78.81064090 Ry

     iteration # 17     ecut=    29.40 Ry     beta= 0.05
     Davidson diagonalization with overlap
     ethr =  4.79E-03,  avg # of iterations =  6.4

     negative rho (up, down):  8.024E-04 0.000E+00
 
     Adding external electric field

     Computed dipole along edir(3) : 
        Dipole               -2.5136 Ry au,         -6.3889 Debye
        Dipole field         -0.0047 Ry au, 
 
        Potential amp.        0.4397 Ry
        Total length         46.3494 bohr
 

     total cpu time spent up to now is      429.3 secs

     total energy              =   -2974.97908915 Ry
     estimated scf accuracy    <     521.31678670 Ry

     iteration # 18     ecut=    29.40 Ry     beta= 0.05
     Davidson diagonalization with overlap
     ethr =  4.79E-03,  avg # of iterations =  6.5

     negative rho (up, down):  8.942E-04 0.000E+00
 
     Adding external electric field

     Computed dipole along edir(3) : 
        Dipole               -1.6811 Ry au,         -4.2729 Debye
        Dipole field         -0.0032 Ry au, 
 
        Potential amp.        0.2941 Ry
        Total length         46.3494 bohr
 

     total cpu time spent up to now is      441.8 secs

     total energy              =   -2975.83707174 Ry
     estimated scf accuracy    <     106.06894561 Ry

     iteration # 19     ecut=    29.40 Ry     beta= 0.05
     Davidson diagonalization with overlap
     ethr =  4.79E-03,  avg # of iterations =  1.7

     negative rho (up, down):  9.748E-04 0.000E+00
 
     Adding external electric field

     Computed dipole along edir(3) : 
        Dipole               -0.5591 Ry au,         -1.4210 Debye
        Dipole field         -0.0011 Ry au, 
 
        Potential amp.        0.0978 Ry
        Total length         46.3494 bohr
 

     total cpu time spent up to now is      452.2 secs

     total energy              =   -2974.75857594 Ry
     estimated scf accuracy    <      26.63553541 Ry

     iteration # 20     ecut=    29.40 Ry     beta= 0.05
     Davidson diagonalization with overlap
     ethr =  4.79E-03,  avg # of iterations = 10.1

     negative rho (up, down):  9.715E-04 0.000E+00
 
     Adding external electric field

     Computed dipole along edir(3) : 
        Dipole               -0.8266 Ry au,         -2.1011 Debye
        Dipole field         -0.0016 Ry au, 
 
        Potential amp.        0.1446 Ry
        Total length         46.3494 bohr
 

     total cpu time spent up to now is      466.2 secs

     total energy              =   -2976.17412613 Ry
     estimated scf accuracy    <       2.23813638 Ry

     iteration # 21     ecut=    29.40 Ry     beta= 0.05
     Davidson diagonalization with overlap
     c_bands:  4 eigenvalues not converged
     c_bands:  2 eigenvalues not converged
     c_bands:  1 eigenvalues not converged
     c_bands:  2 eigenvalues not converged
     c_bands:  5 eigenvalues not converged
     ethr =  5.53E-04,  avg # of iterations = 16.4

     negative rho (up, down):  9.720E-04 0.000E+00
 
     Adding external electric field

     Computed dipole along edir(3) : 
        Dipole               -0.8964 Ry au,         -2.2785 Debye
        Dipole field         -0.0017 Ry au, 
 
        Potential amp.        0.1568 Ry
        Total length         46.3494 bohr
 

     total cpu time spent up to now is      484.7 secs

     total energy              =   -2976.74241656 Ry
     estimated scf accuracy    <       2.80210114 Ry

     iteration # 22     ecut=    29.40 Ry     beta= 0.05
     Davidson diagonalization with overlap
     ethr =  5.53E-04,  avg # of iterations =  1.6

     negative rho (up, down):  1.030E-03 0.000E+00
 
     Adding external electric field

     Computed dipole along edir(3) : 
        Dipole               -1.1948 Ry au,         -3.0369 Debye
        Dipole field         -0.0023 Ry au, 
 
        Potential amp.        0.2090 Ry
        Total length         46.3494 bohr
 

     total cpu time spent up to now is      495.3 secs

     total energy              =   -2976.43777540 Ry
     estimated scf accuracy    <       2.32354199 Ry

     iteration # 23     ecut=    29.40 Ry     beta= 0.05
     Davidson diagonalization with overlap
     ethr =  5.53E-04,  avg # of iterations =  9.6

     negative rho (up, down):  1.110E-03 0.000E+00
 
     Adding external electric field

     Computed dipole along edir(3) : 
        Dipole               -1.1427 Ry au,         -2.9045 Debye
        Dipole field         -0.0022 Ry au, 
 
        Potential amp.        0.1999 Ry
        Total length         46.3494 bohr
 

     total cpu time spent up to now is      508.7 secs

     total energy              =   -2976.48936513 Ry
     estimated scf accuracy    <       0.80027552 Ry

     iteration # 24     ecut=    29.40 Ry     beta= 0.05
     Davidson diagonalization with overlap
     ethr =  1.98E-04,  avg # of iterations = 15.3

     negative rho (up, down):  1.205E-03 0.000E+00
 
     Adding external electric field

     Computed dipole along edir(3) : 
        Dipole               -0.8459 Ry au,         -2.1500 Debye
        Dipole field         -0.0016 Ry au, 
 
        Potential amp.        0.1480 Ry
        Total length         46.3494 bohr
 

     total cpu time spent up to now is      526.0 secs

     total energy              =   -2976.53398135 Ry
     estimated scf accuracy    <       0.32336824 Ry

     iteration # 25     ecut=    29.40 Ry     beta= 0.05
     Davidson diagonalization with overlap
     c_bands:  1 eigenvalues not converged
     c_bands:  1 eigenvalues not converged
     ethr =  7.98E-05,  avg # of iterations =  7.8

     negative rho (up, down):  2.402E-03 0.000E+00
 
     Adding external electric field

     Computed dipole along edir(3) : 
        Dipole                0.7598 Ry au,          1.9312 Debye
        Dipole field          0.0014 Ry au, 
 
        Potential amp.       -0.1329 Ry
        Total length         46.3494 bohr
 

     total cpu time spent up to now is      538.7 secs

     total energy              =   -2976.47487195 Ry
     estimated scf accuracy    <       0.25519283 Ry

     iteration # 26     ecut=    29.40 Ry     beta= 0.05
     Davidson diagonalization with overlap
     c_bands:  1 eigenvalues not converged
     c_bands:  1 eigenvalues not converged
     ethr =  6.30E-05,  avg # of iterations = 16.6

     negative rho (up, down):  2.532E-03 0.000E+00
 
     Adding external electric field

     Computed dipole along edir(3) : 
        Dipole                0.5211 Ry au,          1.3246 Debye
        Dipole field          0.0010 Ry au, 
 
        Potential amp.       -0.0912 Ry
        Total length         46.3494 bohr
 

     total cpu time spent up to now is      559.6 secs

     total energy              =   -2976.44897690 Ry
     estimated scf accuracy    <       0.78233328 Ry

     iteration # 27     ecut=    29.40 Ry     beta= 0.05
     Davidson diagonalization with overlap
     c_bands:  1 eigenvalues not converged
     c_bands:  4 eigenvalues not converged
     c_bands:  1 eigenvalues not converged
     c_bands:  3 eigenvalues not converged
     ethr =  6.30E-05,  avg # of iterations = 16.7

     negative rho (up, down):  2.708E-03 0.000E+00
 
     Adding external electric field

     Computed dipole along edir(3) : 
        Dipole                0.6131 Ry au,          1.5582 Debye
        Dipole field          0.0012 Ry au, 
 
        Potential amp.       -0.1072 Ry
        Total length         46.3494 bohr
 

     total cpu time spent up to now is      579.0 secs

     total energy              =   -2976.50166908 Ry
     estimated scf accuracy    <       0.11780912 Ry

     iteration # 28     ecut=    29.40 Ry     beta= 0.05
     Davidson diagonalization with overlap
     c_bands:  1 eigenvalues not converged
     c_bands:  2 eigenvalues not converged
     ethr =  2.91E-05,  avg # of iterations = 10.0

     negative rho (up, down):  3.718E-03 0.000E+00
 
     Adding external electric field

     Computed dipole along edir(3) : 
        Dipole                0.8380 Ry au,          2.1299 Debye
        Dipole field          0.0016 Ry au, 
 
        Potential amp.       -0.1466 Ry
        Total length         46.3494 bohr
 

     total cpu time spent up to now is      592.0 secs

     total energy              =   -2976.50278365 Ry
     estimated scf accuracy    <       0.10275395 Ry

     iteration # 29     ecut=    29.40 Ry     beta= 0.05
     Davidson diagonalization with overlap
     c_bands:  2 eigenvalues not converged
     ethr =  2.54E-05,  avg # of iterations = 15.2

     negative rho (up, down):  3.660E-03 0.000E+00
 
     Adding external electric field

     Computed dipole along edir(3) : 
        Dipole                0.8408 Ry au,          2.1371 Debye
        Dipole field          0.0016 Ry au, 
 
        Potential amp.       -0.1471 Ry
        Total length         46.3494 bohr
 

     total cpu time spent up to now is      609.1 secs

     total energy              =   -2976.50473002 Ry
     estimated scf accuracy    <       0.09750462 Ry

     iteration # 30     ecut=    29.40 Ry     beta= 0.05
     Davidson diagonalization with overlap
     ethr =  2.41E-05,  avg # of iterations =  2.4

     negative rho (up, down):  4.249E-03 0.000E+00
 
     Adding external electric field

     Computed dipole along edir(3) : 
        Dipole                0.8120 Ry au,          2.0639 Debye
        Dipole field          0.0015 Ry au, 
 
        Potential amp.       -0.1420 Ry
        Total length         46.3494 bohr
 

     total cpu time spent up to now is      620.2 secs

     total energy              =   -2976.49179612 Ry
     estimated scf accuracy    <       0.06242634 Ry

     iteration # 31     ecut=    29.40 Ry     beta= 0.05
     Davidson diagonalization with overlap
     c_bands:  5 eigenvalues not converged
     c_bands:  1 eigenvalues not converged
     c_bands:  1 eigenvalues not converged
     c_bands:  1 eigenvalues not converged
     c_bands:  1 eigenvalues not converged
     c_bands:  1 eigenvalues not converged
     ethr =  1.54E-05,  avg # of iterations = 17.1

     negative rho (up, down):  4.756E-03 0.000E+00
 
     Adding external electric field

     Computed dipole along edir(3) : 
        Dipole                0.8684 Ry au,          2.2073 Debye
        Dipole field          0.0016 Ry au, 
 
        Potential amp.       -0.1519 Ry
        Total length         46.3494 bohr
 

     total cpu time spent up to now is      641.2 secs

     total energy              =   -2976.50035096 Ry
     estimated scf accuracy    <       0.07318015 Ry

     iteration # 32     ecut=    29.40 Ry     beta= 0.05
     Davidson diagonalization with overlap
     ethr =  1.54E-05,  avg # of iterations =  8.0

     negative rho (up, down):  5.992E-03 0.000E+00
 
     Adding external electric field

     Computed dipole along edir(3) : 
        Dipole                0.8173 Ry au,          2.0773 Debye
        Dipole field          0.0015 Ry au, 
 
        Potential amp.       -0.1430 Ry
        Total length         46.3494 bohr
 

     total cpu time spent up to now is      654.0 secs

     total energy              =   -2976.50097197 Ry
     estimated scf accuracy    <       0.03038410 Ry

     iteration # 33     ecut=    29.40 Ry     beta= 0.05
     Davidson diagonalization with overlap
     c_bands:  1 eigenvalues not converged
     c_bands:  1 eigenvalues not converged
     c_bands:  2 eigenvalues not converged
     ethr =  7.50E-06,  avg # of iterations = 15.1

     negative rho (up, down):  7.095E-03 0.000E+00
 
     Adding external electric field

     Computed dipole along edir(3) : 
        Dipole                0.8441 Ry au,          2.1456 Debye
        Dipole field          0.0016 Ry au, 
 
        Potential amp.       -0.1477 Ry
        Total length         46.3494 bohr
 

     total cpu time spent up to now is      672.7 secs

     total energy              =   -2976.50297441 Ry
     estimated scf accuracy    <       0.01664202 Ry

     iteration # 34     ecut=    29.40 Ry     beta= 0.05
     Davidson diagonalization with overlap
     c_bands:  1 eigenvalues not converged
     ethr =  4.11E-06,  avg # of iterations = 11.8

     negative rho (up, down):  9.888E-03 0.000E+00
 
     Adding external electric field

     Computed dipole along edir(3) : 
        Dipole                0.9380 Ry au,          2.3841 Debye
        Dipole field          0.0018 Ry au, 
 
        Potential amp.       -0.1641 Ry
        Total length         46.3494 bohr
 

     total cpu time spent up to now is      687.4 secs

     total energy              =   -2976.50289862 Ry
     estimated scf accuracy    <       0.00922424 Ry

     iteration # 35     ecut=    29.40 Ry     beta= 0.05
     Davidson diagonalization with overlap
     c_bands:  1 eigenvalues not converged
     c_bands:  1 eigenvalues not converged
     ethr =  2.28E-06,  avg # of iterations = 13.8

     negative rho (up, down):  9.193E-03 0.000E+00
 
     Adding external electric field

     Computed dipole along edir(3) : 
        Dipole                0.9179 Ry au,          2.3330 Debye
        Dipole field          0.0017 Ry au, 
 
        Potential amp.       -0.1606 Ry
        Total length         46.3494 bohr
 

     total cpu time spent up to now is      707.3 secs

     total energy              =   -2976.50452554 Ry
     estimated scf accuracy    <       0.00876576 Ry

     iteration # 36     ecut=    29.40 Ry     beta= 0.05
     Davidson diagonalization with overlap
     ethr =  2.16E-06,  avg # of iterations =  4.3

     negative rho (up, down):  1.104E-02 0.000E+00
 
     Adding external electric field

     Computed dipole along edir(3) : 
        Dipole                0.9540 Ry au,          2.4249 Debye
        Dipole field          0.0018 Ry au, 
 
        Potential amp.       -0.1669 Ry
        Total length         46.3494 bohr
 

     total cpu time spent up to now is      718.6 secs

     total energy              =   -2976.50448566 Ry
     estimated scf accuracy    <       0.00462509 Ry

     iteration # 37     ecut=    29.40 Ry     beta= 0.05
     Davidson diagonalization with overlap
     c_bands:  1 eigenvalues not converged
     ethr =  1.14E-06,  avg # of iterations = 12.0

     negative rho (up, down):  1.249E-02 0.000E+00
 
     Adding external electric field

     Computed dipole along edir(3) : 
        Dipole                0.9741 Ry au,          2.4760 Debye
        Dipole field          0.0018 Ry au, 
 
        Potential amp.       -0.1704 Ry
        Total length         46.3494 bohr
 

     total cpu time spent up to now is      733.5 secs

     total energy              =   -2976.50473279 Ry
     estimated scf accuracy    <       0.00177676 Ry

     iteration # 38     ecut=    29.40 Ry     beta= 0.05
     Davidson diagonalization with overlap
     ethr =  4.39E-07,  avg # of iterations =  9.2

     negative rho (up, down):  1.242E-02 0.000E+00
 
     Adding external electric field

     Computed dipole along edir(3) : 
        Dipole                0.9656 Ry au,          2.4543 Debye
        Dipole field          0.0018 Ry au, 
 
        Potential amp.       -0.1689 Ry
        Total length         46.3494 bohr
 

     total cpu time spent up to now is      750.1 secs

     total energy              =   -2976.50505823 Ry
     estimated scf accuracy    <       0.00095779 Ry

     iteration # 39     ecut=    29.40 Ry     beta= 0.05
     Davidson diagonalization with overlap
     ethr =  2.36E-07,  avg # of iterations =  2.7

     negative rho (up, down):  1.270E-02 0.000E+00
 
     Adding external electric field

     Computed dipole along edir(3) : 
        Dipole                0.9537 Ry au,          2.4242 Debye
        Dipole field          0.0018 Ry au, 
 
        Potential amp.       -0.1668 Ry
        Total length         46.3494 bohr
 

     total cpu time spent up to now is      761.7 secs

     total energy              =   -2976.50477913 Ry
     estimated scf accuracy    <       0.00105556 Ry

     iteration # 40     ecut=    29.40 Ry     beta= 0.05
     Davidson diagonalization with overlap
     ethr =  2.36E-07,  avg # of iterations =  9.6

     negative rho (up, down):  1.434E-02 0.000E+00
 
     Adding external electric field

     Computed dipole along edir(3) : 
        Dipole                0.9768 Ry au,          2.4827 Debye
        Dipole field          0.0018 Ry au, 
 
        Potential amp.       -0.1709 Ry
        Total length         46.3494 bohr
 

     total cpu time spent up to now is      780.5 secs

     total energy              =   -2976.50513440 Ry
     estimated scf accuracy    <       0.00082463 Ry

     iteration # 41     ecut=    29.40 Ry     beta= 0.05
     Davidson diagonalization with overlap
     ethr =  2.04E-07,  avg # of iterations =  5.7

     negative rho (up, down):  1.448E-02 0.000E+00
 
     Adding external electric field

     Computed dipole along edir(3) : 
        Dipole                0.9837 Ry au,          2.5002 Debye
        Dipole field          0.0019 Ry au, 
 
        Potential amp.       -0.1721 Ry
        Total length         46.3494 bohr
 

     total cpu time spent up to now is      792.4 secs

     total energy              =   -2976.50509055 Ry
     estimated scf accuracy    <       0.00053368 Ry

     iteration # 42     ecut=    29.40 Ry     beta= 0.05
     Davidson diagonalization with overlap
     ethr =  1.32E-07,  avg # of iterations =  9.4

     negative rho (up, down):  1.437E-02 0.000E+00
 
     Adding external electric field

     Computed dipole along edir(3) : 
        Dipole                0.9817 Ry au,          2.4953 Debye
        Dipole field          0.0019 Ry au, 
 
        Potential amp.       -0.1717 Ry
        Total length         46.3494 bohr
 

     total cpu time spent up to now is      808.6 secs

     total energy              =   -2976.50519854 Ry
     estimated scf accuracy    <       0.00014196 Ry

     iteration # 43     ecut=    29.40 Ry     beta= 0.05
     Davidson diagonalization with overlap
     ethr =  3.51E-08,  avg # of iterations =  9.6

     negative rho (up, down):  1.475E-02 0.000E+00
 
     Adding external electric field

     Computed dipole along edir(3) : 
        Dipole                0.9815 Ry au,          2.4948 Debye
        Dipole field          0.0019 Ry au, 
 
        Potential amp.       -0.1717 Ry
        Total length         46.3494 bohr
 

     total cpu time spent up to now is      822.0 secs

     total energy              =   -2976.50523279 Ry
     estimated scf accuracy    <       0.00010529 Ry

     iteration # 44     ecut=    29.40 Ry     beta= 0.05
     Davidson diagonalization with overlap
     ethr =  2.60E-08,  avg # of iterations = 11.1

     negative rho (up, down):  1.502E-02 0.000E+00
 
     Adding external electric field

     Computed dipole along edir(3) : 
        Dipole                0.9878 Ry au,          2.5108 Debye
        Dipole field          0.0019 Ry au, 
 
        Potential amp.       -0.1728 Ry
        Total length         46.3494 bohr
 

     total cpu time spent up to now is      838.3 secs

     total energy              =   -2976.50527600 Ry
     estimated scf accuracy    <       0.00005044 Ry

     iteration # 45     ecut=    29.40 Ry     beta= 0.05
     Davidson diagonalization with overlap
     c_bands:  1 eigenvalues not converged
     ethr =  1.25E-08,  avg # of iterations = 16.4

     negative rho (up, down):  1.521E-02 0.000E+00
 
     Adding external electric field

     Computed dipole along edir(3) : 
        Dipole                0.9890 Ry au,          2.5138 Debye
        Dipole field          0.0019 Ry au, 
 
        Potential amp.       -0.1730 Ry
        Total length         46.3494 bohr
 

     total cpu time spent up to now is      863.0 secs

     total energy              =   -2976.50529841 Ry
     estimated scf accuracy    <       0.00022424 Ry

     iteration # 46     ecut=    29.40 Ry     beta= 0.05
     Davidson diagonalization with overlap
     ethr =  1.25E-08,  avg # of iterations = 11.0

     negative rho (up, down):  1.500E-02 0.000E+00
 
     Adding external electric field

     Computed dipole along edir(3) : 
        Dipole                0.9855 Ry au,          2.5050 Debye
        Dipole field          0.0019 Ry au, 
 
        Potential amp.       -0.1724 Ry
        Total length         46.3494 bohr
 

     total cpu time spent up to now is      880.5 secs

     total energy              =   -2976.50531432 Ry
     estimated scf accuracy    <       0.00005729 Ry

     iteration # 47     ecut=    29.40 Ry     beta= 0.05
     Davidson diagonalization with overlap
     c_bands:  1 eigenvalues not converged
     ethr =  1.25E-08,  avg # of iterations = 13.1

     negative rho (up, down):  1.495E-02 0.000E+00
 
     Adding external electric field

     Computed dipole along edir(3) : 
        Dipole                0.9852 Ry au,          2.5042 Debye
        Dipole field          0.0019 Ry au, 
 
        Potential amp.       -0.1724 Ry
        Total length         46.3494 bohr
 

     total cpu time spent up to now is      901.3 secs

     total energy              =   -2976.50534865 Ry
     estimated scf accuracy    <       0.00002811 Ry

     iteration # 48     ecut=    29.40 Ry     beta= 0.05
     Davidson diagonalization with overlap
     ethr =  6.94E-09,  avg # of iterations =  4.1

     negative rho (up, down):  1.492E-02 0.000E+00
 
     Adding external electric field

     Computed dipole along edir(3) : 
        Dipole                0.9851 Ry au,          2.5040 Debye
        Dipole field          0.0019 Ry au, 
 
        Potential amp.       -0.1723 Ry
        Total length         46.3494 bohr
 

     total cpu time spent up to now is      912.8 secs

     total energy              =   -2976.50536420 Ry
     estimated scf accuracy    <       0.00001534 Ry

     iteration # 49     ecut=    29.40 Ry     beta= 0.05
     Davidson diagonalization with overlap
     c_bands:  1 eigenvalues not converged
     ethr =  3.79E-09,  avg # of iterations = 14.5

     negative rho (up, down):  1.492E-02 0.000E+00
 
     Adding external electric field

     Computed dipole along edir(3) : 
        Dipole                0.9856 Ry au,          2.5051 Debye
        Dipole field          0.0019 Ry au, 
 
        Potential amp.       -0.1724 Ry
        Total length         46.3494 bohr
 

     total cpu time spent up to now is      936.4 secs

     total energy              =   -2976.50538471 Ry
     estimated scf accuracy    <       0.00004312 Ry

     iteration # 50     ecut=    29.40 Ry     beta= 0.05
     Davidson diagonalization with overlap
     ethr =  3.79E-09,  avg # of iterations =  8.4

     negative rho (up, down):  1.498E-02 0.000E+00
 
     Adding external electric field

     Computed dipole along edir(3) : 
        Dipole                0.9860 Ry au,          2.5062 Debye
        Dipole field          0.0019 Ry au, 
 
        Potential amp.       -0.1725 Ry
        Total length         46.3494 bohr
 

     total cpu time spent up to now is      951.0 secs

     total energy              =   -2976.50540214 Ry
     estimated scf accuracy    <       0.00001262 Ry

     iteration # 51     ecut=    29.40 Ry     beta= 0.05
     Davidson diagonalization with overlap
     ethr =  3.12E-09,  avg # of iterations =  9.5

     negative rho (up, down):  1.494E-02 0.000E+00
 
     Adding external electric field

     Computed dipole along edir(3) : 
        Dipole                0.9847 Ry au,          2.5030 Debye
        Dipole field          0.0019 Ry au, 
 
        Potential amp.       -0.1723 Ry
        Total length         46.3494 bohr
 

     total cpu time spent up to now is      965.5 secs

     total energy              =   -2976.50541722 Ry
     estimated scf accuracy    <       0.00000550 Ry

     iteration # 52     ecut=    29.40 Ry     beta= 0.05
     Davidson diagonalization with overlap
     ethr =  1.36E-09,  avg # of iterations =  9.8

     negative rho (up, down):  1.495E-02 0.000E+00
 
     Adding external electric field

     Computed dipole along edir(3) : 
        Dipole                0.9852 Ry au,          2.5040 Debye
        Dipole field          0.0019 Ry au, 
 
        Potential amp.       -0.1723 Ry
        Total length         46.3494 bohr
 

     total cpu time spent up to now is      982.2 secs

     total energy              =   -2976.50543107 Ry
     estimated scf accuracy    <       0.00000201 Ry

     iteration # 53     ecut=    29.40 Ry     beta= 0.05
     Davidson diagonalization with overlap
     ethr =  4.95E-10,  avg # of iterations = 10.5

     negative rho (up, down):  1.494E-02 0.000E+00
 
     Adding external electric field

     Computed dipole along edir(3) : 
        Dipole                0.9852 Ry au,          2.5042 Debye
        Dipole field          0.0019 Ry au, 
 
        Potential amp.       -0.1724 Ry
        Total length         46.3494 bohr
 

     total cpu time spent up to now is     1000.9 secs

     total energy              =   -2976.50544254 Ry
     estimated scf accuracy    <       0.00000307 Ry

     iteration # 54     ecut=    29.40 Ry     beta= 0.05
     Davidson diagonalization with overlap
     ethr =  4.95E-10,  avg # of iterations =  9.6

     negative rho (up, down):  1.494E-02 0.000E+00
 
     Adding external electric field

     Computed dipole along edir(3) : 
        Dipole                0.9856 Ry au,          2.5051 Debye
        Dipole field          0.0019 Ry au, 
 
        Potential amp.       -0.1724 Ry
        Total length         46.3494 bohr
 

     total cpu time spent up to now is     1018.6 secs

     total energy              =   -2976.50545376 Ry
     estimated scf accuracy    <       0.00000090 Ry

     iteration # 55     ecut=    29.40 Ry     beta= 0.05
     Davidson diagonalization with overlap
     ethr =  2.23E-10,  avg # of iterations =  9.1

     negative rho (up, down):  1.494E-02 0.000E+00
 
     Adding external electric field

     Computed dipole along edir(3) : 
        Dipole                0.9854 Ry au,          2.5047 Debye
        Dipole field          0.0019 Ry au, 
 
        Potential amp.       -0.1724 Ry
        Total length         46.3494 bohr
 

     total cpu time spent up to now is     1035.0 secs

     total energy              =   -2976.50546330 Ry
     estimated scf accuracy    <       0.00000099 Ry

     iteration # 56     ecut=    29.40 Ry     beta= 0.05
     Davidson diagonalization with overlap
     ethr =  2.23E-10,  avg # of iterations =  7.4

     negative rho (up, down):  1.495E-02 0.000E+00
 
     Adding external electric field

     Computed dipole along edir(3) : 
        Dipole                0.9853 Ry au,          2.5044 Debye
        Dipole field          0.0019 Ry au, 
 
        Potential amp.       -0.1724 Ry
        Total length         46.3494 bohr
 

     total cpu time spent up to now is     1050.1 secs

     total energy              =   -2976.50547205 Ry
     estimated scf accuracy    <       0.00000023 Ry

     iteration # 57     ecut=    29.40 Ry     beta= 0.05
     Davidson diagonalization with overlap
     ethr =  5.56E-11,  avg # of iterations =  8.9

     negative rho (up, down):  1.496E-02 0.000E+00
 
     Adding external electric field

     Computed dipole along edir(3) : 
        Dipole                0.9854 Ry au,          2.5046 Debye
        Dipole field          0.0019 Ry au, 
 
        Potential amp.       -0.1724 Ry
        Total length         46.3494 bohr
 

     total cpu time spent up to now is     1066.5 secs

     total energy              =   -2976.50547985 Ry
     estimated scf accuracy    <       0.00000021 Ry

     iteration # 58     ecut=    29.40 Ry     beta= 0.05
     Davidson diagonalization with overlap
     ethr =  5.13E-11,  avg # of iterations =  7.8

     negative rho (up, down):  1.495E-02 0.000E+00
 
     Adding external electric field

     Computed dipole along edir(3) : 
        Dipole                0.9855 Ry au,          2.5048 Debye
        Dipole field          0.0019 Ry au, 
 
        Potential amp.       -0.1724 Ry
        Total length         46.3494 bohr
 

     total cpu time spent up to now is     1079.9 secs

     total energy              =   -2976.50548689 Ry
     estimated scf accuracy    <       0.00000009 Ry

     iteration # 59     ecut=    29.40 Ry     beta= 0.05
     Davidson diagonalization with overlap
     ethr =  2.30E-11,  avg # of iterations =  9.9

     negative rho (up, down):  1.504E-02 0.000E+00
 
     Adding external electric field

     Computed dipole along edir(3) : 
        Dipole                0.9847 Ry au,          2.5030 Debye
        Dipole field          0.0019 Ry au, 
 
        Potential amp.       -0.1723 Ry
        Total length         46.3494 bohr
 

     total cpu time spent up to now is     1097.1 secs

     End of self-consistent calculation

          k = 0.0000 0.0000 0.0000 ( 18029 PWs)   bands (ev):

   -55.5107 -55.4808 -55.4766 -55.4472 -55.4447 -55.3592 -55.3284 -55.3266
   -55.3240 -55.2945 -55.2931 -55.2594 -55.0513 -54.8867 -54.4935 -54.4594
   -32.0251 -31.9943 -31.8832 -31.8603 -31.8265 -31.8032 -31.7851 -31.7833
   -31.7552 -31.7122 -31.7006 -31.6810 -31.6777 -31.6629 -31.6577 -31.6360
   -31.6161 -31.6110 -31.6103 -31.5777 -31.5677 -31.5591 -31.5332 -31.5211
   -31.5185 -31.5167 -31.5136 -31.5079 -31.4926 -31.4848 -31.4816 -31.4718
   -31.4694 -31.4579 -31.4465 -31.4374 -31.4054 -31.3070 -31.2616 -31.1500
   -31.1416 -31.0774 -30.9006 -30.8119 -30.7895 -30.7174 -30.6309 -30.5198
   -18.7238 -16.5587 -16.2210 -15.9836 -15.7616 -15.6681 -15.6259 -15.4290
   -15.3346 -15.2498 -15.1298 -15.0787 -15.0528 -15.0452 -15.0314 -15.0063
   -14.9720 -14.9660 -14.9627 -14.9385 -14.9192 -14.8677 -14.8619 -14.8549
   -14.7617 -14.6978 -14.6628 -14.6496 -14.6400 -14.5743 -14.2029 -12.9955
   -12.8790 -11.6400  -8.8624  -6.4619  -5.1589  -4.2748  -3.7000  -3.5956
    -3.4674  -3.4194  -3.3715  -3.3438  -3.1510  -3.0947  -2.9429  -2.7716
    -2.6981  -2.6596  -2.6265  -2.5893  -2.5554  -2.4339  -2.4088  -2.3357
    -2.3196  -2.3086  -2.2760  -2.2664  -2.2514  -2.2312  -2.1574  -2.1488
    -2.0626  -1.9518  -1.9009  -1.8859  -1.8672  -1.8258  -1.7886  -1.7751
    -1.7619  -1.7436  -1.7304  -1.6927  -1.5771  -1.5265  -1.4477  -1.3675
    -1.2963  -1.2084  -1.1318  -1.1038  -1.0364  -1.0112  -0.9509  -0.9266
    -0.9126  -0.9060  -0.7888  -0.6808  -0.6626  -0.5929  -0.5319  -0.4554
    -0.4121  -0.3861  -0.3167  -0.2833  -0.2726  -0.2591  -0.2329  -0.2180
    -0.1619  -0.0146   0.0625   0.0809   0.1397   0.1804   0.2319   0.2571
     0.2850   0.3328   0.3642   0.4044   0.4539   0.4577   0.4697   0.4938
     0.5080   0.6671   0.7223   0.7554   0.7809   0.8298   0.9419   0.9851
     1.1390   1.2072   1.2721   1.4552   1.5292   1.6098   1.7207   2.0669
     2.1004   2.1463   3.6148   3.7072   3.7482   3.7694   3.8564   3.8590
     4.0699   4.1146   4.1227   4.2633

          k = 0.0000 0.0419 0.0000 ( 17933 PWs)   bands (ev):

   -55.5056 -55.4815 -55.4755 -55.4499 -55.4458 -55.3542 -55.3290 -55.3278
   -55.3233 -55.2994 -55.2881 -55.2642 -55.0505 -54.8874 -54.4884 -54.4644
   -31.9682 -31.9403 -31.8319 -31.8054 -31.7985 -31.7941 -31.7715 -31.7394
   -31.7301 -31.7083 -31.7052 -31.6977 -31.6728 -31.6709 -31.6585 -31.6535
   -31.6490 -31.6451 -31.5978 -31.5816 -31.5684 -31.5558 -31.5363 -31.5325
   -31.5311 -31.5246 -31.5242 -31.5201 -31.5166 -31.5060 -31.4960 -31.4885
   -31.4682 -31.4656 -31.4616 -31.4565 -31.4492 -31.3062 -31.2577 -31.1693
   -31.1499 -31.0933 -30.8465 -30.8084 -30.7925 -30.7048 -30.6435 -30.5769
   -18.7233 -16.5480 -16.0868 -15.8643 -15.6569 -15.5603 -15.5285 -15.3918
   -15.3420 -15.2748 -15.2556 -15.0928 -15.0609 -15.0354 -15.0180 -15.0145
   -14.9935 -14.9850 -14.9800 -14.9693 -14.9432 -14.9060 -14.8594 -14.8271
   -14.7845 -14.7483 -14.7166 -14.7011 -14.6587 -14.6312 -14.2687 -12.9995
   -12.9184 -11.6431  -8.8667  -6.4623  -5.1671  -4.2708  -3.6582  -3.4100
    -3.2992  -3.2438  -3.2395  -3.1967  -3.0468  -2.9915  -2.7682  -2.6812
    -2.6634  -2.5668  -2.5584  -2.5446  -2.4997  -2.4690  -2.4554  -2.4188
    -2.3921  -2.3657  -2.3452  -2.3052  -2.2709  -2.2615  -2.2348  -2.2063
    -2.1648  -2.1334  -2.0915  -2.0192  -2.0069  -1.9947  -1.9341  -1.8979
    -1.7759  -1.7580  -1.7018  -1.6331  -1.5115  -1.4817  -1.4309  -1.2553
    -1.2189  -1.1881  -1.1635  -1.1263  -0.9218  -0.8853  -0.8513  -0.8082
    -0.7424  -0.7163  -0.6869  -0.6012  -0.5673  -0.5177  -0.4676  -0.4396
    -0.4236  -0.4062  -0.3845  -0.3399  -0.3319  -0.2732  -0.2219  -0.1351
    -0.0964  -0.0465  -0.0278   0.0165   0.0400   0.0638   0.1645   0.2296
     0.2412   0.2812   0.2875   0.3124   0.3251   0.3623   0.4346   0.4778
     0.5340   0.5910   0.6598   0.6909   0.7418   0.8062   0.8193   0.8374
     0.9420   1.0814   1.1466   1.1597   1.4855   1.7179   1.8020   2.0493
     2.0547   2.0582   3.8129   3.8560   3.8800   3.9396   3.9736   4.0156
     4.0885   4.1083   4.1325   4.1728

          k = 0.0000-0.0839 0.0000 ( 17884 PWs)   bands (ev):

   -55.4939 -55.4932 -55.4649 -55.4605 -55.4445 -55.3448 -55.3383 -55.3290
   -55.3115 -55.3111 -55.2773 -55.2750 -55.0497 -54.8880 -54.4764 -54.4763
   -31.8380 -31.8211 -31.8083 -31.8077 -31.7889 -31.7881 -31.7464 -31.7408
   -31.7327 -31.6777 -31.6764 -31.6740 -31.6690 -31.6641 -31.6619 -31.6572
   -31.6307 -31.6276 -31.6252 -31.6156 -31.6150 -31.5982 -31.5950 -31.5663
   -31.5645 -31.5462 -31.5410 -31.5373 -31.5334 -31.5321 -31.5081 -31.5035
   -31.4851 -31.4831 -31.4578 -31.4560 -31.4130 -31.3054 -31.2570 -31.2118
   -31.1502 -31.1049 -30.8003 -30.8002 -30.7136 -30.7134 -30.6742 -30.6741
   -18.7229 -16.5384 -15.7530 -15.7333 -15.5858 -15.5579 -15.4262 -15.3923
   -15.3081 -15.2884 -15.2854 -15.2563 -15.2130 -15.1461 -15.0678 -15.0526
   -14.9441 -14.9173 -14.9034 -14.8969 -14.8862 -14.8524 -14.8499 -14.8480
   -14.8349 -14.8236 -14.8019 -14.7759 -14.7612 -14.6386 -14.3577 -12.9812
   -12.9811 -11.6462  -8.8710  -6.4627  -5.1755  -4.2678  -3.6304  -3.1505
    -2.9588  -2.9204  -2.9006  -2.8889  -2.8698  -2.8352  -2.8052  -2.8042
    -2.7713  -2.7167  -2.6601  -2.6146  -2.5981  -2.5842  -2.5639  -2.5172
    -2.4693  -2.4629  -2.3921  -2.3433  -2.3283  -2.3254  -2.2665  -2.2264
    -2.1931  -2.1197  -2.1036  -2.0711  -2.0107  -1.9214  -1.8909  -1.8735
    -1.8383  -1.7574  -1.5988  -1.5069  -1.4273  -1.3807  -1.3384  -1.2873
    -1.2048  -1.1757  -1.1346  -1.0359  -0.9459  -0.9372  -0.9192  -0.9076
    -0.8755  -0.8469  -0.7484  -0.7286  -0.6858  -0.6240  -0.4801  -0.4466
    -0.3968  -0.3013  -0.1883  -0.1517  -0.1370  -0.1325  -0.1170  -0.0696
    -0.0525  -0.0038   0.0073   0.0355   0.0498   0.0579   0.0829   0.1172
     0.1605   0.1788   0.2027   0.2404   0.2758   0.2873   0.3051   0.3416
     0.3796   0.3959   0.4549   0.5448   0.7189   0.7241   0.7327   0.7556
     1.0175   1.0419   1.0985   1.1969   1.2005   1.8611   1.8616   1.9915
     1.9919   2.0440   3.9444   3.9764   4.0250   4.0531   4.0596   4.0708
     4.1443   4.1775   4.2065   4.2163

          k = 0.0380 0.0000 0.0000 ( 17913 PWs)   bands (ev):

   -55.5106 -55.4806 -55.4765 -55.4471 -55.4446 -55.3591 -55.3282 -55.3265
   -55.3239 -55.2944 -55.2932 -55.2593 -55.0512 -54.8866 -54.4934 -54.4593
   -32.0252 -31.9952 -31.8847 -31.8658 -31.8266 -31.8030 -31.7881 -31.7849
   -31.7552 -31.7017 -31.6940 -31.6803 -31.6740 -31.6599 -31.6576 -31.6294
   -31.6158 -31.6098 -31.5907 -31.5787 -31.5756 -31.5675 -31.5360 -31.5207
   -31.5142 -31.5129 -31.5116 -31.5079 -31.4924 -31.4903 -31.4827 -31.4811
   -31.4717 -31.4578 -31.4466 -31.4364 -31.4056 -31.3097 -31.2616 -31.1504
   -31.1415 -31.0772 -30.9002 -30.8153 -30.7875 -30.7172 -30.6308 -30.5196
   -18.7233 -16.5530 -16.1425 -15.9011 -15.6816 -15.6518 -15.5657 -15.4406
   -15.3705 -15.2477 -15.2077 -15.2049 -15.1836 -15.1399 -15.1245 -15.0707
   -15.0585 -14.9706 -14.8853 -14.8679 -14.8393 -14.7796 -14.7692 -14.7585
   -14.7344 -14.7239 -14.7054 -14.6994 -14.6738 -14.6229 -14.2014 -12.9922
   -12.8787 -11.6397  -8.8635  -6.4569  -5.1636  -4.2858  -3.6654  -3.4968
    -3.2619  -3.2146  -3.1630  -3.1423  -3.0660  -3.0574  -2.9562  -2.9156
    -2.7729  -2.7602  -2.6585  -2.6009  -2.5927  -2.5815  -2.4691  -2.3337
    -2.3124  -2.2579  -2.2397  -2.2132  -2.1559  -2.1088  -2.0904  -2.0663
    -2.0341  -1.9976  -1.9130  -1.8879  -1.8557  -1.7863  -1.7708  -1.7466
    -1.7230  -1.7093  -1.5695  -1.5059  -1.4689  -1.4607  -1.3890  -1.3431
    -1.3089  -1.2508  -1.1234  -1.1179  -1.0698  -1.0253  -1.0006  -0.9474
    -0.9313  -0.8780  -0.8380  -0.7849  -0.7690  -0.7613  -0.6653  -0.5571
    -0.5089  -0.4615  -0.4039  -0.3140  -0.2706  -0.2470  -0.2070  -0.1880
    -0.1272  -0.0303   0.0260   0.0746   0.0964   0.1278   0.1862   0.2220
     0.2391   0.2665   0.3070   0.3267   0.3486   0.3649   0.3855   0.4293
     0.5441   0.5606   0.6253   0.6685   0.7443   0.7840   0.8270   0.8671
     1.1129   1.1734   1.2532   1.4561   1.4783   1.5411   1.6902   1.9888
     2.0635   2.0854   3.6437   3.6782   3.9726   3.9884   4.0076   4.0186
     4.0442   4.0700   4.0789   4.1470

          k = 0.0380 0.0419 0.0000 ( 17878 PWs)   bands (ev):

   -55.5055 -55.4815 -55.4754 -55.4498 -55.4457 -55.3541 -55.3289 -55.3277
   -55.3231 -55.2993 -55.2882 -55.2643 -55.0504 -54.8873 -54.4883 -54.4643
   -31.9684 -31.9412 -31.8333 -31.8119 -31.7983 -31.7943 -31.7713 -31.7397
   -31.7353 -31.7078 -31.7044 -31.6849 -31.6729 -31.6677 -31.6585 -31.6531
   -31.6465 -31.6355 -31.5813 -31.5805 -31.5723 -31.5675 -31.5367 -31.5311
   -31.5254 -31.5230 -31.5211 -31.5205 -31.5162 -31.5061 -31.4960 -31.4904
   -31.4855 -31.4677 -31.4572 -31.4555 -31.4538 -31.3085 -31.2578 -31.1692
   -31.1507 -31.0932 -30.8461 -30.8111 -30.7915 -30.7046 -30.6435 -30.5768
   -18.7229 -16.5447 -16.0142 -15.7880 -15.5834 -15.5469 -15.4626 -15.3961
   -15.3486 -15.2893 -15.2745 -15.1709 -15.1698 -15.1182 -15.1017 -15.0341
   -15.0117 -15.0046 -14.9544 -14.9145 -14.8959 -14.8405 -14.8371 -14.8006
   -14.7834 -14.7723 -14.7533 -14.7402 -14.7134 -14.6406 -14.2679 -12.9972
   -12.9187 -11.6430  -8.8675  -6.4571  -5.1693  -4.2765  -3.6490  -3.3255
    -3.1056  -3.0837  -3.0478  -2.9688  -2.9253  -2.9085  -2.7878  -2.7462
    -2.6277  -2.6117  -2.5355  -2.5155  -2.4817  -2.4370  -2.4296  -2.4000
    -2.3656  -2.3414  -2.3057  -2.2825  -2.2444  -2.2331  -2.2153  -2.1864
    -2.1628  -2.1436  -2.1022  -2.0090  -1.9993  -1.9427  -1.8635  -1.8355
    -1.7604  -1.7098  -1.6448  -1.5436  -1.5100  -1.4834  -1.3884  -1.2737
    -1.2455  -1.2153  -1.1123  -1.0348  -0.9623  -0.9364  -0.9087  -0.8592
    -0.8282  -0.7892  -0.7482  -0.7199  -0.7035  -0.6283  -0.6142  -0.5774
    -0.4925  -0.4478  -0.3973  -0.3721  -0.3324  -0.2873  -0.2566  -0.2327
    -0.2027  -0.1684  -0.1315  -0.1099  -0.0898  -0.0194   0.0511   0.0780
     0.1219   0.1739   0.1814   0.2135   0.2791   0.3713   0.4145   0.4900
     0.5686   0.5863   0.6619   0.7129   0.7550   0.7987   0.8502   0.8702
     0.9213   1.0704   1.1211   1.1465   1.4189   1.7286   1.8060   1.9771
     2.0389   2.0704   3.8025   3.8561   3.9284   4.0027   4.0233   4.0869
     4.1298   4.1680   4.1836   4.2141

          k = 0.0380-0.0839 0.0000 ( 17916 PWs)   bands (ev):

   -55.4939 -55.4932 -55.4649 -55.4605 -55.4445 -55.3448 -55.3383 -55.3290
   -55.3115 -55.3110 -55.2774 -55.2751 -55.0497 -54.8881 -54.4764 -54.4763
   -31.8382 -31.8214 -31.8091 -31.8085 -31.7889 -31.7881 -31.7474 -31.7410
   -31.7329 -31.6976 -31.6869 -31.6749 -31.6612 -31.6580 -31.6463 -31.6374
   -31.6310 -31.6287 -31.6258 -31.6145 -31.6139 -31.6090 -31.6062 -31.5496
   -31.5465 -31.5430 -31.5416 -31.5402 -31.5378 -31.5305 -31.5080 -31.5034
   -31.4851 -31.4831 -31.4697 -31.4677 -31.4127 -31.3076 -31.2570 -31.2116
   -31.1514 -31.1049 -30.8013 -30.8012 -30.7135 -30.7133 -30.6742 -30.6741
   -18.7226 -16.5368 -15.7099 -15.6773 -15.5335 -15.5022 -15.3915 -15.3525
   -15.2981 -15.2785 -15.2443 -15.2257 -15.2041 -15.1819 -15.0753 -15.0655
   -14.9919 -14.9655 -14.9395 -14.9319 -14.9221 -14.9098 -14.8856 -14.8716
   -14.8613 -14.8316 -14.8212 -14.8073 -14.7695 -14.6296 -14.3547 -12.9810
   -12.9809 -11.6465  -8.8712  -6.4602  -5.1690  -4.2688  -3.6366  -3.1124
    -2.9437  -2.8104  -2.7515  -2.7212  -2.7000  -2.6733  -2.6493  -2.6215
    -2.5968  -2.5911  -2.5875  -2.5420  -2.5120  -2.5006  -2.4881  -2.4598
    -2.3755  -2.3637  -2.3555  -2.3371  -2.3124  -2.2964  -2.2464  -2.2170
    -2.1958  -2.1657  -2.1218  -2.0955  -2.0224  -1.9990  -1.9067  -1.7583
    -1.6445  -1.6260  -1.5960  -1.4678  -1.4563  -1.4067  -1.3847  -1.3606
    -1.3252  -1.2722  -1.2445  -1.2198  -1.1588  -1.1492  -1.1239  -1.0736
    -0.9733  -0.9645  -0.7872  -0.6779  -0.6541  -0.5751  -0.5623  -0.5145
    -0.4706  -0.3960  -0.3653  -0.3027  -0.2833  -0.2670  -0.2560  -0.2474
    -0.2156  -0.1748  -0.1481  -0.1114  -0.1022  -0.0670  -0.0536  -0.0445
     0.0393   0.0859   0.1156   0.1952   0.2628   0.3478   0.3986   0.5054
     0.5748   0.5777   0.6136   0.6314   0.6576   0.7021   0.8230   0.8367
     0.9732   1.0055   1.1019   1.1898   1.1983   1.8742   1.8749   1.9807
     1.9814   2.0564   3.9223   3.9381   4.0192   4.0339   4.0381   4.0779
     4.1950   4.2183   4.2428   4.2477

          k = 0.0380-0.0419 0.0000 ( 17876 PWs)   bands (ev):

   -55.5055 -55.4815 -55.4754 -55.4498 -55.4457 -55.3541 -55.3289 -55.3277
   -55.3231 -55.2993 -55.2882 -55.2642 -55.0504 -54.8873 -54.4883 -54.4643
   -31.9684 -31.9411 -31.8333 -31.8119 -31.7983 -31.7943 -31.7713 -31.7397
   -31.7353 -31.7078 -31.7045 -31.6851 -31.6729 -31.6676 -31.6584 -31.6528
   -31.6465 -31.6359 -31.5813 -31.5805 -31.5716 -31.5675 -31.5369 -31.5313
   -31.5258 -31.5227 -31.5209 -31.5205 -31.5162 -31.5062 -31.4960 -31.4901
   -31.4860 -31.4677 -31.4571 -31.4556 -31.4537 -31.3086 -31.2577 -31.1691
   -31.1507 -31.0933 -30.8461 -30.8111 -30.7915 -30.7046 -30.6435 -30.5768
   -18.7229 -16.5446 -16.0141 -15.7879 -15.5839 -15.5468 -15.4624 -15.3958
   -15.3492 -15.2902 -15.2749 -15.1714 -15.1705 -15.1177 -15.1034 -15.0312
   -15.0113 -15.0025 -14.9501 -14.9187 -14.8952 -14.8400 -14.8364 -14.8014
   -14.7858 -14.7722 -14.7536 -14.7405 -14.7134 -14.6406 -14.2675 -12.9972
   -12.9187 -11.6431  -8.8671  -6.4598  -5.1628  -4.2768  -3.6488  -3.3273
    -3.1090  -3.0765  -3.0470  -2.9682  -2.9371  -2.9075  -2.7986  -2.7382
    -2.6234  -2.6161  -2.5240  -2.5152  -2.4791  -2.4553  -2.4304  -2.3953
    -2.3800  -2.3371  -2.3077  -2.2757  -2.2528  -2.2325  -2.2049  -2.1879
    -2.1622  -2.1379  -2.0983  -2.0169  -1.9982  -1.9330  -1.8600  -1.8400
    -1.7519  -1.7113  -1.6507  -1.5264  -1.5152  -1.4875  -1.4551  -1.2557
    -1.2451  -1.2081  -1.1342  -0.9995  -0.9756  -0.9389  -0.9014  -0.8400
    -0.8267  -0.7880  -0.7388  -0.7293  -0.7003  -0.6264  -0.6076  -0.5479
    -0.4920  -0.4489  -0.4387  -0.3639  -0.3267  -0.3131  -0.2749  -0.2252
    -0.1970  -0.1463  -0.1382  -0.0973  -0.0603  -0.0308   0.0443   0.0756
     0.1344   0.1774   0.1948   0.2139   0.2804   0.3509   0.4241   0.4752
     0.5620   0.6007   0.6712   0.6966   0.7503   0.8004   0.8416   0.8652
     0.9192   1.0617   1.1135   1.1646   1.4189   1.7287   1.8061   1.9769
     2.0396   2.0612   3.7998   3.8554   3.9322   3.9993   4.0350   4.0758
     4.1286   4.1660   4.1935   4.2086

          k =-0.0760-0.0000 0.0000 ( 17886 PWs)   bands (ev):

   -55.5105 -55.4805 -55.4765 -55.4470 -55.4446 -55.3591 -55.3279 -55.3265
   -55.3239 -55.2943 -55.2933 -55.2593 -55.0511 -54.8866 -54.4933 -54.4593
   -32.0254 -31.9961 -31.8862 -31.8710 -31.8268 -31.8028 -31.7927 -31.7847
   -31.7552 -31.7010 -31.6819 -31.6714 -31.6658 -31.6575 -31.6570 -31.6236
   -31.6158 -31.6097 -31.6035 -31.5770 -31.5679 -31.5455 -31.5380 -31.5366
   -31.5197 -31.5132 -31.5124 -31.5079 -31.5054 -31.4923 -31.4818 -31.4800
   -31.4718 -31.4577 -31.4475 -31.4357 -31.4063 -31.3128 -31.2616 -31.1510
   -31.1415 -31.0772 -30.8998 -30.8185 -30.7862 -30.7172 -30.6307 -30.5196
   -18.7230 -16.5480 -16.0281 -15.8357 -15.6167 -15.6100 -15.4934 -15.4075
   -15.3792 -15.2885 -15.2868 -15.2516 -15.2447 -15.2222 -15.1934 -15.1595
   -15.1162 -14.9609 -14.9015 -14.8701 -14.8253 -14.8085 -14.7742 -14.7618
   -14.7459 -14.7279 -14.6792 -14.6689 -14.6249 -14.6113 -14.2005 -12.9892
   -12.8783 -11.6394  -8.8647  -6.4519  -5.1679  -4.2942  -3.6543  -3.4715
    -3.2166  -3.0895  -3.0749  -2.9327  -2.9204  -2.8906  -2.8191  -2.7788
    -2.7746  -2.7617  -2.7462  -2.7053  -2.6066  -2.5091  -2.3282  -2.3169
    -2.2785  -2.2504  -2.1506  -2.1204  -2.0926  -2.0331  -2.0296  -2.0113
    -1.9840  -1.9191  -1.8926  -1.8644  -1.8187  -1.7963  -1.7622  -1.7443
    -1.7425  -1.7235  -1.7066  -1.6907  -1.5429  -1.4932  -1.3271  -1.2348
    -1.1839  -1.1611  -1.1366  -1.1160  -1.1131  -1.0971  -1.0944  -0.9968
    -0.9771  -0.9566  -0.8975  -0.8102  -0.7955  -0.7691  -0.7334  -0.6931
    -0.6628  -0.6437  -0.4866  -0.4538  -0.2759  -0.2172  -0.1986  -0.1571
    -0.1529  -0.1358  -0.0708  -0.0109  -0.0049   0.0522   0.0806   0.1366
     0.1533   0.1989   0.2243   0.2844   0.3073   0.3306   0.3540   0.4410
     0.5341   0.5523   0.6348   0.6490   0.7205   0.7397   0.9406   0.9676
     1.0860   1.1769   1.1896   1.2477   1.4688   1.5622   1.6658   1.8597
     2.0080   2.1042   3.6478   3.6550   3.7961   3.8941   3.9565   4.0605
     4.0687   4.1057   4.1248   4.1458

          k =-0.0760 0.0419 0.0000 ( 17914 PWs)   bands (ev):

   -55.5056 -55.4815 -55.4754 -55.4498 -55.4458 -55.3542 -55.3290 -55.3277
   -55.3230 -55.2993 -55.2883 -55.2643 -55.0504 -54.8873 -54.4884 -54.4644
   -31.9687 -31.9422 -31.8349 -31.8181 -31.7983 -31.7945 -31.7714 -31.7408
   -31.7396 -31.7077 -31.7042 -31.6732 -31.6676 -31.6636 -31.6585 -31.6532
   -31.6444 -31.6263 -31.5918 -31.5812 -31.5679 -31.5471 -31.5374 -31.5317
   -31.5270 -31.5258 -31.5244 -31.5188 -31.5154 -31.5087 -31.5050 -31.4959
   -31.4863 -31.4673 -31.4606 -31.4569 -31.4546 -31.3113 -31.2578 -31.1692
   -31.1516 -31.0933 -30.8459 -30.8139 -30.7908 -30.7047 -30.6435 -30.5768
   -18.7226 -16.5415 -15.9103 -15.7220 -15.5269 -15.5063 -15.4100 -15.3597
   -15.3350 -15.2817 -15.2728 -15.2485 -15.2239 -15.1662 -15.1560 -15.1190
   -15.1126 -14.9977 -14.9704 -14.8961 -14.8824 -14.8716 -14.8586 -14.8003
   -14.7977 -14.7849 -14.7682 -14.7166 -14.7016 -14.6378 -14.2672 -12.9951
   -12.9191 -11.6432  -8.8680  -6.4548  -5.1648  -4.2815  -3.6472  -3.3082
    -3.0595  -3.0435  -2.8124  -2.7552  -2.7065  -2.6372  -2.6195  -2.5877
    -2.5721  -2.5598  -2.5383  -2.5117  -2.4919  -2.4612  -2.4404  -2.3995
    -2.3658  -2.3128  -2.2956  -2.2644  -2.2130  -2.1981  -2.1822  -2.1297
    -2.1033  -2.0768  -2.0344  -2.0102  -1.9904  -1.9626  -1.8840  -1.8045
    -1.6565  -1.6264  -1.5992  -1.5755  -1.4805  -1.4565  -1.4123  -1.2997
    -1.2627  -1.1750  -1.1087  -1.0799  -1.0420  -1.0090  -0.9748  -0.9121
    -0.8870  -0.8508  -0.8211  -0.7921  -0.7725  -0.7521  -0.7332  -0.7012
    -0.6838  -0.6547  -0.5728  -0.5373  -0.4909  -0.4727  -0.3684  -0.3196
    -0.2965  -0.2682  -0.2326  -0.1739  -0.1496  -0.1110  -0.0405  -0.0194
     0.0135   0.0603   0.1718   0.1997   0.3136   0.3546   0.4424   0.4933
     0.5585   0.6760   0.7200   0.7553   0.8123   0.8535   0.9368   0.9437
     0.9985   1.0463   1.0751   1.1578   1.2465   1.7433   1.8090   1.9004
     2.0282   2.0828   3.7900   3.8489   3.8580   3.9422   3.9750   3.9844
     4.1111   4.1210   4.2152   4.2661

          k =-0.0760-0.0839 0.0000 ( 17948 PWs)   bands (ev):

   -55.4939 -55.4932 -55.4648 -55.4605 -55.4446 -55.3449 -55.3383 -55.3290
   -55.3114 -55.3110 -55.2775 -55.2752 -55.0497 -54.8881 -54.4765 -54.4763
   -31.8385 -31.8218 -31.8099 -31.8093 -31.7890 -31.7882 -31.7485 -31.7412
   -31.7332 -31.7051 -31.6941 -31.6750 -31.6594 -31.6577 -31.6322 -31.6302
   -31.6278 -31.6257 -31.6177 -31.6166 -31.6141 -31.6127 -31.6123 -31.5607
   -31.5524 -31.5460 -31.5380 -31.5275 -31.5132 -31.5120 -31.5076 -31.5031
   -31.4929 -31.4903 -31.4852 -31.4832 -31.4124 -31.3098 -31.2571 -31.2115
   -31.1525 -31.1050 -30.8023 -30.8022 -30.7135 -30.7133 -30.6742 -30.6742
   -18.7223 -16.5353 -15.6580 -15.5869 -15.4708 -15.4417 -15.3822 -15.3321
   -15.3145 -15.2454 -15.2092 -15.1967 -15.1449 -15.1424 -15.0945 -15.0706
   -15.0438 -15.0400 -15.0249 -14.9823 -14.9715 -14.9561 -14.9521 -14.9485
   -14.8714 -14.8354 -14.8313 -14.8267 -14.7575 -14.6238 -14.3521 -12.9807
   -12.9807 -11.6470  -8.8714  -6.4577  -5.1623  -4.2698  -3.6430  -3.0828
    -2.9432  -2.7855  -2.7201  -2.6392  -2.6384  -2.5959  -2.4693  -2.4459
    -2.4076  -2.3801  -2.3491  -2.3394  -2.3301  -2.3245  -2.3140  -2.3005
    -2.2875  -2.2480  -2.2022  -2.1867  -2.1782  -2.1738  -2.1589  -2.1458
    -2.1300  -2.1273  -2.0919  -2.0623  -2.0352  -1.9998  -1.9458  -1.7452
    -1.7178  -1.6966  -1.6694  -1.6570  -1.6452  -1.6121  -1.5735  -1.5633
    -1.4911  -1.4033  -1.3150  -1.2371  -1.2039  -1.1910  -1.1219  -1.0363
    -0.9949  -0.9559  -0.9186  -0.8588  -0.7999  -0.7616  -0.7244  -0.6430
    -0.6246  -0.6146  -0.5532  -0.5367  -0.4766  -0.4683  -0.3904  -0.3486
    -0.3121  -0.2652  -0.2376  -0.2319  -0.2130  -0.1786  -0.1707  -0.1169
    -0.0004   0.0083   0.0277   0.1326   0.2212   0.4604   0.5172   0.5498
     0.6299   0.6926   0.7539   0.7751   0.7969   0.8008   0.8366   0.8971
     1.0114   1.0212   1.0598   1.1479   1.1741   1.8924   1.8933   1.9660
     1.9662   2.0697   3.9268   3.9531   3.9789   4.0147   4.1154   4.1327
     4.1551   4.1571   4.2706   4.2927

     the Fermi energy is     3.6201 ev

!    total energy              =   -2976.50555134 Ry
     estimated scf accuracy    <       0.00000005 Ry
     smearing contrib. (-TS)   =      -0.02132221 Ry
     internal energy E=F+TS    =   -2976.48422913 Ry

     The total energy is F=E-TS. E is the sum of the following terms:
     one-electron contribution =  -23892.68766246 Ry
     hartree contribution      =   12042.86566979 Ry
     xc contribution           =    -495.75361755 Ry
     ewald contribution        =    9369.08955109 Ry
     electric field correction =       0.00183000 Ry

     convergence has been achieved in  59 iterations

     Forces acting on atoms (cartesian axes, Ry/au):

     atom    1 type  1   force =     0.00014837   -0.00028305    0.09588414
     atom    2 type  1   force =    -0.00022689   -0.00063300   -0.17568528
     atom    3 type  2   force =     0.00006269   -0.00014845   -0.02383658
     atom    4 type  2   force =     0.00006440   -0.00154396    0.05350797
     atom    5 type  2   force =    -0.01128054   -0.00076176    0.00356338
     atom    6 type  2   force =     0.01298255    0.00005704    0.00268891
     atom    7 type  1   force =    -0.00096637    0.00065108   -0.00794754
     atom    8 type  1   force =     0.00042849    0.00624661    0.02297225
     atom    9 type  2   force =    -0.00005095   -0.00030951   -0.00092342
     atom   10 type  2   force =    -0.00136707    0.00128079   -0.01512724
     atom   11 type  2   force =    -0.00032274    0.00024457   -0.00023814
     atom   12 type  2   force =    -0.00021987    0.00022248   -0.00033846
     atom   13 type  1   force =     0.00074878   -0.00046116    0.00027696
     atom   14 type  1   force =    -0.00018544    0.00041720    0.00152389
     atom   15 type  2   force =     0.00001045   -0.00003097    0.00032818
     atom   16 type  2   force =     0.00025702    0.00005251    0.00010885
     atom   17 type  2   force =     0.00064008   -0.00023870    0.00033253
     atom   18 type  2   force =     0.00014890   -0.00045728    0.00041068
     atom   19 type  1   force =    -0.00124031    0.00019026    0.00062055
     atom   20 type  1   force =     0.00075192   -0.00002226   -0.00006635
     atom   21 type  2   force =     0.00008665   -0.00009300    0.10325363
     atom   22 type  2   force =    -0.00070919   -0.00047246   -0.00064035
     atom   23 type  2   force =    -0.07142863   -0.00019544   -0.02769484
     atom   24 type  2   force =     0.07139908    0.00026418   -0.02769869
     atom   25 type  1   force =     0.00002506   -0.00030823    0.09560790
     atom   26 type  1   force =    -0.00018890   -0.00030857   -0.17596427
     atom   27 type  2   force =     0.00009864   -0.00011805   -0.02293298
     atom   28 type  2   force =     0.00011461   -0.00127255    0.05315410
     atom   29 type  2   force =    -0.01152854    0.00015432    0.00362137
     atom   30 type  2   force =     0.01318039    0.00046890    0.00271025
     atom   31 type  1   force =    -0.00101055    0.00373921   -0.01105873
     atom   32 type  1   force =     0.00051245   -0.00741531    0.02337537
     atom   33 type  2   force =    -0.00023521    0.00031236   -0.00029192
     atom   34 type  2   force =    -0.00033419    0.00024696   -0.02185042
     atom   35 type  2   force =     0.00009094    0.00030158   -0.00037257
     atom   36 type  2   force =    -0.00037907    0.00030174   -0.00029735
     atom   37 type  1   force =     0.00040437    0.00056411   -0.00027509
     atom   38 type  1   force =    -0.00022119   -0.00041770    0.00135700
     atom   39 type  2   force =    -0.00007410   -0.00030986    0.00038844
     atom   40 type  2   force =     0.00032775    0.00008937   -0.00084776
     atom   41 type  2   force =     0.00117173    0.00050757    0.00012027
     atom   42 type  2   force =    -0.00068948    0.00030917    0.00000959
     atom   43 type  1   force =    -0.00094283   -0.00105834   -0.00011483
     atom   44 type  1   force =     0.00074862    0.00048802   -0.00021676
     atom   45 type  2   force =     0.00008716   -0.00010092    0.10324860
     atom   46 type  2   force =    -0.07143825   -0.00012636   -0.02767555
     atom   47 type  2   force =     0.07143923    0.00030882   -0.02770536
     atom   48 type  3   force =    -0.00007935   -0.00217373   -0.00030823
     atom   49 type  3   force =    -0.00063413    0.00040438   -0.00042056
     atom   50 type  4   force =    -0.00042579    0.00236655   -0.00213752
     atom   51 type  5   force =     0.00004400    0.00118950    0.00001626
     atom   52 type  5   force =    -0.00048090    0.00040197   -0.00006684
     atom   53 type  5   force =     0.00042312   -0.00216009    0.00276470
     atom   54 type  5   force =     0.00010817   -0.00000698   -0.00015398
     atom   55 type  5   force =     0.00016638   -0.00010102    0.00048723
     atom   56 type  2   force =    -0.00076231   -0.00003908   -0.00004934
     atom   57 type  5   force =     0.00075881   -0.00005567   -0.00001221
     atom   58 type  5   force =    -0.00000806   -0.00015777    0.00061618

     Total force =     0.366773     Total SCF correction =     0.000586
  @ DRIVER MODE: Message from server: STATUS
  @ DRIVER MODE: Message from server: GETFORCE
  @ DRIVER MODE: Returning v,forces,stress,ensemble 

     Writing output data file ./calc.save/
  @ DRIVER MODE: Message from server: EXIT
  @ DRIVE MODE: Exiting  
 
     init_run     :     10.99s CPU     11.19s WALL (       1 calls)
     electrons    :   1071.13s CPU   1085.67s WALL (       1 calls)
     forces       :      2.53s CPU      2.61s WALL (       1 calls)

     Called by init_run:
     wfcinit      :      4.94s CPU      5.00s WALL (       1 calls)
     potinit      :      5.39s CPU      5.45s WALL (       1 calls)
     hinit0       :      0.30s CPU      0.31s WALL (       1 calls)

     Called by electrons:
     c_bands      :    928.01s CPU    934.42s WALL (      59 calls)
     sum_band     :     97.00s CPU    100.29s WALL (      59 calls)
     v_of_rho     :     35.31s CPU     36.99s WALL (      60 calls)
     newd         :     14.23s CPU     17.40s WALL (      60 calls)
     mix_rho      :      1.28s CPU      1.31s WALL (      59 calls)
     vdW_kernel   :      4.55s CPU      4.56s WALL (       1 calls)

     Called by c_bands:
     init_us_2    :      6.81s CPU      6.85s WALL (    1200 calls)
     cegterg      :    910.67s CPU    916.82s WALL (     606 calls)

     Called by *egterg:
     cdiaghg      :    153.47s CPU    154.10s WALL (    6655 calls)
     h_psi        :    470.77s CPU    474.99s WALL (    6671 calls)
     s_psi        :     65.11s CPU     65.31s WALL (    6671 calls)
     g_psi        :      1.94s CPU      1.95s WALL (    6055 calls)

     Called by h_psi:
     h_psi:calbec :     61.70s CPU     61.98s WALL (    6671 calls)
     vloc_psi     :    339.33s CPU    342.76s WALL (    6671 calls)
     add_vuspsi   :     66.14s CPU     66.44s WALL (    6671 calls)

     General routines
     calbec       :     79.30s CPU     79.63s WALL (    7301 calls)
     fft          :     17.90s CPU     18.04s WALL (    3780 calls)
     ffts         :      0.11s CPU      0.11s WALL (     119 calls)
     fftw         :    374.19s CPU    377.95s WALL (  901012 calls)
     interpolate  :      0.37s CPU      0.37s WALL (      60 calls)
     davcio       :      0.00s CPU      0.31s WALL (      10 calls)
 
     Parallel routines
 
     PWSCF        :  18m 4.89s CPU  18m20.26s WALL

 
   This run was terminated on:   3:35:43  16Sep2021            

=------------------------------------------------------------------------------=
   JOB DONE.
=------------------------------------------------------------------------------=
