
     Program PWSCF v.6.7GPU starts on  9Sep2021 at  6:12:47 

     This program is part of the open-source Quantum ESPRESSO suite
     for quantum simulation of materials; please cite
         "P. Giannozzi et al., J. Phys.:Condens. Matter 21 395502 (2009);
         "P. Giannozzi et al., J. Phys.:Condens. Matter 29 465901 (2017);
         "P. Giannozzi et al., J. Chem. Phys. 152 154105 (2020);
          URL http://www.quantum-espresso.org", 
     in publications or presentations arising from this work. More details at
     http://www.quantum-espresso.org/quote

     Parallel version (MPI), running on    10 processors

     MPI processes distributed on     1 nodes
     R & G space division:  proc/nbgrp/npool/nimage =      10
     Reading input from /storage/home/hcoda1/3/ntian30/research/carbon/CxH_vib/CH_calc/ads_slab/CHNHH_a/out_0028/pw.inp
Warning: card &CELL ignored
Warning: card   CELL_DYNAMICS='IPI', ignored
Warning: card / ignored

     Current dimensions of program PWSCF are:
     Max number of different atomic species (ntypx) = 10
     Max number of k-points (npk) =  40000
     Max angular momentum in pseudopotentials (lmaxx) =  3
     Presently no symmetry can be used with electric field

     Message from routine cell_base_init:
     DEPRECATED: use true lattice parameter, not A to a.u. conversion factor

     **************************************************************************
     Initializing libbeef V0.1.2 with the BEEF-vdW functional.
     Citation: Wellendorff et al., PRB 85, 235149 (2012).
     **************************************************************************


     IMPORTANT: XC functional enforced from input :
     Exchange-correlation= BEEF-VDW
                           (   1   4  43  14   2   0   0)
     Any further DFT definition will be discarded
     Please, verify this is what you really want


     Subspace diagonalization in iterative solution of the eigenvalue problem:
     one sub-group per band group will be used
     scalapack distributed-memory algorithm (size of sub-group:  3*  3 procs)

  @ DRIVER MODE: Connecting to 
 qe_1139763_2767378.sched-torque.pace.gatech.eduhc5x2ype_scratch
  using UNIX socket
  @ DRIVER MODE: Message from server: STATUS
  @ DRIVER MODE: Message from server: INIT
  @ DRIVER MODE: Receiving replica           0          -1
  @ DRIVER MODE: Receiving encoded integer          25
  @ DRIVER MODE:  SCF:  T  FORCE:  T  STRESS:  F  VC:  F  ENSEMBLE:  F
  @ DRIVER MODE:  SCF:  T  FORCE:  T  STRESS:  F  VC:  F  ENSEMBLE:  F
 
     Parallelization info
     --------------------
     sticks:   dense  smooth     PW     G-vecs:    dense   smooth      PW
     Min         327     131     37                56683    14340    2191
     Max         328     133     38                56694    14346    2206
     Sum        3275    1317    379               566857   143421   21985
 
     Using Slab Decomposition
 


     bravais-lattice index     =            0
     lattice parameter (alat)  =       1.8897  a.u.
     unit-cell volume          =    6658.9804 (a.u.)^3
     number of atoms/cell      =           52
     number of atomic types    =            5
     number of electrons       =       390.00
     number of Kohn-Sham states=          205
     kinetic-energy cutoff     =      29.3995  Ry
     charge density cutoff     =     293.9946  Ry
     scf convergence threshold =      7.3E-08
     mixing beta               =       0.0500
     number of iterations used =            8  plain     mixing
     Exchange-correlation= BEEF-VDW
                           (   1   4  43  14   2   0   0)

     celldm(1)=   1.889726  celldm(2)=   0.000000  celldm(3)=   0.000000
     celldm(4)=   0.000000  celldm(5)=   0.000000  celldm(6)=   0.000000

     crystal axes: (cart. coord. in units of alat)
               a(1) = (   6.579727   0.000000   0.000000 )  
               a(2) = (  -0.000775   5.961596   0.000000 )  
               a(3) = (   0.000000   0.000000  25.155947 )  

     reciprocal axes: (cart. coord. in units 2 pi/alat)
               b(1) = (  0.151982  0.000020  0.000000 )  
               b(2) = (  0.000000  0.167740  0.000000 )  
               b(3) = (  0.000000  0.000000  0.039752 )  


     PseudoPot. # 1 for Ti read from file:
     /storage/coda1/p-amedford6/0/shared/rich_project_chbe-medford/medford-share/data/pseudos_module/espresso/nninc/pbe/van/Ti.UPF
     MD5 check sum: 8e4df49b7f0d34bbd5052bf3f5ea0213
     Pseudo is Ultrasoft, Zval = 12.0
     Generated by new atomic code, or converted to UPF format
     Using radial grid of  851 points,  6 beta functions with: 
                l(1) =   0
                l(2) =   0
                l(3) =   1
                l(4) =   1
                l(5) =   2
                l(6) =   2
     Q(r) pseudized with  8 coefficients,  rinner =    1.000   1.000   1.000
                                                       1.000   1.000

     PseudoPot. # 2 for O  read from file:
     /storage/coda1/p-amedford6/0/shared/rich_project_chbe-medford/medford-share/data/pseudos_module/espresso/nninc/pbe/van/O.UPF
     MD5 check sum: 78c19812648e8988a0fe644b0f25305e
     Pseudo is Ultrasoft, Zval =  6.0
     Generated by new atomic code, or converted to UPF format
     Using radial grid of  737 points,  4 beta functions with: 
                l(1) =   0
                l(2) =   0
                l(3) =   1
                l(4) =   1
     Q(r) pseudized with  8 coefficients,  rinner =    0.800   0.800   0.800


     PseudoPot. # 3 for N  read from file:
     /storage/coda1/p-amedford6/0/shared/rich_project_chbe-medford/medford-share/data/pseudos_module/espresso/nninc/pbe/van/N.UPF
     MD5 check sum: 90d10febe142ad51ac9d5be1deb811c4
     Pseudo is Ultrasoft, Zval =  5.0
     Generated by new atomic code, or converted to UPF format
     Using radial grid of  729 points,  4 beta functions with: 
                l(1) =   0
                l(2) =   0
                l(3) =   1
                l(4) =   1
     Q(r) pseudized with  8 coefficients,  rinner =    0.800   0.800   0.800


     PseudoPot. # 4 for C  read from file:
     /storage/coda1/p-amedford6/0/shared/rich_project_chbe-medford/medford-share/data/pseudos_module/espresso/nninc/pbe/van/C.UPF
     MD5 check sum: 1a69bf6b8db32088f5b2163dbdb77a27
     Pseudo is Ultrasoft, Zval =  4.0
     Generated by new atomic code, or converted to UPF format
     Using radial grid of  721 points,  4 beta functions with: 
                l(1) =   0
                l(2) =   0
                l(3) =   1
                l(4) =   1
     Q(r) pseudized with  8 coefficients,  rinner =    0.800   0.800   0.800


     PseudoPot. # 5 for H  read from file:
     /storage/coda1/p-amedford6/0/shared/rich_project_chbe-medford/medford-share/data/pseudos_module/espresso/nninc/pbe/van/H.UPF
     MD5 check sum: b5ee9d7bfd3a09ee7748110bda690ff7
     Pseudo is Ultrasoft, Zval =  1.0
     Generated by new atomic code, or converted to UPF format
     Using radial grid of  615 points,  1 beta functions with: 
                l(1) =   0
     Q(r) pseudized with  8 coefficients,  rinner =    0.800

     atomic species   valence    mass     pseudopotential
        Ti1           12.00    47.86700     Ti( 1.00)
        O1             6.00    15.99900     O ( 1.00)
        N1             5.00    14.00700     N ( 1.00)
        C1             4.00    12.01100     C ( 1.00)
        H1             1.00     1.00800     H ( 1.00)

     No symmetry found



   Cartesian axes

     site n.     atom                  positions (alat units)
         1           Ti1 tau(   1) = (   0.0004258   2.9801865   6.0000000  )
         2           Ti1 tau(   2) = (   3.2906075   1.4906267   6.0002472  )
         3           O1  tau(   3) = (   0.0006271   0.0005054   7.9858123  )
         4           O1  tau(   4) = (   3.2906025   0.0005020   7.3038282  )
         5           O1  tau(   5) = (   4.5942328   1.4918067   9.2879030  )
         6           O1  tau(   6) = (   1.9868534   1.4903216   9.2879459  )
         7           Ti1 tau(   7) = (   3.2907910   2.8959150   9.1758416  )
         8           Ti1 tau(   8) = (   0.0015273   1.4827037   9.2680791  )
         9           O1  tau(   9) = (   3.2768318   5.9518058  11.3501096  )
        10           O1  tau(  10) = (   0.0116148   5.9584955  10.6183126  )
        11           O1  tau(  11) = (   1.2820894   1.4890407  12.6429483  )
        12           O1  tau(  12) = (   5.2701592   1.4861355  12.6244956  )
        13           Ti1 tau(  13) = (   0.0263608   2.9732685  12.5725065  )
        14           Ti1 tau(  14) = (   3.3311081   1.4825583  12.4934812  )
        15           O1  tau(  15) = (   6.5448050   0.0382128  14.6485099  )
        16           O1  tau(  16) = (   3.2835306   5.9556129  13.9684075  )
        17           O1  tau(  17) = (   4.5065730   1.5084740  16.1486978  )
        18           O1  tau(  18) = (   2.0110176   1.4968469  16.1316129  )
        19           Ti1 tau(  19) = (   3.2365874   2.9692752  15.7101938  )
        20           Ti1 tau(  20) = (   6.5183500   1.5288441  15.9766389  )
        21           O1  tau(  21) = (   3.2904802   0.0005063   4.7018136  )
        22           O1  tau(  22) = (   6.5552815   5.8936090  17.2115513  )
        23           O1  tau(  23) = (   1.3043587   1.4918075   6.0039043  )
        24           O1  tau(  24) = (   5.2767064   1.4903225   6.0039473  )
        25           Ti1 tau(  25) = (   0.0000382   5.9609847   6.0000000  )
        26           Ti1 tau(  26) = (   3.2902200   4.4714249   6.0002472  )
        27           O1  tau(  27) = (   0.0002396   2.9813036   7.9858123  )
        28           O1  tau(  28) = (   3.2902150   2.9813002   7.3038282  )
        29           O1  tau(  29) = (   4.5938453   4.4726049   9.2879030  )
        30           O1  tau(  30) = (   1.9864658   4.4711199   9.2879459  )
        31           Ti1 tau(  31) = (   3.2891106   5.8743827   9.1763621  )
        32           Ti1 tau(  32) = (   0.0006254   4.4649316   9.2693709  )
        33           O1  tau(  33) = (   3.2825058   2.9767457  11.3441782  )
        34           O1  tau(  34) = (   0.0092240   2.9805883  10.6323155  )
        35           O1  tau(  35) = (   1.2778777   4.4660374  12.6604661  )
        36           O1  tau(  36) = (   5.2710664   4.4675109  12.6369154  )
        37           Ti1 tau(  37) = (   0.0243246   5.9574881  12.5203091  )
        38           Ti1 tau(  38) = (   3.3318591   4.4611298  12.5006215  )
        39           O1  tau(  39) = (   6.5359656   2.9584677  14.7835642  )
        40           O1  tau(  40) = (   3.2771955   2.9708399  13.9242642  )
        41           O1  tau(  41) = (   4.4981441   4.4410618  16.1740548  )
        42           O1  tau(  42) = (   2.0042129   4.4512231  16.1075086  )
        43           Ti1 tau(  43) = (   3.2538698   5.9555144  15.7617387  )
        44           Ti1 tau(  44) = (   6.5531130   4.6830099  15.9084494  )
        45           O1  tau(  45) = (   3.2900926   2.9813045   4.7018136  )
        46           O1  tau(  46) = (   1.3039711   4.4726057   6.0039043  )
        47           O1  tau(  47) = (   5.2763189   4.4711207   6.0039473  )
        48           N1  tau(  48) = (   5.6690603   3.2568973  18.6585782  )
        49           C1  tau(  49) = (   0.0091554   2.6844975  17.9068455  )
        50           H1  tau(  50) = (   0.8805123   2.3964943  18.5001670  )
        51           H1  tau(  51) = (   4.8619660   3.6873350  18.2178346  )
        52           H1  tau(  52) = (   5.8095507   3.4868026  19.6356901  )

     number of k points=    10  Fermi-Dirac smearing, width (Ry)=  0.0073
                       cart. coord. in units 2pi/alat
        k(    1) = (   0.0000000   0.0000000   0.0000000), wk =   0.1250000
        k(    2) = (   0.0000000   0.0419351   0.0000000), wk =   0.2500000
        k(    3) = (   0.0000000  -0.0838702   0.0000000), wk =   0.1250000
        k(    4) = (   0.0379955   0.0000049   0.0000000), wk =   0.2500000
        k(    5) = (   0.0379955   0.0419400   0.0000000), wk =   0.2500000
        k(    6) = (   0.0379955  -0.0838652   0.0000000), wk =   0.2500000
        k(    7) = (   0.0379955  -0.0419301   0.0000000), wk =   0.2500000
        k(    8) = (  -0.0759910  -0.0000099   0.0000000), wk =   0.1250000
        k(    9) = (  -0.0759910   0.0419252   0.0000000), wk =   0.2500000
        k(   10) = (  -0.0759910  -0.0838800   0.0000000), wk =   0.1250000

     Dense  grid:   566857 G-vectors     FFT dimensions: (  72,  64, 270)

     Smooth grid:   143421 G-vectors     FFT dimensions: (  45,  40, 180)

     Estimated max dynamical RAM per process >     362.58 MB

     Estimated total dynamical RAM >       3.54 GB
     Cannot read rho : file not found

     Initial potential from superposition of free atoms

     starting charge  373.99917, renormalised to  390.00000

     negative rho (up, down):  1.782E-02 0.000E+00


     %%%%%%%%%%%%%%%%%%%%%%%%%%%%%%%%%%%%%%%%%%%%%%%%%%%%%%%%%%%%%%%%%%%%%%%%
     %                                                                      %
     % You are using vdW-DF, which was implemented by the Thonhauser group. %
     % Please cite the following two papers that made this development      %
     % possible and the two reviews that describe the various versions:     %
     %                                                                      %
     %   T. Thonhauser et al., PRL 115, 136402 (2015).                      %
     %   T. Thonhauser et al., PRB 76, 125112 (2007).                       %
     %   K. Berland et al., Rep. Prog. Phys. 78, 066501 (2015).             %
     %   D.C. Langreth et al., J. Phys.: Condens. Matter 21, 084203 (2009). %
     %                                                                      %
     %                                                                      %
     % If you are calculating the stress with vdW-DF, please also cite:     %
     %                                                                      %
     %   R. Sabatini et al., J. Phys.: Condens. Matter 24, 424209 (2012).   %
     %                                                                      %
     %%%%%%%%%%%%%%%%%%%%%%%%%%%%%%%%%%%%%%%%%%%%%%%%%%%%%%%%%%%%%%%%%%%%%%%%


 
     Adding external electric field

     Computed dipole along edir(3) : 
        Dipole               -5.8555 Ry au,        -14.8831 Debye
        Dipole field         -0.0111 Ry au, 
 
        Potential amp.        1.0243 Ry
        Total length         46.3494 bohr
 
     Starting wfcs are  295 atomic wfcs
  @ DRIVER MODE: Message from server: STATUS
  @ DRIVER MODE: Message from server: POSDATA
  @ DRIVER MODE: Reading and sharing cell 
  @ DRIVER MODE: Reading and sharing positions 
  @ DRIVER MODE: Received positions 

     total cpu time spent up to now is       11.4 secs

     Self-consistent Calculation

     iteration #  1     ecut=    29.40 Ry     beta= 0.05
     Davidson diagonalization with overlap
     c_bands:  4 eigenvalues not converged
     c_bands:  1 eigenvalues not converged
     c_bands:  2 eigenvalues not converged
     c_bands:  2 eigenvalues not converged
     c_bands:  3 eigenvalues not converged
     c_bands:  3 eigenvalues not converged
     c_bands:  3 eigenvalues not converged
     c_bands:  3 eigenvalues not converged
     c_bands:  3 eigenvalues not converged
     c_bands:  5 eigenvalues not converged
     ethr =  1.00E-05,  avg # of iterations = 20.0

     negative rho (up, down):  1.713E-02 0.000E+00
 
     Adding external electric field

     Computed dipole along edir(3) : 
        Dipole               25.2216 Ry au,         64.1070 Debye
        Dipole field          0.0476 Ry au, 
 
        Potential amp.       -4.4121 Ry
        Total length         46.3494 bohr
 

     total cpu time spent up to now is       50.1 secs

     total energy              =   -2777.20165337 Ry
     estimated scf accuracy    <    1561.91769226 Ry

     iteration #  2     ecut=    29.40 Ry     beta= 0.05
     Davidson diagonalization with overlap
     ethr =  1.00E-02,  avg # of iterations = 18.1

     negative rho (up, down):  6.472E-03 0.000E+00
 
     Adding external electric field

     Computed dipole along edir(3) : 
        Dipole               -2.6073 Ry au,         -6.6270 Debye
        Dipole field         -0.0049 Ry au, 
 
        Potential amp.        0.4561 Ry
        Total length         46.3494 bohr
 

     total cpu time spent up to now is       95.9 secs

     total energy              =   -2636.64269963 Ry
     estimated scf accuracy    <   36679.41219275 Ry

     iteration #  3     ecut=    29.40 Ry     beta= 0.05
     Davidson diagonalization with overlap
     ethr =  1.00E-02,  avg # of iterations = 15.6

     negative rho (up, down):  6.521E-03 0.000E+00
 
     Adding external electric field

     Computed dipole along edir(3) : 
        Dipole               -3.6644 Ry au,         -9.3139 Debye
        Dipole field         -0.0069 Ry au, 
 
        Potential amp.        0.6410 Ry
        Total length         46.3494 bohr
 

     total cpu time spent up to now is      134.5 secs

     total energy              =   -2907.79501646 Ry
     estimated scf accuracy    <    1222.68536487 Ry

     iteration #  4     ecut=    29.40 Ry     beta= 0.05
     Davidson diagonalization with overlap
     ethr =  1.00E-02,  avg # of iterations =  8.0

     negative rho (up, down):  6.618E-03 0.000E+00
 
     Adding external electric field

     Computed dipole along edir(3) : 
        Dipole               -4.5886 Ry au,        -11.6631 Debye
        Dipole field         -0.0087 Ry au, 
 
        Potential amp.        0.8027 Ry
        Total length         46.3494 bohr
 

     total cpu time spent up to now is      147.2 secs

     total energy              =   -2903.93742631 Ry
     estimated scf accuracy    <     719.51004548 Ry

     iteration #  5     ecut=    29.40 Ry     beta= 0.05
     Davidson diagonalization with overlap
     ethr =  1.00E-02,  avg # of iterations =  8.8

     negative rho (up, down):  6.512E-03 0.000E+00
 
     Adding external electric field

     Computed dipole along edir(3) : 
        Dipole               -4.2504 Ry au,        -10.8034 Debye
        Dipole field         -0.0080 Ry au, 
 
        Potential amp.        0.7435 Ry
        Total length         46.3494 bohr
 

     total cpu time spent up to now is      164.2 secs

     total energy              =   -2921.30155526 Ry
     estimated scf accuracy    <      13.67182286 Ry

     iteration #  6     ecut=    29.40 Ry     beta= 0.05
     Davidson diagonalization with overlap
     ethr =  3.51E-03,  avg # of iterations =  2.3

     negative rho (up, down):  6.502E-03 0.000E+00
 
     Adding external electric field

     Computed dipole along edir(3) : 
        Dipole               -0.7766 Ry au,         -1.9739 Debye
        Dipole field         -0.0015 Ry au, 
 
        Potential amp.        0.1359 Ry
        Total length         46.3494 bohr
 

     total cpu time spent up to now is      175.0 secs

     total energy              =   -2916.87357912 Ry
     estimated scf accuracy    <      12.37681013 Ry

     iteration #  7     ecut=    29.40 Ry     beta= 0.05
     Davidson diagonalization with overlap
     c_bands:  3 eigenvalues not converged
     ethr =  3.17E-03,  avg # of iterations = 17.3

     negative rho (up, down):  6.474E-03 0.000E+00
 
     Adding external electric field

     Computed dipole along edir(3) : 
        Dipole               -0.6585 Ry au,         -1.6738 Debye
        Dipole field         -0.0012 Ry au, 
 
        Potential amp.        0.1152 Ry
        Total length         46.3494 bohr
 

     total cpu time spent up to now is      197.1 secs

     total energy              =   -2930.05517065 Ry
     estimated scf accuracy    <    1149.83793496 Ry

     iteration #  8     ecut=    29.40 Ry     beta= 0.05
     Davidson diagonalization with overlap
     ethr =  3.17E-03,  avg # of iterations =  1.6

     negative rho (up, down):  6.496E-03 0.000E+00
 
     Adding external electric field

     Computed dipole along edir(3) : 
        Dipole               -0.4096 Ry au,         -1.0411 Debye
        Dipole field         -0.0008 Ry au, 
 
        Potential amp.        0.0717 Ry
        Total length         46.3494 bohr
 

     total cpu time spent up to now is      207.4 secs

     total energy              =   -2932.61616349 Ry
     estimated scf accuracy    <    1304.39365988 Ry

     iteration #  9     ecut=    29.40 Ry     beta= 0.05
     Davidson diagonalization with overlap
     ethr =  3.17E-03,  avg # of iterations =  2.2

     negative rho (up, down):  6.535E-03 0.000E+00
 
     Adding external electric field

     Computed dipole along edir(3) : 
        Dipole               -0.4648 Ry au,         -1.1815 Debye
        Dipole field         -0.0009 Ry au, 
 
        Potential amp.        0.0813 Ry
        Total length         46.3494 bohr
 

     total cpu time spent up to now is      217.8 secs

     total energy              =   -2931.80683832 Ry
     estimated scf accuracy    <    1615.32091522 Ry

     iteration # 10     ecut=    29.40 Ry     beta= 0.05
     Davidson diagonalization with overlap
     ethr =  3.17E-03,  avg # of iterations =  1.0

     negative rho (up, down):  6.678E-03 0.000E+00
 
     Adding external electric field

     Computed dipole along edir(3) : 
        Dipole               -0.8163 Ry au,         -2.0749 Debye
        Dipole field         -0.0015 Ry au, 
 
        Potential amp.        0.1428 Ry
        Total length         46.3494 bohr
 

     total cpu time spent up to now is      227.7 secs

     total energy              =   -2925.00941807 Ry
     estimated scf accuracy    <    1522.32713766 Ry

     iteration # 11     ecut=    29.40 Ry     beta= 0.05
     Davidson diagonalization with overlap
     ethr =  3.17E-03,  avg # of iterations =  1.0

     negative rho (up, down):  6.736E-03 0.000E+00
 
     Adding external electric field

     Computed dipole along edir(3) : 
        Dipole               -2.4653 Ry au,         -6.2661 Debye
        Dipole field         -0.0047 Ry au, 
 
        Potential amp.        0.4313 Ry
        Total length         46.3494 bohr
 

     total cpu time spent up to now is      237.5 secs

     total energy              =   -2909.24991173 Ry
     estimated scf accuracy    <     891.77211847 Ry

     iteration # 12     ecut=    29.40 Ry     beta= 0.05
     Davidson diagonalization with overlap
     ethr =  3.17E-03,  avg # of iterations = 17.4

     negative rho (up, down):  6.672E-03 0.000E+00
 
     Adding external electric field

     Computed dipole along edir(3) : 
        Dipole               -2.9556 Ry au,         -7.5123 Debye
        Dipole field         -0.0056 Ry au, 
 
        Potential amp.        0.5170 Ry
        Total length         46.3494 bohr
 

     total cpu time spent up to now is      259.9 secs

     total energy              =   -2919.14815583 Ry
     estimated scf accuracy    <       4.49320435 Ry

     iteration # 13     ecut=    29.40 Ry     beta= 0.05
     Davidson diagonalization with overlap
     ethr =  1.15E-03,  avg # of iterations =  8.3

     negative rho (up, down):  6.714E-03 0.000E+00
 
     Adding external electric field

     Computed dipole along edir(3) : 
        Dipole               -3.2411 Ry au,         -8.2379 Debye
        Dipole field         -0.0061 Ry au, 
 
        Potential amp.        0.5670 Ry
        Total length         46.3494 bohr
 

     total cpu time spent up to now is      273.3 secs

     total energy              =   -2919.81758930 Ry
     estimated scf accuracy    <       5.34377520 Ry

     iteration # 14     ecut=    29.40 Ry     beta= 0.05
     Davidson diagonalization with overlap
     ethr =  1.15E-03,  avg # of iterations = 11.2

     negative rho (up, down):  6.594E-03 0.000E+00
 
     Adding external electric field

     Computed dipole along edir(3) : 
        Dipole               -2.5729 Ry au,         -6.5397 Debye
        Dipole field         -0.0049 Ry au, 
 
        Potential amp.        0.4501 Ry
        Total length         46.3494 bohr
 

     total cpu time spent up to now is      287.2 secs

     total energy              =   -2919.10756832 Ry
     estimated scf accuracy    <      26.70541894 Ry

     iteration # 15     ecut=    29.40 Ry     beta= 0.05
     Davidson diagonalization with overlap
     ethr =  1.15E-03,  avg # of iterations =  3.2

     negative rho (up, down):  6.668E-03 0.000E+00
 
     Adding external electric field

     Computed dipole along edir(3) : 
        Dipole               -1.7290 Ry au,         -4.3948 Debye
        Dipole field         -0.0033 Ry au, 
 
        Potential amp.        0.3025 Ry
        Total length         46.3494 bohr
 

     total cpu time spent up to now is      298.2 secs

     total energy              =   -2919.14303457 Ry
     estimated scf accuracy    <       5.70048683 Ry

     iteration # 16     ecut=    29.40 Ry     beta= 0.05
     Davidson diagonalization with overlap
     ethr =  1.15E-03,  avg # of iterations =  1.5

     negative rho (up, down):  7.072E-03 0.000E+00
 
     Adding external electric field

     Computed dipole along edir(3) : 
        Dipole               -0.5266 Ry au,         -1.3385 Debye
        Dipole field         -0.0010 Ry au, 
 
        Potential amp.        0.0921 Ry
        Total length         46.3494 bohr
 

     total cpu time spent up to now is      308.4 secs

     total energy              =   -2919.14841553 Ry
     estimated scf accuracy    <       4.41816402 Ry

     iteration # 17     ecut=    29.40 Ry     beta= 0.05
     Davidson diagonalization with overlap
     ethr =  1.13E-03,  avg # of iterations =  8.7

     negative rho (up, down):  7.075E-03 0.000E+00
 
     Adding external electric field

     Computed dipole along edir(3) : 
        Dipole               -0.4225 Ry au,         -1.0740 Debye
        Dipole field         -0.0008 Ry au, 
 
        Potential amp.        0.0739 Ry
        Total length         46.3494 bohr
 

     total cpu time spent up to now is      321.1 secs

     total energy              =   -2919.34134098 Ry
     estimated scf accuracy    <       2.96454357 Ry

     iteration # 18     ecut=    29.40 Ry     beta= 0.05
     Davidson diagonalization with overlap
     ethr =  7.60E-04,  avg # of iterations =  1.4

     negative rho (up, down):  7.163E-03 0.000E+00
 
     Adding external electric field

     Computed dipole along edir(3) : 
        Dipole                0.0395 Ry au,          0.1005 Debye
        Dipole field          0.0001 Ry au, 
 
        Potential amp.       -0.0069 Ry
        Total length         46.3494 bohr
 

     total cpu time spent up to now is      331.2 secs

     total energy              =   -2919.33037902 Ry
     estimated scf accuracy    <       3.27309335 Ry

     iteration # 19     ecut=    29.40 Ry     beta= 0.05
     Davidson diagonalization with overlap
     ethr =  7.60E-04,  avg # of iterations =  2.6

     negative rho (up, down):  7.044E-03 0.000E+00
 
     Adding external electric field

     Computed dipole along edir(3) : 
        Dipole                0.3511 Ry au,          0.8925 Debye
        Dipole field          0.0007 Ry au, 
 
        Potential amp.       -0.0614 Ry
        Total length         46.3494 bohr
 

     total cpu time spent up to now is      341.7 secs

     total energy              =   -2919.18675596 Ry
     estimated scf accuracy    <       3.16673034 Ry

     iteration # 20     ecut=    29.40 Ry     beta= 0.05
     Davidson diagonalization with overlap
     c_bands:  1 eigenvalues not converged
     ethr =  7.60E-04,  avg # of iterations = 11.0

     negative rho (up, down):  6.879E-03 0.000E+00
 
     Adding external electric field

     Computed dipole along edir(3) : 
        Dipole                0.1272 Ry au,          0.3234 Debye
        Dipole field          0.0002 Ry au, 
 
        Potential amp.       -0.0223 Ry
        Total length         46.3494 bohr
 

     total cpu time spent up to now is      354.8 secs

     total energy              =   -2919.19633832 Ry
     estimated scf accuracy    <       2.53903212 Ry

     iteration # 21     ecut=    29.40 Ry     beta= 0.05
     Davidson diagonalization with overlap
     ethr =  6.51E-04,  avg # of iterations =  3.4

     negative rho (up, down):  6.600E-03 0.000E+00
 
     Adding external electric field

     Computed dipole along edir(3) : 
        Dipole               -0.2793 Ry au,         -0.7098 Debye
        Dipole field         -0.0005 Ry au, 
 
        Potential amp.        0.0489 Ry
        Total length         46.3494 bohr
 

     total cpu time spent up to now is      365.6 secs

     total energy              =   -2919.00167272 Ry
     estimated scf accuracy    <       2.44422677 Ry

     iteration # 22     ecut=    29.40 Ry     beta= 0.05
     Davidson diagonalization with overlap
     c_bands:  2 eigenvalues not converged
     c_bands:  2 eigenvalues not converged
     c_bands:  1 eigenvalues not converged
     c_bands:  4 eigenvalues not converged
     c_bands:  3 eigenvalues not converged
     c_bands:  3 eigenvalues not converged
     c_bands:  4 eigenvalues not converged
     c_bands:  3 eigenvalues not converged
     ethr =  6.27E-04,  avg # of iterations = 18.1

     negative rho (up, down):  6.902E-03 0.000E+00
 
     Adding external electric field

     Computed dipole along edir(3) : 
        Dipole                0.2945 Ry au,          0.7486 Debye
        Dipole field          0.0006 Ry au, 
 
        Potential amp.       -0.0515 Ry
        Total length         46.3494 bohr
 

     total cpu time spent up to now is      382.8 secs

     total energy              =   -2919.10370410 Ry
     estimated scf accuracy    <       1.60140937 Ry

     iteration # 23     ecut=    29.40 Ry     beta= 0.05
     Davidson diagonalization with overlap
     ethr =  4.11E-04,  avg # of iterations =  8.2

     negative rho (up, down):  6.704E-03 0.000E+00
 
     Adding external electric field

     Computed dipole along edir(3) : 
        Dipole                0.0673 Ry au,          0.1711 Debye
        Dipole field          0.0001 Ry au, 
 
        Potential amp.       -0.0118 Ry
        Total length         46.3494 bohr
 

     total cpu time spent up to now is      395.6 secs

     total energy              =   -2919.18511866 Ry
     estimated scf accuracy    <       1.37007321 Ry

     iteration # 24     ecut=    29.40 Ry     beta= 0.05
     Davidson diagonalization with overlap
     ethr =  3.51E-04,  avg # of iterations =  3.0

     negative rho (up, down):  6.743E-03 0.000E+00
 
     Adding external electric field

     Computed dipole along edir(3) : 
        Dipole                0.1200 Ry au,          0.3050 Debye
        Dipole field          0.0002 Ry au, 
 
        Potential amp.       -0.0210 Ry
        Total length         46.3494 bohr
 

     total cpu time spent up to now is      406.4 secs

     total energy              =   -2919.18397080 Ry
     estimated scf accuracy    <       1.68843996 Ry

     iteration # 25     ecut=    29.40 Ry     beta= 0.05
     Davidson diagonalization with overlap
     c_bands:  1 eigenvalues not converged
     ethr =  3.51E-04,  avg # of iterations =  8.6

     negative rho (up, down):  6.794E-03 0.000E+00
 
     Adding external electric field

     Computed dipole along edir(3) : 
        Dipole                0.1232 Ry au,          0.3131 Debye
        Dipole field          0.0002 Ry au, 
 
        Potential amp.       -0.0216 Ry
        Total length         46.3494 bohr
 

     total cpu time spent up to now is      418.7 secs

     total energy              =   -2919.14259806 Ry
     estimated scf accuracy    <       1.94517045 Ry

     iteration # 26     ecut=    29.40 Ry     beta= 0.05
     Davidson diagonalization with overlap
     ethr =  3.51E-04,  avg # of iterations =  2.4

     negative rho (up, down):  6.811E-03 0.000E+00
 
     Adding external electric field

     Computed dipole along edir(3) : 
        Dipole                0.2342 Ry au,          0.5952 Debye
        Dipole field          0.0004 Ry au, 
 
        Potential amp.       -0.0410 Ry
        Total length         46.3494 bohr
 

     total cpu time spent up to now is      429.6 secs

     total energy              =   -2919.03915221 Ry
     estimated scf accuracy    <       1.57823463 Ry

     iteration # 27     ecut=    29.40 Ry     beta= 0.05
     Davidson diagonalization with overlap
     ethr =  3.51E-04,  avg # of iterations =  7.5

     negative rho (up, down):  7.104E-03 0.000E+00
 
     Adding external electric field

     Computed dipole along edir(3) : 
        Dipole                0.6863 Ry au,          1.7443 Debye
        Dipole field          0.0013 Ry au, 
 
        Potential amp.       -0.1201 Ry
        Total length         46.3494 bohr
 

     total cpu time spent up to now is      441.7 secs

     total energy              =   -2919.05002591 Ry
     estimated scf accuracy    <       1.32075001 Ry

     iteration # 28     ecut=    29.40 Ry     beta= 0.05
     Davidson diagonalization with overlap
     ethr =  3.39E-04,  avg # of iterations =  4.1

     negative rho (up, down):  7.191E-03 0.000E+00
 
     Adding external electric field

     Computed dipole along edir(3) : 
        Dipole                0.6812 Ry au,          1.7313 Debye
        Dipole field          0.0013 Ry au, 
 
        Potential amp.       -0.1192 Ry
        Total length         46.3494 bohr
 

     total cpu time spent up to now is      452.6 secs

     total energy              =   -2919.05088421 Ry
     estimated scf accuracy    <       0.88181883 Ry

     iteration # 29     ecut=    29.40 Ry     beta= 0.05
     Davidson diagonalization with overlap
     c_bands:  1 eigenvalues not converged
     ethr =  2.26E-04,  avg # of iterations =  8.9

     negative rho (up, down):  7.111E-03 0.000E+00
 
     Adding external electric field

     Computed dipole along edir(3) : 
        Dipole                0.6682 Ry au,          1.6983 Debye
        Dipole field          0.0013 Ry au, 
 
        Potential amp.       -0.1169 Ry
        Total length         46.3494 bohr
 

     total cpu time spent up to now is      465.3 secs

     total energy              =   -2919.05363041 Ry
     estimated scf accuracy    <       0.42658973 Ry

     iteration # 30     ecut=    29.40 Ry     beta= 0.05
     Davidson diagonalization with overlap
     c_bands:  1 eigenvalues not converged
     ethr =  1.09E-04,  avg # of iterations =  6.8

     negative rho (up, down):  7.254E-03 0.000E+00
 
     Adding external electric field

     Computed dipole along edir(3) : 
        Dipole                0.8600 Ry au,          2.1860 Debye
        Dipole field          0.0016 Ry au, 
 
        Potential amp.       -0.1504 Ry
        Total length         46.3494 bohr
 

     total cpu time spent up to now is      477.5 secs

     total energy              =   -2919.05103928 Ry
     estimated scf accuracy    <       0.43277974 Ry

     iteration # 31     ecut=    29.40 Ry     beta= 0.05
     Davidson diagonalization with overlap
     c_bands:  2 eigenvalues not converged
     ethr =  1.09E-04,  avg # of iterations =  4.6

     negative rho (up, down):  8.748E-03 0.000E+00
 
     Adding external electric field

     Computed dipole along edir(3) : 
        Dipole                1.4020 Ry au,          3.5635 Debye
        Dipole field          0.0026 Ry au, 
 
        Potential amp.       -0.2453 Ry
        Total length         46.3494 bohr
 

     total cpu time spent up to now is      488.7 secs

     total energy              =   -2919.00465672 Ry
     estimated scf accuracy    <       0.54623311 Ry

     iteration # 32     ecut=    29.40 Ry     beta= 0.05
     Davidson diagonalization with overlap
     c_bands:  1 eigenvalues not converged
     c_bands:  2 eigenvalues not converged
     c_bands:  2 eigenvalues not converged
     c_bands:  2 eigenvalues not converged
     ethr =  1.09E-04,  avg # of iterations = 16.7

     negative rho (up, down):  8.629E-03 0.000E+00
 
     Adding external electric field

     Computed dipole along edir(3) : 
        Dipole                1.3687 Ry au,          3.4789 Debye
        Dipole field          0.0026 Ry au, 
 
        Potential amp.       -0.2394 Ry
        Total length         46.3494 bohr
 

     total cpu time spent up to now is      507.3 secs

     total energy              =   -2919.05617924 Ry
     estimated scf accuracy    <       0.26736469 Ry

     iteration # 33     ecut=    29.40 Ry     beta= 0.05
     Davidson diagonalization with overlap
     ethr =  6.86E-05,  avg # of iterations =  5.7

     negative rho (up, down):  8.813E-03 0.000E+00
 
     Adding external electric field

     Computed dipole along edir(3) : 
        Dipole                1.2874 Ry au,          3.2722 Debye
        Dipole field          0.0024 Ry au, 
 
        Potential amp.       -0.2252 Ry
        Total length         46.3494 bohr
 

     total cpu time spent up to now is      518.8 secs

     total energy              =   -2919.03905323 Ry
     estimated scf accuracy    <       0.26256791 Ry

     iteration # 34     ecut=    29.40 Ry     beta= 0.05
     Davidson diagonalization with overlap
     ethr =  6.73E-05,  avg # of iterations =  5.9

     negative rho (up, down):  8.579E-03 0.000E+00
 
     Adding external electric field

     Computed dipole along edir(3) : 
        Dipole                1.2099 Ry au,          3.0752 Debye
        Dipole field          0.0023 Ry au, 
 
        Potential amp.       -0.2117 Ry
        Total length         46.3494 bohr
 

     total cpu time spent up to now is      530.4 secs

     total energy              =   -2919.04013831 Ry
     estimated scf accuracy    <       0.12172613 Ry

     iteration # 35     ecut=    29.40 Ry     beta= 0.05
     Davidson diagonalization with overlap
     c_bands:  3 eigenvalues not converged
     ethr =  3.12E-05,  avg # of iterations = 11.4

     negative rho (up, down):  9.703E-03 0.000E+00
 
     Adding external electric field

     Computed dipole along edir(3) : 
        Dipole                1.2706 Ry au,          3.2295 Debye
        Dipole field          0.0024 Ry au, 
 
        Potential amp.       -0.2223 Ry
        Total length         46.3494 bohr
 

     total cpu time spent up to now is      544.2 secs

     total energy              =   -2919.04135929 Ry
     estimated scf accuracy    <       0.08332819 Ry

     iteration # 36     ecut=    29.40 Ry     beta= 0.05
     Davidson diagonalization with overlap
     c_bands:  1 eigenvalues not converged
     c_bands:  1 eigenvalues not converged
     ethr =  2.14E-05,  avg # of iterations = 11.5

     negative rho (up, down):  1.037E-02 0.000E+00
 
     Adding external electric field

     Computed dipole along edir(3) : 
        Dipole                1.2362 Ry au,          3.1422 Debye
        Dipole field          0.0023 Ry au, 
 
        Potential amp.       -0.2163 Ry
        Total length         46.3494 bohr
 

     total cpu time spent up to now is      557.3 secs

     total energy              =   -2919.03778289 Ry
     estimated scf accuracy    <       0.04471144 Ry

     iteration # 37     ecut=    29.40 Ry     beta= 0.05
     Davidson diagonalization with overlap
     c_bands:  4 eigenvalues not converged
     c_bands:  1 eigenvalues not converged
     c_bands:  2 eigenvalues not converged
     c_bands:  1 eigenvalues not converged
     c_bands:  1 eigenvalues not converged
     c_bands:  1 eigenvalues not converged
     c_bands:  1 eigenvalues not converged
     c_bands:  1 eigenvalues not converged
     ethr =  1.15E-05,  avg # of iterations = 18.7

     negative rho (up, down):  1.105E-02 0.000E+00
 
     Adding external electric field

     Computed dipole along edir(3) : 
        Dipole                1.2712 Ry au,          3.2311 Debye
        Dipole field          0.0024 Ry au, 
 
        Potential amp.       -0.2224 Ry
        Total length         46.3494 bohr
 

     total cpu time spent up to now is      575.3 secs

     total energy              =   -2919.04128201 Ry
     estimated scf accuracy    <       0.01315857 Ry

     iteration # 38     ecut=    29.40 Ry     beta= 0.05
     Davidson diagonalization with overlap
     c_bands:  1 eigenvalues not converged
     c_bands:  1 eigenvalues not converged
     c_bands:  1 eigenvalues not converged
     c_bands:  2 eigenvalues not converged
     ethr =  3.37E-06,  avg # of iterations = 14.2

     negative rho (up, down):  1.203E-02 0.000E+00
 
     Adding external electric field

     Computed dipole along edir(3) : 
        Dipole                1.2728 Ry au,          3.2351 Debye
        Dipole field          0.0024 Ry au, 
 
        Potential amp.       -0.2227 Ry
        Total length         46.3494 bohr
 

     total cpu time spent up to now is      589.8 secs

     total energy              =   -2919.04081091 Ry
     estimated scf accuracy    <       0.01208458 Ry

     iteration # 39     ecut=    29.40 Ry     beta= 0.05
     Davidson diagonalization with overlap
     c_bands:  1 eigenvalues not converged
     ethr =  3.10E-06,  avg # of iterations = 10.7

     negative rho (up, down):  1.233E-02 0.000E+00
 
     Adding external electric field

     Computed dipole along edir(3) : 
        Dipole                1.2923 Ry au,          3.2846 Debye
        Dipole field          0.0024 Ry au, 
 
        Potential amp.       -0.2261 Ry
        Total length         46.3494 bohr
 

     total cpu time spent up to now is      603.5 secs

     total energy              =   -2919.04138891 Ry
     estimated scf accuracy    <       0.00870927 Ry

     iteration # 40     ecut=    29.40 Ry     beta= 0.05
     Davidson diagonalization with overlap
     ethr =  2.23E-06,  avg # of iterations =  5.0

     negative rho (up, down):  1.617E-02 0.000E+00
 
     Adding external electric field

     Computed dipole along edir(3) : 
        Dipole                1.3707 Ry au,          3.4839 Debye
        Dipole field          0.0026 Ry au, 
 
        Potential amp.       -0.2398 Ry
        Total length         46.3494 bohr
 

     total cpu time spent up to now is      615.6 secs

     total energy              =   -2919.04195191 Ry
     estimated scf accuracy    <       0.00524490 Ry

     iteration # 41     ecut=    29.40 Ry     beta= 0.05
     Davidson diagonalization with overlap
     c_bands:  2 eigenvalues not converged
     c_bands:  1 eigenvalues not converged
     c_bands:  1 eigenvalues not converged
     c_bands:  1 eigenvalues not converged
     c_bands:  1 eigenvalues not converged
     ethr =  1.34E-06,  avg # of iterations = 17.1

     negative rho (up, down):  1.743E-02 0.000E+00
 
     Adding external electric field

     Computed dipole along edir(3) : 
        Dipole                1.3869 Ry au,          3.5252 Debye
        Dipole field          0.0026 Ry au, 
 
        Potential amp.       -0.2426 Ry
        Total length         46.3494 bohr
 

     total cpu time spent up to now is      633.1 secs

     total energy              =   -2919.04220628 Ry
     estimated scf accuracy    <       0.00440112 Ry

     iteration # 42     ecut=    29.40 Ry     beta= 0.05
     Davidson diagonalization with overlap
     c_bands:  2 eigenvalues not converged
     c_bands:  2 eigenvalues not converged
     ethr =  1.13E-06,  avg # of iterations = 11.2

     negative rho (up, down):  1.752E-02 0.000E+00
 
     Adding external electric field

     Computed dipole along edir(3) : 
        Dipole                1.3905 Ry au,          3.5343 Debye
        Dipole field          0.0026 Ry au, 
 
        Potential amp.       -0.2432 Ry
        Total length         46.3494 bohr
 

     total cpu time spent up to now is      646.8 secs

     total energy              =   -2919.04240704 Ry
     estimated scf accuracy    <       0.00134843 Ry

     iteration # 43     ecut=    29.40 Ry     beta= 0.05
     Davidson diagonalization with overlap
     c_bands:  1 eigenvalues not converged
     c_bands:  1 eigenvalues not converged
     ethr =  3.46E-07,  avg # of iterations = 13.1

     negative rho (up, down):  1.792E-02 0.000E+00
 
     Adding external electric field

     Computed dipole along edir(3) : 
        Dipole                1.3872 Ry au,          3.5259 Debye
        Dipole field          0.0026 Ry au, 
 
        Potential amp.       -0.2427 Ry
        Total length         46.3494 bohr
 

     total cpu time spent up to now is      662.0 secs

     total energy              =   -2919.04251809 Ry
     estimated scf accuracy    <       0.00075778 Ry

     iteration # 44     ecut=    29.40 Ry     beta= 0.05
     Davidson diagonalization with overlap
     c_bands:  2 eigenvalues not converged
     ethr =  1.94E-07,  avg # of iterations =  9.4

     negative rho (up, down):  1.824E-02 0.000E+00
 
     Adding external electric field

     Computed dipole along edir(3) : 
        Dipole                1.3857 Ry au,          3.5221 Debye
        Dipole field          0.0026 Ry au, 
 
        Potential amp.       -0.2424 Ry
        Total length         46.3494 bohr
 

     total cpu time spent up to now is      675.1 secs

     total energy              =   -2919.04256246 Ry
     estimated scf accuracy    <       0.00035419 Ry

     iteration # 45     ecut=    29.40 Ry     beta= 0.05
     Davidson diagonalization with overlap
     c_bands:  1 eigenvalues not converged
     c_bands:  2 eigenvalues not converged
     ethr =  9.08E-08,  avg # of iterations = 15.1

     negative rho (up, down):  1.854E-02 0.000E+00
 
     Adding external electric field

     Computed dipole along edir(3) : 
        Dipole                1.3907 Ry au,          3.5349 Debye
        Dipole field          0.0026 Ry au, 
 
        Potential amp.       -0.2433 Ry
        Total length         46.3494 bohr
 

     total cpu time spent up to now is      694.4 secs

     total energy              =   -2919.04263045 Ry
     estimated scf accuracy    <       0.00020098 Ry

     iteration # 46     ecut=    29.40 Ry     beta= 0.05
     Davidson diagonalization with overlap
     c_bands:  1 eigenvalues not converged
     ethr =  5.15E-08,  avg # of iterations = 11.0

     negative rho (up, down):  1.858E-02 0.000E+00
 
     Adding external electric field

     Computed dipole along edir(3) : 
        Dipole                1.3913 Ry au,          3.5363 Debye
        Dipole field          0.0026 Ry au, 
 
        Potential amp.       -0.2434 Ry
        Total length         46.3494 bohr
 

     total cpu time spent up to now is      709.9 secs

     total energy              =   -2919.04267117 Ry
     estimated scf accuracy    <       0.00011115 Ry

     iteration # 47     ecut=    29.40 Ry     beta= 0.05
     Davidson diagonalization with overlap
     ethr =  2.85E-08,  avg # of iterations =  7.1

     negative rho (up, down):  1.834E-02 0.000E+00
 
     Adding external electric field

     Computed dipole along edir(3) : 
        Dipole                1.3854 Ry au,          3.5214 Debye
        Dipole field          0.0026 Ry au, 
 
        Potential amp.       -0.2424 Ry
        Total length         46.3494 bohr
 

     total cpu time spent up to now is      722.1 secs

     total energy              =   -2919.04268113 Ry
     estimated scf accuracy    <       0.00008300 Ry

     iteration # 48     ecut=    29.40 Ry     beta= 0.05
     Davidson diagonalization with overlap
     c_bands:  1 eigenvalues not converged
     ethr =  2.13E-08,  avg # of iterations = 11.7

     negative rho (up, down):  1.857E-02 0.000E+00
 
     Adding external electric field

     Computed dipole along edir(3) : 
        Dipole                1.3892 Ry au,          3.5310 Debye
        Dipole field          0.0026 Ry au, 
 
        Potential amp.       -0.2430 Ry
        Total length         46.3494 bohr
 

     total cpu time spent up to now is      743.1 secs

     total energy              =   -2919.04266646 Ry
     estimated scf accuracy    <       0.00025056 Ry

     iteration # 49     ecut=    29.40 Ry     beta= 0.05
     Davidson diagonalization with overlap
     c_bands:  1 eigenvalues not converged
     ethr =  2.13E-08,  avg # of iterations = 13.8

     negative rho (up, down):  1.836E-02 0.000E+00
 
     Adding external electric field

     Computed dipole along edir(3) : 
        Dipole                1.3862 Ry au,          3.5233 Debye
        Dipole field          0.0026 Ry au, 
 
        Potential amp.       -0.2425 Ry
        Total length         46.3494 bohr
 

     total cpu time spent up to now is      765.9 secs

     total energy              =   -2919.04272662 Ry
     estimated scf accuracy    <       0.00006831 Ry

     iteration # 50     ecut=    29.40 Ry     beta= 0.05
     Davidson diagonalization with overlap
     ethr =  1.75E-08,  avg # of iterations =  6.7

     negative rho (up, down):  1.825E-02 0.000E+00
 
     Adding external electric field

     Computed dipole along edir(3) : 
        Dipole                1.3844 Ry au,          3.5189 Debye
        Dipole field          0.0026 Ry au, 
 
        Potential amp.       -0.2422 Ry
        Total length         46.3494 bohr
 

     total cpu time spent up to now is      778.1 secs

     total energy              =   -2919.04273967 Ry
     estimated scf accuracy    <       0.00002434 Ry

     iteration # 51     ecut=    29.40 Ry     beta= 0.05
     Davidson diagonalization with overlap
     c_bands:  1 eigenvalues not converged
     ethr =  6.24E-09,  avg # of iterations = 14.7

     negative rho (up, down):  1.835E-02 0.000E+00
 
     Adding external electric field

     Computed dipole along edir(3) : 
        Dipole                1.3854 Ry au,          3.5214 Debye
        Dipole field          0.0026 Ry au, 
 
        Potential amp.       -0.2424 Ry
        Total length         46.3494 bohr
 

     total cpu time spent up to now is      801.7 secs

     total energy              =   -2919.04276585 Ry
     estimated scf accuracy    <       0.00008419 Ry

     iteration # 52     ecut=    29.40 Ry     beta= 0.05
     Davidson diagonalization with overlap
     ethr =  6.24E-09,  avg # of iterations =  3.9

     negative rho (up, down):  1.829E-02 0.000E+00
 
     Adding external electric field

     Computed dipole along edir(3) : 
        Dipole                1.3853 Ry au,          3.5211 Debye
        Dipole field          0.0026 Ry au, 
 
        Potential amp.       -0.2423 Ry
        Total length         46.3494 bohr
 

     total cpu time spent up to now is      812.9 secs

     total energy              =   -2919.04277576 Ry
     estimated scf accuracy    <       0.00005889 Ry

     iteration # 53     ecut=    29.40 Ry     beta= 0.05
     Davidson diagonalization with overlap
     ethr =  6.24E-09,  avg # of iterations =  5.6

     negative rho (up, down):  1.833E-02 0.000E+00
 
     Adding external electric field

     Computed dipole along edir(3) : 
        Dipole                1.3854 Ry au,          3.5214 Debye
        Dipole field          0.0026 Ry au, 
 
        Potential amp.       -0.2424 Ry
        Total length         46.3494 bohr
 

     total cpu time spent up to now is      824.4 secs

     total energy              =   -2919.04277902 Ry
     estimated scf accuracy    <       0.00004892 Ry

     iteration # 54     ecut=    29.40 Ry     beta= 0.05
     Davidson diagonalization with overlap
     ethr =  6.24E-09,  avg # of iterations =  9.6

     negative rho (up, down):  1.821E-02 0.000E+00
 
     Adding external electric field

     Computed dipole along edir(3) : 
        Dipole                1.3840 Ry au,          3.5177 Debye
        Dipole field          0.0026 Ry au, 
 
        Potential amp.       -0.2421 Ry
        Total length         46.3494 bohr
 

     total cpu time spent up to now is      839.4 secs

     total energy              =   -2919.04279077 Ry
     estimated scf accuracy    <       0.00001422 Ry

     iteration # 55     ecut=    29.40 Ry     beta= 0.05
     Davidson diagonalization with overlap
     ethr =  3.65E-09,  avg # of iterations =  2.3

     negative rho (up, down):  1.808E-02 0.000E+00
 
     Adding external electric field

     Computed dipole along edir(3) : 
        Dipole                1.3818 Ry au,          3.5123 Debye
        Dipole field          0.0026 Ry au, 
 
        Potential amp.       -0.2417 Ry
        Total length         46.3494 bohr
 

     total cpu time spent up to now is      850.2 secs

     total energy              =   -2919.04279610 Ry
     estimated scf accuracy    <       0.00001044 Ry

     iteration # 56     ecut=    29.40 Ry     beta= 0.05
     Davidson diagonalization with overlap
     c_bands:  1 eigenvalues not converged
     ethr =  2.68E-09,  avg # of iterations = 14.3

     negative rho (up, down):  1.809E-02 0.000E+00
 
     Adding external electric field

     Computed dipole along edir(3) : 
        Dipole                1.3820 Ry au,          3.5128 Debye
        Dipole field          0.0026 Ry au, 
 
        Potential amp.       -0.2418 Ry
        Total length         46.3494 bohr
 

     total cpu time spent up to now is      870.8 secs

     total energy              =   -2919.04280742 Ry
     estimated scf accuracy    <       0.00000492 Ry

     iteration # 57     ecut=    29.40 Ry     beta= 0.05
     Davidson diagonalization with overlap
     ethr =  1.26E-09,  avg # of iterations =  5.2

     negative rho (up, down):  1.809E-02 0.000E+00
 
     Adding external electric field

     Computed dipole along edir(3) : 
        Dipole                1.3820 Ry au,          3.5127 Debye
        Dipole field          0.0026 Ry au, 
 
        Potential amp.       -0.2418 Ry
        Total length         46.3494 bohr
 

     total cpu time spent up to now is      882.3 secs

     total energy              =   -2919.04281361 Ry
     estimated scf accuracy    <       0.00000322 Ry

     iteration # 58     ecut=    29.40 Ry     beta= 0.05
     Davidson diagonalization with overlap
     ethr =  8.25E-10,  avg # of iterations = 10.0

     negative rho (up, down):  1.805E-02 0.000E+00
 
     Adding external electric field

     Computed dipole along edir(3) : 
        Dipole                1.3814 Ry au,          3.5113 Debye
        Dipole field          0.0026 Ry au, 
 
        Potential amp.       -0.2417 Ry
        Total length         46.3494 bohr
 

     total cpu time spent up to now is      897.4 secs

     total energy              =   -2919.04281998 Ry
     estimated scf accuracy    <       0.00000103 Ry

     iteration # 59     ecut=    29.40 Ry     beta= 0.05
     Davidson diagonalization with overlap
     ethr =  2.63E-10,  avg # of iterations = 11.6

     negative rho (up, down):  1.804E-02 0.000E+00
 
     Adding external electric field

     Computed dipole along edir(3) : 
        Dipole                1.3812 Ry au,          3.5106 Debye
        Dipole field          0.0026 Ry au, 
 
        Potential amp.       -0.2416 Ry
        Total length         46.3494 bohr
 

     total cpu time spent up to now is      914.7 secs

     total energy              =   -2919.04282561 Ry
     estimated scf accuracy    <       0.00000145 Ry

     iteration # 60     ecut=    29.40 Ry     beta= 0.05
     Davidson diagonalization with overlap
     ethr =  2.63E-10,  avg # of iterations =  6.0

     negative rho (up, down):  1.801E-02 0.000E+00
 
     Adding external electric field

     Computed dipole along edir(3) : 
        Dipole                1.3805 Ry au,          3.5090 Debye
        Dipole field          0.0026 Ry au, 
 
        Potential amp.       -0.2415 Ry
        Total length         46.3494 bohr
 

     total cpu time spent up to now is      926.8 secs

     total energy              =   -2919.04283052 Ry
     estimated scf accuracy    <       0.00000089 Ry

     iteration # 61     ecut=    29.40 Ry     beta= 0.05
     Davidson diagonalization with overlap
     ethr =  2.29E-10,  avg # of iterations =  9.3

     negative rho (up, down):  1.801E-02 0.000E+00
 
     Adding external electric field

     Computed dipole along edir(3) : 
        Dipole                1.3806 Ry au,          3.5092 Debye
        Dipole field          0.0026 Ry au, 
 
        Potential amp.       -0.2415 Ry
        Total length         46.3494 bohr
 

     total cpu time spent up to now is      943.8 secs

     total energy              =   -2919.04283515 Ry
     estimated scf accuracy    <       0.00000043 Ry

     iteration # 62     ecut=    29.40 Ry     beta= 0.05
     Davidson diagonalization with overlap
     ethr =  1.09E-10,  avg # of iterations =  4.0

     negative rho (up, down):  1.801E-02 0.000E+00
 
     Adding external electric field

     Computed dipole along edir(3) : 
        Dipole                1.3805 Ry au,          3.5088 Debye
        Dipole field          0.0026 Ry au, 
 
        Potential amp.       -0.2415 Ry
        Total length         46.3494 bohr
 

     total cpu time spent up to now is      955.0 secs

     total energy              =   -2919.04283921 Ry
     estimated scf accuracy    <       0.00000028 Ry

     iteration # 63     ecut=    29.40 Ry     beta= 0.05
     Davidson diagonalization with overlap
     c_bands:  1 eigenvalues not converged
     ethr =  7.09E-11,  avg # of iterations =  9.5

     negative rho (up, down):  1.799E-02 0.000E+00
 
     Adding external electric field

     Computed dipole along edir(3) : 
        Dipole                1.3800 Ry au,          3.5075 Debye
        Dipole field          0.0026 Ry au, 
 
        Potential amp.       -0.2414 Ry
        Total length         46.3494 bohr
 

     total cpu time spent up to now is      972.4 secs

     total energy              =   -2919.04284304 Ry
     estimated scf accuracy    <       0.00000038 Ry

     iteration # 64     ecut=    29.40 Ry     beta= 0.05
     Davidson diagonalization with overlap
     ethr =  7.09E-11,  avg # of iterations =  2.0

     negative rho (up, down):  1.798E-02 0.000E+00
 
     Adding external electric field

     Computed dipole along edir(3) : 
        Dipole                1.3797 Ry au,          3.5068 Debye
        Dipole field          0.0026 Ry au, 
 
        Potential amp.       -0.2414 Ry
        Total length         46.3494 bohr
 

     total cpu time spent up to now is      983.3 secs

     total energy              =   -2919.04284630 Ry
     estimated scf accuracy    <       0.00000042 Ry

     iteration # 65     ecut=    29.40 Ry     beta= 0.05
     Davidson diagonalization with overlap
     ethr =  7.09E-11,  avg # of iterations =  6.5

     negative rho (up, down):  1.797E-02 0.000E+00
 
     Adding external electric field

     Computed dipole along edir(3) : 
        Dipole                1.3795 Ry au,          3.5064 Debye
        Dipole field          0.0026 Ry au, 
 
        Potential amp.       -0.2413 Ry
        Total length         46.3494 bohr
 

     total cpu time spent up to now is      997.2 secs

     total energy              =   -2919.04284932 Ry
     estimated scf accuracy    <       0.00000009 Ry

     iteration # 66     ecut=    29.40 Ry     beta= 0.05
     Davidson diagonalization with overlap
     ethr =  2.23E-11,  avg # of iterations = 12.4

     negative rho (up, down):  1.798E-02 0.000E+00
 
     Adding external electric field

     Computed dipole along edir(3) : 
        Dipole                1.3796 Ry au,          3.5066 Debye
        Dipole field          0.0026 Ry au, 
 
        Potential amp.       -0.2413 Ry
        Total length         46.3494 bohr
 

     total cpu time spent up to now is     1017.3 secs

     total energy              =   -2919.04285205 Ry
     estimated scf accuracy    <       0.00000009 Ry

     iteration # 67     ecut=    29.40 Ry     beta= 0.05
     Davidson diagonalization with overlap
     ethr =  2.23E-11,  avg # of iterations =  2.8

     negative rho (up, down):  1.802E-02 0.000E+00
 
     Adding external electric field

     Computed dipole along edir(3) : 
        Dipole                1.3792 Ry au,          3.5055 Debye
        Dipole field          0.0026 Ry au, 
 
        Potential amp.       -0.2413 Ry
        Total length         46.3494 bohr
 

     total cpu time spent up to now is     1028.2 secs

     End of self-consistent calculation

          k = 0.0000 0.0000 0.0000 ( 18029 PWs)   bands (ev):

   -55.5103 -55.4851 -55.4739 -55.4510 -55.4241 -55.3791 -55.3374 -55.3288
   -55.3101 -55.3032 -55.2738 -55.2717 -55.0541 -54.9468 -54.4882 -54.4542
   -32.0772 -31.9727 -31.8707 -31.8485 -31.8384 -31.8056 -31.7979 -31.7756
   -31.7651 -31.7290 -31.7247 -31.7198 -31.6867 -31.6616 -31.6519 -31.6493
   -31.6380 -31.6132 -31.6027 -31.5943 -31.5809 -31.5679 -31.5425 -31.5385
   -31.5372 -31.5173 -31.5148 -31.5104 -31.5090 -31.4999 -31.4857 -31.4704
   -31.4591 -31.4591 -31.4359 -31.4249 -31.4093 -31.3572 -31.2906 -31.1916
   -31.1812 -31.0929 -30.8965 -30.8054 -30.7831 -30.7132 -30.6265 -30.5154
   -17.0179 -16.3094 -16.0254 -15.8608 -15.7181 -15.6872 -15.5767 -15.4016
   -15.3231 -15.2484 -15.2292 -15.1495 -15.1328 -15.1178 -15.0982 -15.0396
   -15.0317 -14.9865 -14.9816 -14.9462 -14.9275 -14.8957 -14.8782 -14.8708
   -14.8153 -14.7760 -14.7125 -14.6464 -14.5912 -14.1193 -12.9910 -12.8741
    -9.4565  -7.2005  -4.6086  -3.6668  -3.4972  -3.4164  -3.4072  -3.3855
    -3.1969  -3.1204  -2.8446  -2.7513  -2.7162  -2.7102  -2.6835  -2.6226
    -2.5514  -2.4521  -2.3798  -2.3511  -2.3310  -2.3238  -2.3124  -2.2973
    -2.2874  -2.2563  -2.1819  -2.1250  -2.0525  -1.9710  -1.8960  -1.8801
    -1.8199  -1.7921  -1.7770  -1.7707  -1.7636  -1.7380  -1.7330  -1.6418
    -1.5511  -1.5126  -1.4125  -1.3901  -1.2948  -1.1603  -1.1320  -1.0278
    -1.0208  -0.9651  -0.9391  -0.8967  -0.8473  -0.8387  -0.8204  -0.6776
    -0.6104  -0.5494  -0.4909  -0.4641  -0.4456  -0.3606  -0.2918  -0.2849
    -0.2675  -0.2450  -0.0700  -0.0388  -0.0182   0.0040   0.0187   0.1080
     0.1397   0.2148   0.2947   0.3089   0.3140   0.3919   0.4154   0.4580
     0.4605   0.4877   0.4931   0.6642   0.6748   0.7011   0.7323   0.8126
     0.8962   1.1012   1.1238   1.1658   1.4494   1.5161   1.5340   1.7217
     2.1074   2.1544   3.5801   3.6850   3.7173   3.7331   3.7611   3.8312
     3.8970   4.0758   4.0829   4.1139   4.1197

          k = 0.0000 0.0419 0.0000 ( 17933 PWs)   bands (ev):

   -55.5050 -55.4801 -55.4790 -55.4559 -55.4225 -55.3752 -55.3412 -55.3303
   -55.3049 -55.2984 -55.2793 -55.2759 -55.0527 -54.9481 -54.4832 -54.4591
   -32.0198 -31.9187 -31.8283 -31.8163 -31.7971 -31.7709 -31.7697 -31.7693
   -31.7466 -31.7415 -31.7164 -31.7124 -31.7014 -31.6893 -31.6615 -31.6510
   -31.6403 -31.6241 -31.5992 -31.5953 -31.5637 -31.5616 -31.5565 -31.5422
   -31.5341 -31.5283 -31.5266 -31.5216 -31.5209 -31.5139 -31.5137 -31.4928
   -31.4802 -31.4674 -31.4651 -31.4582 -31.4433 -31.3566 -31.2865 -31.1991
   -31.1812 -31.1326 -30.8423 -30.8019 -30.7861 -30.7006 -30.6391 -30.5726
   -17.0157 -16.1757 -15.9065 -15.7551 -15.6326 -15.5797 -15.5420 -15.4333
   -15.3389 -15.3074 -15.2615 -15.2065 -15.1689 -15.0888 -15.0846 -15.0494
   -15.0401 -15.0045 -14.9840 -14.9813 -14.9295 -14.9201 -14.8707 -14.8606
   -14.8561 -14.7804 -14.7686 -14.7032 -14.6495 -14.2147 -12.9949 -12.9135
    -9.4574  -7.1998  -4.6065  -3.4754  -3.3316  -3.2582  -3.2326  -3.2254
    -3.0440  -2.8908  -2.8169  -2.7197  -2.6656  -2.6203  -2.6013  -2.5657
    -2.5313  -2.4975  -2.4869  -2.4675  -2.4374  -2.4238  -2.3627  -2.3191
    -2.2850  -2.2680  -2.2330  -2.2230  -2.2002  -2.0614  -2.0375  -2.0342
    -1.9965  -1.9518  -1.9290  -1.8087  -1.7796  -1.7137  -1.6858  -1.6190
    -1.4789  -1.4058  -1.3645  -1.2466  -1.2378  -1.1819  -1.1605  -0.9787
    -0.9220  -0.8676  -0.8313  -0.7900  -0.6789  -0.6683  -0.6529  -0.5875
    -0.5709  -0.4703  -0.4499  -0.4417  -0.4308  -0.3788  -0.3532  -0.3170
    -0.2895  -0.2188  -0.1639  -0.1384  -0.0581  -0.0360  -0.0151   0.0129
     0.0863   0.1436   0.1960   0.2385   0.2655   0.2847   0.3153   0.3298
     0.3970   0.4710   0.4990   0.5542   0.5751   0.6700   0.7519   0.7696
     0.8046   0.8293   0.9568   1.0490   1.1470   1.3891   1.7201   1.8001
     2.0620   2.0654   3.7004   3.8096   3.8203   3.8784   3.9095   3.9796
     4.0057   4.0331   4.0659   4.1276   4.1394

          k = 0.0000-0.0839 0.0000 ( 17884 PWs)   bands (ev):

   -55.4945 -55.4895 -55.4683 -55.4677 -55.4208 -55.3701 -55.3462 -55.3319
   -55.2930 -55.2917 -55.2875 -55.2861 -55.0512 -54.9495 -54.4712 -54.4710
   -31.8821 -31.8781 -31.8130 -31.7866 -31.7861 -31.7757 -31.7612 -31.7605
   -31.7157 -31.7120 -31.6934 -31.6887 -31.6837 -31.6757 -31.6704 -31.6303
   -31.6198 -31.6184 -31.6150 -31.6091 -31.6048 -31.5906 -31.5900 -31.5703
   -31.5648 -31.5637 -31.5605 -31.5530 -31.5388 -31.5309 -31.5247 -31.5223
   -31.4784 -31.4681 -31.4644 -31.4618 -31.4607 -31.3570 -31.2858 -31.2105
   -31.1819 -31.1764 -30.7939 -30.7937 -30.7094 -30.7091 -30.6699 -30.6698
   -17.0136 -15.8427 -15.8361 -15.6308 -15.6298 -15.5027 -15.4886 -15.4337
   -15.3891 -15.3642 -15.3209 -15.2727 -15.2598 -15.1599 -15.0925 -15.0897
   -15.0246 -14.9800 -14.9636 -14.9236 -14.9080 -14.9023 -14.8953 -14.8760
   -14.8434 -14.8399 -14.7934 -14.7858 -14.6889 -14.3524 -12.9762 -12.9761
    -9.4582  -7.1991  -4.6041  -3.0576  -2.9913  -2.9501  -2.9417  -2.9215
    -2.9123  -2.8671  -2.8339  -2.7921  -2.7916  -2.7527  -2.6634  -2.6529
    -2.6334  -2.6156  -2.5689  -2.5003  -2.4796  -2.4305  -2.4049  -2.3655
    -2.3577  -2.3100  -2.2965  -2.2767  -2.2354  -2.1605  -2.1235  -2.1029
    -2.0260  -1.9777  -1.9187  -1.8797  -1.6473  -1.5791  -1.5273  -1.4600
    -1.4030  -1.3938  -1.2458  -1.2406  -1.2281  -1.1462  -0.9811  -0.9671
    -0.9512  -0.9378  -0.8948  -0.8817  -0.8598  -0.8032  -0.7428  -0.7044
    -0.6871  -0.5596  -0.4421  -0.4148  -0.3181  -0.2539  -0.2371  -0.1906
    -0.1649  -0.1273  -0.1244  -0.1043  -0.0410  -0.0039   0.0236   0.0294
     0.0429   0.0905   0.1507   0.1584   0.1703   0.1939   0.2731   0.2770
     0.2916   0.3101   0.3390   0.3766   0.4132   0.5842   0.6854   0.7150
     0.7180   0.7283   0.9442   0.9866   1.0943   1.1392   1.8629   1.8634
     1.9981   1.9985   3.7408   3.8646   3.8898   3.9150   3.9398   4.0615
     4.0689   4.1428   4.1724   4.2110   4.2156

          k = 0.0380 0.0000 0.0000 ( 17913 PWs)   bands (ev):

   -55.5101 -55.4850 -55.4738 -55.4509 -55.4240 -55.3791 -55.3373 -55.3287
   -55.3091 -55.3040 -55.2736 -55.2717 -55.0540 -54.9467 -54.4881 -54.4541
   -32.0773 -31.9736 -31.8764 -31.8501 -31.8382 -31.8058 -31.8023 -31.7754
   -31.7650 -31.7289 -31.7213 -31.7063 -31.6866 -31.6612 -31.6452 -31.6445
   -31.6349 -31.6026 -31.5940 -31.5930 -31.5848 -31.5817 -31.5423 -31.5383
   -31.5381 -31.5146 -31.5131 -31.5102 -31.5019 -31.4999 -31.4913 -31.4855
   -31.4597 -31.4588 -31.4357 -31.4229 -31.4107 -31.3600 -31.2909 -31.1914
   -31.1818 -31.0928 -30.8960 -30.8088 -30.7811 -30.7130 -30.6264 -30.5152
   -17.0169 -16.2379 -15.9432 -15.7937 -15.7204 -15.5912 -15.5744 -15.4492
   -15.3235 -15.2557 -15.2529 -15.2455 -15.2297 -15.1900 -15.1672 -15.1416
   -15.0781 -15.0203 -14.9952 -14.9009 -14.8835 -14.8251 -14.8190 -14.7919
   -14.7590 -14.7445 -14.7258 -14.7079 -14.6806 -14.1172 -12.9877 -12.8738
    -9.4582  -7.2026  -4.5901  -3.5824  -3.3198  -3.2528  -3.1691  -3.1353
    -3.1018  -3.0956  -3.0108  -2.8390  -2.7972  -2.7142  -2.6924  -2.6498
    -2.5861  -2.5305  -2.4958  -2.4432  -2.2986  -2.2863  -2.2580  -2.2539
    -2.1514  -2.1364  -2.1114  -2.0634  -2.0300  -1.8890  -1.8848  -1.8523
    -1.7809  -1.7659  -1.7496  -1.7213  -1.6864  -1.5910  -1.5621  -1.5445
    -1.5221  -1.5008  -1.4389  -1.4112  -1.3127  -1.2073  -1.1384  -1.1268
    -1.0678  -0.9622  -0.9386  -0.9072  -0.8823  -0.8661  -0.8307  -0.8108
    -0.8033  -0.5903  -0.5414  -0.4662  -0.4409  -0.3933  -0.3610  -0.3293
    -0.2951  -0.1679  -0.1281  -0.0723  -0.0607  -0.0259   0.0511   0.0612
     0.1369   0.1839   0.1903   0.2352   0.2501   0.2764   0.3086   0.3390
     0.3621   0.3886   0.5001   0.5226   0.5923   0.6475   0.6774   0.7411
     0.8747   0.9135   1.0090   1.1667   1.3776   1.4555   1.5458   1.6908
     1.9954   2.0716   3.5922   3.6827   3.7845   3.9194   3.9441   3.9608
     3.9942   4.0390   4.0719   4.0809   4.1149

          k = 0.0380 0.0419 0.0000 ( 17878 PWs)   bands (ev):

   -55.5049 -55.4800 -55.4790 -55.4559 -55.4224 -55.3752 -55.3411 -55.3302
   -55.3040 -55.2992 -55.2789 -55.2762 -55.0526 -54.9481 -54.4831 -54.4591
   -32.0199 -31.9195 -31.8281 -31.8230 -31.7987 -31.7707 -31.7698 -31.7692
   -31.7502 -31.7426 -31.7168 -31.7025 -31.6979 -31.6893 -31.6516 -31.6511
   -31.6363 -31.6214 -31.5952 -31.5817 -31.5781 -31.5620 -31.5561 -31.5406
   -31.5338 -31.5297 -31.5242 -31.5183 -31.5151 -31.5135 -31.5132 -31.4947
   -31.4922 -31.4730 -31.4641 -31.4632 -31.4434 -31.3587 -31.2868 -31.1989
   -31.1820 -31.1326 -30.8420 -30.8046 -30.7851 -30.7004 -30.6392 -30.5725
   -17.0150 -16.1106 -15.8299 -15.6985 -15.6235 -15.5464 -15.4858 -15.4299
   -15.3805 -15.3067 -15.2715 -15.2293 -15.1703 -15.1633 -15.1591 -15.1474
   -15.0619 -15.0255 -15.0143 -14.9425 -14.9208 -14.9021 -14.8563 -14.8293
   -14.8254 -14.7797 -14.7617 -14.7513 -14.7287 -14.2125 -12.9926 -12.9138
    -9.4587  -7.2012  -4.5982  -3.4074  -3.1515  -3.0865  -3.0067  -2.9682
    -2.9366  -2.8858  -2.8490  -2.7378  -2.6651  -2.6202  -2.5868  -2.5470
    -2.5280  -2.5114  -2.4467  -2.4106  -2.3939  -2.3749  -2.3106  -2.2980
    -2.2614  -2.2440  -2.2025  -2.1818  -2.1744  -2.1116  -2.0392  -2.0132
    -1.9503  -1.8897  -1.8640  -1.7807  -1.7258  -1.6746  -1.6410  -1.5466
    -1.5071  -1.4263  -1.3306  -1.2877  -1.2589  -1.1669  -1.0600  -1.0028
    -0.9828  -0.9144  -0.8864  -0.8481  -0.8301  -0.7901  -0.7265  -0.6809
    -0.6541  -0.6095  -0.5408  -0.5079  -0.4640  -0.4226  -0.3921  -0.3611
    -0.2976  -0.2535  -0.2299  -0.1901  -0.1637  -0.1367  -0.1070  -0.0684
    -0.0450   0.0070   0.0395   0.0950   0.1641   0.1781   0.2546   0.3078
     0.3480   0.4065   0.5086   0.5749   0.6285   0.6680   0.7354   0.7781
     0.7964   0.8817   0.9166   0.9972   1.1032   1.3367   1.7309   1.8038
     1.9843   2.0468   3.6983   3.8021   3.8509   3.8850   3.9599   4.0155
     4.0266   4.0698   4.1312   4.1682   4.1870

          k = 0.0380-0.0839 0.0000 ( 17916 PWs)   bands (ev):

   -55.4945 -55.4895 -55.4683 -55.4677 -55.4209 -55.3701 -55.3462 -55.3319
   -55.2924 -55.2911 -55.2882 -55.2866 -55.0513 -54.9495 -54.4712 -54.4710
   -31.8823 -31.8783 -31.8130 -31.7874 -31.7868 -31.7758 -31.7612 -31.7606
   -31.7160 -31.7129 -31.7119 -31.7003 -31.6765 -31.6578 -31.6496 -31.6290
   -31.6231 -31.6211 -31.6187 -31.6157 -31.6070 -31.5893 -31.5887 -31.5709
   -31.5633 -31.5595 -31.5437 -31.5424 -31.5386 -31.5353 -31.5246 -31.5222
   -31.4785 -31.4740 -31.4730 -31.4680 -31.4643 -31.3594 -31.2858 -31.2103
   -31.1830 -31.1766 -30.7949 -30.7947 -30.7093 -30.7090 -30.6699 -30.6698
   -17.0132 -15.8070 -15.7850 -15.5794 -15.5742 -15.5081 -15.4442 -15.4151
   -15.3613 -15.3432 -15.3175 -15.2507 -15.2206 -15.1460 -15.1119 -15.1096
   -15.0535 -15.0344 -15.0186 -14.9818 -14.9494 -14.9334 -14.9264 -14.8889
   -14.8596 -14.8434 -14.8408 -14.8346 -14.6777 -14.3476 -12.9760 -12.9759
    -9.4598  -7.2005  -4.5971  -3.0503  -2.9759  -2.8404  -2.7701  -2.7516
    -2.7250  -2.6946  -2.6518  -2.6453  -2.6193  -2.5896  -2.5871  -2.5655
    -2.5525  -2.5342  -2.5075  -2.4367  -2.4062  -2.3886  -2.3766  -2.3619
    -2.3550  -2.2908  -2.2739  -2.2355  -2.2104  -2.1752  -2.1552  -2.0978
    -2.0603  -2.0377  -1.7447  -1.6983  -1.6674  -1.5295  -1.5048  -1.4538
    -1.4430  -1.4159  -1.3865  -1.3400  -1.2957  -1.2665  -1.2294  -1.1806
    -1.1681  -1.1388  -1.0279  -1.0012  -0.8517  -0.8217  -0.7604  -0.7352
    -0.6780  -0.6508  -0.5325  -0.4882  -0.4689  -0.4034  -0.3649  -0.3146
    -0.2968  -0.2869  -0.2761  -0.2294  -0.1998  -0.1377  -0.1199  -0.0865
    -0.0622  -0.0151   0.0143   0.0304   0.1170   0.1764   0.2626   0.2680
     0.3744   0.4082   0.4873   0.5705   0.5834   0.6225   0.6352   0.6893
     0.7809   0.7955   0.9125   0.9372   1.0864   1.1310   1.8762   1.8768
     1.9880   1.9888   3.7345   3.8319   3.8734   3.9239   3.9491   4.0404
     4.0480   4.1469   4.1970   4.2364   4.2559

          k = 0.0380-0.0419 0.0000 ( 17876 PWs)   bands (ev):

   -55.5049 -55.4800 -55.4790 -55.4559 -55.4224 -55.3752 -55.3411 -55.3302
   -55.3040 -55.2992 -55.2789 -55.2762 -55.0526 -54.9480 -54.4831 -54.4591
   -32.0199 -31.9195 -31.8282 -31.8230 -31.7986 -31.7707 -31.7698 -31.7692
   -31.7502 -31.7426 -31.7168 -31.7029 -31.6973 -31.6894 -31.6515 -31.6511
   -31.6363 -31.6215 -31.5952 -31.5817 -31.5783 -31.5624 -31.5561 -31.5406
   -31.5338 -31.5320 -31.5241 -31.5154 -31.5151 -31.5133 -31.5128 -31.4952
   -31.4919 -31.4730 -31.4640 -31.4632 -31.4434 -31.3593 -31.2866 -31.1991
   -31.1821 -31.1324 -30.8420 -30.8046 -30.7851 -30.7004 -30.6392 -30.5725
   -17.0149 -16.1106 -15.8299 -15.6983 -15.6243 -15.5461 -15.4857 -15.4305
   -15.3800 -15.3110 -15.2738 -15.2232 -15.1704 -15.1637 -15.1592 -15.1462
   -15.0630 -15.0252 -15.0128 -14.9426 -14.9205 -14.9025 -14.8553 -14.8288
   -14.8257 -14.7798 -14.7619 -14.7518 -14.7292 -14.2129 -12.9926 -12.9138
    -9.4592  -7.2018  -4.5895  -3.4074  -3.1518  -3.0868  -3.0058  -2.9672
    -2.9354  -2.8889  -2.8487  -2.7377  -2.6583  -2.6098  -2.5871  -2.5422
    -2.5308  -2.4879  -2.4621  -2.4154  -2.3965  -2.3753  -2.3353  -2.2954
    -2.2647  -2.2446  -2.2156  -2.1802  -2.1722  -2.1080  -2.0384  -2.0146
    -1.9270  -1.9007  -1.8706  -1.7827  -1.7554  -1.6750  -1.6489  -1.5460
    -1.5046  -1.4301  -1.3024  -1.2887  -1.2595  -1.1684  -1.0572  -0.9999
    -0.9736  -0.9182  -0.8854  -0.8462  -0.8345  -0.7853  -0.7468  -0.6724
    -0.6546  -0.5941  -0.5384  -0.5018  -0.4686  -0.4225  -0.3878  -0.3613
    -0.2872  -0.2527  -0.2277  -0.2067  -0.1642  -0.1443  -0.1031  -0.0748
    -0.0530   0.0068   0.0364   0.0970   0.1595   0.1780   0.2524   0.3193
     0.3558   0.4196   0.5033   0.5768   0.6195   0.6614   0.7240   0.7804
     0.7999   0.8964   0.9160   0.9939   1.1032   1.3364   1.7310   1.8039
     1.9841   2.0474   3.6951   3.7937   3.8475   3.8941   3.9575   4.0142
     4.0328   4.0897   4.1447   4.1687   4.1860

          k =-0.0760-0.0000 0.0000 ( 17886 PWs)   bands (ev):

   -55.5100 -55.4850 -55.4738 -55.4509 -55.4239 -55.3791 -55.3373 -55.3287
   -55.3074 -55.3055 -55.2735 -55.2717 -55.0540 -54.9467 -54.4881 -54.4541
   -32.0774 -31.9745 -31.8817 -31.8518 -31.8380 -31.8065 -31.8060 -31.7752
   -31.7649 -31.7290 -31.7211 -31.6868 -31.6824 -31.6611 -31.6398 -31.6393
   -31.6319 -31.6091 -31.6022 -31.5940 -31.5829 -31.5506 -31.5427 -31.5403
   -31.5387 -31.5321 -31.5147 -31.5100 -31.5097 -31.5000 -31.4953 -31.4857
   -31.4613 -31.4589 -31.4355 -31.4203 -31.4132 -31.3634 -31.2912 -31.1913
   -31.1825 -31.0928 -30.8956 -30.8121 -30.7798 -30.7129 -30.6263 -30.5153
   -17.0159 -16.1424 -15.8828 -15.7053 -15.6695 -15.5853 -15.5418 -15.4069
   -15.3442 -15.3325 -15.2986 -15.2728 -15.2649 -15.2501 -15.2303 -15.2099
   -15.1192 -15.0982 -14.9453 -14.8967 -14.8906 -14.8839 -14.8301 -14.7950
   -14.7559 -14.7386 -14.7334 -14.6534 -14.6392 -14.1154 -12.9847 -12.8735
    -9.4599  -7.2047  -4.5725  -3.5591  -3.2757  -3.1371  -3.0843  -2.9618
    -2.9474  -2.8892  -2.8473  -2.8186  -2.7775  -2.7627  -2.7561  -2.7157
    -2.5716  -2.5129  -2.4465  -2.3324  -2.2693  -2.2680  -2.1410  -2.1155
    -2.0946  -2.0748  -2.0033  -1.9992  -1.9810  -1.8572  -1.8355  -1.8162
    -1.8040  -1.7978  -1.7754  -1.7456  -1.7258  -1.7129  -1.6225  -1.5808
    -1.5244  -1.4663  -1.3931  -1.3319  -1.1844  -1.1664  -1.1282  -1.1146
    -1.0857  -1.0800  -1.0037  -0.9840  -0.9647  -0.9622  -0.8328  -0.8285
    -0.8146  -0.7464  -0.7365  -0.6880  -0.4614  -0.4270  -0.4057  -0.3406
    -0.2987  -0.2236  -0.2074  -0.1587  -0.0976  -0.0811  -0.0453  -0.0139
     0.0287   0.1008   0.1547   0.1810   0.1899   0.2099   0.2475   0.2770
     0.3041   0.3845   0.4781   0.5056   0.5876   0.6475   0.6767   0.6995
     0.8675   0.9146   1.0408   1.1022   1.1816   1.4610   1.5671   1.6661
     1.8656   2.0163   3.5896   3.6512   3.7245   3.8164   3.8859   3.9658
     4.0112   4.0561   4.0804   4.1206   4.1701

          k =-0.0760 0.0419 0.0000 ( 17914 PWs)   bands (ev):

   -55.5049 -55.4800 -55.4790 -55.4559 -55.4224 -55.3752 -55.3412 -55.3303
   -55.3025 -55.3007 -55.2785 -55.2767 -55.0526 -54.9481 -54.4831 -54.4591
   -32.0203 -31.9206 -31.8295 -31.8282 -31.8004 -31.7707 -31.7701 -31.7692
   -31.7546 -31.7429 -31.7171 -31.7018 -31.6897 -31.6813 -31.6514 -31.6422
   -31.6326 -31.6192 -31.5977 -31.5943 -31.5626 -31.5560 -31.5406 -31.5403
   -31.5387 -31.5322 -31.5314 -31.5271 -31.5161 -31.5139 -31.5104 -31.4988
   -31.4925 -31.4743 -31.4689 -31.4675 -31.4435 -31.3619 -31.2870 -31.1991
   -31.1831 -31.1326 -30.8417 -30.8075 -30.7844 -30.7004 -30.6392 -30.5725
   -17.0143 -16.0248 -15.7715 -15.6153 -15.5822 -15.5466 -15.4602 -15.4228
   -15.3388 -15.2906 -15.2792 -15.2458 -15.2397 -15.2057 -15.2032 -15.1918
   -15.1077 -15.1028 -15.0439 -14.9546 -14.9381 -14.9161 -14.8857 -14.8459
   -14.7970 -14.7922 -14.7585 -14.7351 -14.7286 -14.2111 -12.9904 -12.9141
    -9.4606  -7.2033  -4.5818  -3.3916  -3.1137  -2.8888  -2.8684  -2.7660
    -2.7221  -2.6996  -2.6789  -2.6513  -2.6282  -2.5907  -2.5859  -2.5430
    -2.5115  -2.4730  -2.4585  -2.4218  -2.3781  -2.3140  -2.3082  -2.2385
    -2.2283  -2.2077  -2.1191  -2.1046  -2.0777  -2.0338  -2.0101  -1.9826
    -1.9463  -1.9088  -1.8734  -1.7267  -1.6776  -1.6557  -1.6289  -1.5700
    -1.5206  -1.4193  -1.2878  -1.2302  -1.2060  -1.1862  -1.1039  -1.0879
    -1.0685  -1.0410  -0.9658  -0.8967  -0.8886  -0.8562  -0.8341  -0.7849
    -0.7252  -0.7210  -0.7058  -0.6816  -0.6546  -0.5755  -0.5619  -0.5362
    -0.4445  -0.3873  -0.3424  -0.2858  -0.2759  -0.2622  -0.1867  -0.1765
    -0.1069  -0.0620  -0.0469   0.0407   0.1285   0.1524   0.3064   0.3093
     0.3292   0.3925   0.5633   0.5871   0.6950   0.7165   0.8027   0.8267
     0.8350   0.9024   0.9817   0.9994   1.0386   1.1910   1.7460   1.8064
     1.9070   2.0360   3.6974   3.7828   3.8223   3.8608   3.9103   3.9324
     3.9897   4.0721   4.0987   4.1497   4.2229

          k =-0.0760-0.0839 0.0000 ( 17948 PWs)   bands (ev):

   -55.4945 -55.4895 -55.4683 -55.4677 -55.4209 -55.3702 -55.3463 -55.3319
   -55.2916 -55.2899 -55.2895 -55.2875 -55.0513 -54.9495 -54.4713 -54.4711
   -31.8826 -31.8786 -31.8132 -31.7881 -31.7876 -31.7760 -31.7613 -31.7606
   -31.7207 -31.7155 -31.7137 -31.7066 -31.6772 -31.6404 -31.6315 -31.6275
   -31.6269 -31.6245 -31.6201 -31.6188 -31.6087 -31.5881 -31.5874 -31.5745
   -31.5713 -31.5605 -31.5484 -31.5318 -31.5247 -31.5223 -31.5062 -31.5054
   -31.5047 -31.5037 -31.4784 -31.4681 -31.4643 -31.3617 -31.2859 -31.2103
   -31.1842 -31.1768 -30.7959 -30.7957 -30.7092 -30.7090 -30.6699 -30.6698
   -17.0128 -15.7672 -15.7054 -15.5694 -15.4886 -15.4666 -15.4548 -15.4308
   -15.2922 -15.2767 -15.2582 -15.2087 -15.2050 -15.2025 -15.1625 -15.1064
   -15.0731 -15.0706 -15.0620 -15.0357 -15.0010 -14.9958 -14.9615 -14.9530
   -14.9394 -14.8498 -14.8446 -14.8423 -14.6698 -14.3434 -12.9758 -12.9757
    -9.4612  -7.2019  -4.5902  -3.0500  -2.9765  -2.8160  -2.7139  -2.6840
    -2.6522  -2.5088  -2.4737  -2.4637  -2.4499  -2.4131  -2.3985  -2.3840
    -2.3545  -2.3403  -2.3360  -2.3174  -2.3067  -2.2946  -2.2504  -2.2089
    -2.2054  -2.1974  -2.1668  -2.1467  -2.1342  -2.1054  -2.0860  -2.0703
    -2.0563  -2.0073  -1.8341  -1.8032  -1.7030  -1.6825  -1.6734  -1.6514
    -1.5852  -1.5580  -1.5258  -1.4864  -1.4341  -1.3125  -1.2460  -1.2249
    -1.1951  -1.1856  -1.1336  -1.0117  -0.9759  -0.9529  -0.9067  -0.8699
    -0.8258  -0.8152  -0.6955  -0.6901  -0.6446  -0.6019  -0.4885  -0.4717
    -0.4624  -0.4498  -0.4356  -0.3065  -0.2969  -0.2903  -0.2729  -0.2291
    -0.2119  -0.1063  -0.0077   0.0080   0.1108   0.1618   0.2877   0.3526
     0.4472   0.4931   0.5172   0.6071   0.6432   0.7252   0.7487   0.8017
     0.8133   0.9092   0.9639   0.9822   0.9902   1.0580   1.8940   1.8949
     1.9743   1.9745   3.7402   3.8363   3.8748   3.8968   3.9426   4.1011
     4.1170   4.1645   4.1673   4.1828   4.2748

     the Fermi energy is     3.6379 ev

!    total energy              =   -2919.04287686 Ry
     estimated scf accuracy    <       0.00000007 Ry
     smearing contrib. (-TS)   =      -0.03610505 Ry
     internal energy E=F+TS    =   -2919.00677181 Ry

     The total energy is F=E-TS. E is the sum of the following terms:
     one-electron contribution =  -24479.22237383 Ry
     hartree contribution      =   12327.77362730 Ry
     xc contribution           =    -479.99750426 Ry
     ewald contribution        =    9712.43588940 Ry
     electric field correction =       0.00358958 Ry

     convergence has been achieved in  67 iterations

     Forces acting on atoms (cartesian axes, Ry/au):

     atom    1 type  1   force =     0.00009625   -0.00020509    0.09494011
     atom    2 type  1   force =    -0.00023044   -0.00036264   -0.17675721
     atom    3 type  2   force =    -0.00004459   -0.00006640   -0.02291827
     atom    4 type  2   force =    -0.00004403   -0.00167987    0.05576199
     atom    5 type  2   force =    -0.01135003   -0.00122978    0.00625198
     atom    6 type  2   force =     0.01252607   -0.00034757    0.00441520
     atom    7 type  1   force =    -0.00113770    0.00152661   -0.01377735
     atom    8 type  1   force =     0.00062782    0.00694343    0.01264515
     atom    9 type  2   force =     0.00020190   -0.00005159    0.00013558
     atom   10 type  2   force =    -0.00163883    0.00010462   -0.00996805
     atom   11 type  2   force =    -0.00021232    0.00002462    0.00013989
     atom   12 type  2   force =     0.00024217    0.00011016   -0.00008333
     atom   13 type  1   force =     0.00006753   -0.00000877    0.00031562
     atom   14 type  1   force =     0.00001308   -0.00015215    0.00021704
     atom   15 type  2   force =     0.00004068   -0.00002160   -0.00002054
     atom   16 type  2   force =     0.00025368    0.00028566   -0.00003433
     atom   17 type  2   force =    -0.00010877   -0.00021346    0.00021727
     atom   18 type  2   force =     0.00034794    0.00010240    0.00015469
     atom   19 type  1   force =     0.00041592   -0.00001090   -0.00013059
     atom   20 type  1   force =     0.00013131   -0.00002649    0.00031324
     atom   21 type  2   force =     0.00004515   -0.00004453    0.10362751
     atom   22 type  2   force =     0.00005049    0.00001112    0.00019435
     atom   23 type  2   force =    -0.07098461   -0.00016814   -0.02732812
     atom   24 type  2   force =     0.07083452    0.00031546   -0.02734247
     atom   25 type  1   force =    -0.00012427   -0.00020972    0.09463853
     atom   26 type  1   force =    -0.00019851   -0.00046991   -0.17690447
     atom   27 type  2   force =     0.00007016   -0.00035324   -0.02194461
     atom   28 type  2   force =     0.00003719   -0.00138907    0.05531393
     atom   29 type  2   force =    -0.01157668   -0.00008762    0.00585820
     atom   30 type  2   force =     0.01264653    0.00013198    0.00407504
     atom   31 type  1   force =    -0.00124769    0.00416906   -0.01464830
     atom   32 type  1   force =     0.00055450   -0.00777198    0.01250533
     atom   33 type  2   force =    -0.00001262    0.00009419    0.00004665
     atom   34 type  2   force =    -0.00127275    0.00083040   -0.00837104
     atom   35 type  2   force =     0.00011439    0.00020448   -0.00002825
     atom   36 type  2   force =     0.00012162    0.00004472    0.00016569
     atom   37 type  1   force =     0.00002891   -0.00000085    0.00000892
     atom   38 type  1   force =    -0.00003735   -0.00016127   -0.00015176
     atom   39 type  2   force =    -0.00017424   -0.00018938   -0.00007687
     atom   40 type  2   force =     0.00023074   -0.00002621   -0.00018155
     atom   41 type  2   force =     0.00023611   -0.00006040    0.00009524
     atom   42 type  2   force =    -0.00012012    0.00010164   -0.00036049
     atom   43 type  1   force =    -0.00020984    0.00001779    0.00021563
     atom   44 type  1   force =     0.00040630   -0.00003150    0.00008974
     atom   45 type  2   force =     0.00003351   -0.00004859    0.10359834
     atom   46 type  2   force =    -0.07098784   -0.00007069   -0.02731841
     atom   47 type  2   force =     0.07084928    0.00032896   -0.02734926
     atom   48 type  3   force =    -0.00076509    0.00271262    0.00209246
     atom   49 type  4   force =    -0.00018544   -0.00046656    0.00083521
     atom   50 type  5   force =     0.00047383    0.00012888   -0.00045256
     atom   51 type  5   force =     0.00071658   -0.00049951   -0.00061294
     atom   52 type  5   force =     0.00024959   -0.00176332   -0.00210775

     Total force =     0.366070     Total SCF correction =     0.000786
  @ DRIVER MODE: Message from server: STATUS
  @ DRIVER MODE: Message from server: GETFORCE
  @ DRIVER MODE: Returning v,forces,stress,ensemble 

     Writing output data file ./calc.save/
  @ DRIVER MODE: Message from server: EXIT
  @ DRIVE MODE: Exiting  
 
     init_run     :     10.83s CPU     11.17s WALL (       1 calls)
     electrons    :   1001.49s CPU   1016.79s WALL (       1 calls)
     forces       :      2.41s CPU      2.50s WALL (       1 calls)

     Called by init_run:
     wfcinit      :      4.79s CPU      4.93s WALL (       1 calls)
     potinit      :      5.39s CPU      5.47s WALL (       1 calls)
     hinit0       :      0.29s CPU      0.32s WALL (       1 calls)

     Called by electrons:
     c_bands      :    840.83s CPU    846.71s WALL (      67 calls)
     sum_band     :    107.55s CPU    111.29s WALL (      67 calls)
     v_of_rho     :     39.81s CPU     41.79s WALL (      68 calls)
     newd         :     16.37s CPU     20.01s WALL (      68 calls)
     mix_rho      :      1.47s CPU      1.53s WALL (      67 calls)
     vdW_kernel   :      4.54s CPU      4.55s WALL (       1 calls)

     Called by c_bands:
     init_us_2    :      7.10s CPU      7.13s WALL (    1360 calls)
     cegterg      :    821.89s CPU    827.46s WALL (     670 calls)

     Called by *egterg:
     cdiaghg      :    130.11s CPU    130.80s WALL (    6495 calls)
     h_psi        :    439.21s CPU    442.99s WALL (    6505 calls)
     s_psi        :     59.27s CPU     59.45s WALL (    6505 calls)
     g_psi        :      1.65s CPU      1.66s WALL (    5825 calls)

     Called by h_psi:
     h_psi:calbec :     56.62s CPU     56.91s WALL (    6505 calls)
     vloc_psi     :    319.29s CPU    322.27s WALL (    6505 calls)
     add_vuspsi   :     59.81s CPU     60.12s WALL (    6505 calls)

     General routines
     calbec       :     75.52s CPU     75.88s WALL (    7215 calls)
     fft          :     20.66s CPU     20.82s WALL (    4284 calls)
     ffts         :      0.15s CPU      0.15s WALL (     135 calls)
     fftw         :    360.76s CPU    364.14s WALL (  858662 calls)
     interpolate  :      0.45s CPU      0.46s WALL (      68 calls)
     davcio       :      0.00s CPU      0.14s WALL (      10 calls)
 
     Parallel routines
 
     PWSCF        :  16m55.00s CPU  17m11.05s WALL

 
   This run was terminated on:   6:29:58   9Sep2021            

=------------------------------------------------------------------------------=
   JOB DONE.
=------------------------------------------------------------------------------=
