
     Program PWSCF v.6.7GPU starts on 23Aug2021 at 17:25:12 

     This program is part of the open-source Quantum ESPRESSO suite
     for quantum simulation of materials; please cite
         "P. Giannozzi et al., J. Phys.:Condens. Matter 21 395502 (2009);
         "P. Giannozzi et al., J. Phys.:Condens. Matter 29 465901 (2017);
         "P. Giannozzi et al., J. Chem. Phys. 152 154105 (2020);
          URL http://www.quantum-espresso.org", 
     in publications or presentations arising from this work. More details at
     http://www.quantum-espresso.org/quote

     Parallel version (MPI), running on     6 processors

     MPI processes distributed on     1 nodes
     R & G space division:  proc/nbgrp/npool/nimage =       6
     Reading input from /storage/home/hcoda1/3/ntian30/research/carbon/CH_vib/ads_slab/CHNH_a/out_0010/pw.inp
Warning: card &CELL ignored
Warning: card   CELL_DYNAMICS='IPI', ignored
Warning: card / ignored

     Current dimensions of program PWSCF are:
     Max number of different atomic species (ntypx) = 10
     Max number of k-points (npk) =  40000
     Max angular momentum in pseudopotentials (lmaxx) =  3
     Presently no symmetry can be used with electric field

     Message from routine cell_base_init:
     DEPRECATED: use true lattice parameter, not A to a.u. conversion factor

     **************************************************************************
     Initializing libbeef V0.1.2 with the BEEF-vdW functional.
     Citation: Wellendorff et al., PRB 85, 235149 (2012).
     **************************************************************************


     IMPORTANT: XC functional enforced from input :
     Exchange-correlation= BEEF-VDW
                           (   1   4  43  14   2   0   0)
     Any further DFT definition will be discarded
     Please, verify this is what you really want


     Subspace diagonalization in iterative solution of the eigenvalue problem:
     one sub-group per band group will be used
     scalapack distributed-memory algorithm (size of sub-group:  2*  2 procs)

  @ DRIVER MODE: Connecting to 
 qe_1139763_2632799.sched-torque.pace.gatech.edu1odscflb_scratch
  using UNIX socket
  @ DRIVER MODE: Message from server: STATUS
  @ DRIVER MODE: Message from server: INIT
  @ DRIVER MODE: Receiving replica           0          -1
  @ DRIVER MODE: Receiving encoded integer          25
  @ DRIVER MODE:  SCF:  T  FORCE:  T  STRESS:  F  VC:  F  ENSEMBLE:  F
  @ DRIVER MODE:  SCF:  T  FORCE:  T  STRESS:  F  VC:  F  ENSEMBLE:  F
 
     Parallelization info
     --------------------
     sticks:   dense  smooth     PW     G-vecs:    dense   smooth      PW
     Min         545     219     63                94473    23902    3663
     Max         546     222     64                94484    23905    3665
     Sum        3275    1317    379               566857   143421   21985
 
     Using Slab Decomposition
 


     bravais-lattice index     =            0
     lattice parameter (alat)  =       1.8897  a.u.
     unit-cell volume          =    6658.9804 (a.u.)^3
     number of atoms/cell      =           51
     number of atomic types    =            5
     number of electrons       =       389.00
     number of Kohn-Sham states=          204
     kinetic-energy cutoff     =      29.3995  Ry
     charge density cutoff     =     293.9946  Ry
     scf convergence threshold =      7.3E-08
     mixing beta               =       0.0500
     number of iterations used =            8  plain     mixing
     Exchange-correlation= BEEF-VDW
                           (   1   4  43  14   2   0   0)

     celldm(1)=   1.889726  celldm(2)=   0.000000  celldm(3)=   0.000000
     celldm(4)=   0.000000  celldm(5)=   0.000000  celldm(6)=   0.000000

     crystal axes: (cart. coord. in units of alat)
               a(1) = (   6.579727   0.000000   0.000000 )  
               a(2) = (  -0.000775   5.961596   0.000000 )  
               a(3) = (   0.000000   0.000000  25.155947 )  

     reciprocal axes: (cart. coord. in units 2 pi/alat)
               b(1) = (  0.151982  0.000020  0.000000 )  
               b(2) = (  0.000000  0.167740  0.000000 )  
               b(3) = (  0.000000  0.000000  0.039752 )  


     PseudoPot. # 1 for Ti read from file:
     /storage/coda1/p-amedford6/0/shared/rich_project_chbe-medford/medford-share/data/pseudos_module/espresso/nninc/pbe/van/Ti.UPF
     MD5 check sum: 8e4df49b7f0d34bbd5052bf3f5ea0213
     Pseudo is Ultrasoft, Zval = 12.0
     Generated by new atomic code, or converted to UPF format
     Using radial grid of  851 points,  6 beta functions with: 
                l(1) =   0
                l(2) =   0
                l(3) =   1
                l(4) =   1
                l(5) =   2
                l(6) =   2
     Q(r) pseudized with  8 coefficients,  rinner =    1.000   1.000   1.000
                                                       1.000   1.000

     PseudoPot. # 2 for O  read from file:
     /storage/coda1/p-amedford6/0/shared/rich_project_chbe-medford/medford-share/data/pseudos_module/espresso/nninc/pbe/van/O.UPF
     MD5 check sum: 78c19812648e8988a0fe644b0f25305e
     Pseudo is Ultrasoft, Zval =  6.0
     Generated by new atomic code, or converted to UPF format
     Using radial grid of  737 points,  4 beta functions with: 
                l(1) =   0
                l(2) =   0
                l(3) =   1
                l(4) =   1
     Q(r) pseudized with  8 coefficients,  rinner =    0.800   0.800   0.800


     PseudoPot. # 3 for N  read from file:
     /storage/coda1/p-amedford6/0/shared/rich_project_chbe-medford/medford-share/data/pseudos_module/espresso/nninc/pbe/van/N.UPF
     MD5 check sum: 90d10febe142ad51ac9d5be1deb811c4
     Pseudo is Ultrasoft, Zval =  5.0
     Generated by new atomic code, or converted to UPF format
     Using radial grid of  729 points,  4 beta functions with: 
                l(1) =   0
                l(2) =   0
                l(3) =   1
                l(4) =   1
     Q(r) pseudized with  8 coefficients,  rinner =    0.800   0.800   0.800


     PseudoPot. # 4 for C  read from file:
     /storage/coda1/p-amedford6/0/shared/rich_project_chbe-medford/medford-share/data/pseudos_module/espresso/nninc/pbe/van/C.UPF
     MD5 check sum: 1a69bf6b8db32088f5b2163dbdb77a27
     Pseudo is Ultrasoft, Zval =  4.0
     Generated by new atomic code, or converted to UPF format
     Using radial grid of  721 points,  4 beta functions with: 
                l(1) =   0
                l(2) =   0
                l(3) =   1
                l(4) =   1
     Q(r) pseudized with  8 coefficients,  rinner =    0.800   0.800   0.800


     PseudoPot. # 5 for H  read from file:
     /storage/coda1/p-amedford6/0/shared/rich_project_chbe-medford/medford-share/data/pseudos_module/espresso/nninc/pbe/van/H.UPF
     MD5 check sum: b5ee9d7bfd3a09ee7748110bda690ff7
     Pseudo is Ultrasoft, Zval =  1.0
     Generated by new atomic code, or converted to UPF format
     Using radial grid of  615 points,  1 beta functions with: 
                l(1) =   0
     Q(r) pseudized with  8 coefficients,  rinner =    0.800

     atomic species   valence    mass     pseudopotential
        Ti1           12.00    47.86700     Ti( 1.00)
        O1             6.00    15.99900     O ( 1.00)
        N1             5.00    14.00700     N ( 1.00)
        C1             4.00    12.01100     C ( 1.00)
        H1             1.00     1.00800     H ( 1.00)

     No symmetry found



   Cartesian axes

     site n.     atom                  positions (alat units)
         1           Ti1 tau(   1) = (   0.0004258   2.9801865   6.0000000  )
         2           Ti1 tau(   2) = (   3.2906075   1.4906267   6.0002472  )
         3           O1  tau(   3) = (   0.0006271   0.0005054   7.9858123  )
         4           O1  tau(   4) = (   3.2906025   0.0005020   7.3038282  )
         5           O1  tau(   5) = (   4.5942328   1.4918067   9.2879030  )
         6           O1  tau(   6) = (   1.9868534   1.4903216   9.2879459  )
         7           Ti1 tau(   7) = (   3.2907910   2.8959150   9.1758416  )
         8           Ti1 tau(   8) = (   0.0015273   1.4827037   9.2680791  )
         9           O1  tau(   9) = (   3.3107583   5.9394213  11.3440837  )
        10           O1  tau(  10) = (   0.0116148   5.9584955  10.6183126  )
        11           O1  tau(  11) = (   1.3209705   1.4681434  12.6387851  )
        12           O1  tau(  12) = (   5.3117763   1.4689694  12.6372993  )
        13           Ti1 tau(  13) = (   6.5586693   2.9297660  12.6634068  )
        14           Ti1 tau(  14) = (   3.2703198   1.4638114  12.4955107  )
        15           O1  tau(  15) = (   0.0083729   5.9498784  14.6531507  )
        16           O1  tau(  16) = (   3.3267446   5.9373244  13.9471573  )
        17           O1  tau(  17) = (   4.5400383   1.4607670  16.1300196  )
        18           O1  tau(  18) = (   2.0562451   1.4605895  16.0859588  )
        19           Ti1 tau(  19) = (   3.3219294   2.9366742  15.7081325  )
        20           Ti1 tau(  20) = (   0.0794022   1.3719971  16.1804440  )
        21           O1  tau(  21) = (   3.2904802   0.0005063   4.7018136  )
        22           O1  tau(  22) = (   0.0048811   5.8540159  17.1722642  )
        23           O1  tau(  23) = (   1.3043587   1.4918075   6.0039043  )
        24           O1  tau(  24) = (   5.2767064   1.4903225   6.0039473  )
        25           Ti1 tau(  25) = (   0.0000382   5.9609847   6.0000000  )
        26           Ti1 tau(  26) = (   3.2902200   4.4714249   6.0002472  )
        27           O1  tau(  27) = (   0.0002396   2.9813036   7.9858123  )
        28           O1  tau(  28) = (   3.2902150   2.9813002   7.3038282  )
        29           O1  tau(  29) = (   4.5938453   4.4726049   9.2879030  )
        30           O1  tau(  30) = (   1.9864658   4.4711199   9.2879459  )
        31           Ti1 tau(  31) = (   3.2891106   5.8743827   9.1763621  )
        32           Ti1 tau(  32) = (   0.0006254   4.4649316   9.2693709  )
        33           O1  tau(  33) = (   3.3036409   2.9595551  11.3414423  )
        34           O1  tau(  34) = (   0.0092240   2.9805883  10.6323155  )
        35           O1  tau(  35) = (   1.3251634   4.4629088  12.6456700  )
        36           O1  tau(  36) = (   5.3099897   4.4533368  12.6426351  )
        37           Ti1 tau(  37) = (   0.0071655   5.9203210  12.5194715  )
        38           Ti1 tau(  38) = (   3.2774562   4.4456010  12.4944480  )
        39           O1  tau(  39) = (   0.0172281   2.9510719  14.7337574  )
        40           O1  tau(  40) = (   3.3230371   2.9488945  13.9167408  )
        41           O1  tau(  41) = (   4.5572773   4.4147185  16.0816828  )
        42           O1  tau(  42) = (   2.0601761   4.4202290  16.0727324  )
        43           Ti1 tau(  43) = (   3.3574729   5.9210026  15.7440268  )
        44           Ti1 tau(  44) = (   0.0706454   4.5402764  15.7844247  )
        45           O1  tau(  45) = (   3.2900926   2.9813045   4.7018136  )
        46           O1  tau(  46) = (   1.3039711   4.4726057   6.0039043  )
        47           O1  tau(  47) = (   5.2763189   4.4711207   6.0039473  )
        48           N1  tau(  48) = (   6.3928749   2.8496863  17.7411295  )
        49           C1  tau(  49) = (   0.6235525   2.6889418  18.7295412  )
        50           H1  tau(  50) = (   1.5351458   2.1120716  18.4733693  )
        51           H1  tau(  51) = (   5.5197072   3.3230476  17.9821812  )

     number of k points=    10  Fermi-Dirac smearing, width (Ry)=  0.0073
                       cart. coord. in units 2pi/alat
        k(    1) = (   0.0000000   0.0000000   0.0000000), wk =   0.1250000
        k(    2) = (   0.0000000   0.0419351   0.0000000), wk =   0.2500000
        k(    3) = (   0.0000000  -0.0838702   0.0000000), wk =   0.1250000
        k(    4) = (   0.0379955   0.0000049   0.0000000), wk =   0.2500000
        k(    5) = (   0.0379955   0.0419400   0.0000000), wk =   0.2500000
        k(    6) = (   0.0379955  -0.0838652   0.0000000), wk =   0.2500000
        k(    7) = (   0.0379955  -0.0419301   0.0000000), wk =   0.2500000
        k(    8) = (  -0.0759910  -0.0000099   0.0000000), wk =   0.1250000
        k(    9) = (  -0.0759910   0.0419252   0.0000000), wk =   0.2500000
        k(   10) = (  -0.0759910  -0.0838800   0.0000000), wk =   0.1250000

     Dense  grid:   566857 G-vectors     FFT dimensions: (  72,  64, 270)

     Smooth grid:   143421 G-vectors     FFT dimensions: (  45,  40, 180)

     Estimated max dynamical RAM per process >     599.07 MB

     Estimated total dynamical RAM >       3.51 GB
     Cannot read rho : file not found

     Initial potential from superposition of free atoms

     starting charge  372.99918, renormalised to  389.00000

     negative rho (up, down):  1.910E-02 0.000E+00


     %%%%%%%%%%%%%%%%%%%%%%%%%%%%%%%%%%%%%%%%%%%%%%%%%%%%%%%%%%%%%%%%%%%%%%%%
     %                                                                      %
     % You are using vdW-DF, which was implemented by the Thonhauser group. %
     % Please cite the following two papers that made this development      %
     % possible and the two reviews that describe the various versions:     %
     %                                                                      %
     %   T. Thonhauser et al., PRL 115, 136402 (2015).                      %
     %   T. Thonhauser et al., PRB 76, 125112 (2007).                       %
     %   K. Berland et al., Rep. Prog. Phys. 78, 066501 (2015).             %
     %   D.C. Langreth et al., J. Phys.: Condens. Matter 21, 084203 (2009). %
     %                                                                      %
     %                                                                      %
     % If you are calculating the stress with vdW-DF, please also cite:     %
     %                                                                      %
     %   R. Sabatini et al., J. Phys.: Condens. Matter 24, 424209 (2012).   %
     %                                                                      %
     %%%%%%%%%%%%%%%%%%%%%%%%%%%%%%%%%%%%%%%%%%%%%%%%%%%%%%%%%%%%%%%%%%%%%%%%


 
     Adding external electric field

     Computed dipole along edir(3) : 
        Dipole               -4.7381 Ry au,        -12.0430 Debye
        Dipole field         -0.0089 Ry au, 
 
        Potential amp.        0.8289 Ry
        Total length         46.3494 bohr
 
     Starting wfcs are  294 atomic wfcs
  @ DRIVER MODE: Message from server: STATUS
  @ DRIVER MODE: Message from server: POSDATA
  @ DRIVER MODE: Reading and sharing cell 
  @ DRIVER MODE: Reading and sharing positions 
  @ DRIVER MODE: Received positions 

     total cpu time spent up to now is       18.5 secs

     Self-consistent Calculation

     iteration #  1     ecut=    29.40 Ry     beta= 0.05
     Davidson diagonalization with overlap
     c_bands:  4 eigenvalues not converged
     c_bands:  2 eigenvalues not converged
     c_bands:  1 eigenvalues not converged
     c_bands:  3 eigenvalues not converged
     c_bands:  2 eigenvalues not converged
     c_bands:  1 eigenvalues not converged
     c_bands:  2 eigenvalues not converged
     c_bands:  2 eigenvalues not converged
     c_bands:  1 eigenvalues not converged
     c_bands:  1 eigenvalues not converged
     ethr =  1.00E-05,  avg # of iterations = 20.0

     negative rho (up, down):  1.860E-02 0.000E+00
 
     Adding external electric field

     Computed dipole along edir(3) : 
        Dipole               17.3890 Ry au,         44.1983 Debye
        Dipole field          0.0328 Ry au, 
 
        Potential amp.       -3.0419 Ry
        Total length         46.3494 bohr
 

     total cpu time spent up to now is       81.9 secs

     total energy              =   -2847.37375689 Ry
     estimated scf accuracy    <     789.44469023 Ry

     iteration #  2     ecut=    29.40 Ry     beta= 0.05
     Davidson diagonalization with overlap
     ethr =  1.00E-02,  avg # of iterations = 15.4

     negative rho (up, down):  8.251E-03 0.000E+00
 
     Adding external electric field

     Computed dipole along edir(3) : 
        Dipole               -1.8610 Ry au,         -4.7301 Debye
        Dipole field         -0.0035 Ry au, 
 
        Potential amp.        0.3255 Ry
        Total length         46.3494 bohr
 

     total cpu time spent up to now is      138.7 secs

     total energy              =   -2779.89752728 Ry
     estimated scf accuracy    <   17525.53655422 Ry

     iteration #  3     ecut=    29.40 Ry     beta= 0.05
     Davidson diagonalization with overlap
     c_bands:  1 eigenvalues not converged
     c_bands:  1 eigenvalues not converged
     c_bands:  2 eigenvalues not converged
     c_bands:  2 eigenvalues not converged
     c_bands:  3 eigenvalues not converged
     c_bands:  1 eigenvalues not converged
     c_bands:  3 eigenvalues not converged
     ethr =  1.00E-02,  avg # of iterations = 19.9

     negative rho (up, down):  8.217E-03 0.000E+00
 
     Adding external electric field

     Computed dipole along edir(3) : 
        Dipole               -2.3749 Ry au,         -6.0363 Debye
        Dipole field         -0.0045 Ry au, 
 
        Potential amp.        0.4154 Ry
        Total length         46.3494 bohr
 

     total cpu time spent up to now is      195.0 secs

     total energy              =   -2917.23418916 Ry
     estimated scf accuracy    <      79.11839559 Ry

     iteration #  4     ecut=    29.40 Ry     beta= 0.05
     Davidson diagonalization with overlap
     ethr =  1.00E-02,  avg # of iterations =  6.1

     negative rho (up, down):  8.157E-03 0.000E+00
 
     Adding external electric field

     Computed dipole along edir(3) : 
        Dipole               -2.5785 Ry au,         -6.5539 Debye
        Dipole field         -0.0049 Ry au, 
 
        Potential amp.        0.4511 Ry
        Total length         46.3494 bohr
 

     total cpu time spent up to now is      214.8 secs

     total energy              =   -2917.35784035 Ry
     estimated scf accuracy    <      33.01419945 Ry

     iteration #  5     ecut=    29.40 Ry     beta= 0.05
     Davidson diagonalization with overlap
     ethr =  8.49E-03,  avg # of iterations =  3.5

     negative rho (up, down):  8.129E-03 0.000E+00
 
     Adding external electric field

     Computed dipole along edir(3) : 
        Dipole               -2.7276 Ry au,         -6.9330 Debye
        Dipole field         -0.0051 Ry au, 
 
        Potential amp.        0.4772 Ry
        Total length         46.3494 bohr
 

     total cpu time spent up to now is      233.0 secs

     total energy              =   -2916.56302757 Ry
     estimated scf accuracy    <      26.66442549 Ry

     iteration #  6     ecut=    29.40 Ry     beta= 0.05
     Davidson diagonalization with overlap
     ethr =  6.85E-03,  avg # of iterations =  4.9

     negative rho (up, down):  8.062E-03 0.000E+00
 
     Adding external electric field

     Computed dipole along edir(3) : 
        Dipole               -2.2815 Ry au,         -5.7989 Debye
        Dipole field         -0.0043 Ry au, 
 
        Potential amp.        0.3991 Ry
        Total length         46.3494 bohr
 

     total cpu time spent up to now is      252.2 secs

     total energy              =   -2917.28292831 Ry
     estimated scf accuracy    <      12.00700766 Ry

     iteration #  7     ecut=    29.40 Ry     beta= 0.05
     Davidson diagonalization with overlap
     ethr =  3.09E-03,  avg # of iterations =  8.6

     negative rho (up, down):  7.940E-03 0.000E+00
 
     Adding external electric field

     Computed dipole along edir(3) : 
        Dipole               -0.9412 Ry au,         -2.3923 Debye
        Dipole field         -0.0018 Ry au, 
 
        Potential amp.        0.1646 Ry
        Total length         46.3494 bohr
 

     total cpu time spent up to now is      273.6 secs

     total energy              =   -2917.94169246 Ry
     estimated scf accuracy    <       6.67525944 Ry

     iteration #  8     ecut=    29.40 Ry     beta= 0.05
     Davidson diagonalization with overlap
     ethr =  1.72E-03,  avg # of iterations =  5.5

     negative rho (up, down):  7.957E-03 0.000E+00
 
     Adding external electric field

     Computed dipole along edir(3) : 
        Dipole               -0.6800 Ry au,         -1.7285 Debye
        Dipole field         -0.0013 Ry au, 
 
        Potential amp.        0.1190 Ry
        Total length         46.3494 bohr
 

     total cpu time spent up to now is      293.8 secs

     total energy              =   -2916.93390318 Ry
     estimated scf accuracy    <      26.39468655 Ry

     iteration #  9     ecut=    29.40 Ry     beta= 0.05
     Davidson diagonalization with overlap
     ethr =  1.72E-03,  avg # of iterations =  6.2

     negative rho (up, down):  8.037E-03 0.000E+00
 
     Adding external electric field

     Computed dipole along edir(3) : 
        Dipole               -0.9633 Ry au,         -2.4484 Debye
        Dipole field         -0.0018 Ry au, 
 
        Potential amp.        0.1685 Ry
        Total length         46.3494 bohr
 

     total cpu time spent up to now is      314.0 secs

     total energy              =   -2917.32178304 Ry
     estimated scf accuracy    <       2.52827407 Ry

     iteration # 10     ecut=    29.40 Ry     beta= 0.05
     Davidson diagonalization with overlap
     c_bands:  2 eigenvalues not converged
     ethr =  6.50E-04,  avg # of iterations = 16.4

     negative rho (up, down):  8.019E-03 0.000E+00
 
     Adding external electric field

     Computed dipole along edir(3) : 
        Dipole               -1.4093 Ry au,         -3.5820 Debye
        Dipole field         -0.0027 Ry au, 
 
        Potential amp.        0.2465 Ry
        Total length         46.3494 bohr
 

     total cpu time spent up to now is      347.3 secs

     total energy              =   -2918.14225268 Ry
     estimated scf accuracy    <       2.56715261 Ry

     iteration # 11     ecut=    29.40 Ry     beta= 0.05
     Davidson diagonalization with overlap
     ethr =  6.50E-04,  avg # of iterations =  3.3

     negative rho (up, down):  7.960E-03 0.000E+00
 
     Adding external electric field

     Computed dipole along edir(3) : 
        Dipole               -0.9873 Ry au,         -2.5096 Debye
        Dipole field         -0.0019 Ry au, 
 
        Potential amp.        0.1727 Ry
        Total length         46.3494 bohr
 

     total cpu time spent up to now is      366.1 secs

     total energy              =   -2918.00727853 Ry
     estimated scf accuracy    <      10.53987462 Ry

     iteration # 12     ecut=    29.40 Ry     beta= 0.05
     Davidson diagonalization with overlap
     ethr =  6.50E-04,  avg # of iterations =  1.6

     negative rho (up, down):  7.985E-03 0.000E+00
 
     Adding external electric field

     Computed dipole along edir(3) : 
        Dipole               -1.2061 Ry au,         -3.0657 Debye
        Dipole field         -0.0023 Ry au, 
 
        Potential amp.        0.2110 Ry
        Total length         46.3494 bohr
 

     total cpu time spent up to now is      383.2 secs

     total energy              =   -2917.92588188 Ry
     estimated scf accuracy    <       3.29749259 Ry

     iteration # 13     ecut=    29.40 Ry     beta= 0.05
     Davidson diagonalization with overlap
     ethr =  6.50E-04,  avg # of iterations =  2.0

     negative rho (up, down):  8.225E-03 0.000E+00
 
     Adding external electric field

     Computed dipole along edir(3) : 
        Dipole               -1.8547 Ry au,         -4.7142 Debye
        Dipole field         -0.0035 Ry au, 
 
        Potential amp.        0.3245 Ry
        Total length         46.3494 bohr
 

     total cpu time spent up to now is      401.3 secs

     total energy              =   -2918.14413757 Ry
     estimated scf accuracy    <       2.20159624 Ry

     iteration # 14     ecut=    29.40 Ry     beta= 0.05
     Davidson diagonalization with overlap
     ethr =  5.66E-04,  avg # of iterations = 15.0

     negative rho (up, down):  8.213E-03 0.000E+00
 
     Adding external electric field

     Computed dipole along edir(3) : 
        Dipole               -1.8770 Ry au,         -4.7708 Debye
        Dipole field         -0.0035 Ry au, 
 
        Potential amp.        0.3284 Ry
        Total length         46.3494 bohr
 

     total cpu time spent up to now is      429.2 secs

     total energy              =   -2918.29800752 Ry
     estimated scf accuracy    <       6.51065570 Ry

     iteration # 15     ecut=    29.40 Ry     beta= 0.05
     Davidson diagonalization with overlap
     ethr =  5.66E-04,  avg # of iterations =  1.1

     negative rho (up, down):  8.402E-03 0.000E+00
 
     Adding external electric field

     Computed dipole along edir(3) : 
        Dipole               -0.9003 Ry au,         -2.2883 Debye
        Dipole field         -0.0017 Ry au, 
 
        Potential amp.        0.1575 Ry
        Total length         46.3494 bohr
 

     total cpu time spent up to now is      446.0 secs

     total energy              =   -2917.50931832 Ry
     estimated scf accuracy    <       5.17247750 Ry

     iteration # 16     ecut=    29.40 Ry     beta= 0.05
     Davidson diagonalization with overlap
     ethr =  5.66E-04,  avg # of iterations =  8.5

     negative rho (up, down):  8.220E-03 0.000E+00
 
     Adding external electric field

     Computed dipole along edir(3) : 
        Dipole               -0.5118 Ry au,         -1.3009 Debye
        Dipole field         -0.0010 Ry au, 
 
        Potential amp.        0.0895 Ry
        Total length         46.3494 bohr
 

     total cpu time spent up to now is      468.5 secs

     total energy              =   -2917.62010819 Ry
     estimated scf accuracy    <       4.06696085 Ry

     iteration # 17     ecut=    29.40 Ry     beta= 0.05
     Davidson diagonalization with overlap
     ethr =  5.66E-04,  avg # of iterations =  3.7

     negative rho (up, down):  8.250E-03 0.000E+00
 
     Adding external electric field

     Computed dipole along edir(3) : 
        Dipole               -0.0787 Ry au,         -0.2001 Debye
        Dipole field         -0.0001 Ry au, 
 
        Potential amp.        0.0138 Ry
        Total length         46.3494 bohr
 

     total cpu time spent up to now is      487.2 secs

     total energy              =   -2917.64826312 Ry
     estimated scf accuracy    <       0.91940243 Ry

     iteration # 18     ecut=    29.40 Ry     beta= 0.05
     Davidson diagonalization with overlap
     c_bands:  1 eigenvalues not converged
     c_bands:  2 eigenvalues not converged
     c_bands:  2 eigenvalues not converged
     ethr =  2.36E-04,  avg # of iterations = 17.2

     negative rho (up, down):  8.313E-03 0.000E+00
 
     Adding external electric field

     Computed dipole along edir(3) : 
        Dipole               -0.4565 Ry au,         -1.1603 Debye
        Dipole field         -0.0009 Ry au, 
 
        Potential amp.        0.0799 Ry
        Total length         46.3494 bohr
 

     total cpu time spent up to now is      520.9 secs

     total energy              =   -2917.68934400 Ry
     estimated scf accuracy    <       1.80865133 Ry

     iteration # 19     ecut=    29.40 Ry     beta= 0.05
     Davidson diagonalization with overlap
     ethr =  2.36E-04,  avg # of iterations =  9.5

     negative rho (up, down):  8.385E-03 0.000E+00
 
     Adding external electric field

     Computed dipole along edir(3) : 
        Dipole               -0.4592 Ry au,         -1.1671 Debye
        Dipole field         -0.0009 Ry au, 
 
        Potential amp.        0.0803 Ry
        Total length         46.3494 bohr
 

     total cpu time spent up to now is      542.9 secs

     total energy              =   -2917.74672690 Ry
     estimated scf accuracy    <       0.43507813 Ry

     iteration # 20     ecut=    29.40 Ry     beta= 0.05
     Davidson diagonalization with overlap
     ethr =  1.12E-04,  avg # of iterations =  7.8

     negative rho (up, down):  8.366E-03 0.000E+00
 
     Adding external electric field

     Computed dipole along edir(3) : 
        Dipole               -0.6105 Ry au,         -1.5518 Debye
        Dipole field         -0.0012 Ry au, 
 
        Potential amp.        0.1068 Ry
        Total length         46.3494 bohr
 

     total cpu time spent up to now is      563.4 secs

     total energy              =   -2917.72492806 Ry
     estimated scf accuracy    <       0.28355194 Ry

     iteration # 21     ecut=    29.40 Ry     beta= 0.05
     Davidson diagonalization with overlap
     c_bands:  1 eigenvalues not converged
     c_bands:  3 eigenvalues not converged
     c_bands:  1 eigenvalues not converged
     c_bands:  1 eigenvalues not converged
     c_bands:  1 eigenvalues not converged
     ethr =  7.29E-05,  avg # of iterations = 18.2

     negative rho (up, down):  8.767E-03 0.000E+00
 
     Adding external electric field

     Computed dipole along edir(3) : 
        Dipole               -0.4089 Ry au,         -1.0393 Debye
        Dipole field         -0.0008 Ry au, 
 
        Potential amp.        0.0715 Ry
        Total length         46.3494 bohr
 

     total cpu time spent up to now is      595.1 secs

     total energy              =   -2917.73529651 Ry
     estimated scf accuracy    <       0.46764068 Ry

     iteration # 22     ecut=    29.40 Ry     beta= 0.05
     Davidson diagonalization with overlap
     c_bands:  2 eigenvalues not converged
     ethr =  7.29E-05,  avg # of iterations = 13.5

     negative rho (up, down):  8.455E-03 0.000E+00
 
     Adding external electric field

     Computed dipole along edir(3) : 
        Dipole               -0.4257 Ry au,         -1.0820 Debye
        Dipole field         -0.0008 Ry au, 
 
        Potential amp.        0.0745 Ry
        Total length         46.3494 bohr
 

     total cpu time spent up to now is      619.0 secs

     total energy              =   -2917.73022096 Ry
     estimated scf accuracy    <       0.79136128 Ry

     iteration # 23     ecut=    29.40 Ry     beta= 0.05
     Davidson diagonalization with overlap
     ethr =  7.29E-05,  avg # of iterations =  5.0

     negative rho (up, down):  9.023E-03 0.000E+00
 
     Adding external electric field

     Computed dipole along edir(3) : 
        Dipole               -0.2176 Ry au,         -0.5531 Debye
        Dipole field         -0.0004 Ry au, 
 
        Potential amp.        0.0381 Ry
        Total length         46.3494 bohr
 

     total cpu time spent up to now is      638.1 secs

     total energy              =   -2917.72779019 Ry
     estimated scf accuracy    <       0.16802550 Ry

     iteration # 24     ecut=    29.40 Ry     beta= 0.05
     Davidson diagonalization with overlap
     c_bands:  4 eigenvalues not converged
     c_bands:  1 eigenvalues not converged
     c_bands:  1 eigenvalues not converged
     c_bands:  1 eigenvalues not converged
     ethr =  4.32E-05,  avg # of iterations = 17.8

     negative rho (up, down):  8.935E-03 0.000E+00
 
     Adding external electric field

     Computed dipole along edir(3) : 
        Dipole               -0.1222 Ry au,         -0.3106 Debye
        Dipole field         -0.0002 Ry au, 
 
        Potential amp.        0.0214 Ry
        Total length         46.3494 bohr
 

     total cpu time spent up to now is      671.2 secs

     total energy              =   -2917.75071985 Ry
     estimated scf accuracy    <       1.08203232 Ry

     iteration # 25     ecut=    29.40 Ry     beta= 0.05
     Davidson diagonalization with overlap
     ethr =  4.32E-05,  avg # of iterations =  4.6

     negative rho (up, down):  9.442E-03 0.000E+00
 
     Adding external electric field

     Computed dipole along edir(3) : 
        Dipole               -0.1354 Ry au,         -0.3442 Debye
        Dipole field         -0.0003 Ry au, 
 
        Potential amp.        0.0237 Ry
        Total length         46.3494 bohr
 

     total cpu time spent up to now is      690.1 secs

     total energy              =   -2917.74543945 Ry
     estimated scf accuracy    <       0.11285342 Ry

     iteration # 26     ecut=    29.40 Ry     beta= 0.05
     Davidson diagonalization with overlap
     ethr =  2.90E-05,  avg # of iterations =  7.0

     negative rho (up, down):  1.094E-02 0.000E+00
 
     Adding external electric field

     Computed dipole along edir(3) : 
        Dipole               -0.1381 Ry au,         -0.3510 Debye
        Dipole field         -0.0003 Ry au, 
 
        Potential amp.        0.0242 Ry
        Total length         46.3494 bohr
 

     total cpu time spent up to now is      710.7 secs

     total energy              =   -2917.74946123 Ry
     estimated scf accuracy    <       0.04399454 Ry

     iteration # 27     ecut=    29.40 Ry     beta= 0.05
     Davidson diagonalization with overlap
     c_bands:  1 eigenvalues not converged
     c_bands:  1 eigenvalues not converged
     c_bands:  3 eigenvalues not converged
     c_bands:  1 eigenvalues not converged
     c_bands:  1 eigenvalues not converged
     c_bands:  2 eigenvalues not converged
     ethr =  1.13E-05,  avg # of iterations = 16.9

     negative rho (up, down):  1.125E-02 0.000E+00
 
     Adding external electric field

     Computed dipole along edir(3) : 
        Dipole               -0.0314 Ry au,         -0.0799 Debye
        Dipole field         -0.0001 Ry au, 
 
        Potential amp.        0.0055 Ry
        Total length         46.3494 bohr
 

     total cpu time spent up to now is      746.5 secs

     total energy              =   -2917.75257003 Ry
     estimated scf accuracy    <       0.08277875 Ry

     iteration # 28     ecut=    29.40 Ry     beta= 0.05
     Davidson diagonalization with overlap
     ethr =  1.13E-05,  avg # of iterations =  7.3

     negative rho (up, down):  1.389E-02 0.000E+00
 
     Adding external electric field

     Computed dipole along edir(3) : 
        Dipole                0.1513 Ry au,          0.3845 Debye
        Dipole field          0.0003 Ry au, 
 
        Potential amp.       -0.0265 Ry
        Total length         46.3494 bohr
 

     total cpu time spent up to now is      767.5 secs

     total energy              =   -2917.75222806 Ry
     estimated scf accuracy    <       0.02903847 Ry

     iteration # 29     ecut=    29.40 Ry     beta= 0.05
     Davidson diagonalization with overlap
     ethr =  7.46E-06,  avg # of iterations = 14.9

     negative rho (up, down):  1.575E-02 0.000E+00
 
     Adding external electric field

     Computed dipole along edir(3) : 
        Dipole                0.1775 Ry au,          0.4513 Debye
        Dipole field          0.0003 Ry au, 
 
        Potential amp.       -0.0311 Ry
        Total length         46.3494 bohr
 

     total cpu time spent up to now is      802.5 secs

     total energy              =   -2917.76357104 Ry
     estimated scf accuracy    <       0.04554809 Ry

     iteration # 30     ecut=    29.40 Ry     beta= 0.05
     Davidson diagonalization with overlap
     ethr =  7.46E-06,  avg # of iterations =  1.1

     negative rho (up, down):  1.780E-02 0.000E+00
 
     Adding external electric field

     Computed dipole along edir(3) : 
        Dipole                0.1484 Ry au,          0.3771 Debye
        Dipole field          0.0003 Ry au, 
 
        Potential amp.       -0.0260 Ry
        Total length         46.3494 bohr
 

     total cpu time spent up to now is      819.3 secs

     total energy              =   -2917.75575951 Ry
     estimated scf accuracy    <       0.03048763 Ry

     iteration # 31     ecut=    29.40 Ry     beta= 0.05
     Davidson diagonalization with overlap
     ethr =  7.46E-06,  avg # of iterations =  8.9

     negative rho (up, down):  1.736E-02 0.000E+00
 
     Adding external electric field

     Computed dipole along edir(3) : 
        Dipole                0.1516 Ry au,          0.3853 Debye
        Dipole field          0.0003 Ry au, 
 
        Potential amp.       -0.0265 Ry
        Total length         46.3494 bohr
 

     total cpu time spent up to now is      845.5 secs

     total energy              =   -2917.76117888 Ry
     estimated scf accuracy    <       0.00508953 Ry

     iteration # 32     ecut=    29.40 Ry     beta= 0.05
     Davidson diagonalization with overlap
     c_bands:  3 eigenvalues not converged
     c_bands:  1 eigenvalues not converged
     c_bands:  2 eigenvalues not converged
     ethr =  1.31E-06,  avg # of iterations = 13.9

     negative rho (up, down):  1.777E-02 0.000E+00
 
     Adding external electric field

     Computed dipole along edir(3) : 
        Dipole                0.1526 Ry au,          0.3880 Debye
        Dipole field          0.0003 Ry au, 
 
        Potential amp.       -0.0267 Ry
        Total length         46.3494 bohr
 

     total cpu time spent up to now is      871.2 secs

     total energy              =   -2917.76175466 Ry
     estimated scf accuracy    <       0.00182236 Ry

     iteration # 33     ecut=    29.40 Ry     beta= 0.05
     Davidson diagonalization with overlap
     c_bands:  1 eigenvalues not converged
     ethr =  4.68E-07,  avg # of iterations = 11.3

     negative rho (up, down):  1.850E-02 0.000E+00
 
     Adding external electric field

     Computed dipole along edir(3) : 
        Dipole                0.1495 Ry au,          0.3800 Debye
        Dipole field          0.0003 Ry au, 
 
        Potential amp.       -0.0262 Ry
        Total length         46.3494 bohr
 

     total cpu time spent up to now is      895.8 secs

     total energy              =   -2917.76198515 Ry
     estimated scf accuracy    <       0.00114604 Ry

     iteration # 34     ecut=    29.40 Ry     beta= 0.05
     Davidson diagonalization with overlap
     c_bands:  2 eigenvalues not converged
     ethr =  2.95E-07,  avg # of iterations =  8.7

     negative rho (up, down):  1.857E-02 0.000E+00
 
     Adding external electric field

     Computed dipole along edir(3) : 
        Dipole                0.1371 Ry au,          0.3486 Debye
        Dipole field          0.0003 Ry au, 
 
        Potential amp.       -0.0240 Ry
        Total length         46.3494 bohr
 

     total cpu time spent up to now is      923.0 secs

     total energy              =   -2917.76229849 Ry
     estimated scf accuracy    <       0.00078712 Ry

     iteration # 35     ecut=    29.40 Ry     beta= 0.05
     Davidson diagonalization with overlap
     ethr =  2.02E-07,  avg # of iterations =  6.2

     negative rho (up, down):  1.851E-02 0.000E+00
 
     Adding external electric field

     Computed dipole along edir(3) : 
        Dipole                0.1346 Ry au,          0.3421 Debye
        Dipole field          0.0003 Ry au, 
 
        Potential amp.       -0.0235 Ry
        Total length         46.3494 bohr
 

     total cpu time spent up to now is      944.8 secs

     total energy              =   -2917.76232711 Ry
     estimated scf accuracy    <       0.00085142 Ry

     iteration # 36     ecut=    29.40 Ry     beta= 0.05
     Davidson diagonalization with overlap
     ethr =  2.02E-07,  avg # of iterations =  3.2

     negative rho (up, down):  1.828E-02 0.000E+00
 
     Adding external electric field

     Computed dipole along edir(3) : 
        Dipole                0.1311 Ry au,          0.3332 Debye
        Dipole field          0.0002 Ry au, 
 
        Potential amp.       -0.0229 Ry
        Total length         46.3494 bohr
 

     total cpu time spent up to now is      963.4 secs

     total energy              =   -2917.76228069 Ry
     estimated scf accuracy    <       0.00045535 Ry

     iteration # 37     ecut=    29.40 Ry     beta= 0.05
     Davidson diagonalization with overlap
     ethr =  1.17E-07,  avg # of iterations =  8.6

     negative rho (up, down):  1.810E-02 0.000E+00
 
     Adding external electric field

     Computed dipole along edir(3) : 
        Dipole                0.1237 Ry au,          0.3143 Debye
        Dipole field          0.0002 Ry au, 
 
        Potential amp.       -0.0216 Ry
        Total length         46.3494 bohr
 

     total cpu time spent up to now is      990.6 secs

     total energy              =   -2917.76238888 Ry
     estimated scf accuracy    <       0.00019453 Ry

     iteration # 38     ecut=    29.40 Ry     beta= 0.05
     Davidson diagonalization with overlap
     ethr =  5.00E-08,  avg # of iterations =  6.4

     negative rho (up, down):  1.787E-02 0.000E+00
 
     Adding external electric field

     Computed dipole along edir(3) : 
        Dipole                0.1146 Ry au,          0.2914 Debye
        Dipole field          0.0002 Ry au, 
 
        Potential amp.       -0.0201 Ry
        Total length         46.3494 bohr
 

     total cpu time spent up to now is     1010.7 secs

     total energy              =   -2917.76242246 Ry
     estimated scf accuracy    <       0.00011128 Ry

     iteration # 39     ecut=    29.40 Ry     beta= 0.05
     Davidson diagonalization with overlap
     ethr =  2.86E-08,  avg # of iterations =  8.1

     negative rho (up, down):  1.791E-02 0.000E+00
 
     Adding external electric field

     Computed dipole along edir(3) : 
        Dipole                0.1157 Ry au,          0.2940 Debye
        Dipole field          0.0002 Ry au, 
 
        Potential amp.       -0.0202 Ry
        Total length         46.3494 bohr
 

     total cpu time spent up to now is     1032.8 secs

     total energy              =   -2917.76247243 Ry
     estimated scf accuracy    <       0.00006190 Ry

     iteration # 40     ecut=    29.40 Ry     beta= 0.05
     Davidson diagonalization with overlap
     c_bands:  1 eigenvalues not converged
     ethr =  1.59E-08,  avg # of iterations = 11.0

     negative rho (up, down):  1.796E-02 0.000E+00
 
     Adding external electric field

     Computed dipole along edir(3) : 
        Dipole                0.1152 Ry au,          0.2927 Debye
        Dipole field          0.0002 Ry au, 
 
        Potential amp.       -0.0201 Ry
        Total length         46.3494 bohr
 

     total cpu time spent up to now is     1056.1 secs

     total energy              =   -2917.76251688 Ry
     estimated scf accuracy    <       0.00003336 Ry

     iteration # 41     ecut=    29.40 Ry     beta= 0.05
     Davidson diagonalization with overlap
     ethr =  8.57E-09,  avg # of iterations =  9.8

     negative rho (up, down):  1.812E-02 0.000E+00
 
     Adding external electric field

     Computed dipole along edir(3) : 
        Dipole                0.1154 Ry au,          0.2934 Debye
        Dipole field          0.0002 Ry au, 
 
        Potential amp.       -0.0202 Ry
        Total length         46.3494 bohr
 

     total cpu time spent up to now is     1080.2 secs

     total energy              =   -2917.76254977 Ry
     estimated scf accuracy    <       0.00002524 Ry

     iteration # 42     ecut=    29.40 Ry     beta= 0.05
     Davidson diagonalization with overlap
     c_bands:  1 eigenvalues not converged
     ethr =  6.49E-09,  avg # of iterations =  9.6

     negative rho (up, down):  1.822E-02 0.000E+00
 
     Adding external electric field

     Computed dipole along edir(3) : 
        Dipole                0.1193 Ry au,          0.3033 Debye
        Dipole field          0.0002 Ry au, 
 
        Potential amp.       -0.0209 Ry
        Total length         46.3494 bohr
 

     total cpu time spent up to now is     1107.3 secs

     total energy              =   -2917.76257735 Ry
     estimated scf accuracy    <       0.00002075 Ry

     iteration # 43     ecut=    29.40 Ry     beta= 0.05
     Davidson diagonalization with overlap
     ethr =  5.33E-09,  avg # of iterations =  7.3

     negative rho (up, down):  1.820E-02 0.000E+00
 
     Adding external electric field

     Computed dipole along edir(3) : 
        Dipole                0.1189 Ry au,          0.3022 Debye
        Dipole field          0.0002 Ry au, 
 
        Potential amp.       -0.0208 Ry
        Total length         46.3494 bohr
 

     total cpu time spent up to now is     1128.4 secs

     total energy              =   -2917.76259887 Ry
     estimated scf accuracy    <       0.00000968 Ry

     iteration # 44     ecut=    29.40 Ry     beta= 0.05
     Davidson diagonalization with overlap
     ethr =  2.49E-09,  avg # of iterations =  7.2

     negative rho (up, down):  1.820E-02 0.000E+00
 
     Adding external electric field

     Computed dipole along edir(3) : 
        Dipole                0.1193 Ry au,          0.3033 Debye
        Dipole field          0.0002 Ry au, 
 
        Potential amp.       -0.0209 Ry
        Total length         46.3494 bohr
 

     total cpu time spent up to now is     1150.7 secs

     total energy              =   -2917.76261982 Ry
     estimated scf accuracy    <       0.00000663 Ry

     iteration # 45     ecut=    29.40 Ry     beta= 0.05
     Davidson diagonalization with overlap
     ethr =  1.70E-09,  avg # of iterations =  7.8

     negative rho (up, down):  1.814E-02 0.000E+00
 
     Adding external electric field

     Computed dipole along edir(3) : 
        Dipole                0.1173 Ry au,          0.2982 Debye
        Dipole field          0.0002 Ry au, 
 
        Potential amp.       -0.0205 Ry
        Total length         46.3494 bohr
 

     total cpu time spent up to now is     1172.3 secs

     total energy              =   -2917.76263642 Ry
     estimated scf accuracy    <       0.00000553 Ry

     iteration # 46     ecut=    29.40 Ry     beta= 0.05
     Davidson diagonalization with overlap
     ethr =  1.42E-09,  avg # of iterations =  8.7

     negative rho (up, down):  1.809E-02 0.000E+00
 
     Adding external electric field

     Computed dipole along edir(3) : 
        Dipole                0.1179 Ry au,          0.2997 Debye
        Dipole field          0.0002 Ry au, 
 
        Potential amp.       -0.0206 Ry
        Total length         46.3494 bohr
 

     total cpu time spent up to now is     1197.7 secs

     total energy              =   -2917.76265165 Ry
     estimated scf accuracy    <       0.00000647 Ry

     iteration # 47     ecut=    29.40 Ry     beta= 0.05
     Davidson diagonalization with overlap
     ethr =  1.42E-09,  avg # of iterations =  7.1

     negative rho (up, down):  1.802E-02 0.000E+00
 
     Adding external electric field

     Computed dipole along edir(3) : 
        Dipole                0.1170 Ry au,          0.2974 Debye
        Dipole field          0.0002 Ry au, 
 
        Potential amp.       -0.0205 Ry
        Total length         46.3494 bohr
 

     total cpu time spent up to now is     1220.3 secs

     total energy              =   -2917.76266625 Ry
     estimated scf accuracy    <       0.00000203 Ry

     iteration # 48     ecut=    29.40 Ry     beta= 0.05
     Davidson diagonalization with overlap
     ethr =  5.23E-10,  avg # of iterations =  8.1

     negative rho (up, down):  1.801E-02 0.000E+00
 
     Adding external electric field

     Computed dipole along edir(3) : 
        Dipole                0.1171 Ry au,          0.2976 Debye
        Dipole field          0.0002 Ry au, 
 
        Potential amp.       -0.0205 Ry
        Total length         46.3494 bohr
 

     total cpu time spent up to now is     1241.8 secs

     total energy              =   -2917.76267888 Ry
     estimated scf accuracy    <       0.00000113 Ry

     iteration # 49     ecut=    29.40 Ry     beta= 0.05
     Davidson diagonalization with overlap
     ethr =  2.90E-10,  avg # of iterations =  5.6

     negative rho (up, down):  1.799E-02 0.000E+00
 
     Adding external electric field

     Computed dipole along edir(3) : 
        Dipole                0.1172 Ry au,          0.2980 Debye
        Dipole field          0.0002 Ry au, 
 
        Potential amp.       -0.0205 Ry
        Total length         46.3494 bohr
 

     total cpu time spent up to now is     1261.9 secs

     total energy              =   -2917.76269023 Ry
     estimated scf accuracy    <       0.00000061 Ry

     iteration # 50     ecut=    29.40 Ry     beta= 0.05
     Davidson diagonalization with overlap
     ethr =  1.57E-10,  avg # of iterations = 11.0

     negative rho (up, down):  1.797E-02 0.000E+00
 
     Adding external electric field

     Computed dipole along edir(3) : 
        Dipole                0.1171 Ry au,          0.2976 Debye
        Dipole field          0.0002 Ry au, 
 
        Potential amp.       -0.0205 Ry
        Total length         46.3494 bohr
 

     total cpu time spent up to now is     1292.0 secs

     total energy              =   -2917.76270051 Ry
     estimated scf accuracy    <       0.00000060 Ry

     iteration # 51     ecut=    29.40 Ry     beta= 0.05
     Davidson diagonalization with overlap
     ethr =  1.54E-10,  avg # of iterations =  1.8

     negative rho (up, down):  1.796E-02 0.000E+00
 
     Adding external electric field

     Computed dipole along edir(3) : 
        Dipole                0.1172 Ry au,          0.2978 Debye
        Dipole field          0.0002 Ry au, 
 
        Potential amp.       -0.0205 Ry
        Total length         46.3494 bohr
 

     total cpu time spent up to now is     1309.8 secs

     total energy              =   -2917.76270968 Ry
     estimated scf accuracy    <       0.00000037 Ry

     iteration # 52     ecut=    29.40 Ry     beta= 0.05
     Davidson diagonalization with overlap
     ethr =  9.61E-11,  avg # of iterations =  7.8

     negative rho (up, down):  1.795E-02 0.000E+00
 
     Adding external electric field

     Computed dipole along edir(3) : 
        Dipole                0.1169 Ry au,          0.2971 Debye
        Dipole field          0.0002 Ry au, 
 
        Potential amp.       -0.0205 Ry
        Total length         46.3494 bohr
 

     total cpu time spent up to now is     1334.7 secs

     total energy              =   -2917.76271808 Ry
     estimated scf accuracy    <       0.00000017 Ry

     iteration # 53     ecut=    29.40 Ry     beta= 0.05
     Davidson diagonalization with overlap
     ethr =  4.32E-11,  avg # of iterations =  9.1

     negative rho (up, down):  1.794E-02 0.000E+00
 
     Adding external electric field

     Computed dipole along edir(3) : 
        Dipole                0.1167 Ry au,          0.2967 Debye
        Dipole field          0.0002 Ry au, 
 
        Potential amp.       -0.0204 Ry
        Total length         46.3494 bohr
 

     total cpu time spent up to now is     1359.6 secs

     total energy              =   -2917.76272559 Ry
     estimated scf accuracy    <       0.00000008 Ry

     iteration # 54     ecut=    29.40 Ry     beta= 0.05
     Davidson diagonalization with overlap
     ethr =  1.96E-11,  avg # of iterations =  8.1

     negative rho (up, down):  1.794E-02 0.000E+00
 
     Adding external electric field

     Computed dipole along edir(3) : 
        Dipole                0.1167 Ry au,          0.2966 Debye
        Dipole field          0.0002 Ry au, 
 
        Potential amp.       -0.0204 Ry
        Total length         46.3494 bohr
 

     total cpu time spent up to now is     1385.5 secs

     total energy              =   -2917.76273231 Ry
     estimated scf accuracy    <       0.00000008 Ry

     iteration # 55     ecut=    29.40 Ry     beta= 0.05
     Davidson diagonalization with overlap
     ethr =  1.96E-11,  avg # of iterations =  7.5

     negative rho (up, down):  1.797E-02 0.000E+00
 
     Adding external electric field

     Computed dipole along edir(3) : 
        Dipole                0.1162 Ry au,          0.2952 Debye
        Dipole field          0.0002 Ry au, 
 
        Potential amp.       -0.0203 Ry
        Total length         46.3494 bohr
 

     total cpu time spent up to now is     1408.6 secs

     End of self-consistent calculation

          k = 0.0000 0.0000 0.0000 ( 18029 PWs)   bands (ev):

   -56.3264 -56.3207 -56.2900 -56.2865 -56.2207 -56.1871 -56.1608 -56.1463
   -56.1284 -56.1088 -56.0940 -56.0753 -55.9253 -55.7655 -55.3057 -55.2716
   -32.8884 -32.8041 -32.6730 -32.6685 -32.6407 -32.6288 -32.6130 -32.5990
   -32.5631 -32.5562 -32.5348 -32.5315 -32.5048 -32.4730 -32.4721 -32.4618
   -32.4572 -32.4266 -32.4259 -32.4189 -32.3938 -32.3825 -32.3779 -32.3462
   -32.3402 -32.3275 -32.3268 -32.3200 -32.3158 -32.3115 -32.2930 -32.2776
   -32.2772 -32.2650 -32.2608 -32.2309 -32.2254 -32.2178 -32.1383 -32.0492
   -31.9996 -31.8976 -31.7133 -31.6238 -31.6015 -31.5299 -31.4433 -31.3324
   -17.0861 -16.8193 -16.6531 -16.5000 -16.4653 -16.3539 -16.1884 -16.0648
   -16.0221 -16.0040 -15.9204 -15.8972 -15.8689 -15.8663 -15.8593 -15.8360
   -15.8333 -15.7775 -15.7551 -15.7384 -15.7127 -15.6931 -15.6697 -15.6355
   -15.5364 -15.4811 -15.4569 -15.3891 -15.3206 -14.9900 -13.8086 -13.6921
    -8.2619  -4.4519  -4.3594  -4.2755  -4.2308  -4.1881  -3.9727  -3.8968
    -3.8812  -3.6935  -3.5660  -3.5179  -3.5025  -3.4612  -3.4599  -3.2466
    -3.2077  -3.1442  -3.1396  -3.1220  -3.1178  -3.0905  -3.0814  -3.0609
    -3.0130  -2.9326  -2.8714  -2.7693  -2.7379  -2.6848  -2.6611  -2.6359
    -2.5995  -2.5893  -2.5808  -2.5621  -2.5473  -2.5331  -2.4450  -2.3993
    -2.2946  -2.1623  -2.1454  -2.1243  -1.9401  -1.8863  -1.8097  -1.7898
    -1.7597  -1.7460  -1.7183  -1.6333  -1.5558  -1.5229  -1.4532  -1.4492
    -1.3610  -1.3184  -1.2296  -1.2015  -1.1673  -1.0892  -1.0799  -1.0732
    -1.0220  -0.8285  -0.8031  -0.7961  -0.7749  -0.7115  -0.6554  -0.6186
    -0.5601  -0.5323  -0.4914  -0.4067  -0.3994  -0.3641  -0.3427  -0.3281
    -0.2994  -0.2943  -0.1050  -0.1004  -0.0559  -0.0434   0.0426   0.1967
     0.2895   0.3271   0.4006   0.6376   0.7160   0.7931   0.9068   1.2884
     1.3345   2.5430   2.8108   2.8830   2.8989   2.9402   3.0353   3.0463
     3.2624   3.2723   3.2986   3.3184

          k = 0.0000 0.0419 0.0000 ( 17933 PWs)   bands (ev):

   -56.3212 -56.3156 -56.2951 -56.2915 -56.2180 -56.1832 -56.1633 -56.1501
   -56.1233 -56.1039 -56.0989 -56.0801 -55.9245 -55.7662 -55.3006 -55.2765
   -32.8309 -32.7501 -32.6276 -32.6197 -32.6149 -32.6084 -32.6009 -32.5658
   -32.5568 -32.5457 -32.5418 -32.5230 -32.5123 -32.5040 -32.4825 -32.4713
   -32.4592 -32.4452 -32.4098 -32.4052 -32.3918 -32.3787 -32.3776 -32.3592
   -32.3527 -32.3361 -32.3358 -32.3333 -32.3327 -32.3265 -32.3150 -32.3111
   -32.2964 -32.2772 -32.2740 -32.2617 -32.2573 -32.2207 -32.1374 -32.0564
   -32.0016 -31.9225 -31.6591 -31.6204 -31.6045 -31.5173 -31.4559 -31.3895
   -16.9508 -16.6993 -16.5419 -16.3987 -16.3676 -16.3168 -16.2037 -16.1268
   -16.0859 -15.9929 -15.9809 -15.9401 -15.8894 -15.8507 -15.8370 -15.8170
   -15.8063 -15.8010 -15.7974 -15.7894 -15.7208 -15.7124 -15.6652 -15.5886
   -15.5752 -15.5365 -15.5153 -15.4461 -15.3495 -15.0907 -13.8126 -13.7315
    -8.2610  -4.2592  -4.2302  -4.1110  -4.0545  -4.0310  -3.8418  -3.8266
    -3.6689  -3.6247  -3.5572  -3.4962  -3.4053  -3.3814  -3.3633  -3.3030
    -3.2906  -3.2776  -3.2267  -3.2140  -3.1998  -3.1681  -3.0785  -3.0755
    -3.0536  -3.0340  -3.0045  -2.9830  -2.8357  -2.8261  -2.8124  -2.7831
    -2.7453  -2.6685  -2.5888  -2.5734  -2.4992  -2.4576  -2.3350  -2.2733
    -2.1917  -2.1333  -2.0792  -2.0069  -1.9907  -1.9307  -1.7708  -1.7128
    -1.6348  -1.6231  -1.5700  -1.5252  -1.4297  -1.3884  -1.3499  -1.3091
    -1.2769  -1.2439  -1.2345  -1.2192  -1.1515  -1.1352  -1.1009  -1.0396
    -0.9788  -0.9445  -0.8931  -0.8389  -0.8313  -0.7955  -0.7740  -0.6583
    -0.6340  -0.5651  -0.5589  -0.5217  -0.5173  -0.4851  -0.4622  -0.3897
    -0.3545  -0.2875  -0.2200  -0.1381  -0.1167  -0.1090   0.0010   0.0102
     0.0632   0.1835   0.3327   0.3336   0.6670   0.9045   0.9862   1.2423
     1.2462   2.5509   3.0054   3.0276   3.0609   3.1187   3.1638   3.2003
     3.2230   3.2629   3.3290   3.3405

          k = 0.0000-0.0839 0.0000 ( 17884 PWs)   bands (ev):

   -56.3109 -56.3053 -56.3045 -56.3025 -56.2152 -56.1781 -56.1661 -56.1551
   -56.1128 -56.1094 -56.0934 -56.0904 -55.9238 -55.7668 -55.2887 -55.2884
   -32.6943 -32.6874 -32.6184 -32.6172 -32.6012 -32.5991 -32.5976 -32.5877
   -32.5243 -32.5224 -32.5025 -32.5000 -32.4911 -32.4844 -32.4747 -32.4543
   -32.4392 -32.4281 -32.4266 -32.4251 -32.4244 -32.4143 -32.4094 -32.3876
   -32.3748 -32.3718 -32.3711 -32.3703 -32.3476 -32.3405 -32.3356 -32.3254
   -32.3239 -32.2881 -32.2840 -32.2674 -32.2661 -32.2142 -32.1365 -32.0696
   -32.0031 -31.9480 -31.6123 -31.6121 -31.5262 -31.5260 -31.4867 -31.4865
   -16.6134 -16.6049 -16.4166 -16.4139 -16.2823 -16.2739 -16.1857 -16.1741
   -16.1427 -16.0725 -16.0640 -16.0513 -15.9088 -15.8976 -15.8883 -15.8559
   -15.8082 -15.7212 -15.7110 -15.7059 -15.6979 -15.6772 -15.6671 -15.6585
   -15.6517 -15.5881 -15.5786 -15.4586 -15.3452 -15.2771 -13.7945 -13.7940
    -8.2602  -4.0795  -3.8250  -3.7796  -3.7423  -3.7244  -3.7073  -3.6971
    -3.6647  -3.6157  -3.6153  -3.6020  -3.5423  -3.4506  -3.4467  -3.4189
    -3.4048  -3.3924  -3.2936  -3.2908  -3.2734  -3.2081  -3.1860  -3.1195
    -3.0961  -3.0657  -3.0529  -2.9879  -2.9518  -2.8896  -2.8793  -2.8107
    -2.7193  -2.6906  -2.6689  -2.4277  -2.3731  -2.2784  -2.2394  -2.1800
    -2.0747  -2.0495  -2.0189  -1.9958  -1.7902  -1.7748  -1.7508  -1.7322
    -1.7059  -1.7010  -1.6939  -1.6472  -1.5745  -1.5340  -1.5133  -1.4245
    -1.4138  -1.1927  -1.1564  -1.1107  -1.0204  -0.9866  -0.9710  -0.9528
    -0.9326  -0.9156  -0.8680  -0.8099  -0.7945  -0.7828  -0.7642  -0.7348
    -0.6980  -0.6769  -0.6453  -0.6115  -0.5744  -0.5531  -0.5349  -0.5107
    -0.4917  -0.4473  -0.4114  -0.3252  -0.2251  -0.1059  -0.0903  -0.0853
    -0.0461   0.1957   0.2942   0.3112   0.4462   1.0471   1.0473   1.1786
     1.1808   2.5531   3.0930   3.1251   3.1377   3.1605   3.2450   3.2535
     3.3475   3.3846   3.4002   3.4118

          k = 0.0380 0.0000 0.0000 ( 17913 PWs)   bands (ev):

   -56.3263 -56.3206 -56.2899 -56.2864 -56.2206 -56.1871 -56.1607 -56.1462
   -56.1280 -56.1090 -56.0939 -56.0752 -55.9252 -55.7654 -55.3056 -55.2715
   -32.8885 -32.8049 -32.6788 -32.6701 -32.6405 -32.6290 -32.6128 -32.6035
   -32.5631 -32.5560 -32.5323 -32.5169 -32.5047 -32.4717 -32.4701 -32.4549
   -32.4517 -32.4277 -32.4256 -32.3993 -32.3982 -32.3940 -32.3777 -32.3442
   -32.3396 -32.3275 -32.3267 -32.3158 -32.3132 -32.3112 -32.2983 -32.2929
   -32.2773 -32.2648 -32.2612 -32.2290 -32.2254 -32.2190 -32.1410 -32.0494
   -31.9994 -31.8975 -31.7128 -31.6272 -31.5994 -31.5297 -31.4432 -31.3321
   -17.0153 -16.7328 -16.5790 -16.4825 -16.3888 -16.3542 -16.2357 -16.0798
   -16.0450 -16.0212 -16.0156 -16.0092 -15.9997 -15.9541 -15.9087 -15.8837
   -15.8621 -15.7463 -15.7189 -15.6977 -15.6612 -15.5874 -15.5691 -15.5607
   -15.5277 -15.5189 -15.5143 -15.4923 -15.3094 -14.9894 -13.8054 -13.6918
    -8.2675  -4.3729  -4.1987  -4.0721  -4.0209  -3.9534  -3.8888  -3.8824
    -3.8267  -3.7860  -3.6946  -3.5777  -3.5649  -3.4498  -3.4146  -3.4015
    -3.3226  -3.2121  -3.1637  -3.0945  -3.0688  -3.0448  -3.0014  -2.9277
    -2.9133  -2.8905  -2.8485  -2.7728  -2.7307  -2.6450  -2.6408  -2.6005
    -2.5948  -2.5564  -2.5415  -2.4959  -2.4221  -2.3637  -2.3064  -2.2819
    -2.2101  -2.1925  -2.1658  -2.1076  -2.0154  -1.9361  -1.8833  -1.8652
    -1.7683  -1.7574  -1.7345  -1.6400  -1.6207  -1.6097  -1.5845  -1.5212
    -1.4466  -1.3630  -1.2424  -1.1922  -1.1827  -1.1368  -1.1289  -1.0731
    -1.0017  -0.8823  -0.8549  -0.8187  -0.7694  -0.7300  -0.6916  -0.6553
    -0.5969  -0.5576  -0.5508  -0.5227  -0.4953  -0.4764  -0.4624  -0.4340
    -0.4039  -0.2728  -0.2655  -0.1647  -0.1106  -0.0502   0.0349   0.0603
     0.1029   0.2837   0.3620   0.6394   0.6590   0.7278   0.8761   1.1766
     1.2515   2.5379   2.8432   2.8713   3.1167   3.1297   3.1776   3.1825
     3.2251   3.2620   3.2717   3.3088

          k = 0.0380 0.0419 0.0000 ( 17878 PWs)   bands (ev):

   -56.3211 -56.3155 -56.2951 -56.2914 -56.2180 -56.1832 -56.1632 -56.1500
   -56.1230 -56.1040 -56.0988 -56.0801 -55.9245 -55.7661 -55.3005 -55.2765
   -32.8311 -32.7509 -32.6275 -32.6265 -32.6166 -32.6082 -32.6010 -32.5658
   -32.5574 -32.5492 -32.5429 -32.5132 -32.5083 -32.5041 -32.4827 -32.4612
   -32.4567 -32.4410 -32.4104 -32.3931 -32.3914 -32.3875 -32.3801 -32.3555
   -32.3503 -32.3361 -32.3356 -32.3337 -32.3263 -32.3242 -32.3150 -32.3112
   -32.2995 -32.2946 -32.2711 -32.2669 -32.2573 -32.2207 -32.1397 -32.0572
   -32.0015 -31.9224 -31.6588 -31.6230 -31.6035 -31.5171 -31.4560 -31.3894
   -16.8866 -16.6196 -16.4763 -16.3843 -16.3190 -16.2865 -16.2026 -16.1656
   -16.0864 -16.0325 -16.0016 -15.9813 -15.9438 -15.9376 -15.9233 -15.8647
   -15.8268 -15.7983 -15.7578 -15.7221 -15.6929 -15.6552 -15.6501 -15.6141
   -15.5779 -15.5680 -15.5439 -15.5157 -15.3385 -15.0906 -13.8104 -13.7318
    -8.2641  -4.1974  -4.1306  -3.9179  -3.8599  -3.7803  -3.7457  -3.7125
    -3.6530  -3.6285  -3.6149  -3.4911  -3.4256  -3.3681  -3.3254  -3.3127
    -3.2614  -3.2384  -3.2025  -3.1850  -3.1406  -3.1093  -3.0699  -3.0478
    -3.0328  -3.0014  -2.9709  -2.9548  -2.8703  -2.8214  -2.7953  -2.7364
    -2.6672  -2.6284  -2.5468  -2.4914  -2.4681  -2.3800  -2.3212  -2.3018
    -2.2692  -2.1190  -2.0752  -2.0278  -1.9255  -1.8609  -1.8169  -1.7538
    -1.7217  -1.6668  -1.6280  -1.6184  -1.5733  -1.4844  -1.4528  -1.4299
    -1.3460  -1.3130  -1.2691  -1.2534  -1.2183  -1.1666  -1.1245  -1.0786
    -1.0499  -1.0320  -1.0028  -0.9529  -0.9198  -0.8802  -0.8321  -0.8032
    -0.7616  -0.7336  -0.6667  -0.6257  -0.5792  -0.5467  -0.5010  -0.4337
    -0.4044  -0.2974  -0.2036  -0.1576  -0.1214  -0.0354   0.0084   0.0761
     0.0978   0.1287   0.2472   0.3146   0.6087   0.9155   0.9907   1.1648
     1.2271   2.5505   2.9878   3.0522   3.0879   3.1447   3.2222   3.2335
     3.3060   3.3382   3.3559   3.3926

          k = 0.0380-0.0839 0.0000 ( 17916 PWs)   bands (ev):

   -56.3109 -56.3053 -56.3045 -56.3025 -56.2152 -56.1782 -56.1661 -56.1551
   -56.1127 -56.1093 -56.0936 -56.0905 -55.9238 -55.7669 -55.2887 -55.2884
   -32.6945 -32.6876 -32.6192 -32.6179 -32.6013 -32.5991 -32.5976 -32.5878
   -32.5246 -32.5231 -32.5213 -32.5064 -32.4854 -32.4690 -32.4560 -32.4553
   -32.4396 -32.4268 -32.4256 -32.4254 -32.4233 -32.4231 -32.4181 -32.3881
   -32.3795 -32.3724 -32.3503 -32.3494 -32.3480 -32.3468 -32.3355 -32.3254
   -32.3238 -32.2882 -32.2843 -32.2792 -32.2783 -32.2143 -32.1387 -32.0703
   -32.0033 -31.9482 -31.6133 -31.6131 -31.5261 -31.5259 -31.4867 -31.4866
   -16.5714 -16.5624 -16.3630 -16.3601 -16.2632 -16.2325 -16.1828 -16.1480
   -16.1138 -16.0665 -16.0432 -16.0177 -15.9268 -15.9158 -15.9019 -15.8675
   -15.8135 -15.7708 -15.7547 -15.7434 -15.7355 -15.7322 -15.7105 -15.6828
   -15.6704 -15.6366 -15.6276 -15.4398 -15.3392 -15.2719 -13.7943 -13.7938
    -8.2628  -4.0604  -3.8204  -3.7701  -3.6654  -3.5904  -3.5512  -3.5309
    -3.4911  -3.4765  -3.4281  -3.4092  -3.4054  -3.3907  -3.3416  -3.3265
    -3.3115  -3.2941  -3.2491  -3.2087  -3.1857  -3.1622  -3.1364  -3.1233
    -3.0950  -3.0508  -3.0353  -2.9601  -2.9550  -2.9402  -2.8804  -2.8157
    -2.7665  -2.5298  -2.4607  -2.4286  -2.3255  -2.2814  -2.2329  -2.2265
    -2.1833  -2.1581  -2.1089  -2.0741  -2.0357  -2.0132  -1.9624  -1.9559
    -1.8330  -1.8220  -1.7413  -1.7072  -1.6131  -1.5370  -1.5093  -1.4905
    -1.3790  -1.3558  -1.2826  -1.2135  -1.1583  -1.1359  -1.0942  -1.0848
    -1.0675  -1.0425  -1.0058  -0.9784  -0.9282  -0.9177  -0.8958  -0.8743
    -0.8698  -0.7711  -0.7533  -0.7045  -0.5727  -0.5338  -0.4695  -0.4371
    -0.3636  -0.2527  -0.2392  -0.2141  -0.1806  -0.1615  -0.1098  -0.0193
     0.0615   0.1508   0.2332   0.3009   0.4492   1.0603   1.0609   1.1682
     1.1698   2.5503   3.0642   3.0918   3.1433   3.1759   3.2253   3.2352
     3.3818   3.4037   3.4350   3.4425

          k = 0.0380-0.0419 0.0000 ( 17876 PWs)   bands (ev):

   -56.3211 -56.3155 -56.2951 -56.2914 -56.2180 -56.1832 -56.1632 -56.1500
   -56.1230 -56.1040 -56.0988 -56.0801 -55.9245 -55.7661 -55.3005 -55.2765
   -32.8311 -32.7509 -32.6274 -32.6265 -32.6165 -32.6082 -32.6010 -32.5658
   -32.5574 -32.5492 -32.5429 -32.5137 -32.5080 -32.5041 -32.4826 -32.4611
   -32.4567 -32.4407 -32.4103 -32.3927 -32.3914 -32.3875 -32.3795 -32.3567
   -32.3511 -32.3359 -32.3355 -32.3335 -32.3264 -32.3241 -32.3150 -32.3112
   -32.2994 -32.2947 -32.2711 -32.2669 -32.2573 -32.2206 -32.1398 -32.0566
   -32.0016 -31.9226 -31.6588 -31.6230 -31.6035 -31.5171 -31.4560 -31.3894
   -16.8864 -16.6194 -16.4757 -16.3828 -16.3195 -16.2859 -16.2033 -16.1673
   -16.0868 -16.0294 -16.0092 -15.9818 -15.9462 -15.9348 -15.9238 -15.8635
   -15.8269 -15.7922 -15.7621 -15.7216 -15.6941 -15.6534 -15.6493 -15.6128
   -15.5778 -15.5683 -15.5441 -15.5161 -15.3386 -15.0905 -13.8104 -13.7318
    -8.2660  -4.1971  -4.1048  -3.9154  -3.8576  -3.7799  -3.7711  -3.7296
    -3.6652  -3.6266  -3.5908  -3.4872  -3.4282  -3.3690  -3.3270  -3.3125
    -3.2680  -3.2354  -3.2002  -3.1676  -3.1382  -3.1107  -3.0679  -3.0452
    -3.0311  -2.9950  -2.9693  -2.9556  -2.8667  -2.8245  -2.7958  -2.7535
    -2.6790  -2.6127  -2.5531  -2.4880  -2.4552  -2.3536  -2.3266  -2.3125
    -2.2630  -2.1685  -2.0693  -2.0403  -1.9245  -1.8737  -1.8085  -1.7650
    -1.7296  -1.6699  -1.6312  -1.6182  -1.5456  -1.4970  -1.4664  -1.4465
    -1.3477  -1.3193  -1.2707  -1.2528  -1.2240  -1.1708  -1.1131  -1.0729
    -1.0474  -1.0108  -0.9693  -0.9376  -0.9265  -0.8898  -0.8291  -0.8051
    -0.7568  -0.7291  -0.6658  -0.6248  -0.5889  -0.5527  -0.5034  -0.4348
    -0.3798  -0.2949  -0.2062  -0.1551  -0.1110  -0.0435   0.0090   0.0706
     0.0867   0.1235   0.2467   0.3137   0.6098   0.9155   0.9906   1.1645
     1.2277   2.5428   2.9869   3.0543   3.0895   3.1433   3.2153   3.2312
     3.3070   3.3505   3.3601   3.3818

          k =-0.0760-0.0000 0.0000 ( 17886 PWs)   bands (ev):

   -56.3262 -56.3205 -56.2899 -56.2864 -56.2205 -56.1871 -56.1606 -56.1462
   -56.1276 -56.1092 -56.0939 -56.0752 -55.9252 -55.7654 -55.3055 -55.2715
   -32.8886 -32.8059 -32.6843 -32.6717 -32.6403 -32.6292 -32.6126 -32.6078
   -32.5632 -32.5560 -32.5322 -32.5047 -32.4925 -32.4716 -32.4672 -32.4489
   -32.4461 -32.4289 -32.4256 -32.4233 -32.3943 -32.3781 -32.3515 -32.3476
   -32.3428 -32.3376 -32.3277 -32.3267 -32.3159 -32.3114 -32.3066 -32.2929
   -32.2772 -32.2646 -32.2623 -32.2264 -32.2255 -32.2216 -32.1444 -32.0497
   -31.9993 -31.8975 -31.7124 -31.6305 -31.5981 -31.5296 -31.4431 -31.3322
   -16.9229 -16.6508 -16.4748 -16.4493 -16.3605 -16.3257 -16.2177 -16.1547
   -16.1008 -16.0986 -16.0556 -16.0452 -16.0367 -16.0176 -16.0018 -15.8896
   -15.8619 -15.7792 -15.6999 -15.6779 -15.6577 -15.6528 -15.5974 -15.5750
   -15.5237 -15.4987 -15.4794 -15.4263 -15.3055 -14.9891 -13.8024 -13.6914
    -8.2729  -4.3509  -4.0899  -3.9962  -3.9133  -3.8651  -3.7435  -3.7412
    -3.7171  -3.6767  -3.5862  -3.5737  -3.5698  -3.5553  -3.4906  -3.3598
    -3.2131  -3.1504  -3.1311  -3.0717  -3.0660  -2.9246  -2.9069  -2.8760
    -2.8249  -2.8131  -2.7613  -2.7212  -2.6982  -2.6320  -2.6278  -2.6139
    -2.5842  -2.5612  -2.5535  -2.5469  -2.4861  -2.4753  -2.4190  -2.3167
    -2.1875  -2.0947  -2.0424  -1.9725  -1.9458  -1.9331  -1.9140  -1.9044
    -1.8782  -1.8499  -1.7888  -1.6935  -1.6850  -1.6389  -1.6004  -1.5689
    -1.5247  -1.5079  -1.4733  -1.3971  -1.2016  -1.1365  -1.1128  -1.0511
    -1.0061  -1.0017  -0.9807  -0.8753  -0.8621  -0.7895  -0.7515  -0.7310
    -0.6954  -0.6610  -0.5999  -0.5896  -0.5319  -0.5228  -0.5040  -0.4864
    -0.3686  -0.3282  -0.2792  -0.2228  -0.0828  -0.0745  -0.0178   0.1271
     0.1581   0.2502   0.3643   0.4017   0.6517   0.7491   0.8515   1.0468
     1.1958   2.5352   2.8450   2.8538   2.9182   3.0802   3.1375   3.2214
     3.2573   3.2672   3.3097   3.3318

          k =-0.0760 0.0419 0.0000 ( 17914 PWs)   bands (ev):

   -56.3211 -56.3156 -56.2951 -56.2914 -56.2180 -56.1832 -56.1632 -56.1501
   -56.1228 -56.1043 -56.0988 -56.0802 -55.9245 -55.7661 -55.3005 -55.2765
   -32.8314 -32.7519 -32.6331 -32.6274 -32.6183 -32.6083 -32.6012 -32.5659
   -32.5589 -32.5523 -32.5434 -32.5127 -32.5043 -32.4913 -32.4829 -32.4545
   -32.4516 -32.4368 -32.4119 -32.4106 -32.3913 -32.3811 -32.3539 -32.3499
   -32.3493 -32.3404 -32.3390 -32.3352 -32.3335 -32.3261 -32.3153 -32.3107
   -32.3099 -32.2941 -32.2754 -32.2712 -32.2577 -32.2208 -32.1424 -32.0575
   -32.0016 -31.9227 -31.6585 -31.6258 -31.6028 -31.5171 -31.4560 -31.3894
   -16.8036 -16.5398 -16.3842 -16.3533 -16.3189 -16.2400 -16.2008 -16.1326
   -16.0832 -16.0762 -16.0609 -16.0410 -15.9916 -15.9746 -15.9691 -15.8927
   -15.8702 -15.8000 -15.7633 -15.7192 -15.7106 -15.7067 -15.6509 -15.6139
   -15.6127 -15.5856 -15.5173 -15.4958 -15.3335 -15.0907 -13.8083 -13.7321
    -8.2691  -4.1814  -4.0545  -3.8769  -3.6738  -3.6525  -3.6302  -3.5403
    -3.4969  -3.4636  -3.4484  -3.4101  -3.3717  -3.3548  -3.3360  -3.2892
    -3.2737  -3.2465  -3.1969  -3.1825  -3.1142  -3.0542  -3.0327  -2.9982
    -2.9947  -2.9006  -2.8873  -2.8636  -2.8222  -2.8024  -2.7868  -2.7308
    -2.6502  -2.5824  -2.4931  -2.4545  -2.4403  -2.4226  -2.3329  -2.2995
    -2.2176  -2.1257  -2.1067  -1.9810  -1.9509  -1.8991  -1.8720  -1.8266
    -1.8028  -1.7372  -1.7060  -1.6613  -1.6377  -1.6045  -1.5577  -1.5488
    -1.5336  -1.4948  -1.4435  -1.3937  -1.3826  -1.3502  -1.2899  -1.2239
    -1.1600  -1.1050  -1.0729  -1.0541  -1.0179  -0.9763  -0.9395  -0.9259
    -0.8557  -0.7936  -0.6910  -0.6546  -0.6360  -0.4995  -0.4984  -0.4346
    -0.3988  -0.2345  -0.1364  -0.1187  -0.0108   0.0007   0.0348   0.1038
     0.1239   0.1860   0.2451   0.2590   0.4683   0.9305   0.9940   1.0880
     1.2164   2.5430   2.9628   2.9984   3.0483   3.1125   3.1501   3.1686
     3.2809   3.2954   3.3868   3.4142

          k =-0.0760-0.0839 0.0000 ( 17948 PWs)   bands (ev):

   -56.3109 -56.3053 -56.3045 -56.3025 -56.2152 -56.1782 -56.1661 -56.1551
   -56.1125 -56.1091 -56.0938 -56.0907 -55.9238 -55.7669 -55.2887 -55.2884
   -32.6948 -32.6879 -32.6199 -32.6187 -32.6014 -32.5992 -32.5976 -32.5879
   -32.5294 -32.5245 -32.5237 -32.5123 -32.4863 -32.4571 -32.4516 -32.4416
   -32.4351 -32.4302 -32.4266 -32.4251 -32.4241 -32.4232 -32.4219 -32.3923
   -32.3882 -32.3702 -32.3581 -32.3464 -32.3355 -32.3256 -32.3240 -32.3162
   -32.3144 -32.3071 -32.3056 -32.2881 -32.2841 -32.2143 -32.1407 -32.0710
   -32.0035 -31.9484 -31.6143 -31.6141 -31.5261 -31.5259 -31.4867 -31.4866
   -16.5323 -16.4919 -16.3221 -16.2593 -16.2480 -16.2362 -16.1934 -16.0847
   -16.0493 -16.0309 -16.0096 -15.9975 -15.9750 -15.9647 -15.8713 -15.8592
   -15.8559 -15.8335 -15.7946 -15.7928 -15.7895 -15.7770 -15.7612 -15.7591
   -15.7243 -15.6499 -15.6457 -15.4266 -15.3346 -15.2675 -13.7941 -13.7936
    -8.2653  -4.0511  -3.8216  -3.7710  -3.6446  -3.5531  -3.4941  -3.4740
    -3.3989  -3.2793  -3.2206  -3.2133  -3.2032  -3.1721  -3.1662  -3.1452
    -3.1350  -3.1220  -3.0792  -3.0584  -3.0426  -3.0323  -3.0066  -2.9927
    -2.9711  -2.9611  -2.9485  -2.9238  -2.8885  -2.8866  -2.8580  -2.8500
    -2.6268  -2.6117  -2.5483  -2.4989  -2.4759  -2.4650  -2.4614  -2.4037
    -2.3830  -2.3616  -2.2644  -2.1983  -2.0451  -2.0281  -2.0201  -1.9814
    -1.9485  -1.8164  -1.7577  -1.7384  -1.7067  -1.6564  -1.6470  -1.5854
    -1.5682  -1.5302  -1.4614  -1.4245  -1.3780  -1.3590  -1.2845  -1.2780
    -1.2454  -1.1918  -1.1126  -1.0916  -1.0741  -1.0620  -1.0074  -0.9676
    -0.9232  -0.8698  -0.7987  -0.7037  -0.6236  -0.4734  -0.4117  -0.3109
    -0.2503  -0.2121  -0.1584  -0.1291  -0.0431  -0.0115  -0.0092   0.0522
     0.0878   0.1879   0.1931   0.2108   0.4387   1.0784   1.0795   1.1537
     1.1546   2.5474   3.0767   3.0910   3.1029   3.1502   3.3085   3.3144
     3.3415   3.3438   3.4337   3.4669

     the Fermi energy is     2.8120 ev

!    total energy              =   -2917.76279410 Ry
     estimated scf accuracy    <       0.00000003 Ry
     smearing contrib. (-TS)   =      -0.02761178 Ry
     internal energy E=F+TS    =   -2917.73518233 Ry

     The total energy is F=E-TS. E is the sum of the following terms:
     one-electron contribution =  -24683.87216813 Ry
     hartree contribution      =   12421.71807973 Ry
     xc contribution           =    -479.08267858 Ry
     ewald contribution        =    9823.50155919 Ry
     electric field correction =       0.00002546 Ry

     convergence has been achieved in  55 iterations

     Forces acting on atoms (cartesian axes, Ry/au):

     atom    1 type  1   force =     0.00012530   -0.00025547    0.09637379
     atom    2 type  1   force =    -0.00005768   -0.00047588   -0.17576464
     atom    3 type  2   force =     0.00009102   -0.00008303   -0.02479397
     atom    4 type  2   force =     0.00006398   -0.00165952    0.05386740
     atom    5 type  2   force =    -0.01232607   -0.00181324    0.00351041
     atom    6 type  2   force =     0.01430489   -0.00152758    0.00391556
     atom    7 type  1   force =     0.00060947    0.00062464   -0.01170549
     atom    8 type  1   force =    -0.00020185    0.02054618    0.02639455
     atom    9 type  2   force =    -0.00055183    0.00047648   -0.00020253
     atom   10 type  2   force =    -0.00145520   -0.00067355   -0.01374631
     atom   11 type  2   force =     0.00038328    0.00026695   -0.00018410
     atom   12 type  2   force =    -0.00051247    0.00054038   -0.00041216
     atom   13 type  1   force =     0.00051818   -0.00032685   -0.00087860
     atom   14 type  1   force =    -0.00116555    0.00108627   -0.00111043
     atom   15 type  2   force =    -0.00001327   -0.00027686    0.00076522
     atom   16 type  2   force =     0.00022487    0.00067691   -0.00037835
     atom   17 type  2   force =    -0.00073443    0.00043096   -0.00093465
     atom   18 type  2   force =     0.00121101    0.00073861    0.00033237
     atom   19 type  1   force =    -0.00029150    0.00063010   -0.00096308
     atom   20 type  1   force =    -0.00021585    0.00016727    0.00004299
     atom   21 type  2   force =     0.00004973    0.00002258    0.10337032
     atom   22 type  2   force =     0.00044400   -0.00053790    0.00045887
     atom   23 type  2   force =    -0.07127893   -0.00004802   -0.02762677
     atom   24 type  2   force =     0.07124391    0.00034219   -0.02773061
     atom   25 type  1   force =     0.00019484   -0.00035601    0.09607644
     atom   26 type  1   force =     0.00000656   -0.00026601   -0.17592642
     atom   27 type  2   force =     0.00021777   -0.00036894   -0.02358877
     atom   28 type  2   force =     0.00006484   -0.00138285    0.05392442
     atom   29 type  2   force =    -0.01264896    0.00048216    0.00327460
     atom   30 type  2   force =     0.01459904    0.00113744    0.00365681
     atom   31 type  1   force =     0.00071959    0.00351950   -0.01313126
     atom   32 type  1   force =    -0.00000241   -0.02243911    0.02629981
     atom   33 type  2   force =     0.00005627   -0.00002243    0.00099277
     atom   34 type  2   force =    -0.00088758   -0.00054182   -0.01871181
     atom   35 type  2   force =    -0.00027313   -0.00022627    0.00018200
     atom   36 type  2   force =     0.00012818   -0.00033667   -0.00004293
     atom   37 type  1   force =     0.00038963    0.00060385   -0.00050681
     atom   38 type  1   force =    -0.00130799   -0.00095194   -0.00047932
     atom   39 type  2   force =     0.00001783    0.00108219   -0.00040094
     atom   40 type  2   force =    -0.00013805   -0.00011299   -0.00033151
     atom   41 type  2   force =     0.00050025    0.00029027    0.00005102
     atom   42 type  2   force =    -0.00081020    0.00004366   -0.00036260
     atom   43 type  1   force =    -0.00041059   -0.00017257   -0.00060051
     atom   44 type  1   force =    -0.00024381    0.00085501   -0.00078157
     atom   45 type  2   force =     0.00006414   -0.00001014    0.10336611
     atom   46 type  2   force =    -0.07126798   -0.00006263   -0.02763118
     atom   47 type  2   force =     0.07123891    0.00042569   -0.02769651
     atom   48 type  3   force =    -0.00458828    0.00131590   -0.00195767
     atom   49 type  4   force =     0.00725265   -0.00457078    0.00081188
     atom   50 type  5   force =    -0.00422273    0.00339637    0.00144760
     atom   51 type  5   force =     0.00088621   -0.00020245   -0.00053341

     Total force =     0.369075     Total SCF correction =     0.000535
  @ DRIVER MODE: Message from server: STATUS
  @ DRIVER MODE: Message from server: GETFORCE
  @ DRIVER MODE: Returning v,forces,stress,ensemble 

     Writing output data file ./calc.save/
  @ DRIVER MODE: Message from server: EXIT
  @ DRIVE MODE: Exiting  
 
     init_run     :     17.92s CPU     18.26s WALL (       1 calls)
     electrons    :   1361.34s CPU   1390.13s WALL (       1 calls)
     forces       :      3.90s CPU      4.06s WALL (       1 calls)

     Called by init_run:
     wfcinit      :      7.80s CPU      7.91s WALL (       1 calls)
     potinit      :      9.07s CPU      9.17s WALL (       1 calls)
     hinit0       :      0.48s CPU      0.49s WALL (       1 calls)

     Called by electrons:
     c_bands      :   1130.66s CPU   1144.88s WALL (      55 calls)
     sum_band     :    153.74s CPU    160.64s WALL (      55 calls)
     v_of_rho     :     59.73s CPU     61.64s WALL (      56 calls)
     newd         :     23.17s CPU     29.00s WALL (      56 calls)
     mix_rho      :      2.17s CPU      2.20s WALL (      55 calls)
     vdW_kernel   :      7.59s CPU      7.62s WALL (       1 calls)

     Called by c_bands:
     init_us_2    :      8.81s CPU      8.85s WALL (    1120 calls)
     cegterg      :   1105.80s CPU   1119.66s WALL (     550 calls)

     Called by *egterg:
     cdiaghg      :    143.68s CPU    144.29s WALL (    5403 calls)
     h_psi        :    626.01s CPU    634.51s WALL (    5413 calls)
     s_psi        :     84.36s CPU     84.63s WALL (    5413 calls)
     g_psi        :      2.24s CPU      2.25s WALL (    4853 calls)

     Called by h_psi:
     h_psi:calbec :     78.60s CPU     79.66s WALL (    5413 calls)
     vloc_psi     :    459.90s CPU    463.75s WALL (    5413 calls)
     add_vuspsi   :     84.25s CPU     85.58s WALL (    5413 calls)

     General routines
     calbec       :    105.16s CPU    106.30s WALL (    6003 calls)
     fft          :     32.20s CPU     32.34s WALL (    3528 calls)
     ffts         :      0.19s CPU      0.19s WALL (     111 calls)
     fftw         :    508.01s CPU    512.13s WALL (  703084 calls)
     interpolate  :      0.62s CPU      0.63s WALL (      56 calls)
     davcio       :      0.00s CPU      0.39s WALL (      10 calls)
 
     Parallel routines
 
     PWSCF        :  23m 3.41s CPU  23m33.65s WALL

 
   This run was terminated on:  17:48:45  23Aug2021            

=------------------------------------------------------------------------------=
   JOB DONE.
=------------------------------------------------------------------------------=
