
     Program PWSCF v.6.7GPU starts on 24Sep2021 at 10:25: 7 

     This program is part of the open-source Quantum ESPRESSO suite
     for quantum simulation of materials; please cite
         "P. Giannozzi et al., J. Phys.:Condens. Matter 21 395502 (2009);
         "P. Giannozzi et al., J. Phys.:Condens. Matter 29 465901 (2017);
         "P. Giannozzi et al., J. Chem. Phys. 152 154105 (2020);
          URL http://www.quantum-espresso.org", 
     in publications or presentations arising from this work. More details at
     http://www.quantum-espresso.org/quote

     Parallel version (MPI), running on     8 processors

     MPI processes distributed on     1 nodes
     R & G space division:  proc/nbgrp/npool/nimage =       8
     Reading input from /storage/home/hcoda1/3/ntian30/research/carbon/CxH_vib/H2O_calc/ads_slab/CH2NHNH2HO_a/out_0052/pw.inp
Warning: card &CELL ignored
Warning: card   CELL_DYNAMICS='IPI', ignored
Warning: card / ignored

     Current dimensions of program PWSCF are:
     Max number of different atomic species (ntypx) = 10
     Max number of k-points (npk) =  40000
     Max angular momentum in pseudopotentials (lmaxx) =  3
     Presently no symmetry can be used with electric field

     Message from routine cell_base_init:
     DEPRECATED: use true lattice parameter, not A to a.u. conversion factor

     **************************************************************************
     Initializing libbeef V0.1.2 with the BEEF-vdW functional.
     Citation: Wellendorff et al., PRB 85, 235149 (2012).
     **************************************************************************


     IMPORTANT: XC functional enforced from input :
     Exchange-correlation= BEEF-VDW
                           (   1   4  43  14   2   0   0)
     Any further DFT definition will be discarded
     Please, verify this is what you really want


     Subspace diagonalization in iterative solution of the eigenvalue problem:
     one sub-group per band group will be used
     scalapack distributed-memory algorithm (size of sub-group:  2*  2 procs)

  @ DRIVER MODE: Connecting to 
 qe_1139763_2947313.sched-torque.pace.gatech.edueyhq5p93_scratch
  using UNIX socket
  @ DRIVER MODE: Message from server: STATUS
  @ DRIVER MODE: Message from server: INIT
  @ DRIVER MODE: Receiving replica           0          -1
  @ DRIVER MODE: Receiving encoded integer          25
  @ DRIVER MODE:  SCF:  T  FORCE:  T  STRESS:  F  VC:  F  ENSEMBLE:  F
  @ DRIVER MODE:  SCF:  T  FORCE:  T  STRESS:  F  VC:  F  ENSEMBLE:  F
 
     Parallelization info
     --------------------
     sticks:   dense  smooth     PW     G-vecs:    dense   smooth      PW
     Min         409     164     47                70857    17926    2743
     Max         411     165     48                70858    17931    2751
     Sum        3275    1317    379               566857   143421   21985
 
     Using Slab Decomposition
 


     bravais-lattice index     =            0
     lattice parameter (alat)  =       1.8897  a.u.
     unit-cell volume          =    6658.9804 (a.u.)^3
     number of atoms/cell      =           57
     number of atomic types    =            5
     number of electrons       =       404.00
     number of Kohn-Sham states=          212
     kinetic-energy cutoff     =      29.3995  Ry
     charge density cutoff     =     293.9946  Ry
     scf convergence threshold =      7.3E-08
     mixing beta               =       0.0500
     number of iterations used =            8  plain     mixing
     Exchange-correlation= BEEF-VDW
                           (   1   4  43  14   2   0   0)

     celldm(1)=   1.889726  celldm(2)=   0.000000  celldm(3)=   0.000000
     celldm(4)=   0.000000  celldm(5)=   0.000000  celldm(6)=   0.000000

     crystal axes: (cart. coord. in units of alat)
               a(1) = (   6.579727   0.000000   0.000000 )  
               a(2) = (  -0.000775   5.961596   0.000000 )  
               a(3) = (   0.000000   0.000000  25.155947 )  

     reciprocal axes: (cart. coord. in units 2 pi/alat)
               b(1) = (  0.151982  0.000020  0.000000 )  
               b(2) = (  0.000000  0.167740  0.000000 )  
               b(3) = (  0.000000  0.000000  0.039752 )  


     PseudoPot. # 1 for Ti read from file:
     /storage/coda1/p-amedford6/0/shared/rich_project_chbe-medford/medford-share/data/pseudos_module/espresso/nninc/pbe/van/Ti.UPF
     MD5 check sum: 8e4df49b7f0d34bbd5052bf3f5ea0213
     Pseudo is Ultrasoft, Zval = 12.0
     Generated by new atomic code, or converted to UPF format
     Using radial grid of  851 points,  6 beta functions with: 
                l(1) =   0
                l(2) =   0
                l(3) =   1
                l(4) =   1
                l(5) =   2
                l(6) =   2
     Q(r) pseudized with  8 coefficients,  rinner =    1.000   1.000   1.000
                                                       1.000   1.000

     PseudoPot. # 2 for O  read from file:
     /storage/coda1/p-amedford6/0/shared/rich_project_chbe-medford/medford-share/data/pseudos_module/espresso/nninc/pbe/van/O.UPF
     MD5 check sum: 78c19812648e8988a0fe644b0f25305e
     Pseudo is Ultrasoft, Zval =  6.0
     Generated by new atomic code, or converted to UPF format
     Using radial grid of  737 points,  4 beta functions with: 
                l(1) =   0
                l(2) =   0
                l(3) =   1
                l(4) =   1
     Q(r) pseudized with  8 coefficients,  rinner =    0.800   0.800   0.800


     PseudoPot. # 3 for N  read from file:
     /storage/coda1/p-amedford6/0/shared/rich_project_chbe-medford/medford-share/data/pseudos_module/espresso/nninc/pbe/van/N.UPF
     MD5 check sum: 90d10febe142ad51ac9d5be1deb811c4
     Pseudo is Ultrasoft, Zval =  5.0
     Generated by new atomic code, or converted to UPF format
     Using radial grid of  729 points,  4 beta functions with: 
                l(1) =   0
                l(2) =   0
                l(3) =   1
                l(4) =   1
     Q(r) pseudized with  8 coefficients,  rinner =    0.800   0.800   0.800


     PseudoPot. # 4 for C  read from file:
     /storage/coda1/p-amedford6/0/shared/rich_project_chbe-medford/medford-share/data/pseudos_module/espresso/nninc/pbe/van/C.UPF
     MD5 check sum: 1a69bf6b8db32088f5b2163dbdb77a27
     Pseudo is Ultrasoft, Zval =  4.0
     Generated by new atomic code, or converted to UPF format
     Using radial grid of  721 points,  4 beta functions with: 
                l(1) =   0
                l(2) =   0
                l(3) =   1
                l(4) =   1
     Q(r) pseudized with  8 coefficients,  rinner =    0.800   0.800   0.800


     PseudoPot. # 5 for H  read from file:
     /storage/coda1/p-amedford6/0/shared/rich_project_chbe-medford/medford-share/data/pseudos_module/espresso/nninc/pbe/van/H.UPF
     MD5 check sum: b5ee9d7bfd3a09ee7748110bda690ff7
     Pseudo is Ultrasoft, Zval =  1.0
     Generated by new atomic code, or converted to UPF format
     Using radial grid of  615 points,  1 beta functions with: 
                l(1) =   0
     Q(r) pseudized with  8 coefficients,  rinner =    0.800

     atomic species   valence    mass     pseudopotential
        Ti1           12.00    47.86700     Ti( 1.00)
        O1             6.00    15.99900     O ( 1.00)
        N1             5.00    14.00700     N ( 1.00)
        C1             4.00    12.01100     C ( 1.00)
        H1             1.00     1.00800     H ( 1.00)

     No symmetry found



   Cartesian axes

     site n.     atom                  positions (alat units)
         1           Ti1 tau(   1) = (   0.0004258   2.9801865   6.0000000  )
         2           Ti1 tau(   2) = (   3.2906075   1.4906267   6.0002472  )
         3           O1  tau(   3) = (   0.0006271   0.0005054   7.9858123  )
         4           O1  tau(   4) = (   3.2906025   0.0005020   7.3038282  )
         5           O1  tau(   5) = (   4.5942328   1.4918067   9.2879030  )
         6           O1  tau(   6) = (   1.9868534   1.4903216   9.2879459  )
         7           Ti1 tau(   7) = (   3.2907910   2.8959150   9.1758416  )
         8           Ti1 tau(   8) = (   0.0015273   1.4827037   9.2680791  )
         9           O1  tau(   9) = (   3.2769995   5.9424463  11.3879711  )
        10           O1  tau(  10) = (   0.0116148   5.9584955  10.6183126  )
        11           O1  tau(  11) = (   1.2559300   1.4809235  12.6914295  )
        12           O1  tau(  12) = (   5.2914439   1.4888754  12.6824943  )
        13           Ti1 tau(  13) = (   6.5693074   2.9549812  12.5071532  )
        14           Ti1 tau(  14) = (   3.2720578   1.2926143  12.7373905  )
        15           O1  tau(  15) = (   6.5263330   5.9075480  14.6758232  )
        16           O1  tau(  16) = (   3.2750150   0.0724425  14.0538047  )
        17           O1  tau(  17) = (   4.5404297   1.6145126  16.1214498  )
        18           O1  tau(  18) = (   1.9612862   1.5681812  16.1371236  )
        19           Ti1 tau(  19) = (   3.2615978   3.0295928  15.7214328  )
        20           Ti1 tau(  20) = (   6.4910920   1.3289874  15.8500745  )
        21           O1  tau(  21) = (   3.2904802   0.0005063   4.7018136  )
        22           O1  tau(  22) = (   6.5149858   0.1606772  17.2625446  )
        23           O1  tau(  23) = (   1.3043587   1.4918075   6.0039043  )
        24           O1  tau(  24) = (   5.2767064   1.4903225   6.0039473  )
        25           Ti1 tau(  25) = (   0.0000382   5.9609847   6.0000000  )
        26           Ti1 tau(  26) = (   3.2902200   4.4714249   6.0002472  )
        27           O1  tau(  27) = (   0.0002396   2.9813036   7.9858123  )
        28           O1  tau(  28) = (   3.2902150   2.9813002   7.3038282  )
        29           O1  tau(  29) = (   4.5938453   4.4726049   9.2879030  )
        30           O1  tau(  30) = (   1.9864658   4.4711199   9.2879459  )
        31           Ti1 tau(  31) = (   3.2891106   5.8743827   9.1763621  )
        32           Ti1 tau(  32) = (   0.0006254   4.4649316   9.2693709  )
        33           O1  tau(  33) = (   3.2749377   2.9871965  11.3337082  )
        34           O1  tau(  34) = (   0.0092240   2.9805883  10.6323155  )
        35           O1  tau(  35) = (   1.2597673   4.4587344  12.6634223  )
        36           O1  tau(  36) = (   5.2866262   4.4511231  12.6493885  )
        37           Ti1 tau(  37) = (   6.5604603   5.9292220  12.4937940  )
        38           Ti1 tau(  38) = (   3.2724722   4.3622713  12.4512132  )
        39           O1  tau(  39) = (   6.5737517   3.0258615  14.9025115  )
        40           O1  tau(  40) = (   3.2593133   3.0063273  13.9441864  )
        41           O1  tau(  41) = (   4.5441350   4.4310557  16.1689449  )
        42           O1  tau(  42) = (   1.9655774   4.4762250  16.2070539  )
        43           Ti1 tau(  43) = (   3.1776431   0.0563557  16.2565842  )
        44           Ti1 tau(  44) = (   6.5216753   4.5226504  15.9439936  )
        45           O1  tau(  45) = (   3.2900926   2.9813045   4.7018136  )
        46           O1  tau(  46) = (   1.3039711   4.4726057   6.0039043  )
        47           O1  tau(  47) = (   5.2763189   4.4711207   6.0039473  )
        48           N1  tau(  48) = (   0.8157702   2.5297039  18.7633901  )
        49           N1  tau(  49) = (   6.4302604   3.3580032  18.1334362  )
        50           C1  tau(  50) = (   1.9549655   3.0231469  19.2293773  )
        51           H1  tau(  51) = (   2.0901252   4.0892486  19.3254668  )
        52           H1  tau(  52) = (   2.7239663   2.3052050  19.4587972  )
        53           H1  tau(  53) = (   0.7490178   1.5515861  18.4517582  )
        54           H1  tau(  54) = (   6.4535031   4.2829477  18.5696568  )
        55           H1  tau(  55) = (   5.5068980   2.9516776  18.2836589  )
        56           O1  tau(  56) = (   3.3967406   0.1008776  18.1493316  )
        57           H1  tau(  57) = (   4.3453859   0.1513423  18.3540861  )

     number of k points=    10  Fermi-Dirac smearing, width (Ry)=  0.0073
                       cart. coord. in units 2pi/alat
        k(    1) = (   0.0000000   0.0000000   0.0000000), wk =   0.1250000
        k(    2) = (   0.0000000   0.0419351   0.0000000), wk =   0.2500000
        k(    3) = (   0.0000000  -0.0838702   0.0000000), wk =   0.1250000
        k(    4) = (   0.0379955   0.0000049   0.0000000), wk =   0.2500000
        k(    5) = (   0.0379955   0.0419400   0.0000000), wk =   0.2500000
        k(    6) = (   0.0379955  -0.0838652   0.0000000), wk =   0.2500000
        k(    7) = (   0.0379955  -0.0419301   0.0000000), wk =   0.2500000
        k(    8) = (  -0.0759910  -0.0000099   0.0000000), wk =   0.1250000
        k(    9) = (  -0.0759910   0.0419252   0.0000000), wk =   0.2500000
        k(   10) = (  -0.0759910  -0.0838800   0.0000000), wk =   0.1250000

     Dense  grid:   566857 G-vectors     FFT dimensions: (  72,  64, 270)

     Smooth grid:   143421 G-vectors     FFT dimensions: (  45,  40, 180)

     Estimated max dynamical RAM per process >     458.07 MB

     Estimated total dynamical RAM >       3.58 GB
     Cannot read rho : file not found

     Initial potential from superposition of free atoms

     starting charge  387.99913, renormalised to  404.00000

     negative rho (up, down):  1.608E-02 0.000E+00


     %%%%%%%%%%%%%%%%%%%%%%%%%%%%%%%%%%%%%%%%%%%%%%%%%%%%%%%%%%%%%%%%%%%%%%%%
     %                                                                      %
     % You are using vdW-DF, which was implemented by the Thonhauser group. %
     % Please cite the following two papers that made this development      %
     % possible and the two reviews that describe the various versions:     %
     %                                                                      %
     %   T. Thonhauser et al., PRL 115, 136402 (2015).                      %
     %   T. Thonhauser et al., PRB 76, 125112 (2007).                       %
     %   K. Berland et al., Rep. Prog. Phys. 78, 066501 (2015).             %
     %   D.C. Langreth et al., J. Phys.: Condens. Matter 21, 084203 (2009). %
     %                                                                      %
     %                                                                      %
     % If you are calculating the stress with vdW-DF, please also cite:     %
     %                                                                      %
     %   R. Sabatini et al., J. Phys.: Condens. Matter 24, 424209 (2012).   %
     %                                                                      %
     %%%%%%%%%%%%%%%%%%%%%%%%%%%%%%%%%%%%%%%%%%%%%%%%%%%%%%%%%%%%%%%%%%%%%%%%


 
     Adding external electric field

     Computed dipole along edir(3) : 
        Dipole              -13.8429 Ry au,        -35.1851 Debye
        Dipole field         -0.0261 Ry au, 
 
        Potential amp.        2.4216 Ry
        Total length         46.3494 bohr
 
     Starting wfcs are  306 atomic wfcs
  @ DRIVER MODE: Message from server: STATUS
  @ DRIVER MODE: Message from server: POSDATA
  @ DRIVER MODE: Reading and sharing cell 
  @ DRIVER MODE: Reading and sharing positions 
  @ DRIVER MODE: Received positions 

     total cpu time spent up to now is       76.7 secs

     Self-consistent Calculation

     iteration #  1     ecut=    29.40 Ry     beta= 0.05
     Davidson diagonalization with overlap
     c_bands:  1 eigenvalues not converged
     c_bands:  2 eigenvalues not converged
     c_bands:  1 eigenvalues not converged
     c_bands:  1 eigenvalues not converged
     c_bands:  1 eigenvalues not converged
     c_bands:  2 eigenvalues not converged
     c_bands:  5 eigenvalues not converged
     c_bands:  3 eigenvalues not converged
     ethr =  1.00E-05,  avg # of iterations = 32.8

     negative rho (up, down):  8.634E-03 0.000E+00
 
     Adding external electric field

     Computed dipole along edir(3) : 
        Dipole               59.8884 Ry au,        152.2211 Debye
        Dipole field          0.1130 Ry au, 
 
        Potential amp.      -10.4766 Ry
        Total length         46.3494 bohr
 

     total cpu time spent up to now is      142.5 secs

     total energy              =   -2231.89895529 Ry
     estimated scf accuracy    <    8426.10831515 Ry

     iteration #  2     ecut=    29.40 Ry     beta= 0.05
     Davidson diagonalization with overlap
     ethr =  1.00E-02,  avg # of iterations = 26.1

     negative rho (up, down):  3.183E-04 0.000E+00
 
     Adding external electric field

     Computed dipole along edir(3) : 
        Dipole                1.6088 Ry au,          4.0891 Debye
        Dipole field          0.0030 Ry au, 
 
        Potential amp.       -0.2814 Ry
        Total length         46.3494 bohr
 

     total cpu time spent up to now is      251.9 secs

     total energy              =   -2499.51130009 Ry
     estimated scf accuracy    <   73881.36196249 Ry

     iteration #  3     ecut=    29.40 Ry     beta= 0.05
     Davidson diagonalization with overlap
     c_bands:  1 eigenvalues not converged
     ethr =  1.00E-02,  avg # of iterations = 16.6

     negative rho (up, down):  3.709E-04 0.000E+00
 
     Adding external electric field

     Computed dipole along edir(3) : 
        Dipole               -2.3144 Ry au,         -5.8827 Debye
        Dipole field         -0.0044 Ry au, 
 
        Potential amp.        0.4049 Ry
        Total length         46.3494 bohr
 

     total cpu time spent up to now is      314.0 secs

     total energy              =   -2960.36009710 Ry
     estimated scf accuracy    <    7876.23579861 Ry

     iteration #  4     ecut=    29.40 Ry     beta= 0.05
     Davidson diagonalization with overlap
     ethr =  1.00E-02,  avg # of iterations =  9.9

     negative rho (up, down):  3.919E-04 0.000E+00
 
     Adding external electric field

     Computed dipole along edir(3) : 
        Dipole               -4.3068 Ry au,        -10.9468 Debye
        Dipole field         -0.0081 Ry au, 
 
        Potential amp.        0.7534 Ry
        Total length         46.3494 bohr
 

     total cpu time spent up to now is      342.2 secs

     total energy              =   -2965.50280336 Ry
     estimated scf accuracy    <    2493.99209326 Ry

     iteration #  5     ecut=    29.40 Ry     beta= 0.05
     Davidson diagonalization with overlap
     c_bands:  4 eigenvalues not converged
     ethr =  1.00E-02,  avg # of iterations =  9.4

     negative rho (up, down):  4.344E-04 0.000E+00
 
     Adding external electric field

     Computed dipole along edir(3) : 
        Dipole               -6.3926 Ry au,        -16.2485 Debye
        Dipole field         -0.0121 Ry au, 
 
        Potential amp.        1.1183 Ry
        Total length         46.3494 bohr
 

     total cpu time spent up to now is      359.8 secs

     total energy              =   -2951.77284520 Ry
     estimated scf accuracy    <    1673.56284456 Ry

     iteration #  6     ecut=    29.40 Ry     beta= 0.05
     Davidson diagonalization with overlap
     ethr =  1.00E-02,  avg # of iterations = 10.4

     negative rho (up, down):  4.352E-04 0.000E+00
 
     Adding external electric field

     Computed dipole along edir(3) : 
        Dipole               -5.7062 Ry au,        -14.5036 Debye
        Dipole field         -0.0108 Ry au, 
 
        Potential amp.        0.9982 Ry
        Total length         46.3494 bohr
 

     total cpu time spent up to now is      386.4 secs

     total energy              =   -2978.40896749 Ry
     estimated scf accuracy    <      28.42026724 Ry

     iteration #  7     ecut=    29.40 Ry     beta= 0.05
     Davidson diagonalization with overlap
     ethr =  7.03E-03,  avg # of iterations =  2.5

     negative rho (up, down):  4.389E-04 0.000E+00
 
     Adding external electric field

     Computed dipole along edir(3) : 
        Dipole               -4.6018 Ry au,        -11.6966 Debye
        Dipole field         -0.0087 Ry au, 
 
        Potential amp.        0.8050 Ry
        Total length         46.3494 bohr
 

     total cpu time spent up to now is      400.2 secs

     total energy              =   -2978.37875776 Ry
     estimated scf accuracy    <      21.50055908 Ry

     iteration #  8     ecut=    29.40 Ry     beta= 0.05
     Davidson diagonalization with overlap
     ethr =  5.32E-03,  avg # of iterations =  1.0

     negative rho (up, down):  4.824E-04 0.000E+00
 
     Adding external electric field

     Computed dipole along edir(3) : 
        Dipole               -0.4674 Ry au,         -1.1881 Debye
        Dipole field         -0.0009 Ry au, 
 
        Potential amp.        0.0818 Ry
        Total length         46.3494 bohr
 

     total cpu time spent up to now is      412.9 secs

     total energy              =   -2976.90875809 Ry
     estimated scf accuracy    <      18.86514010 Ry

     iteration #  9     ecut=    29.40 Ry     beta= 0.05
     Davidson diagonalization with overlap
     c_bands:  1 eigenvalues not converged
     ethr =  4.67E-03,  avg # of iterations = 10.4

     negative rho (up, down):  5.780E-04 0.000E+00
 
     Adding external electric field

     Computed dipole along edir(3) : 
        Dipole                1.9846 Ry au,          5.0443 Debye
        Dipole field          0.0037 Ry au, 
 
        Potential amp.       -0.3472 Ry
        Total length         46.3494 bohr
 

     total cpu time spent up to now is      434.5 secs

     total energy              =   -2998.98012080 Ry
     estimated scf accuracy    <    1103.13422208 Ry

     iteration # 10     ecut=    29.40 Ry     beta= 0.05
     Davidson diagonalization with overlap
     ethr =  4.67E-03,  avg # of iterations = 12.6

     negative rho (up, down):  7.502E-04 0.000E+00
 
     Adding external electric field

     Computed dipole along edir(3) : 
        Dipole                3.1650 Ry au,          8.0446 Debye
        Dipole field          0.0060 Ry au, 
 
        Potential amp.       -0.5537 Ry
        Total length         46.3494 bohr
 

     total cpu time spent up to now is      459.3 secs

     total energy              =   -3016.61775658 Ry
     estimated scf accuracy    <    3592.93543085 Ry

     iteration # 11     ecut=    29.40 Ry     beta= 0.05
     Davidson diagonalization with overlap
     ethr =  4.67E-03,  avg # of iterations =  3.0

     negative rho (up, down):  8.137E-04 0.000E+00
 
     Adding external electric field

     Computed dipole along edir(3) : 
        Dipole                1.2048 Ry au,          3.0624 Debye
        Dipole field          0.0023 Ry au, 
 
        Potential amp.       -0.2108 Ry
        Total length         46.3494 bohr
 

     total cpu time spent up to now is      473.2 secs

     total energy              =   -2990.29940604 Ry
     estimated scf accuracy    <    3730.27873567 Ry

     iteration # 12     ecut=    29.40 Ry     beta= 0.05
     Davidson diagonalization with overlap
     ethr =  4.67E-03,  avg # of iterations =  3.2

     negative rho (up, down):  8.130E-04 0.000E+00
 
     Adding external electric field

     Computed dipole along edir(3) : 
        Dipole                1.0671 Ry au,          2.7123 Debye
        Dipole field          0.0020 Ry au, 
 
        Potential amp.       -0.1867 Ry
        Total length         46.3494 bohr
 

     total cpu time spent up to now is      487.4 secs

     total energy              =   -2990.73333226 Ry
     estimated scf accuracy    <    2844.01325683 Ry

     iteration # 13     ecut=    29.40 Ry     beta= 0.05
     Davidson diagonalization with overlap
     ethr =  4.67E-03,  avg # of iterations =  1.0

     negative rho (up, down):  8.151E-04 0.000E+00
 
     Adding external electric field

     Computed dipole along edir(3) : 
        Dipole                0.4685 Ry au,          1.1907 Debye
        Dipole field          0.0009 Ry au, 
 
        Potential amp.       -0.0819 Ry
        Total length         46.3494 bohr
 

     total cpu time spent up to now is      500.0 secs

     total energy              =   -2983.82730257 Ry
     estimated scf accuracy    <    2833.47131982 Ry

     iteration # 14     ecut=    29.40 Ry     beta= 0.05
     Davidson diagonalization with overlap
     ethr =  4.67E-03,  avg # of iterations =  2.2

     negative rho (up, down):  8.399E-04 0.000E+00
 
     Adding external electric field

     Computed dipole along edir(3) : 
        Dipole               -1.7835 Ry au,         -4.5331 Debye
        Dipole field         -0.0034 Ry au, 
 
        Potential amp.        0.3120 Ry
        Total length         46.3494 bohr
 

     total cpu time spent up to now is      513.5 secs

     total energy              =   -2961.01459448 Ry
     estimated scf accuracy    <    2617.01755274 Ry

     iteration # 15     ecut=    29.40 Ry     beta= 0.05
     Davidson diagonalization with overlap
     ethr =  4.67E-03,  avg # of iterations = 14.6

     negative rho (up, down):  8.175E-04 0.000E+00
 
     Adding external electric field

     Computed dipole along edir(3) : 
        Dipole               -3.3994 Ry au,         -8.6404 Debye
        Dipole field         -0.0064 Ry au, 
 
        Potential amp.        0.5947 Ry
        Total length         46.3494 bohr
 

     total cpu time spent up to now is      544.0 secs

     total energy              =   -2975.65366437 Ry
     estimated scf accuracy    <      14.94832558 Ry

     iteration # 16     ecut=    29.40 Ry     beta= 0.05
     Davidson diagonalization with overlap
     ethr =  3.70E-03,  avg # of iterations =  8.2

     negative rho (up, down):  8.052E-04 0.000E+00
 
     Adding external electric field

     Computed dipole along edir(3) : 
        Dipole               -2.7815 Ry au,         -7.0698 Debye
        Dipole field         -0.0052 Ry au, 
 
        Potential amp.        0.4866 Ry
        Total length         46.3494 bohr
 

     total cpu time spent up to now is      560.3 secs

     total energy              =   -2976.07085765 Ry
     estimated scf accuracy    <      52.47138877 Ry

     iteration # 17     ecut=    29.40 Ry     beta= 0.05
     Davidson diagonalization with overlap
     ethr =  3.70E-03,  avg # of iterations =  1.7

     negative rho (up, down):  8.477E-04 0.000E+00
 
     Adding external electric field

     Computed dipole along edir(3) : 
        Dipole               -3.0555 Ry au,         -7.7663 Debye
        Dipole field         -0.0058 Ry au, 
 
        Potential amp.        0.5345 Ry
        Total length         46.3494 bohr
 

     total cpu time spent up to now is      573.7 secs

     total energy              =   -2976.05573679 Ry
     estimated scf accuracy    <      31.28436813 Ry

     iteration # 18     ecut=    29.40 Ry     beta= 0.05
     Davidson diagonalization with overlap
     ethr =  3.70E-03,  avg # of iterations =  2.7

     negative rho (up, down):  1.042E-03 0.000E+00
 
     Adding external electric field

     Computed dipole along edir(3) : 
        Dipole               -1.9222 Ry au,         -4.8858 Debye
        Dipole field         -0.0036 Ry au, 
 
        Potential amp.        0.3363 Ry
        Total length         46.3494 bohr
 

     total cpu time spent up to now is      587.5 secs

     total energy              =   -2975.60883031 Ry
     estimated scf accuracy    <      46.02977461 Ry

     iteration # 19     ecut=    29.40 Ry     beta= 0.05
     Davidson diagonalization with overlap
     ethr =  3.70E-03,  avg # of iterations =  2.4

     negative rho (up, down):  1.119E-03 0.000E+00
 
     Adding external electric field

     Computed dipole along edir(3) : 
        Dipole               -1.7303 Ry au,         -4.3980 Debye
        Dipole field         -0.0033 Ry au, 
 
        Potential amp.        0.3027 Ry
        Total length         46.3494 bohr
 

     total cpu time spent up to now is      601.4 secs

     total energy              =   -2975.99931286 Ry
     estimated scf accuracy    <      19.96374853 Ry

     iteration # 20     ecut=    29.40 Ry     beta= 0.05
     Davidson diagonalization with overlap
     ethr =  3.70E-03,  avg # of iterations =  1.1

     negative rho (up, down):  1.047E-02 0.000E+00
 
     Adding external electric field

     Computed dipole along edir(3) : 
        Dipole                2.5973 Ry au,          6.6016 Debye
        Dipole field          0.0049 Ry au, 
 
        Potential amp.       -0.4544 Ry
        Total length         46.3494 bohr
 

     total cpu time spent up to now is      614.2 secs

     total energy              =   -2973.61481692 Ry
     estimated scf accuracy    <      28.75408800 Ry

     iteration # 21     ecut=    29.40 Ry     beta= 0.05
     Davidson diagonalization with overlap
     c_bands:  2 eigenvalues not converged
     c_bands:  1 eigenvalues not converged
     ethr =  3.70E-03,  avg # of iterations = 15.8

     negative rho (up, down):  4.162E-03 0.000E+00
 
     Adding external electric field

     Computed dipole along edir(3) : 
        Dipole                1.9331 Ry au,          4.9135 Debye
        Dipole field          0.0036 Ry au, 
 
        Potential amp.       -0.3382 Ry
        Total length         46.3494 bohr
 

     total cpu time spent up to now is      634.8 secs

     total energy              =   -2977.34381570 Ry
     estimated scf accuracy    <     309.58747476 Ry

     iteration # 22     ecut=    29.40 Ry     beta= 0.05
     Davidson diagonalization with overlap
     ethr =  3.70E-03,  avg # of iterations =  1.6

     negative rho (up, down):  1.610E-03 0.000E+00
 
     Adding external electric field

     Computed dipole along edir(3) : 
        Dipole                0.7098 Ry au,          1.8040 Debye
        Dipole field          0.0013 Ry au, 
 
        Potential amp.       -0.1242 Ry
        Total length         46.3494 bohr
 

     total cpu time spent up to now is      648.2 secs

     total energy              =   -2975.04972865 Ry
     estimated scf accuracy    <     293.18574982 Ry

     iteration # 23     ecut=    29.40 Ry     beta= 0.05
     Davidson diagonalization with overlap
     ethr =  3.70E-03,  avg # of iterations =  2.0

     negative rho (up, down):  1.742E-03 0.000E+00
 
     Adding external electric field

     Computed dipole along edir(3) : 
        Dipole                0.8445 Ry au,          2.1466 Debye
        Dipole field          0.0016 Ry au, 
 
        Potential amp.       -0.1477 Ry
        Total length         46.3494 bohr
 

     total cpu time spent up to now is      662.3 secs

     total energy              =   -2975.84371247 Ry
     estimated scf accuracy    <      46.04704604 Ry

     iteration # 24     ecut=    29.40 Ry     beta= 0.05
     Davidson diagonalization with overlap
     ethr =  3.70E-03,  avg # of iterations =  1.3

     negative rho (up, down):  9.485E-04 0.000E+00
 
     Adding external electric field

     Computed dipole along edir(3) : 
        Dipole               -1.4851 Ry au,         -3.7747 Debye
        Dipole field         -0.0028 Ry au, 
 
        Potential amp.        0.2598 Ry
        Total length         46.3494 bohr
 

     total cpu time spent up to now is      675.1 secs

     total energy              =   -2973.94584740 Ry
     estimated scf accuracy    <      84.16451467 Ry

     iteration # 25     ecut=    29.40 Ry     beta= 0.05
     Davidson diagonalization with overlap
     ethr =  3.70E-03,  avg # of iterations =  5.8

     negative rho (up, down):  9.355E-04 0.000E+00
 
     Adding external electric field

     Computed dipole along edir(3) : 
        Dipole               -1.8756 Ry au,         -4.7674 Debye
        Dipole field         -0.0035 Ry au, 
 
        Potential amp.        0.3281 Ry
        Total length         46.3494 bohr
 

     total cpu time spent up to now is      690.1 secs

     total energy              =   -2974.88832754 Ry
     estimated scf accuracy    <      11.58423758 Ry

     iteration # 26     ecut=    29.40 Ry     beta= 0.05
     Davidson diagonalization with overlap
     c_bands:  3 eigenvalues not converged
     c_bands:  3 eigenvalues not converged
     ethr =  2.87E-03,  avg # of iterations =  8.2

     negative rho (up, down):  1.049E-03 0.000E+00
 
     Adding external electric field

     Computed dipole along edir(3) : 
        Dipole               -1.2890 Ry au,         -3.2762 Debye
        Dipole field         -0.0024 Ry au, 
 
        Potential amp.        0.2255 Ry
        Total length         46.3494 bohr
 

     total cpu time spent up to now is      705.8 secs

     total energy              =   -2975.10179425 Ry
     estimated scf accuracy    <       1.78203163 Ry

     iteration # 27     ecut=    29.40 Ry     beta= 0.05
     Davidson diagonalization with overlap
     c_bands:  1 eigenvalues not converged
     c_bands:  1 eigenvalues not converged
     c_bands:  1 eigenvalues not converged
     c_bands:  2 eigenvalues not converged
     ethr =  4.41E-04,  avg # of iterations = 15.3

     negative rho (up, down):  1.110E-03 0.000E+00
 
     Adding external electric field

     Computed dipole along edir(3) : 
        Dipole               -0.9028 Ry au,         -2.2948 Debye
        Dipole field         -0.0017 Ry au, 
 
        Potential amp.        0.1579 Ry
        Total length         46.3494 bohr
 

     total cpu time spent up to now is      725.5 secs

     total energy              =   -2975.23560145 Ry
     estimated scf accuracy    <       3.24824072 Ry

     iteration # 28     ecut=    29.40 Ry     beta= 0.05
     Davidson diagonalization with overlap
     ethr =  4.41E-04,  avg # of iterations =  1.5

     negative rho (up, down):  1.356E-03 0.000E+00
 
     Adding external electric field

     Computed dipole along edir(3) : 
        Dipole               -0.1432 Ry au,         -0.3639 Debye
        Dipole field         -0.0003 Ry au, 
 
        Potential amp.        0.0250 Ry
        Total length         46.3494 bohr
 

     total cpu time spent up to now is      738.7 secs

     total energy              =   -2975.32307663 Ry
     estimated scf accuracy    <       2.03446360 Ry

     iteration # 29     ecut=    29.40 Ry     beta= 0.05
     Davidson diagonalization with overlap
     ethr =  4.41E-04,  avg # of iterations =  5.1

     negative rho (up, down):  1.201E-03 0.000E+00
 
     Adding external electric field

     Computed dipole along edir(3) : 
        Dipole               -0.5920 Ry au,         -1.5047 Debye
        Dipole field         -0.0011 Ry au, 
 
        Potential amp.        0.1036 Ry
        Total length         46.3494 bohr
 

     total cpu time spent up to now is      753.6 secs

     total energy              =   -2975.12259687 Ry
     estimated scf accuracy    <      19.44565043 Ry

     iteration # 30     ecut=    29.40 Ry     beta= 0.05
     Davidson diagonalization with overlap
     ethr =  4.41E-04,  avg # of iterations =  1.5

     negative rho (up, down):  1.349E-03 0.000E+00
 
     Adding external electric field

     Computed dipole along edir(3) : 
        Dipole               -0.1060 Ry au,         -0.2694 Debye
        Dipole field         -0.0002 Ry au, 
 
        Potential amp.        0.0185 Ry
        Total length         46.3494 bohr
 

     total cpu time spent up to now is      766.8 secs

     total energy              =   -2975.27995488 Ry
     estimated scf accuracy    <       1.09926193 Ry

     iteration # 31     ecut=    29.40 Ry     beta= 0.05
     Davidson diagonalization with overlap
     ethr =  2.72E-04,  avg # of iterations =  4.1

     negative rho (up, down):  1.268E-03 0.000E+00
 
     Adding external electric field

     Computed dipole along edir(3) : 
        Dipole               -0.7460 Ry au,         -1.8961 Debye
        Dipole field         -0.0014 Ry au, 
 
        Potential amp.        0.1305 Ry
        Total length         46.3494 bohr
 

     total cpu time spent up to now is      781.1 secs

     total energy              =   -2975.12687584 Ry
     estimated scf accuracy    <       2.04638817 Ry

     iteration # 32     ecut=    29.40 Ry     beta= 0.05
     Davidson diagonalization with overlap
     c_bands:  3 eigenvalues not converged
     c_bands:  4 eigenvalues not converged
     c_bands:  4 eigenvalues not converged
     ethr =  2.72E-04,  avg # of iterations = 23.8

     negative rho (up, down):  1.602E-03 0.000E+00
 
     Adding external electric field

     Computed dipole along edir(3) : 
        Dipole                0.3563 Ry au,          0.9055 Debye
        Dipole field          0.0007 Ry au, 
 
        Potential amp.       -0.0623 Ry
        Total length         46.3494 bohr
 

     total cpu time spent up to now is      808.1 secs

     total energy              =   -2975.28167724 Ry
     estimated scf accuracy    <       4.25305459 Ry

     iteration # 33     ecut=    29.40 Ry     beta= 0.05
     Davidson diagonalization with overlap
     ethr =  2.72E-04,  avg # of iterations =  5.2

     negative rho (up, down):  2.410E-03 0.000E+00
 
     Adding external electric field

     Computed dipole along edir(3) : 
        Dipole                1.7140 Ry au,          4.3567 Debye
        Dipole field          0.0032 Ry au, 
 
        Potential amp.       -0.2998 Ry
        Total length         46.3494 bohr
 

     total cpu time spent up to now is      823.1 secs

     total energy              =   -2974.89184953 Ry
     estimated scf accuracy    <       4.03071331 Ry

     iteration # 34     ecut=    29.40 Ry     beta= 0.05
     Davidson diagonalization with overlap
     c_bands:  1 eigenvalues not converged
     c_bands:  2 eigenvalues not converged
     c_bands:  2 eigenvalues not converged
     c_bands:  4 eigenvalues not converged
     c_bands:  2 eigenvalues not converged
     ethr =  2.72E-04,  avg # of iterations = 19.1

     negative rho (up, down):  1.963E-03 0.000E+00
 
     Adding external electric field

     Computed dipole along edir(3) : 
        Dipole                0.9807 Ry au,          2.4926 Debye
        Dipole field          0.0019 Ry au, 
 
        Potential amp.       -0.1716 Ry
        Total length         46.3494 bohr
 

     total cpu time spent up to now is      846.3 secs

     total energy              =   -2975.21459838 Ry
     estimated scf accuracy    <       6.00756845 Ry

     iteration # 35     ecut=    29.40 Ry     beta= 0.05
     Davidson diagonalization with overlap
     ethr =  2.72E-04,  avg # of iterations =  4.2

     negative rho (up, down):  1.788E-03 0.000E+00
 
     Adding external electric field

     Computed dipole along edir(3) : 
        Dipole                0.3917 Ry au,          0.9956 Debye
        Dipole field          0.0007 Ry au, 
 
        Potential amp.       -0.0685 Ry
        Total length         46.3494 bohr
 

     total cpu time spent up to now is      860.6 secs

     total energy              =   -2975.15201702 Ry
     estimated scf accuracy    <       3.11013333 Ry

     iteration # 36     ecut=    29.40 Ry     beta= 0.05
     Davidson diagonalization with overlap
     ethr =  2.72E-04,  avg # of iterations =  9.5

     negative rho (up, down):  1.740E-03 0.000E+00
 
     Adding external electric field

     Computed dipole along edir(3) : 
        Dipole                0.1880 Ry au,          0.4779 Debye
        Dipole field          0.0004 Ry au, 
 
        Potential amp.       -0.0329 Ry
        Total length         46.3494 bohr
 

     total cpu time spent up to now is      876.5 secs

     total energy              =   -2975.16568944 Ry
     estimated scf accuracy    <       0.96660516 Ry

     iteration # 37     ecut=    29.40 Ry     beta= 0.05
     Davidson diagonalization with overlap
     ethr =  2.39E-04,  avg # of iterations =  4.6

     negative rho (up, down):  2.034E-03 0.000E+00
 
     Adding external electric field

     Computed dipole along edir(3) : 
        Dipole                0.1780 Ry au,          0.4525 Debye
        Dipole field          0.0003 Ry au, 
 
        Potential amp.       -0.0311 Ry
        Total length         46.3494 bohr
 

     total cpu time spent up to now is      890.8 secs

     total energy              =   -2975.16297967 Ry
     estimated scf accuracy    <       0.87763230 Ry

     iteration # 38     ecut=    29.40 Ry     beta= 0.05
     Davidson diagonalization with overlap
     c_bands:  1 eigenvalues not converged
     ethr =  2.17E-04,  avg # of iterations = 11.2

     negative rho (up, down):  2.590E-03 0.000E+00
 
     Adding external electric field

     Computed dipole along edir(3) : 
        Dipole               -0.0096 Ry au,         -0.0245 Debye
        Dipole field         -0.0000 Ry au, 
 
        Potential amp.        0.0017 Ry
        Total length         46.3494 bohr
 

     total cpu time spent up to now is      908.0 secs

     total energy              =   -2975.09934494 Ry
     estimated scf accuracy    <       2.07066912 Ry

     iteration # 39     ecut=    29.40 Ry     beta= 0.05
     Davidson diagonalization with overlap
     c_bands:  2 eigenvalues not converged
     c_bands:  3 eigenvalues not converged
     c_bands:  5 eigenvalues not converged
     c_bands:  3 eigenvalues not converged
     ethr =  2.17E-04,  avg # of iterations = 14.0

     negative rho (up, down):  3.093E-03 0.000E+00
 
     Adding external electric field

     Computed dipole along edir(3) : 
        Dipole                0.4413 Ry au,          1.1217 Debye
        Dipole field          0.0008 Ry au, 
 
        Potential amp.       -0.0772 Ry
        Total length         46.3494 bohr
 

     total cpu time spent up to now is      926.6 secs

     total energy              =   -2975.13778749 Ry
     estimated scf accuracy    <       2.58333377 Ry

     iteration # 40     ecut=    29.40 Ry     beta= 0.05
     Davidson diagonalization with overlap
     ethr =  2.17E-04,  avg # of iterations =  2.9

     negative rho (up, down):  3.355E-03 0.000E+00
 
     Adding external electric field

     Computed dipole along edir(3) : 
        Dipole                0.4190 Ry au,          1.0650 Debye
        Dipole field          0.0008 Ry au, 
 
        Potential amp.       -0.0733 Ry
        Total length         46.3494 bohr
 

     total cpu time spent up to now is      940.3 secs

     total energy              =   -2975.14240275 Ry
     estimated scf accuracy    <       0.47525558 Ry

     iteration # 41     ecut=    29.40 Ry     beta= 0.05
     Davidson diagonalization with overlap
     c_bands:  4 eigenvalues not converged
     ethr =  1.18E-04,  avg # of iterations = 14.0

     negative rho (up, down):  3.475E-03 0.000E+00
 
     Adding external electric field

     Computed dipole along edir(3) : 
        Dipole                0.4123 Ry au,          1.0479 Debye
        Dipole field          0.0008 Ry au, 
 
        Potential amp.       -0.0721 Ry
        Total length         46.3494 bohr
 

     total cpu time spent up to now is      959.3 secs

     total energy              =   -2975.17327604 Ry
     estimated scf accuracy    <       1.70340890 Ry

     iteration # 42     ecut=    29.40 Ry     beta= 0.05
     Davidson diagonalization with overlap
     ethr =  1.18E-04,  avg # of iterations =  8.2

     negative rho (up, down):  3.471E-03 0.000E+00
 
     Adding external electric field

     Computed dipole along edir(3) : 
        Dipole                0.5378 Ry au,          1.3668 Debye
        Dipole field          0.0010 Ry au, 
 
        Potential amp.       -0.0941 Ry
        Total length         46.3494 bohr
 

     total cpu time spent up to now is      975.8 secs

     total energy              =   -2975.15275981 Ry
     estimated scf accuracy    <       1.51732738 Ry

     iteration # 43     ecut=    29.40 Ry     beta= 0.05
     Davidson diagonalization with overlap
     ethr =  1.18E-04,  avg # of iterations =  2.9

     negative rho (up, down):  3.044E-03 0.000E+00
 
     Adding external electric field

     Computed dipole along edir(3) : 
        Dipole                0.3859 Ry au,          0.9810 Debye
        Dipole field          0.0007 Ry au, 
 
        Potential amp.       -0.0675 Ry
        Total length         46.3494 bohr
 

     total cpu time spent up to now is      989.4 secs

     total energy              =   -2975.12730006 Ry
     estimated scf accuracy    <       0.37193449 Ry

     iteration # 44     ecut=    29.40 Ry     beta= 0.05
     Davidson diagonalization with overlap
     ethr =  9.21E-05,  avg # of iterations =  4.7

     negative rho (up, down):  4.159E-03 0.000E+00
 
     Adding external electric field

     Computed dipole along edir(3) : 
        Dipole                1.0180 Ry au,          2.5874 Debye
        Dipole field          0.0019 Ry au, 
 
        Potential amp.       -0.1781 Ry
        Total length         46.3494 bohr
 

     total cpu time spent up to now is     1004.1 secs

     total energy              =   -2975.12423526 Ry
     estimated scf accuracy    <       1.07014925 Ry

     iteration # 45     ecut=    29.40 Ry     beta= 0.05
     Davidson diagonalization with overlap
     c_bands:  2 eigenvalues not converged
     c_bands:  3 eigenvalues not converged
     c_bands:  1 eigenvalues not converged
     c_bands:  1 eigenvalues not converged
     c_bands:  3 eigenvalues not converged
     ethr =  9.21E-05,  avg # of iterations = 16.8

     negative rho (up, down):  4.461E-03 0.000E+00
 
     Adding external electric field

     Computed dipole along edir(3) : 
        Dipole                1.0385 Ry au,          2.6397 Debye
        Dipole field          0.0020 Ry au, 
 
        Potential amp.       -0.1817 Ry
        Total length         46.3494 bohr
 

     total cpu time spent up to now is     1024.2 secs

     total energy              =   -2975.13872039 Ry
     estimated scf accuracy    <       0.12314257 Ry

     iteration # 46     ecut=    29.40 Ry     beta= 0.05
     Davidson diagonalization with overlap
     c_bands:  1 eigenvalues not converged
     c_bands:  3 eigenvalues not converged
     c_bands:  3 eigenvalues not converged
     c_bands:  2 eigenvalues not converged
     c_bands:  1 eigenvalues not converged
     c_bands:  2 eigenvalues not converged
     c_bands:  1 eigenvalues not converged
     c_bands:  1 eigenvalues not converged
     c_bands:  1 eigenvalues not converged
     ethr =  3.05E-05,  avg # of iterations = 19.5

     negative rho (up, down):  4.290E-03 0.000E+00
 
     Adding external electric field

     Computed dipole along edir(3) : 
        Dipole                1.0184 Ry au,          2.5886 Debye
        Dipole field          0.0019 Ry au, 
 
        Potential amp.       -0.1782 Ry
        Total length         46.3494 bohr
 

     total cpu time spent up to now is     1049.3 secs

     total energy              =   -2975.16029507 Ry
     estimated scf accuracy    <       0.91036207 Ry

     iteration # 47     ecut=    29.40 Ry     beta= 0.05
     Davidson diagonalization with overlap
     ethr =  3.05E-05,  avg # of iterations =  1.3

     negative rho (up, down):  4.444E-03 0.000E+00
 
     Adding external electric field

     Computed dipole along edir(3) : 
        Dipole                1.0195 Ry au,          2.5913 Debye
        Dipole field          0.0019 Ry au, 
 
        Potential amp.       -0.1783 Ry
        Total length         46.3494 bohr
 

     total cpu time spent up to now is     1062.2 secs

     total energy              =   -2975.14719433 Ry
     estimated scf accuracy    <       0.80309433 Ry

     iteration # 48     ecut=    29.40 Ry     beta= 0.05
     Davidson diagonalization with overlap
     ethr =  3.05E-05,  avg # of iterations =  8.2

     negative rho (up, down):  5.042E-03 0.000E+00
 
     Adding external electric field

     Computed dipole along edir(3) : 
        Dipole                1.0311 Ry au,          2.6209 Debye
        Dipole field          0.0019 Ry au, 
 
        Potential amp.       -0.1804 Ry
        Total length         46.3494 bohr
 

     total cpu time spent up to now is     1078.1 secs

     total energy              =   -2975.15367575 Ry
     estimated scf accuracy    <       0.21008309 Ry

     iteration # 49     ecut=    29.40 Ry     beta= 0.05
     Davidson diagonalization with overlap
     ethr =  3.05E-05,  avg # of iterations =  3.8

     negative rho (up, down):  5.252E-03 0.000E+00
 
     Adding external electric field

     Computed dipole along edir(3) : 
        Dipole                1.0509 Ry au,          2.6711 Debye
        Dipole field          0.0020 Ry au, 
 
        Potential amp.       -0.1838 Ry
        Total length         46.3494 bohr
 

     total cpu time spent up to now is     1092.6 secs

     total energy              =   -2975.15938499 Ry
     estimated scf accuracy    <       0.71688630 Ry

     iteration # 50     ecut=    29.40 Ry     beta= 0.05
     Davidson diagonalization with overlap
     ethr =  3.05E-05,  avg # of iterations =  1.2

     negative rho (up, down):  4.258E-03 0.000E+00
 
     Adding external electric field

     Computed dipole along edir(3) : 
        Dipole                0.8435 Ry au,          2.1440 Debye
        Dipole field          0.0016 Ry au, 
 
        Potential amp.       -0.1476 Ry
        Total length         46.3494 bohr
 

     total cpu time spent up to now is     1105.4 secs

     total energy              =   -2975.14327274 Ry
     estimated scf accuracy    <       0.67747159 Ry

     iteration # 51     ecut=    29.40 Ry     beta= 0.05
     Davidson diagonalization with overlap
     c_bands:  1 eigenvalues not converged
     c_bands:  1 eigenvalues not converged
     ethr =  3.05E-05,  avg # of iterations =  7.1

     negative rho (up, down):  4.230E-03 0.000E+00
 
     Adding external electric field

     Computed dipole along edir(3) : 
        Dipole                0.8206 Ry au,          2.0858 Debye
        Dipole field          0.0015 Ry au, 
 
        Potential amp.       -0.1436 Ry
        Total length         46.3494 bohr
 

     total cpu time spent up to now is     1120.9 secs

     total energy              =   -2975.14801375 Ry
     estimated scf accuracy    <       0.06026711 Ry

     iteration # 52     ecut=    29.40 Ry     beta= 0.05
     Davidson diagonalization with overlap
     c_bands:  1 eigenvalues not converged
     ethr =  1.49E-05,  avg # of iterations =  8.7

     negative rho (up, down):  5.105E-03 0.000E+00
 
     Adding external electric field

     Computed dipole along edir(3) : 
        Dipole                0.9365 Ry au,          2.3803 Debye
        Dipole field          0.0018 Ry au, 
 
        Potential amp.       -0.1638 Ry
        Total length         46.3494 bohr
 

     total cpu time spent up to now is     1137.3 secs

     total energy              =   -2975.14709533 Ry
     estimated scf accuracy    <       0.04603998 Ry

     iteration # 53     ecut=    29.40 Ry     beta= 0.05
     Davidson diagonalization with overlap
     c_bands:  1 eigenvalues not converged
     c_bands:  1 eigenvalues not converged
     c_bands:  1 eigenvalues not converged
     c_bands:  1 eigenvalues not converged
     ethr =  1.14E-05,  avg # of iterations = 13.0

     negative rho (up, down):  7.500E-03 0.000E+00
 
     Adding external electric field

     Computed dipole along edir(3) : 
        Dipole                1.0842 Ry au,          2.7557 Debye
        Dipole field          0.0020 Ry au, 
 
        Potential amp.       -0.1897 Ry
        Total length         46.3494 bohr
 

     total cpu time spent up to now is     1155.0 secs

     total energy              =   -2975.14816588 Ry
     estimated scf accuracy    <       0.03773080 Ry

     iteration # 54     ecut=    29.40 Ry     beta= 0.05
     Davidson diagonalization with overlap
     c_bands:  1 eigenvalues not converged
     c_bands:  1 eigenvalues not converged
     c_bands:  1 eigenvalues not converged
     c_bands:  4 eigenvalues not converged
     c_bands:  3 eigenvalues not converged
     ethr =  9.34E-06,  avg # of iterations = 15.2

     negative rho (up, down):  8.828E-03 0.000E+00
 
     Adding external electric field

     Computed dipole along edir(3) : 
        Dipole                1.1249 Ry au,          2.8591 Debye
        Dipole field          0.0021 Ry au, 
 
        Potential amp.       -0.1968 Ry
        Total length         46.3494 bohr
 

     total cpu time spent up to now is     1174.8 secs

     total energy              =   -2975.14780058 Ry
     estimated scf accuracy    <       0.01216086 Ry

     iteration # 55     ecut=    29.40 Ry     beta= 0.05
     Davidson diagonalization with overlap
     c_bands:  2 eigenvalues not converged
     c_bands:  3 eigenvalues not converged
     c_bands:  2 eigenvalues not converged
     c_bands:  1 eigenvalues not converged
     c_bands:  1 eigenvalues not converged
     c_bands:  2 eigenvalues not converged
     c_bands:  1 eigenvalues not converged
     c_bands:  1 eigenvalues not converged
     c_bands:  2 eigenvalues not converged
     ethr =  3.01E-06,  avg # of iterations = 19.9

     negative rho (up, down):  8.711E-03 0.000E+00
 
     Adding external electric field

     Computed dipole along edir(3) : 
        Dipole                1.0888 Ry au,          2.7673 Debye
        Dipole field          0.0021 Ry au, 
 
        Potential amp.       -0.1905 Ry
        Total length         46.3494 bohr
 

     total cpu time spent up to now is     1200.0 secs

     total energy              =   -2975.14846694 Ry
     estimated scf accuracy    <       0.04164893 Ry

     iteration # 56     ecut=    29.40 Ry     beta= 0.05
     Davidson diagonalization with overlap
     c_bands:  2 eigenvalues not converged
     c_bands:  1 eigenvalues not converged
     c_bands:  2 eigenvalues not converged
     c_bands:  2 eigenvalues not converged
     c_bands:  3 eigenvalues not converged
     c_bands:  1 eigenvalues not converged
     c_bands:  4 eigenvalues not converged
     ethr =  3.01E-06,  avg # of iterations = 19.3

     negative rho (up, down):  1.054E-02 0.000E+00
 
     Adding external electric field

     Computed dipole along edir(3) : 
        Dipole                1.1683 Ry au,          2.9695 Debye
        Dipole field          0.0022 Ry au, 
 
        Potential amp.       -0.2044 Ry
        Total length         46.3494 bohr
 

     total cpu time spent up to now is     1222.2 secs

     total energy              =   -2975.14958074 Ry
     estimated scf accuracy    <       0.00356949 Ry

     iteration # 57     ecut=    29.40 Ry     beta= 0.05
     Davidson diagonalization with overlap
     c_bands:  1 eigenvalues not converged
     c_bands:  1 eigenvalues not converged
     c_bands:  1 eigenvalues not converged
     c_bands:  1 eigenvalues not converged
     ethr =  8.84E-07,  avg # of iterations = 17.6

     negative rho (up, down):  1.219E-02 0.000E+00
 
     Adding external electric field

     Computed dipole along edir(3) : 
        Dipole                1.1906 Ry au,          3.0262 Debye
        Dipole field          0.0022 Ry au, 
 
        Potential amp.       -0.2083 Ry
        Total length         46.3494 bohr
 

     total cpu time spent up to now is     1243.9 secs

     total energy              =   -2975.14980982 Ry
     estimated scf accuracy    <       0.01535945 Ry

     iteration # 58     ecut=    29.40 Ry     beta= 0.05
     Davidson diagonalization with overlap
     c_bands:  1 eigenvalues not converged
     ethr =  8.84E-07,  avg # of iterations = 11.5

     negative rho (up, down):  1.250E-02 0.000E+00
 
     Adding external electric field

     Computed dipole along edir(3) : 
        Dipole                1.1690 Ry au,          2.9712 Debye
        Dipole field          0.0022 Ry au, 
 
        Potential amp.       -0.2045 Ry
        Total length         46.3494 bohr
 

     total cpu time spent up to now is     1261.5 secs

     total energy              =   -2975.14986924 Ry
     estimated scf accuracy    <       0.00249001 Ry

     iteration # 59     ecut=    29.40 Ry     beta= 0.05
     Davidson diagonalization with overlap
     c_bands:  1 eigenvalues not converged
     c_bands:  1 eigenvalues not converged
     c_bands:  2 eigenvalues not converged
     c_bands:  2 eigenvalues not converged
     ethr =  6.16E-07,  avg # of iterations = 17.9

     negative rho (up, down):  1.312E-02 0.000E+00
 
     Adding external electric field

     Computed dipole along edir(3) : 
        Dipole                1.1689 Ry au,          2.9710 Debye
        Dipole field          0.0022 Ry au, 
 
        Potential amp.       -0.2045 Ry
        Total length         46.3494 bohr
 

     total cpu time spent up to now is     1282.5 secs

     total energy              =   -2975.14994532 Ry
     estimated scf accuracy    <       0.00219435 Ry

     iteration # 60     ecut=    29.40 Ry     beta= 0.05
     Davidson diagonalization with overlap
     ethr =  5.43E-07,  avg # of iterations =  5.9

     negative rho (up, down):  1.380E-02 0.000E+00
 
     Adding external electric field

     Computed dipole along edir(3) : 
        Dipole                1.1651 Ry au,          2.9613 Debye
        Dipole field          0.0022 Ry au, 
 
        Potential amp.       -0.2038 Ry
        Total length         46.3494 bohr
 

     total cpu time spent up to now is     1297.5 secs

     total energy              =   -2975.15000118 Ry
     estimated scf accuracy    <       0.00042705 Ry

     iteration # 61     ecut=    29.40 Ry     beta= 0.05
     Davidson diagonalization with overlap
     ethr =  1.06E-07,  avg # of iterations = 13.5

     negative rho (up, down):  1.414E-02 0.000E+00
 
     Adding external electric field

     Computed dipole along edir(3) : 
        Dipole                1.1815 Ry au,          3.0030 Debye
        Dipole field          0.0022 Ry au, 
 
        Potential amp.       -0.2067 Ry
        Total length         46.3494 bohr
 

     total cpu time spent up to now is     1318.8 secs

     total energy              =   -2975.15006350 Ry
     estimated scf accuracy    <       0.00048291 Ry

     iteration # 62     ecut=    29.40 Ry     beta= 0.05
     Davidson diagonalization with overlap
     ethr =  1.06E-07,  avg # of iterations =  5.7

     negative rho (up, down):  1.556E-02 0.000E+00
 
     Adding external electric field

     Computed dipole along edir(3) : 
        Dipole                1.2075 Ry au,          3.0690 Debye
        Dipole field          0.0023 Ry au, 
 
        Potential amp.       -0.2112 Ry
        Total length         46.3494 bohr
 

     total cpu time spent up to now is     1334.1 secs

     total energy              =   -2975.15009557 Ry
     estimated scf accuracy    <       0.00035422 Ry

     iteration # 63     ecut=    29.40 Ry     beta= 0.05
     Davidson diagonalization with overlap
     ethr =  8.77E-08,  avg # of iterations = 11.7

     negative rho (up, down):  1.564E-02 0.000E+00
 
     Adding external electric field

     Computed dipole along edir(3) : 
        Dipole                1.1909 Ry au,          3.0268 Debye
        Dipole field          0.0022 Ry au, 
 
        Potential amp.       -0.2083 Ry
        Total length         46.3494 bohr
 

     total cpu time spent up to now is     1354.8 secs

     total energy              =   -2975.15003468 Ry
     estimated scf accuracy    <       0.00063835 Ry

     iteration # 64     ecut=    29.40 Ry     beta= 0.05
     Davidson diagonalization with overlap
     ethr =  8.77E-08,  avg # of iterations =  8.7

     negative rho (up, down):  1.571E-02 0.000E+00
 
     Adding external electric field

     Computed dipole along edir(3) : 
        Dipole                1.1911 Ry au,          3.0275 Debye
        Dipole field          0.0022 Ry au, 
 
        Potential amp.       -0.2084 Ry
        Total length         46.3494 bohr
 

     total cpu time spent up to now is     1372.8 secs

     total energy              =   -2975.15010793 Ry
     estimated scf accuracy    <       0.00008642 Ry

     iteration # 65     ecut=    29.40 Ry     beta= 0.05
     Davidson diagonalization with overlap
     ethr =  2.14E-08,  avg # of iterations = 12.8

     negative rho (up, down):  1.541E-02 0.000E+00
 
     Adding external electric field

     Computed dipole along edir(3) : 
        Dipole                1.1890 Ry au,          3.0220 Debye
        Dipole field          0.0022 Ry au, 
 
        Potential amp.       -0.2080 Ry
        Total length         46.3494 bohr
 

     total cpu time spent up to now is     1391.2 secs

     total energy              =   -2975.15010452 Ry
     estimated scf accuracy    <       0.00012375 Ry

     iteration # 66     ecut=    29.40 Ry     beta= 0.05
     Davidson diagonalization with overlap
     c_bands:  1 eigenvalues not converged
     ethr =  2.14E-08,  avg # of iterations = 12.3

     negative rho (up, down):  1.528E-02 0.000E+00
 
     Adding external electric field

     Computed dipole along edir(3) : 
        Dipole                1.1823 Ry au,          3.0050 Debye
        Dipole field          0.0022 Ry au, 
 
        Potential amp.       -0.2068 Ry
        Total length         46.3494 bohr
 

     total cpu time spent up to now is     1413.3 secs

     total energy              =   -2975.15010755 Ry
     estimated scf accuracy    <       0.00017661 Ry

     iteration # 67     ecut=    29.40 Ry     beta= 0.05
     Davidson diagonalization with overlap
     ethr =  2.14E-08,  avg # of iterations =  5.6

     negative rho (up, down):  1.519E-02 0.000E+00
 
     Adding external electric field

     Computed dipole along edir(3) : 
        Dipole                1.1793 Ry au,          2.9976 Debye
        Dipole field          0.0022 Ry au, 
 
        Potential amp.       -0.2063 Ry
        Total length         46.3494 bohr
 

     total cpu time spent up to now is     1428.8 secs

     total energy              =   -2975.15011454 Ry
     estimated scf accuracy    <       0.00003125 Ry

     iteration # 68     ecut=    29.40 Ry     beta= 0.05
     Davidson diagonalization with overlap
     ethr =  7.74E-09,  avg # of iterations = 11.7

     negative rho (up, down):  1.519E-02 0.000E+00
 
     Adding external electric field

     Computed dipole along edir(3) : 
        Dipole                1.1794 Ry au,          2.9978 Debye
        Dipole field          0.0022 Ry au, 
 
        Potential amp.       -0.2063 Ry
        Total length         46.3494 bohr
 

     total cpu time spent up to now is     1449.1 secs

     total energy              =   -2975.15012210 Ry
     estimated scf accuracy    <       0.00000765 Ry

     iteration # 69     ecut=    29.40 Ry     beta= 0.05
     Davidson diagonalization with overlap
     ethr =  1.89E-09,  avg # of iterations =  4.4

     negative rho (up, down):  1.515E-02 0.000E+00
 
     Adding external electric field

     Computed dipole along edir(3) : 
        Dipole                1.1786 Ry au,          2.9957 Debye
        Dipole field          0.0022 Ry au, 
 
        Potential amp.       -0.2062 Ry
        Total length         46.3494 bohr
 

     total cpu time spent up to now is     1463.8 secs

     total energy              =   -2975.15012542 Ry
     estimated scf accuracy    <       0.00000798 Ry

     iteration # 70     ecut=    29.40 Ry     beta= 0.05
     Davidson diagonalization with overlap
     ethr =  1.89E-09,  avg # of iterations =  1.1

     negative rho (up, down):  1.519E-02 0.000E+00
 
     Adding external electric field

     Computed dipole along edir(3) : 
        Dipole                1.1792 Ry au,          2.9972 Debye
        Dipole field          0.0022 Ry au, 
 
        Potential amp.       -0.2063 Ry
        Total length         46.3494 bohr
 

     total cpu time spent up to now is     1476.6 secs

     total energy              =   -2975.15012871 Ry
     estimated scf accuracy    <       0.00000891 Ry

     iteration # 71     ecut=    29.40 Ry     beta= 0.05
     Davidson diagonalization with overlap
     ethr =  1.89E-09,  avg # of iterations =  1.3

     negative rho (up, down):  1.525E-02 0.000E+00
 
     Adding external electric field

     Computed dipole along edir(3) : 
        Dipole                1.1797 Ry au,          2.9985 Debye
        Dipole field          0.0022 Ry au, 
 
        Potential amp.       -0.2064 Ry
        Total length         46.3494 bohr
 

     total cpu time spent up to now is     1489.6 secs

     total energy              =   -2975.15013197 Ry
     estimated scf accuracy    <       0.00000997 Ry

     iteration # 72     ecut=    29.40 Ry     beta= 0.05
     Davidson diagonalization with overlap
     ethr =  1.89E-09,  avg # of iterations =  1.0

     negative rho (up, down):  1.517E-02 0.000E+00
 
     Adding external electric field

     Computed dipole along edir(3) : 
        Dipole                1.1791 Ry au,          2.9971 Debye
        Dipole field          0.0022 Ry au, 
 
        Potential amp.       -0.2063 Ry
        Total length         46.3494 bohr
 

     total cpu time spent up to now is     1502.2 secs

     total energy              =   -2975.15013249 Ry
     estimated scf accuracy    <       0.00001074 Ry

     iteration # 73     ecut=    29.40 Ry     beta= 0.05
     Davidson diagonalization with overlap
     ethr =  1.89E-09,  avg # of iterations =  1.5

     negative rho (up, down):  1.521E-02 0.000E+00
 
     Adding external electric field

     Computed dipole along edir(3) : 
        Dipole                1.1801 Ry au,          2.9996 Debye
        Dipole field          0.0022 Ry au, 
 
        Potential amp.       -0.2064 Ry
        Total length         46.3494 bohr
 

     total cpu time spent up to now is     1515.4 secs

     total energy              =   -2975.15013335 Ry
     estimated scf accuracy    <       0.00000692 Ry

     iteration # 74     ecut=    29.40 Ry     beta= 0.05
     Davidson diagonalization with overlap
     ethr =  1.71E-09,  avg # of iterations = 11.3

     negative rho (up, down):  1.528E-02 0.000E+00
 
     Adding external electric field

     Computed dipole along edir(3) : 
        Dipole                1.1806 Ry au,          3.0007 Debye
        Dipole field          0.0022 Ry au, 
 
        Potential amp.       -0.2065 Ry
        Total length         46.3494 bohr
 

     total cpu time spent up to now is     1541.0 secs

     total energy              =   -2975.15013735 Ry
     estimated scf accuracy    <       0.00000782 Ry

     iteration # 75     ecut=    29.40 Ry     beta= 0.05
     Davidson diagonalization with overlap
     ethr =  1.71E-09,  avg # of iterations =  1.3

     negative rho (up, down):  1.522E-02 0.000E+00
 
     Adding external electric field

     Computed dipole along edir(3) : 
        Dipole                1.1800 Ry au,          2.9993 Debye
        Dipole field          0.0022 Ry au, 
 
        Potential amp.       -0.2064 Ry
        Total length         46.3494 bohr
 

     total cpu time spent up to now is     1554.0 secs

     total energy              =   -2975.15013797 Ry
     estimated scf accuracy    <       0.00000501 Ry

     iteration # 76     ecut=    29.40 Ry     beta= 0.05
     Davidson diagonalization with overlap
     ethr =  1.24E-09,  avg # of iterations = 10.4

     negative rho (up, down):  1.523E-02 0.000E+00
 
     Adding external electric field

     Computed dipole along edir(3) : 
        Dipole                1.1805 Ry au,          3.0005 Debye
        Dipole field          0.0022 Ry au, 
 
        Potential amp.       -0.2065 Ry
        Total length         46.3494 bohr
 

     total cpu time spent up to now is     1577.6 secs

     total energy              =   -2975.15014055 Ry
     estimated scf accuracy    <       0.00000256 Ry

     iteration # 77     ecut=    29.40 Ry     beta= 0.05
     Davidson diagonalization with overlap
     ethr =  6.33E-10,  avg # of iterations =  5.0

     negative rho (up, down):  1.526E-02 0.000E+00
 
     Adding external electric field

     Computed dipole along edir(3) : 
        Dipole                1.1811 Ry au,          3.0022 Debye
        Dipole field          0.0022 Ry au, 
 
        Potential amp.       -0.2066 Ry
        Total length         46.3494 bohr
 

     total cpu time spent up to now is     1592.3 secs

     total energy              =   -2975.15014178 Ry
     estimated scf accuracy    <       0.00000117 Ry

     iteration # 78     ecut=    29.40 Ry     beta= 0.05
     Davidson diagonalization with overlap
     ethr =  2.90E-10,  avg # of iterations = 10.9

     negative rho (up, down):  1.524E-02 0.000E+00
 
     Adding external electric field

     Computed dipole along edir(3) : 
        Dipole                1.1811 Ry au,          3.0021 Debye
        Dipole field          0.0022 Ry au, 
 
        Potential amp.       -0.2066 Ry
        Total length         46.3494 bohr
 

     total cpu time spent up to now is     1619.5 secs

     total energy              =   -2975.15014337 Ry
     estimated scf accuracy    <       0.00000289 Ry

     iteration # 79     ecut=    29.40 Ry     beta= 0.05
     Davidson diagonalization with overlap
     ethr =  2.90E-10,  avg # of iterations =  2.4

     negative rho (up, down):  1.525E-02 0.000E+00
 
     Adding external electric field

     Computed dipole along edir(3) : 
        Dipole                1.1814 Ry au,          3.0029 Debye
        Dipole field          0.0022 Ry au, 
 
        Potential amp.       -0.2067 Ry
        Total length         46.3494 bohr
 

     total cpu time spent up to now is     1633.5 secs

     total energy              =   -2975.15014427 Ry
     estimated scf accuracy    <       0.00000138 Ry

     iteration # 80     ecut=    29.40 Ry     beta= 0.05
     Davidson diagonalization with overlap
     ethr =  2.90E-10,  avg # of iterations = 10.7

     negative rho (up, down):  1.525E-02 0.000E+00
 
     Adding external electric field

     Computed dipole along edir(3) : 
        Dipole                1.1813 Ry au,          3.0025 Debye
        Dipole field          0.0022 Ry au, 
 
        Potential amp.       -0.2066 Ry
        Total length         46.3494 bohr
 

     total cpu time spent up to now is     1657.5 secs

     total energy              =   -2975.15014566 Ry
     estimated scf accuracy    <       0.00000042 Ry

     iteration # 81     ecut=    29.40 Ry     beta= 0.05
     Davidson diagonalization with overlap
     ethr =  1.05E-10,  avg # of iterations =  1.9

     negative rho (up, down):  1.522E-02 0.000E+00
 
     Adding external electric field

     Computed dipole along edir(3) : 
        Dipole                1.1806 Ry au,          3.0008 Debye
        Dipole field          0.0022 Ry au, 
 
        Potential amp.       -0.2065 Ry
        Total length         46.3494 bohr
 

     total cpu time spent up to now is     1671.1 secs

     total energy              =   -2975.15014654 Ry
     estimated scf accuracy    <       0.00000032 Ry

     iteration # 82     ecut=    29.40 Ry     beta= 0.05
     Davidson diagonalization with overlap
     ethr =  7.92E-11,  avg # of iterations = 16.9

     negative rho (up, down):  1.525E-02 0.000E+00
 
     Adding external electric field

     Computed dipole along edir(3) : 
        Dipole                1.1812 Ry au,          3.0022 Debye
        Dipole field          0.0022 Ry au, 
 
        Potential amp.       -0.2066 Ry
        Total length         46.3494 bohr
 

     total cpu time spent up to now is     1699.7 secs

     total energy              =   -2975.15014740 Ry
     estimated scf accuracy    <       0.00000048 Ry

     iteration # 83     ecut=    29.40 Ry     beta= 0.05
     Davidson diagonalization with overlap
     ethr =  7.92E-11,  avg # of iterations =  7.7

     negative rho (up, down):  1.525E-02 0.000E+00
 
     Adding external electric field

     Computed dipole along edir(3) : 
        Dipole                1.1812 Ry au,          3.0023 Debye
        Dipole field          0.0022 Ry au, 
 
        Potential amp.       -0.2066 Ry
        Total length         46.3494 bohr
 

     total cpu time spent up to now is     1716.2 secs

     total energy              =   -2975.15014817 Ry
     estimated scf accuracy    <       0.00000018 Ry

     iteration # 84     ecut=    29.40 Ry     beta= 0.05
     Davidson diagonalization with overlap
     ethr =  4.44E-11,  avg # of iterations = 11.3

     negative rho (up, down):  1.524E-02 0.000E+00
 
     Adding external electric field

     Computed dipole along edir(3) : 
        Dipole                1.1808 Ry au,          3.0012 Debye
        Dipole field          0.0022 Ry au, 
 
        Potential amp.       -0.2066 Ry
        Total length         46.3494 bohr
 

     total cpu time spent up to now is     1734.4 secs

     End of self-consistent calculation

          k = 0.0000 0.0000 0.0000 ( 18029 PWs)   bands (ev):

   -55.4170 -55.3344 -55.3003 -55.2294 -55.1913 -55.1805 -55.1656 -55.1647
   -55.1496 -55.1301 -55.1017 -55.0305 -55.0220 -54.9962 -54.3286 -54.2945
   -31.8224 -31.7718 -31.7435 -31.7153 -31.6690 -31.6684 -31.6332 -31.6241
   -31.6209 -31.6083 -31.5797 -31.5417 -31.5042 -31.4873 -31.4713 -31.4638
   -31.4469 -31.4442 -31.4427 -31.4085 -31.3919 -31.3805 -31.3745 -31.3712
   -31.3663 -31.3602 -31.3569 -31.3351 -31.3294 -31.3262 -31.3259 -31.3025
   -31.2944 -31.2906 -31.2786 -31.2543 -31.2354 -31.2326 -31.2102 -31.2001
   -31.1965 -31.1934 -30.7356 -30.6468 -30.6244 -30.5529 -30.4664 -30.3547
   -19.3735 -16.2723 -16.0497 -15.8841 -15.6686 -15.6224 -15.5322 -15.3699
   -15.2577 -15.1874 -15.0786 -15.0030 -14.9284 -14.8944 -14.8854 -14.8718
   -14.8664 -14.8154 -14.8064 -14.7926 -14.7822 -14.7720 -14.7646 -14.7308
   -14.6967 -14.6484 -14.6097 -14.4934 -14.4548 -14.4183 -14.2948 -14.2752
   -12.8276 -12.7108 -10.1876  -7.8199  -6.5640  -5.3903  -4.1887  -3.8033
    -3.6669  -3.3923  -3.2838  -3.2524  -3.1889  -3.1574  -2.9028  -2.8034
    -2.7845  -2.6482  -2.5295  -2.4829  -2.4224  -2.3517  -2.3203  -2.2973
    -2.2721  -2.2155  -2.1519  -2.1382  -2.1245  -2.0480  -2.0435  -1.9689
    -1.9202  -1.9073  -1.8024  -1.7298  -1.6985  -1.6854  -1.6738  -1.6573
    -1.6324  -1.6254  -1.6017  -1.5392  -1.4738  -1.4645  -1.3995  -1.3732
    -1.1019  -1.0363  -0.9719  -0.9423  -0.8660  -0.8265  -0.8097  -0.7860
    -0.7431  -0.7402  -0.7176  -0.6571  -0.5587  -0.5051  -0.4743  -0.4551
    -0.4024  -0.2891  -0.2686  -0.1578  -0.1291  -0.1219  -0.0830  -0.0348
     0.0067   0.0460   0.1083   0.1776   0.2281   0.2790   0.3115   0.3372
     0.3776   0.4130   0.4731   0.5507   0.5746   0.6190   0.6493   0.6694
     0.6789   0.7362   0.7523   0.8405   0.9210   0.9331   1.0327   1.0603
     1.1129   1.2975   1.3343   1.6335   1.6799   1.6978   1.8862   2.2675
     2.3139   3.7328   3.8572   3.8873   3.8975   3.9366   3.9697   4.0253
     4.2201   4.2313   4.3432   4.4576

          k = 0.0000 0.0419 0.0000 ( 17933 PWs)   bands (ev):

   -55.4166 -55.3294 -55.3052 -55.2249 -55.1958 -55.1794 -55.1659 -55.1596
   -55.1465 -55.1350 -55.1048 -55.0261 -55.0230 -55.0004 -54.3235 -54.2994
   -31.7685 -31.7314 -31.7116 -31.6659 -31.6601 -31.6266 -31.6199 -31.6193
   -31.5881 -31.5801 -31.5731 -31.5123 -31.5012 -31.4965 -31.4734 -31.4568
   -31.4505 -31.4489 -31.4390 -31.4101 -31.4058 -31.4032 -31.3870 -31.3852
   -31.3806 -31.3764 -31.3760 -31.3496 -31.3387 -31.3323 -31.3303 -31.3231
   -31.3100 -31.3006 -31.2966 -31.2961 -31.2555 -31.2405 -31.2317 -31.2278
   -31.2088 -31.1993 -30.6814 -30.6433 -30.6275 -30.5404 -30.4790 -30.4118
   -19.3716 -16.2602 -15.9406 -15.7776 -15.6094 -15.5429 -15.4286 -15.2932
   -15.1999 -15.1606 -15.1206 -15.0786 -14.9898 -14.9376 -14.8965 -14.8622
   -14.8501 -14.8275 -14.8205 -14.8146 -14.8061 -14.7830 -14.7631 -14.7580
   -14.7129 -14.6439 -14.6198 -14.5496 -14.5147 -14.4767 -14.3679 -14.3237
   -12.8315 -12.7502 -10.1756  -7.8226  -6.5646  -5.3992  -4.1690  -3.8085
    -3.6645  -3.2103  -3.1199  -3.0770  -3.0672  -3.0082  -2.7798  -2.6758
    -2.6141  -2.5021  -2.4615  -2.4296  -2.4090  -2.3591  -2.3424  -2.3169
    -2.2752  -2.2404  -2.2363  -2.2272  -2.1135  -2.0941  -2.0610  -2.0601
    -2.0069  -1.9757  -1.9481  -1.9283  -1.9058  -1.8703  -1.8561  -1.7664
    -1.7258  -1.6501  -1.6239  -1.5271  -1.4297  -1.3535  -1.1994  -1.1760
    -1.1195  -1.1052  -1.0048  -0.9014  -0.8682  -0.7944  -0.7227  -0.6669
    -0.6211  -0.5934  -0.5753  -0.5440  -0.4895  -0.4238  -0.3463  -0.3239
    -0.2927  -0.2761  -0.2372  -0.1947  -0.1833  -0.1440  -0.1171  -0.0795
    -0.0531   0.0302   0.0580   0.0876   0.1462   0.1906   0.2176   0.2841
     0.3292   0.3926   0.4259   0.4496   0.4596   0.4834   0.5253   0.5941
     0.6930   0.7106   0.7435   0.8274   0.8588   0.8947   0.9311   0.9556
     0.9880   1.0560   1.1984   1.3113   1.5676   1.8846   1.9737   2.2227
     2.2253   3.8533   3.9509   3.9836   4.0397   4.1299   4.1420   4.1757
     4.2017   4.3108   4.3375   4.3558

          k = 0.0000-0.0839 0.0000 ( 17884 PWs)   bands (ev):

   -55.4161 -55.3175 -55.3170 -55.2181 -55.2025 -55.1783 -55.1662 -55.1483
   -55.1469 -55.1421 -55.1084 -55.0240 -55.0192 -55.0073 -54.3119 -54.3110
   -31.6821 -31.6711 -31.6633 -31.6363 -31.6359 -31.6221 -31.6096 -31.6092
   -31.5682 -31.5329 -31.5176 -31.4958 -31.4868 -31.4630 -31.4566 -31.4522
   -31.4428 -31.4402 -31.4399 -31.4394 -31.4325 -31.4284 -31.4268 -31.4233
   -31.4135 -31.4097 -31.4058 -31.4016 -31.3676 -31.3458 -31.3418 -31.3255
   -31.3244 -31.3209 -31.3194 -31.2990 -31.2861 -31.2849 -31.2463 -31.2322
   -31.2071 -31.1990 -30.6355 -30.6348 -30.5490 -30.5478 -30.5100 -30.5093
   -19.3697 -16.2511 -15.7811 -15.5956 -15.4934 -15.4635 -15.3087 -15.2860
   -15.2500 -15.2247 -15.1240 -15.0963 -15.0602 -15.0103 -14.9510 -14.9159
   -14.8941 -14.8427 -14.8274 -14.8157 -14.7379 -14.7341 -14.7194 -14.6956
   -14.6829 -14.6683 -14.6506 -14.6312 -14.6037 -14.5610 -14.4552 -14.4000
   -12.8132 -12.8126 -10.1642  -7.8254  -6.5648  -5.4068  -4.1509  -3.8152
    -3.6588  -2.8572  -2.8143  -2.8074  -2.7248  -2.7007  -2.6662  -2.6465
    -2.6384  -2.6330  -2.5561  -2.5278  -2.4260  -2.4166  -2.3951  -2.3774
    -2.3560  -2.3347  -2.3203  -2.2662  -2.2113  -2.2085  -2.1790  -2.1658
    -2.0799  -2.0687  -2.0224  -1.9522  -1.9042  -1.8544  -1.7511  -1.6421
    -1.6212  -1.5140  -1.4953  -1.4766  -1.4246  -1.3721  -1.1948  -1.1184
    -1.0527  -0.9960  -0.9807  -0.8613  -0.8219  -0.7967  -0.7763  -0.7685
    -0.7373  -0.7080  -0.6932  -0.6525  -0.5340  -0.5200  -0.5052  -0.4751
    -0.3913  -0.1958  -0.0826  -0.0623  -0.0508   0.0017   0.0310   0.0336
     0.0589   0.0809   0.1353   0.1402   0.1729   0.1858   0.1993   0.2469
     0.2723   0.3049   0.3515   0.3700   0.4051   0.4356   0.4507   0.4612
     0.5292   0.5628   0.5743   0.6272   0.6918   0.8135   0.8555   0.8915
     0.8941   1.0449   1.1342   1.3129   1.3510   2.0253   2.0340   2.1580
     2.1590   3.7981   4.1541   4.1902   4.2052   4.2226   4.2462   4.2480
     4.3019   4.3285   4.3653   4.4132

          k = 0.0380 0.0000 0.0000 ( 17913 PWs)   bands (ev):

   -55.4169 -55.3343 -55.3002 -55.2293 -55.1912 -55.1803 -55.1655 -55.1642
   -55.1499 -55.1300 -55.1016 -55.0305 -55.0219 -54.9960 -54.3285 -54.2944
   -31.8233 -31.7719 -31.7457 -31.7173 -31.6686 -31.6650 -31.6381 -31.6239
   -31.6203 -31.6085 -31.5796 -31.5421 -31.5040 -31.4842 -31.4620 -31.4466
   -31.4440 -31.4439 -31.4426 -31.4028 -31.3917 -31.3802 -31.3738 -31.3663
   -31.3642 -31.3588 -31.3569 -31.3456 -31.3400 -31.3292 -31.3254 -31.3024
   -31.2962 -31.2905 -31.2773 -31.2548 -31.2368 -31.2323 -31.2193 -31.1970
   -31.1964 -31.1934 -30.7351 -30.6501 -30.6224 -30.5527 -30.4663 -30.3544
   -19.3730 -16.2624 -15.9799 -15.8080 -15.6642 -15.5549 -15.4461 -15.3832
   -15.2718 -15.1906 -15.1412 -15.1049 -15.0358 -14.9976 -14.9908 -14.9251
   -14.8726 -14.8289 -14.8145 -14.8054 -14.7845 -14.7624 -14.6654 -14.6415
   -14.5894 -14.5875 -14.5581 -14.5470 -14.5257 -14.4898 -14.2916 -14.2744
   -12.8243 -12.7105 -10.1852  -7.8014  -6.5623  -5.4228  -4.1758  -3.8150
[...]

          k = 0.0380 0.0419 0.0000 ( 17878 PWs)   bands (ev):

   -55.4165 -55.3293 -55.3052 -55.2248 -55.1957 -55.1793 -55.1659 -55.1592
   -55.1467 -55.1350 -55.1048 -55.0261 -55.0229 -55.0004 -54.3235 -54.2994
   -31.7693 -31.7317 -31.7138 -31.6623 -31.6622 -31.6268 -31.6195 -31.6190
   -31.5883 -31.5854 -31.5736 -31.5131 -31.5013 -31.4963 -31.4708 -31.4493
   -31.4481 -31.4389 -31.4338 -31.4127 -31.4055 -31.3942 -31.3875 -31.3812
   -31.3762 -31.3744 -31.3727 -31.3499 -31.3438 -31.3430 -31.3317 -31.3292
   -31.3073 -31.3017 -31.3007 -31.2963 -31.2553 -31.2415 -31.2328 -31.2278
   -31.2153 -31.1990 -30.6811 -30.6460 -30.6264 -30.5402 -30.4790 -30.4117
   -19.3712 -16.2535 -15.8838 -15.7101 -15.6049 -15.4579 -15.3610 -15.2908
   -15.2162 -15.1563 -15.1402 -15.1134 -15.0463 -15.0063 -14.9845 -14.8932
   -14.8820 -14.8643 -14.8530 -14.8222 -14.8036 -14.7836 -14.6867 -14.6718
   -14.6625 -14.6473 -14.6133 -14.5950 -14.5771 -14.5309 -14.3656 -14.3235
   -12.8292 -12.7505 -10.1729  -7.8031  -6.5614  -5.4307  -4.1636  -3.8225
    -3.6374  -3.1094  -2.9446  -2.8615  -2.8415  -2.8022  -2.7327  -2.6788
    -2.6173  -2.5638  -2.5234  -2.4569  -2.3843  -2.3665  -2.2786  -2.2684
    -2.2383  -2.2291  -2.1737  -2.1503  -2.1126  -2.0711  -2.0459  -2.0327
    -1.9994  -1.9721  -1.9561  -1.9124  -1.8787  -1.8159  -1.7742  -1.7292
    -1.6718  -1.6196  -1.5407  -1.4608  -1.3699  -1.3316  -1.3020  -1.1667
    -1.1084  -1.0287  -0.9970  -0.9354  -0.9109  -0.8273  -0.7563  -0.7235
    -0.6897  -0.6716  -0.6447  -0.5989  -0.5518  -0.5169  -0.4920  -0.4403
    -0.3763  -0.3259  -0.3079  -0.2665  -0.2066  -0.1973  -0.1515  -0.1191
    -0.0723  -0.0464  -0.0192   0.0169   0.0490   0.0944   0.1767   0.2014
     0.2203   0.2671   0.3045   0.3467   0.3998   0.4391   0.4756   0.5792
     0.6142   0.6791   0.7586   0.8017   0.8455   0.8775   0.9304   0.9871
     1.0569   1.0827   1.1769   1.2747   1.5058   1.8948   1.9769   2.1453
     2.2063   3.8327   3.9384   3.9665   4.0383   4.1771   4.2086   4.2240
     4.2766   4.3146   4.3447   4.3766

          k = 0.0380-0.0839 0.0000 ( 17916 PWs)   bands (ev):

   -55.4162 -55.3175 -55.3170 -55.2181 -55.2025 -55.1782 -55.1663 -55.1478
   -55.1469 -55.1426 -55.1085 -55.0241 -55.0192 -55.0073 -54.3119 -54.3110
   -31.6833 -31.6729 -31.6597 -31.6371 -31.6367 -31.6218 -31.6097 -31.6092
   -31.5683 -31.5350 -31.5195 -31.4962 -31.4871 -31.4723 -31.4621 -31.4539
   -31.4467 -31.4448 -31.4429 -31.4385 -31.4381 -31.4270 -31.4187 -31.4037
   -31.4029 -31.3986 -31.3960 -31.3905 -31.3676 -31.3462 -31.3449 -31.3309
   -31.3253 -31.3243 -31.3208 -31.3104 -31.2857 -31.2849 -31.2463 -31.2355
   -31.2106 -31.2024 -30.6365 -30.6358 -30.5489 -30.5477 -30.5100 -30.5093
   -19.3693 -16.2472 -15.7675 -15.5483 -15.4399 -15.4133 -15.2661 -15.2385
   -15.2054 -15.1976 -15.1377 -15.0604 -15.0527 -15.0181 -14.9685 -14.9654
   -14.9117 -14.9029 -14.8279 -14.8093 -14.7742 -14.7651 -14.7291 -14.7217
   -14.7173 -14.7020 -14.6967 -14.6788 -14.6545 -14.5421 -14.4470 -14.3987
   -12.8130 -12.8124 -10.1614  -7.8060  -6.5605  -5.4396  -4.1488  -3.8200
    -3.6416  -2.8443  -2.7310  -2.6138  -2.5950  -2.5394  -2.5023  -2.4921
    -2.4568  -2.4467  -2.4399  -2.4355  -2.3879  -2.3701  -2.3170  -2.2877
    -2.2808  -2.2587  -2.2452  -2.2347  -2.1976  -2.1697  -2.1297  -2.1064
    -2.0484  -2.0388  -2.0087  -1.9588  -1.9364  -1.9295  -1.7270  -1.6241
    -1.5406  -1.5294  -1.5119  -1.4504  -1.3617  -1.3133  -1.2287  -1.1913
    -1.1594  -1.1325  -1.0992  -1.0704  -1.0439  -1.0108  -1.0052  -0.8806
    -0.8638  -0.7688  -0.6957  -0.6493  -0.5983  -0.5546  -0.5197  -0.4928
    -0.4101  -0.3118  -0.2769  -0.2021  -0.1646  -0.1367  -0.1065  -0.0800
    -0.0652  -0.0470  -0.0110   0.0321   0.0541   0.0807   0.1034   0.1350
     0.1692   0.1987   0.2925   0.3113   0.3598   0.4647   0.4745   0.5615
     0.6007   0.6564   0.7527   0.7628   0.7868   0.8622   0.8888   0.9340
     0.9519   1.0386   1.1228   1.2938   1.3050   2.0385   2.0468   2.1480
     2.1491   3.7929   4.0301   4.1587   4.1769   4.2019   4.2202   4.2455
     4.3131   4.3372   4.3918   4.4044

          k = 0.0380-0.0419 0.0000 ( 17876 PWs)   bands (ev):

   -55.4165 -55.3293 -55.3052 -55.2248 -55.1957 -55.1792 -55.1659 -55.1592
   -55.1467 -55.1350 -55.1048 -55.0261 -55.0229 -55.0004 -54.3235 -54.2994
   -31.7693 -31.7316 -31.7137 -31.6625 -31.6621 -31.6268 -31.6194 -31.6190
   -31.5883 -31.5854 -31.5736 -31.5130 -31.5013 -31.4963 -31.4708 -31.4494
   -31.4480 -31.4389 -31.4338 -31.4155 -31.4055 -31.3908 -31.3876 -31.3811
   -31.3762 -31.3743 -31.3727 -31.3500 -31.3438 -31.3433 -31.3317 -31.3292
   -31.3075 -31.3016 -31.3006 -31.2963 -31.2553 -31.2408 -31.2337 -31.2278
   -31.2153 -31.1990 -30.6810 -30.6460 -30.6264 -30.5402 -30.4790 -30.4117
   -19.3711 -16.2546 -15.8834 -15.7100 -15.6061 -15.4612 -15.3618 -15.2905
   -15.2154 -15.1552 -15.1337 -15.1146 -15.0385 -15.0067 -14.9847 -14.8972
   -14.8828 -14.8645 -14.8516 -14.8202 -14.7993 -14.7840 -14.6878 -14.6764
   -14.6673 -14.6494 -14.6128 -14.5954 -14.5776 -14.5310 -14.3622 -14.3247
   -12.8292 -12.7505 -10.1731  -7.8041  -6.5616  -5.4332  -4.1596  -3.8123
    -3.6401  -3.1091  -2.9449  -2.8641  -2.8504  -2.8016  -2.7310  -2.6778
    -2.6133  -2.5554  -2.5282  -2.4550  -2.3858  -2.3663  -2.2766  -2.2660
    -2.2433  -2.2260  -2.1752  -2.1431  -2.1109  -2.0694  -2.0487  -2.0324
    -1.9963  -1.9721  -1.9490  -1.9175  -1.8810  -1.8145  -1.7666  -1.7446
    -1.6775  -1.6061  -1.5376  -1.4606  -1.3717  -1.3285  -1.2954  -1.1803
    -1.0950  -1.0398  -1.0266  -0.9722  -0.8963  -0.8603  -0.7610  -0.7125
    -0.6832  -0.6585  -0.6329  -0.5791  -0.5537  -0.5090  -0.4836  -0.4477
    -0.3821  -0.3396  -0.3142  -0.2617  -0.2060  -0.1904  -0.1557  -0.1049
    -0.0707  -0.0442  -0.0135   0.0199   0.0581   0.0793   0.1417   0.1854
     0.2171   0.2616   0.3202   0.3785   0.3921   0.4439   0.4711   0.5985
     0.6217   0.6741   0.7608   0.8124   0.8450   0.8815   0.9288   0.9811
     1.0457   1.0809   1.1766   1.2749   1.5067   1.8948   1.9769   2.1451
     2.2069   3.8362   3.9388   3.9651   4.0183   4.1763   4.2096   4.2266
     4.2678   4.3141   4.3439   4.3748

          k =-0.0760-0.0000 0.0000 ( 17886 PWs)   bands (ev):

   -55.4169 -55.3343 -55.3002 -55.2292 -55.1912 -55.1802 -55.1656 -55.1638
   -55.1502 -55.1300 -55.1016 -55.0304 -55.0219 -54.9960 -54.3284 -54.2944
   -31.8242 -31.7723 -31.7480 -31.7194 -31.6688 -31.6613 -31.6427 -31.6238
   -31.6197 -31.6087 -31.5796 -31.5427 -31.5038 -31.4813 -31.4526 -31.4464
   -31.4438 -31.4425 -31.3986 -31.3959 -31.3921 -31.3917 -31.3792 -31.3731
   -31.3654 -31.3580 -31.3580 -31.3569 -31.3483 -31.3291 -31.3253 -31.3024
   -31.2978 -31.2905 -31.2762 -31.2558 -31.2382 -31.2322 -31.2289 -31.1965
   -31.1949 -31.1933 -30.7347 -30.6535 -30.6211 -30.5527 -30.4662 -30.3545
   -19.3725 -16.2543 -15.8772 -15.7136 -15.6955 -15.4648 -15.3630 -15.3513
   -15.2693 -15.2170 -15.1885 -15.1662 -15.1187 -15.0795 -15.0631 -15.0382
   -14.8672 -14.8479 -14.8373 -14.7947 -14.7714 -14.7251 -14.6836 -14.6706
   -14.6371 -14.6023 -14.5231 -14.5117 -14.4993 -14.4663 -14.2890 -14.2752
   -12.8213 -12.7102 -10.1829  -7.7828  -6.5602  -5.4561  -4.1660  -3.8211
    -3.6028  -3.2391  -3.0010  -2.8995  -2.8621  -2.8137  -2.7944  -2.7675
    -2.6786  -2.6781  -2.6221  -2.6070  -2.6034  -2.5913  -2.3112  -2.3047
    -2.1742  -2.0720  -2.0172  -1.9630  -1.9478  -1.9300  -1.8584  -1.8416
    -1.8095  -1.7993  -1.7470  -1.7179  -1.7165  -1.6845  -1.6325  -1.6007
    -1.5817  -1.5728  -1.5072  -1.5047  -1.4556  -1.4093  -1.2712  -1.1409
    -1.0909  -0.9838  -0.9635  -0.9472  -0.9359  -0.9287  -0.9156  -0.8570
    -0.8168  -0.8065  -0.7918  -0.7386  -0.7140  -0.6669  -0.5849  -0.5704
    -0.5415  -0.4558  -0.4435  -0.2962  -0.2540  -0.1851  -0.1139  -0.0446
     0.0243   0.0365   0.0551   0.0887   0.1174   0.1751   0.1797   0.2372
     0.3156   0.3239   0.3535   0.3888   0.4144   0.4818   0.4862   0.5563
     0.5708   0.5826   0.6507   0.7026   0.8413   0.8515   0.8841   0.9514
     1.0829   1.2372   1.2627   1.3426   1.6464   1.7307   1.8311   2.0280
     2.1768   3.7458   3.7899   3.8480   4.0321   4.0582   4.0799   4.1342
     4.1373   4.2178   4.2859   4.3192

          k =-0.0760 0.0419 0.0000 ( 17914 PWs)   bands (ev):

   -55.4165 -55.3293 -55.3052 -55.2248 -55.1957 -55.1792 -55.1660 -55.1589
   -55.1470 -55.1350 -55.1048 -55.0261 -55.0229 -55.0004 -54.3235 -54.2994
   -31.7703 -31.7320 -31.7160 -31.6644 -31.6591 -31.6272 -31.6191 -31.6190
   -31.5908 -31.5884 -31.5738 -31.5140 -31.5016 -31.4963 -31.4686 -31.4490
   -31.4404 -31.4387 -31.4170 -31.4054 -31.3999 -31.3889 -31.3826 -31.3813
   -31.3797 -31.3753 -31.3706 -31.3614 -31.3512 -31.3492 -31.3314 -31.3284
   -31.3098 -31.3061 -31.3007 -31.2964 -31.2551 -31.2422 -31.2346 -31.2278
   -31.2227 -31.1986 -30.6808 -30.6488 -30.6258 -30.5402 -30.4791 -30.4117
   -19.3707 -16.2486 -15.8144 -15.6217 -15.6021 -15.3716 -15.2880 -15.2767
   -15.2209 -15.1549 -15.1317 -15.1208 -15.0979 -15.0896 -15.0527 -14.9887
   -14.8856 -14.8798 -14.8755 -14.8332 -14.8112 -14.7859 -14.6962 -14.6874
   -14.6846 -14.6428 -14.6193 -14.6055 -14.5650 -14.5322 -14.3601 -14.3264
   -12.8271 -12.7508 -10.1706  -7.7844  -6.5582  -5.4656  -4.1558  -3.8248
    -3.6132  -3.0883  -2.8631  -2.7365  -2.6517  -2.6093  -2.5787  -2.5517
    -2.5304  -2.4554  -2.4453  -2.3926  -2.3889  -2.3106  -2.2962  -2.2821
    -2.2289  -2.1906  -2.1273  -2.1065  -2.0709  -2.0245  -2.0017  -1.9641
    -1.9507  -1.9299  -1.8915  -1.8710  -1.8673  -1.8233  -1.8057  -1.7497
    -1.5650  -1.5301  -1.4908  -1.4053  -1.3557  -1.3365  -1.3132  -1.1674
    -1.1288  -1.0655  -1.0164  -0.9751  -0.9280  -0.8939  -0.8622  -0.8162
    -0.7650  -0.7109  -0.6987  -0.6360  -0.6138  -0.6098  -0.5800  -0.5712
    -0.5374  -0.5038  -0.4562  -0.4226  -0.3802  -0.3374  -0.2831  -0.2494
    -0.1676  -0.1204  -0.0912  -0.0720  -0.0274   0.0008   0.0447   0.1018
     0.1753   0.2544   0.3082   0.3666   0.4280   0.4505   0.4692   0.5079
     0.5389   0.6623   0.7865   0.8148   0.9269   0.9772   0.9906   1.0729
     1.1211   1.1342   1.1535   1.2491   1.3291   1.9088   1.9787   2.0679
     2.1955   3.8075   3.9321   3.9638   3.9960   4.0822   4.1443   4.1605
     4.2047   4.2547   4.3782   4.3961

          k =-0.0760-0.0839 0.0000 ( 17948 PWs)   bands (ev):

   -55.4162 -55.3176 -55.3170 -55.2181 -55.2025 -55.1781 -55.1664 -55.1471
   -55.1468 -55.1433 -55.1086 -55.0241 -55.0192 -55.0074 -54.3120 -54.3110
   -31.6840 -31.6747 -31.6563 -31.6378 -31.6375 -31.6215 -31.6097 -31.6093
   -31.5683 -31.5371 -31.5214 -31.4964 -31.4871 -31.4788 -31.4671 -31.4544
   -31.4529 -31.4474 -31.4442 -31.4373 -31.4369 -31.4272 -31.4114 -31.4035
   -31.3993 -31.3819 -31.3678 -31.3675 -31.3613 -31.3588 -31.3536 -31.3438
   -31.3294 -31.3253 -31.3240 -31.3205 -31.2854 -31.2849 -31.2464 -31.2388
   -31.2143 -31.2059 -30.6375 -30.6368 -30.5489 -30.5477 -30.5101 -30.5093
   -19.3689 -16.2435 -15.7539 -15.4856 -15.3606 -15.3488 -15.2273 -15.2109
   -15.1490 -15.1402 -15.1105 -15.0978 -15.0870 -15.0434 -15.0144 -14.9309
   -14.9152 -14.8744 -14.8710 -14.8252 -14.8230 -14.8213 -14.7996 -14.7780
   -14.7720 -14.7470 -14.7220 -14.6840 -14.6706 -14.5334 -14.4399 -14.3983
   -12.8128 -12.8122 -10.1587  -7.7862  -6.5561  -5.4734  -4.1471  -3.8241
    -3.6244  -2.8413  -2.6984  -2.5971  -2.4871  -2.4550  -2.4064  -2.3573
    -2.3438  -2.3121  -2.2394  -2.2120  -2.1967  -2.1609  -2.1596  -2.1363
    -2.1268  -2.1070  -2.0785  -2.0589  -2.0490  -2.0425  -2.0158  -2.0003
    -1.9859  -1.9605  -1.9328  -1.9117  -1.8984  -1.8905  -1.8401  -1.7345
    -1.6459  -1.5670  -1.5308  -1.5050  -1.4922  -1.4461  -1.4328  -1.4207
    -1.3856  -1.3621  -1.2273  -1.2050  -1.0672  -1.0125  -0.9787  -0.9324
    -0.8787  -0.8702  -0.8533  -0.8137  -0.7737  -0.6414  -0.6102  -0.5747
    -0.5073  -0.4442  -0.3571  -0.3431  -0.3188  -0.3016  -0.2660  -0.2464
    -0.2325  -0.2035  -0.1724  -0.0948  -0.0610  -0.0488  -0.0300   0.0690
     0.1707   0.2074   0.2721   0.3414   0.3836   0.4068   0.4375   0.6218
     0.6515   0.7949   0.8037   0.8081   0.9528   0.9535   1.0007   1.0532
     1.0809   1.1231   1.1525   1.1667   1.2018   2.0565   2.0649   2.1341
     2.1343   3.7692   3.9350   4.1579   4.1804   4.2389   4.2501   4.2811
     4.3069   4.3362   4.3775   4.3961

     the Fermi energy is     3.7827 ev

!    total energy              =   -2975.15015514 Ry
     estimated scf accuracy    <       0.00000004 Ry
     smearing contrib. (-TS)   =      -0.03329154 Ry
     internal energy E=F+TS    =   -2975.11686360 Ry

     The total energy is F=E-TS. E is the sum of the following terms:
     one-electron contribution =  -23379.78675306 Ry
     hartree contribution      =   11787.14158174 Ry
     xc contribution           =    -494.90340074 Ry
     ewald contribution        =    9112.42907739 Ry
     electric field correction =       0.00263107 Ry

     convergence has been achieved in  84 iterations

     Forces acting on atoms (cartesian axes, Ry/au):

     atom    1 type  1   force =     0.00028564   -0.00019786    0.09345846
     atom    2 type  1   force =    -0.00005835    0.00053463   -0.17634661
     atom    3 type  2   force =     0.00004256   -0.00029650   -0.02070150
     atom    4 type  2   force =     0.00001589   -0.00222401    0.05686528
     atom    5 type  2   force =    -0.00786338   -0.00263147    0.00513631
     atom    6 type  2   force =     0.00892756   -0.00211549    0.00325580
     atom    7 type  1   force =    -0.00077889   -0.00333085    0.00576433
     atom    8 type  1   force =     0.00086355    0.00108182   -0.00172836
     atom    9 type  2   force =    -0.00018679    0.00014316    0.00006751
     atom   10 type  2   force =    -0.00341980    0.00105626   -0.00644377
     atom   11 type  2   force =     0.00018011   -0.00013660    0.00031702
     atom   12 type  2   force =    -0.00011397   -0.00023216    0.00003499
     atom   13 type  1   force =     0.00000292   -0.00005633   -0.00020280
     atom   14 type  1   force =     0.00054018   -0.00037371   -0.00025423
     atom   15 type  2   force =    -0.00003609   -0.00105653   -0.00045044
     atom   16 type  2   force =     0.00020323    0.00064765    0.00088808
     atom   17 type  2   force =    -0.00103458    0.00062413   -0.00086728
     atom   18 type  2   force =     0.00127828   -0.00002722   -0.00086536
     atom   19 type  1   force =     0.00006760    0.00026043   -0.00001298
     atom   20 type  1   force =     0.00038488    0.00025746   -0.00053846
     atom   21 type  2   force =     0.00011469    0.00005054    0.10358146
     atom   22 type  2   force =     0.00010836    0.00001152    0.00064128
     atom   23 type  2   force =    -0.07137223   -0.00017753   -0.02700905
     atom   24 type  2   force =     0.07136601    0.00027063   -0.02703950
     atom   25 type  1   force =     0.00007158   -0.00018062    0.09322362
     atom   26 type  1   force =     0.00008068   -0.00126288   -0.17655431
     atom   27 type  2   force =     0.00007595   -0.00015251   -0.01946909
     atom   28 type  2   force =     0.00001691   -0.00060279    0.05222724
     atom   29 type  2   force =    -0.00743297    0.00177173    0.00489895
     atom   30 type  2   force =     0.00836077    0.00235577    0.00300043
     atom   31 type  1   force =    -0.00098054    0.00884836   -0.00435543
     atom   32 type  1   force =     0.00094099   -0.00222869   -0.00239048
     atom   33 type  2   force =    -0.00022524   -0.00132760   -0.00062912
     atom   34 type  2   force =    -0.00214540   -0.00210353   -0.00764771
     atom   35 type  2   force =    -0.00002186    0.00016759    0.00027238
     atom   36 type  2   force =     0.00017719    0.00016167    0.00021464
     atom   37 type  1   force =     0.00003149   -0.00031374    0.00015393
     atom   38 type  1   force =     0.00035004    0.00046581    0.00018878
     atom   39 type  2   force =    -0.00000818    0.00082378   -0.00016733
     atom   40 type  2   force =     0.00021202   -0.00014631    0.00041372
     atom   41 type  2   force =    -0.00071584    0.00018244    0.00063370
     atom   42 type  2   force =     0.00090776   -0.00025028    0.00020471
     atom   43 type  1   force =     0.00040617   -0.00005958   -0.00006031
     atom   44 type  1   force =     0.00023489    0.00093212    0.00022325
     atom   45 type  2   force =     0.00010083   -0.00009104    0.10333843
     atom   46 type  2   force =    -0.07141308   -0.00003053   -0.02704417
     atom   47 type  2   force =     0.07138792    0.00038467   -0.02707577
     atom   48 type  3   force =    -0.00080178    0.00003196   -0.00010707
     atom   49 type  3   force =     0.00041102    0.00056626    0.00041094
     atom   50 type  4   force =     0.00049760    0.00036736    0.00007277
     atom   51 type  5   force =     0.00046367   -0.00088508   -0.00047262
     atom   52 type  5   force =    -0.00009831    0.00010675   -0.00013896
     atom   53 type  5   force =    -0.00013272    0.00046782    0.00001742
     atom   54 type  5   force =    -0.00015026    0.00023326   -0.00037033
     atom   55 type  5   force =     0.00000198    0.00033871    0.00050496
     atom   56 type  2   force =    -0.00028335   -0.00016356   -0.00050520
     atom   57 type  5   force =     0.00016266   -0.00048927   -0.00056210

     Total force =     0.363107     Total SCF correction =     0.000480
  @ DRIVER MODE: Message from server: STATUS
  @ DRIVER MODE: Message from server: GETFORCE
  @ DRIVER MODE: Returning v,forces,stress,ensemble 

     Writing output data file ./calc.save/
  @ DRIVER MODE: Message from server: EXIT
  @ DRIVE MODE: Exiting  
 
     init_run     :     13.57s CPU     13.98s WALL (       1 calls)
     electrons    :   1620.59s CPU   1657.69s WALL (       1 calls)
     forces       :      3.04s CPU      3.17s WALL (       1 calls)

     Called by init_run:
     wfcinit      :      5.91s CPU      6.07s WALL (       1 calls)
     potinit      :      6.88s CPU      6.99s WALL (       1 calls)
     hinit0       :      0.36s CPU      0.39s WALL (       1 calls)

     Called by electrons:
     c_bands      :   1368.45s CPU   1387.57s WALL (      84 calls)
     sum_band     :    171.19s CPU    179.83s WALL (      84 calls)
     v_of_rho     :     60.21s CPU     62.60s WALL (      85 calls)
     newd         :     24.16s CPU     30.90s WALL (      85 calls)
     mix_rho      :      2.24s CPU      2.37s WALL (      84 calls)
     vdW_kernel   :      5.83s CPU      5.86s WALL (       1 calls)

     Called by c_bands:
     init_us_2    :      9.91s CPU     10.02s WALL (    1700 calls)
     cegterg      :   1340.14s CPU   1358.55s WALL (     866 calls)

     Called by *egterg:
     cdiaghg      :    203.20s CPU    204.20s WALL (    8122 calls)
     h_psi        :    737.36s CPU    748.87s WALL (    8139 calls)
     s_psi        :     96.87s CPU     97.17s WALL (    8139 calls)
     g_psi        :      2.66s CPU      2.68s WALL (    7263 calls)

     Called by h_psi:
     h_psi:calbec :     90.89s CPU     92.50s WALL (    8139 calls)
     vloc_psi     :    544.84s CPU    549.88s WALL (    8139 calls)
     add_vuspsi   :     97.27s CPU     99.32s WALL (    8139 calls)

     General routines
     calbec       :    120.66s CPU    122.36s WALL (    9019 calls)
     fft          :     31.43s CPU     31.60s WALL (    5355 calls)
     ffts         :      0.21s CPU      0.21s WALL (     169 calls)
     fftw         :    610.17s CPU    616.03s WALL ( 1147620 calls)
     interpolate  :      0.64s CPU      0.65s WALL (      85 calls)
     davcio       :      0.00s CPU      1.57s WALL (      10 calls)
 
     Parallel routines
 
     PWSCF        :  27m17.81s CPU  30m54.95s WALL

 
   This run was terminated on:  10:56: 2  24Sep2021            

=------------------------------------------------------------------------------=
   JOB DONE.
=------------------------------------------------------------------------------=
