
     Program PWSCF v.6.7GPU starts on 23Sep2021 at 13:54:11 

     This program is part of the open-source Quantum ESPRESSO suite
     for quantum simulation of materials; please cite
         "P. Giannozzi et al., J. Phys.:Condens. Matter 21 395502 (2009);
         "P. Giannozzi et al., J. Phys.:Condens. Matter 29 465901 (2017);
         "P. Giannozzi et al., J. Chem. Phys. 152 154105 (2020);
          URL http://www.quantum-espresso.org", 
     in publications or presentations arising from this work. More details at
     http://www.quantum-espresso.org/quote

     Parallel version (MPI), running on     8 processors

     MPI processes distributed on     1 nodes
     R & G space division:  proc/nbgrp/npool/nimage =       8
     Reading input from /storage/home/hcoda1/3/ntian30/research/carbon/CxH_vib/H2O_calc/ads_slab/CH3OHHO_e/out_0040/pw.inp
Warning: card &CELL ignored
Warning: card   CELL_DYNAMICS='IPI', ignored
Warning: card / ignored

     Current dimensions of program PWSCF are:
     Max number of different atomic species (ntypx) = 10
     Max number of k-points (npk) =  40000
     Max angular momentum in pseudopotentials (lmaxx) =  3
     Presently no symmetry can be used with electric field

     Message from routine cell_base_init:
     DEPRECATED: use true lattice parameter, not A to a.u. conversion factor

     **************************************************************************
     Initializing libbeef V0.1.2 with the BEEF-vdW functional.
     Citation: Wellendorff et al., PRB 85, 235149 (2012).
     **************************************************************************


     IMPORTANT: XC functional enforced from input :
     Exchange-correlation= BEEF-VDW
                           (   1   4  43  14   2   0   0)
     Any further DFT definition will be discarded
     Please, verify this is what you really want


     Subspace diagonalization in iterative solution of the eigenvalue problem:
     one sub-group per band group will be used
     scalapack distributed-memory algorithm (size of sub-group:  2*  2 procs)

  @ DRIVER MODE: Connecting to 
 qe_1139763_2941008.sched-torque.pace.gatech.edufjqlvs4p_scratch
  using UNIX socket
  @ DRIVER MODE: Message from server: STATUS
  @ DRIVER MODE: Message from server: INIT
  @ DRIVER MODE: Receiving replica           0          -1
  @ DRIVER MODE: Receiving encoded integer          25
  @ DRIVER MODE:  SCF:  T  FORCE:  T  STRESS:  F  VC:  F  ENSEMBLE:  F
  @ DRIVER MODE:  SCF:  T  FORCE:  T  STRESS:  F  VC:  F  ENSEMBLE:  F
 
     Parallelization info
     --------------------
     sticks:   dense  smooth     PW     G-vecs:    dense   smooth      PW
     Min         409     164     47                70857    17926    2743
     Max         411     165     48                70858    17931    2751
     Sum        3275    1317    379               566857   143421   21985
 
     Using Slab Decomposition
 


     bravais-lattice index     =            0
     lattice parameter (alat)  =       1.8897  a.u.
     unit-cell volume          =    6658.9804 (a.u.)^3
     number of atoms/cell      =           55
     number of atomic types    =            4
     number of electrons       =       399.00
     number of Kohn-Sham states=          209
     kinetic-energy cutoff     =      29.3995  Ry
     charge density cutoff     =     293.9946  Ry
     scf convergence threshold =      7.3E-08
     mixing beta               =       0.0500
     number of iterations used =            8  plain     mixing
     Exchange-correlation= BEEF-VDW
                           (   1   4  43  14   2   0   0)

     celldm(1)=   1.889726  celldm(2)=   0.000000  celldm(3)=   0.000000
     celldm(4)=   0.000000  celldm(5)=   0.000000  celldm(6)=   0.000000

     crystal axes: (cart. coord. in units of alat)
               a(1) = (   6.579727   0.000000   0.000000 )  
               a(2) = (  -0.000775   5.961596   0.000000 )  
               a(3) = (   0.000000   0.000000  25.155947 )  

     reciprocal axes: (cart. coord. in units 2 pi/alat)
               b(1) = (  0.151982  0.000020  0.000000 )  
               b(2) = (  0.000000  0.167740  0.000000 )  
               b(3) = (  0.000000  0.000000  0.039752 )  


     PseudoPot. # 1 for Ti read from file:
     /storage/coda1/p-amedford6/0/shared/rich_project_chbe-medford/medford-share/data/pseudos_module/espresso/nninc/pbe/van/Ti.UPF
     MD5 check sum: 8e4df49b7f0d34bbd5052bf3f5ea0213
     Pseudo is Ultrasoft, Zval = 12.0
     Generated by new atomic code, or converted to UPF format
     Using radial grid of  851 points,  6 beta functions with: 
                l(1) =   0
                l(2) =   0
                l(3) =   1
                l(4) =   1
                l(5) =   2
                l(6) =   2
     Q(r) pseudized with  8 coefficients,  rinner =    1.000   1.000   1.000
                                                       1.000   1.000

     PseudoPot. # 2 for O  read from file:
     /storage/coda1/p-amedford6/0/shared/rich_project_chbe-medford/medford-share/data/pseudos_module/espresso/nninc/pbe/van/O.UPF
     MD5 check sum: 78c19812648e8988a0fe644b0f25305e
     Pseudo is Ultrasoft, Zval =  6.0
     Generated by new atomic code, or converted to UPF format
     Using radial grid of  737 points,  4 beta functions with: 
                l(1) =   0
                l(2) =   0
                l(3) =   1
                l(4) =   1
     Q(r) pseudized with  8 coefficients,  rinner =    0.800   0.800   0.800


     PseudoPot. # 3 for C  read from file:
     /storage/coda1/p-amedford6/0/shared/rich_project_chbe-medford/medford-share/data/pseudos_module/espresso/nninc/pbe/van/C.UPF
     MD5 check sum: 1a69bf6b8db32088f5b2163dbdb77a27
     Pseudo is Ultrasoft, Zval =  4.0
     Generated by new atomic code, or converted to UPF format
     Using radial grid of  721 points,  4 beta functions with: 
                l(1) =   0
                l(2) =   0
                l(3) =   1
                l(4) =   1
     Q(r) pseudized with  8 coefficients,  rinner =    0.800   0.800   0.800


     PseudoPot. # 4 for H  read from file:
     /storage/coda1/p-amedford6/0/shared/rich_project_chbe-medford/medford-share/data/pseudos_module/espresso/nninc/pbe/van/H.UPF
     MD5 check sum: b5ee9d7bfd3a09ee7748110bda690ff7
     Pseudo is Ultrasoft, Zval =  1.0
     Generated by new atomic code, or converted to UPF format
     Using radial grid of  615 points,  1 beta functions with: 
                l(1) =   0
     Q(r) pseudized with  8 coefficients,  rinner =    0.800

     atomic species   valence    mass     pseudopotential
        Ti1           12.00    47.86700     Ti( 1.00)
        O1             6.00    15.99900     O ( 1.00)
        C1             4.00    12.01100     C ( 1.00)
        H1             1.00     1.00800     H ( 1.00)

     No symmetry found



   Cartesian axes

     site n.     atom                  positions (alat units)
         1           Ti1 tau(   1) = (   0.0004258   2.9801865   6.0000000  )
         2           Ti1 tau(   2) = (   3.2906075   1.4906267   6.0002472  )
         3           O1  tau(   3) = (   0.0006271   0.0005054   7.9858123  )
         4           O1  tau(   4) = (   3.2906025   0.0005020   7.3038282  )
         5           O1  tau(   5) = (   4.5942328   1.4918067   9.2879030  )
         6           O1  tau(   6) = (   1.9868534   1.4903216   9.2879459  )
         7           Ti1 tau(   7) = (   3.3364693   3.0244086   9.1899460  )
         8           Ti1 tau(   8) = (   0.0614121   1.5180315   9.2736979  )
         9           O1  tau(   9) = (   3.3192415   0.0109611  11.3574448  )
        10           O1  tau(  10) = (   0.0135824   0.0030625  10.5923660  )
        11           O1  tau(  11) = (   1.3113730   1.4888140  12.6397483  )
        12           O1  tau(  12) = (   5.3365169   1.4868518  12.6422516  )
        13           Ti1 tau(  13) = (   0.0249591   3.0356721  12.5595363  )
        14           Ti1 tau(  14) = (   3.3216347   1.5719315  12.4302660  )
        15           O1  tau(  15) = (   0.0475996   5.9320359  14.6592625  )
        16           O1  tau(  16) = (   3.3253441   5.8716044  14.0084122  )
        17           O1  tau(  17) = (   4.6294077   1.4993822  16.1384749  )
        18           O1  tau(  18) = (   2.0712093   1.5368213  16.0656395  )
        19           Ti1 tau(  19) = (   3.3420502   2.9337026  15.6791356  )
        20           Ti1 tau(  20) = (   0.0819182   1.3209985  15.9439250  )
        21           O1  tau(  21) = (   3.2904802   0.0005063   4.7018136  )
        22           O1  tau(  22) = (   0.1121901   0.0005398  17.1797988  )
        23           O1  tau(  23) = (   1.3043587   1.4918075   6.0039043  )
        24           O1  tau(  24) = (   5.2767064   1.4903225   6.0039473  )
        25           Ti1 tau(  25) = (   0.0000382   5.9609847   6.0000000  )
        26           Ti1 tau(  26) = (   3.2902200   4.4714249   6.0002472  )
        27           O1  tau(  27) = (   0.0002396   2.9813036   7.9858123  )
        28           O1  tau(  28) = (   3.2902150   2.9813002   7.3038282  )
        29           O1  tau(  29) = (   4.5938453   4.4726049   9.2879030  )
        30           O1  tau(  30) = (   1.9864658   4.4711199   9.2879459  )
        31           Ti1 tau(  31) = (   3.3365859   0.0383882   9.1683042  )
        32           Ti1 tau(  32) = (   0.0607984   4.4756772   9.2727477  )
        33           O1  tau(  33) = (   3.3154497   2.9528697  11.3100477  )
        34           O1  tau(  34) = (   0.0130381   2.9821538  10.6068333  )
        35           O1  tau(  35) = (   1.3079814   4.4632751  12.6339740  )
        36           O1  tau(  36) = (   5.3374838   4.4678533  12.6371107  )
        37           Ti1 tau(  37) = (   0.0367351   0.0553833  12.4739561  )
        38           Ti1 tau(  38) = (   3.3178111   4.6524667  12.7070490  )
        39           O1  tau(  39) = (   0.0226182   2.9861015  14.7894940  )
        40           O1  tau(  40) = (   3.3464301   2.9603322  13.9061577  )
        41           O1  tau(  41) = (   4.6320376   4.4053937  16.1659747  )
        42           O1  tau(  42) = (   2.0651706   4.3480327  16.1155179  )
        43           Ti1 tau(  43) = (   3.4032537   5.9185344  16.2710929  )
        44           Ti1 tau(  44) = (   0.0646745   4.5145260  15.8553686  )
        45           O1  tau(  45) = (   3.2900926   2.9813045   4.7018136  )
        46           O1  tau(  46) = (   1.3039711   4.4726057   6.0039043  )
        47           O1  tau(  47) = (   5.2763189   4.4711207   6.0039473  )
        48           C1  tau(  48) = (   5.9353497   3.0583042  18.8699169  )
        49           O1  tau(  49) = (   0.1856485   3.0014673  17.6677584  )
        50           H1  tau(  50) = (   4.9577780   2.6849493  18.5881267  )
        51           H1  tau(  51) = (   1.1185258   3.1466834  17.9024234  )
        52           H1  tau(  52) = (   6.3707541   2.4080388  19.6265123  )
        53           H1  tau(  53) = (   5.8722695   4.0904670  19.2075282  )
        54           O1  tau(  54) = (   3.1427056   0.0023213  18.1124628  )
        55           H1  tau(  55) = (   2.2021640   0.0520986  18.3490109  )

     number of k points=    10  Fermi-Dirac smearing, width (Ry)=  0.0073
                       cart. coord. in units 2pi/alat
        k(    1) = (   0.0000000   0.0000000   0.0000000), wk =   0.1250000
        k(    2) = (   0.0000000   0.0419351   0.0000000), wk =   0.2500000
        k(    3) = (   0.0000000  -0.0838702   0.0000000), wk =   0.1250000
        k(    4) = (   0.0379955   0.0000049   0.0000000), wk =   0.2500000
        k(    5) = (   0.0379955   0.0419400   0.0000000), wk =   0.2500000
        k(    6) = (   0.0379955  -0.0838652   0.0000000), wk =   0.2500000
        k(    7) = (   0.0379955  -0.0419301   0.0000000), wk =   0.2500000
        k(    8) = (  -0.0759910  -0.0000099   0.0000000), wk =   0.1250000
        k(    9) = (  -0.0759910   0.0419252   0.0000000), wk =   0.2500000
        k(   10) = (  -0.0759910  -0.0838800   0.0000000), wk =   0.1250000

     Dense  grid:   566857 G-vectors     FFT dimensions: (  72,  64, 270)

     Smooth grid:   143421 G-vectors     FFT dimensions: (  45,  40, 180)

     Estimated max dynamical RAM per process >     456.35 MB

     Estimated total dynamical RAM >       3.57 GB
     Cannot read rho : file not found

     Initial potential from superposition of free atoms

     starting charge  382.99916, renormalised to  399.00000

     negative rho (up, down):  1.652E-02 0.000E+00


     %%%%%%%%%%%%%%%%%%%%%%%%%%%%%%%%%%%%%%%%%%%%%%%%%%%%%%%%%%%%%%%%%%%%%%%%
     %                                                                      %
     % You are using vdW-DF, which was implemented by the Thonhauser group. %
     % Please cite the following two papers that made this development      %
     % possible and the two reviews that describe the various versions:     %
     %                                                                      %
     %   T. Thonhauser et al., PRL 115, 136402 (2015).                      %
     %   T. Thonhauser et al., PRB 76, 125112 (2007).                       %
     %   K. Berland et al., Rep. Prog. Phys. 78, 066501 (2015).             %
     %   D.C. Langreth et al., J. Phys.: Condens. Matter 21, 084203 (2009). %
     %                                                                      %
     %                                                                      %
     % If you are calculating the stress with vdW-DF, please also cite:     %
     %                                                                      %
     %   R. Sabatini et al., J. Phys.: Condens. Matter 24, 424209 (2012).   %
     %                                                                      %
     %%%%%%%%%%%%%%%%%%%%%%%%%%%%%%%%%%%%%%%%%%%%%%%%%%%%%%%%%%%%%%%%%%%%%%%%


 
     Adding external electric field

     Computed dipole along edir(3) : 
        Dipole              -10.2322 Ry au,        -26.0076 Debye
        Dipole field         -0.0193 Ry au, 
 
        Potential amp.        1.7900 Ry
        Total length         46.3494 bohr
 
     Starting wfcs are  301 atomic wfcs
  @ DRIVER MODE: Message from server: STATUS
  @ DRIVER MODE: Message from server: POSDATA
  @ DRIVER MODE: Reading and sharing cell 
  @ DRIVER MODE: Reading and sharing positions 
  @ DRIVER MODE: Received positions 

     total cpu time spent up to now is       13.9 secs

     Self-consistent Calculation

     iteration #  1     ecut=    29.40 Ry     beta= 0.05
     Davidson diagonalization with overlap
     c_bands:  3 eigenvalues not converged
     c_bands:  3 eigenvalues not converged
     c_bands:  4 eigenvalues not converged
     c_bands:  1 eigenvalues not converged
     c_bands:  5 eigenvalues not converged
     c_bands:  5 eigenvalues not converged
     c_bands:  4 eigenvalues not converged
     c_bands:  4 eigenvalues not converged
     c_bands:  4 eigenvalues not converged
     ethr =  1.00E-05,  avg # of iterations = 21.1

     negative rho (up, down):  1.150E-02 0.000E+00
 
     Adding external electric field

     Computed dipole along edir(3) : 
        Dipole               48.1023 Ry au,        122.2637 Debye
        Dipole field          0.0908 Ry au, 
 
        Potential amp.       -8.4148 Ry
        Total length         46.3494 bohr
 

     total cpu time spent up to now is       65.7 secs

     total energy              =   -2463.85469981 Ry
     estimated scf accuracy    <    5598.07201539 Ry

     iteration #  2     ecut=    29.40 Ry     beta= 0.05
     Davidson diagonalization with overlap
     ethr =  1.00E-02,  avg # of iterations = 25.4

     negative rho (up, down):  2.150E-03 0.000E+00
 
     Adding external electric field

     Computed dipole along edir(3) : 
        Dipole               -1.1701 Ry au,         -2.9742 Debye
        Dipole field         -0.0022 Ry au, 
 
        Potential amp.        0.2047 Ry
        Total length         46.3494 bohr
 

     total cpu time spent up to now is      158.6 secs

     total energy              =   -2464.28363662 Ry
     estimated scf accuracy    <   70564.07477446 Ry

     iteration #  3     ecut=    29.40 Ry     beta= 0.05
     Davidson diagonalization with overlap
     ethr =  1.00E-02,  avg # of iterations = 15.8

     negative rho (up, down):  2.228E-03 0.000E+00
 
     Adding external electric field

     Computed dipole along edir(3) : 
        Dipole               -3.9586 Ry au,        -10.0618 Debye
        Dipole field         -0.0075 Ry au, 
 
        Potential amp.        0.6925 Ry
        Total length         46.3494 bohr
 

     total cpu time spent up to now is      217.5 secs

     total energy              =   -2950.03018542 Ry
     estimated scf accuracy    <    5173.75037468 Ry

     iteration #  4     ecut=    29.40 Ry     beta= 0.05
     Davidson diagonalization with overlap
     ethr =  1.00E-02,  avg # of iterations = 10.4

     negative rho (up, down):  2.285E-03 0.000E+00
 
     Adding external electric field

     Computed dipole along edir(3) : 
        Dipole               -5.8631 Ry au,        -14.9024 Debye
        Dipole field         -0.0111 Ry au, 
 
        Potential amp.        1.0257 Ry
        Total length         46.3494 bohr
 

     total cpu time spent up to now is      240.1 secs

     total energy              =   -2948.05240399 Ry
     estimated scf accuracy    <    2124.67923038 Ry

     iteration #  5     ecut=    29.40 Ry     beta= 0.05
     Davidson diagonalization with overlap
     ethr =  1.00E-02,  avg # of iterations = 12.1

     negative rho (up, down):  2.351E-03 0.000E+00
 
     Adding external electric field

     Computed dipole along edir(3) : 
        Dipole               -6.2292 Ry au,        -15.8329 Debye
        Dipole field         -0.0118 Ry au, 
 
        Potential amp.        1.0897 Ry
        Total length         46.3494 bohr
 

     total cpu time spent up to now is      260.6 secs

     total energy              =   -2956.37818884 Ry
     estimated scf accuracy    <     541.77450015 Ry

     iteration #  6     ecut=    29.40 Ry     beta= 0.05
     Davidson diagonalization with overlap
     ethr =  1.00E-02,  avg # of iterations =  5.4

     negative rho (up, down):  2.349E-03 0.000E+00
 
     Adding external electric field

     Computed dipole along edir(3) : 
        Dipole               -5.9626 Ry au,        -15.1553 Debye
        Dipole field         -0.0113 Ry au, 
 
        Potential amp.        1.0431 Ry
        Total length         46.3494 bohr
 

     total cpu time spent up to now is      276.6 secs

     total energy              =   -2967.16610886 Ry
     estimated scf accuracy    <      39.18044243 Ry

     iteration #  7     ecut=    29.40 Ry     beta= 0.05
     Davidson diagonalization with overlap
     ethr =  9.82E-03,  avg # of iterations =  1.3

     negative rho (up, down):  2.404E-03 0.000E+00
 
     Adding external electric field

     Computed dipole along edir(3) : 
        Dipole               -4.9006 Ry au,        -12.4562 Debye
        Dipole field         -0.0092 Ry au, 
 
        Potential amp.        0.8573 Ry
        Total length         46.3494 bohr
 

     total cpu time spent up to now is      289.0 secs

     total energy              =   -2966.85366511 Ry
     estimated scf accuracy    <      35.55495968 Ry

     iteration #  8     ecut=    29.40 Ry     beta= 0.05
     Davidson diagonalization with overlap
     ethr =  8.91E-03,  avg # of iterations =  1.1

     negative rho (up, down):  2.657E-03 0.000E+00
 
     Adding external electric field

     Computed dipole along edir(3) : 
        Dipole               -1.8949 Ry au,         -4.8163 Debye
        Dipole field         -0.0036 Ry au, 
 
        Potential amp.        0.3315 Ry
        Total length         46.3494 bohr
 

     total cpu time spent up to now is      301.3 secs

     total energy              =   -2967.41689692 Ry
     estimated scf accuracy    <      45.85141170 Ry

     iteration #  9     ecut=    29.40 Ry     beta= 0.05
     Davidson diagonalization with overlap
     ethr =  8.91E-03,  avg # of iterations =  4.9

     negative rho (up, down):  2.834E-03 0.000E+00
 
     Adding external electric field

     Computed dipole along edir(3) : 
        Dipole               -1.2496 Ry au,         -3.1761 Debye
        Dipole field         -0.0024 Ry au, 
 
        Potential amp.        0.2186 Ry
        Total length         46.3494 bohr
 

     total cpu time spent up to now is      315.8 secs

     total energy              =   -2975.15128087 Ry
     estimated scf accuracy    <     945.34638489 Ry

     iteration # 10     ecut=    29.40 Ry     beta= 0.05
     Davidson diagonalization with overlap
     ethr =  8.91E-03,  avg # of iterations =  1.4

     negative rho (up, down):  3.526E-03 0.000E+00
 
     Adding external electric field

     Computed dipole along edir(3) : 
        Dipole               -0.3658 Ry au,         -0.9298 Debye
        Dipole field         -0.0007 Ry au, 
 
        Potential amp.        0.0640 Ry
        Total length         46.3494 bohr
 

     total cpu time spent up to now is      328.3 secs

     total energy              =   -2976.11781753 Ry
     estimated scf accuracy    <    1095.94804188 Ry

     iteration # 11     ecut=    29.40 Ry     beta= 0.05
     Davidson diagonalization with overlap
     ethr =  8.91E-03,  avg # of iterations =  4.5

     negative rho (up, down):  3.459E-03 0.000E+00
 
     Adding external electric field

     Computed dipole along edir(3) : 
        Dipole               -2.4253 Ry au,         -6.1645 Debye
        Dipole field         -0.0046 Ry au, 
 
        Potential amp.        0.4243 Ry
        Total length         46.3494 bohr
 

     total cpu time spent up to now is      342.4 secs

     total energy              =   -2960.43793207 Ry
     estimated scf accuracy    <    1113.96428081 Ry

     iteration # 12     ecut=    29.40 Ry     beta= 0.05
     Davidson diagonalization with overlap
     ethr =  8.91E-03,  avg # of iterations =  3.8

     negative rho (up, down):  3.381E-03 0.000E+00
 
     Adding external electric field

     Computed dipole along edir(3) : 
        Dipole               -3.8419 Ry au,         -9.7652 Debye
        Dipole field         -0.0073 Ry au, 
 
        Potential amp.        0.6721 Ry
        Total length         46.3494 bohr
 

     total cpu time spent up to now is      356.4 secs

     total energy              =   -2962.55396077 Ry
     estimated scf accuracy    <     135.05484275 Ry

     iteration # 13     ecut=    29.40 Ry     beta= 0.05
     Davidson diagonalization with overlap
     ethr =  8.91E-03,  avg # of iterations =  4.1

     negative rho (up, down):  3.301E-03 0.000E+00
 
     Adding external electric field

     Computed dipole along edir(3) : 
        Dipole               -2.2295 Ry au,         -5.6669 Debye
        Dipole field         -0.0042 Ry au, 
 
        Potential amp.        0.3900 Ry
        Total length         46.3494 bohr
 

     total cpu time spent up to now is      370.3 secs

     total energy              =   -2966.48085184 Ry
     estimated scf accuracy    <      35.72752222 Ry

     iteration # 14     ecut=    29.40 Ry     beta= 0.05
     Davidson diagonalization with overlap
     ethr =  8.91E-03,  avg # of iterations =  1.8

     negative rho (up, down):  3.058E-03 0.000E+00
 
     Adding external electric field

     Computed dipole along edir(3) : 
        Dipole               -4.1368 Ry au,        -10.5147 Debye
        Dipole field         -0.0078 Ry au, 
 
        Potential amp.        0.7237 Ry
        Total length         46.3494 bohr
 

     total cpu time spent up to now is      383.3 secs

     total energy              =   -2962.76469831 Ry
     estimated scf accuracy    <      89.66462543 Ry

     iteration # 15     ecut=    29.40 Ry     beta= 0.05
     Davidson diagonalization with overlap
     ethr =  8.91E-03,  avg # of iterations =  3.6

     negative rho (up, down):  3.116E-03 0.000E+00
 
     Adding external electric field

     Computed dipole along edir(3) : 
        Dipole               -3.9937 Ry au,        -10.1509 Debye
        Dipole field         -0.0075 Ry au, 
 
        Potential amp.        0.6986 Ry
        Total length         46.3494 bohr
 

     total cpu time spent up to now is      396.7 secs

     total energy              =   -2964.91822446 Ry
     estimated scf accuracy    <       5.56685684 Ry

     iteration # 16     ecut=    29.40 Ry     beta= 0.05
     Davidson diagonalization with overlap
     c_bands:  3 eigenvalues not converged
     c_bands:  1 eigenvalues not converged
     ethr =  1.40E-03,  avg # of iterations = 16.5

     negative rho (up, down):  3.429E-03 0.000E+00
 
     Adding external electric field

     Computed dipole along edir(3) : 
        Dipole               -3.8076 Ry au,         -9.6780 Debye
        Dipole field         -0.0072 Ry au, 
 
        Potential amp.        0.6661 Ry
        Total length         46.3494 bohr
 

     total cpu time spent up to now is      421.3 secs

     total energy              =   -2966.87814155 Ry
     estimated scf accuracy    <       4.32413791 Ry

     iteration # 17     ecut=    29.40 Ry     beta= 0.05
     Davidson diagonalization with overlap
     ethr =  1.08E-03,  avg # of iterations =  5.9

     negative rho (up, down):  3.360E-03 0.000E+00
 
     Adding external electric field

     Computed dipole along edir(3) : 
        Dipole               -3.9904 Ry au,        -10.1427 Debye
        Dipole field         -0.0075 Ry au, 
 
        Potential amp.        0.6981 Ry
        Total length         46.3494 bohr
 

     total cpu time spent up to now is      435.4 secs

     total energy              =   -2967.79188624 Ry
     estimated scf accuracy    <     174.73243462 Ry

     iteration # 18     ecut=    29.40 Ry     beta= 0.05
     Davidson diagonalization with overlap
     ethr =  1.08E-03,  avg # of iterations =  1.2

     negative rho (up, down):  3.392E-03 0.000E+00
 
     Adding external electric field

     Computed dipole along edir(3) : 
        Dipole               -3.8075 Ry au,         -9.6776 Debye
        Dipole field         -0.0072 Ry au, 
 
        Potential amp.        0.6661 Ry
        Total length         46.3494 bohr
 

     total cpu time spent up to now is      447.8 secs

     total energy              =   -2966.73085358 Ry
     estimated scf accuracy    <     193.05367265 Ry

     iteration # 19     ecut=    29.40 Ry     beta= 0.05
     Davidson diagonalization with overlap
     ethr =  1.08E-03,  avg # of iterations =  1.7

     negative rho (up, down):  3.846E-03 0.000E+00
 
     Adding external electric field

     Computed dipole along edir(3) : 
        Dipole               -3.3520 Ry au,         -8.5200 Debye
        Dipole field         -0.0063 Ry au, 
 
        Potential amp.        0.5864 Ry
        Total length         46.3494 bohr
 

     total cpu time spent up to now is      460.4 secs

     total energy              =   -2967.13518285 Ry
     estimated scf accuracy    <      44.07019703 Ry

     iteration # 20     ecut=    29.40 Ry     beta= 0.05
     Davidson diagonalization with overlap
     ethr =  1.08E-03,  avg # of iterations =  2.0

     negative rho (up, down):  3.719E-03 0.000E+00
 
     Adding external electric field

     Computed dipole along edir(3) : 
        Dipole               -3.4153 Ry au,         -8.6809 Debye
        Dipole field         -0.0064 Ry au, 
 
        Potential amp.        0.5975 Ry
        Total length         46.3494 bohr
 

     total cpu time spent up to now is      473.3 secs

     total energy              =   -2966.94506526 Ry
     estimated scf accuracy    <     140.26556121 Ry

     iteration # 21     ecut=    29.40 Ry     beta= 0.05
     Davidson diagonalization with overlap
     ethr =  1.08E-03,  avg # of iterations =  1.1

     negative rho (up, down):  3.609E-03 0.000E+00
 
     Adding external electric field

     Computed dipole along edir(3) : 
        Dipole               -3.0925 Ry au,         -7.8604 Debye
        Dipole field         -0.0058 Ry au, 
 
        Potential amp.        0.5410 Ry
        Total length         46.3494 bohr
 

     total cpu time spent up to now is      485.8 secs

     total energy              =   -2966.12922512 Ry
     estimated scf accuracy    <      57.63493989 Ry

     iteration # 22     ecut=    29.40 Ry     beta= 0.05
     Davidson diagonalization with overlap
     ethr =  1.08E-03,  avg # of iterations =  1.4

     negative rho (up, down):  3.871E-03 0.000E+00
 
     Adding external electric field

     Computed dipole along edir(3) : 
        Dipole               -2.6529 Ry au,         -6.7431 Debye
        Dipole field         -0.0050 Ry au, 
 
        Potential amp.        0.4641 Ry
        Total length         46.3494 bohr
 

     total cpu time spent up to now is      498.6 secs

     total energy              =   -2966.61916581 Ry
     estimated scf accuracy    <       3.09692910 Ry

     iteration # 23     ecut=    29.40 Ry     beta= 0.05
     Davidson diagonalization with overlap
     ethr =  7.76E-04,  avg # of iterations =  1.1

     negative rho (up, down):  4.502E-03 0.000E+00
 
     Adding external electric field

     Computed dipole along edir(3) : 
        Dipole               -1.5246 Ry au,         -3.8753 Debye
        Dipole field         -0.0029 Ry au, 
 
        Potential amp.        0.2667 Ry
        Total length         46.3494 bohr
 

     total cpu time spent up to now is      511.0 secs

     total energy              =   -2966.42189091 Ry
     estimated scf accuracy    <       2.94437650 Ry

     iteration # 24     ecut=    29.40 Ry     beta= 0.05
     Davidson diagonalization with overlap
     ethr =  7.38E-04,  avg # of iterations = 14.3

     negative rho (up, down):  4.914E-03 0.000E+00
 
     Adding external electric field

     Computed dipole along edir(3) : 
        Dipole               -0.8251 Ry au,         -2.0972 Debye
        Dipole field         -0.0016 Ry au, 
 
        Potential amp.        0.1443 Ry
        Total length         46.3494 bohr
 

     total cpu time spent up to now is      529.5 secs

     total energy              =   -2966.50723780 Ry
     estimated scf accuracy    <       4.71407356 Ry

     iteration # 25     ecut=    29.40 Ry     beta= 0.05
     Davidson diagonalization with overlap
     ethr =  7.38E-04,  avg # of iterations =  5.5

     negative rho (up, down):  5.100E-03 0.000E+00
 
     Adding external electric field

     Computed dipole along edir(3) : 
        Dipole               -0.8548 Ry au,         -2.1726 Debye
        Dipole field         -0.0016 Ry au, 
 
        Potential amp.        0.1495 Ry
        Total length         46.3494 bohr
 

     total cpu time spent up to now is      544.5 secs

     total energy              =   -2966.76792869 Ry
     estimated scf accuracy    <      27.35016998 Ry

     iteration # 26     ecut=    29.40 Ry     beta= 0.05
     Davidson diagonalization with overlap
     ethr =  7.38E-04,  avg # of iterations =  1.4

     negative rho (up, down):  5.035E-03 0.000E+00
 
     Adding external electric field

     Computed dipole along edir(3) : 
        Dipole               -0.7469 Ry au,         -1.8985 Debye
        Dipole field         -0.0014 Ry au, 
 
        Potential amp.        0.1307 Ry
        Total length         46.3494 bohr
 

     total cpu time spent up to now is      557.2 secs

     total energy              =   -2966.76226466 Ry
     estimated scf accuracy    <      41.93827538 Ry

     iteration # 27     ecut=    29.40 Ry     beta= 0.05
     Davidson diagonalization with overlap
     ethr =  7.38E-04,  avg # of iterations =  5.4

     negative rho (up, down):  4.869E-03 0.000E+00
 
     Adding external electric field

     Computed dipole along edir(3) : 
        Dipole               -0.7765 Ry au,         -1.9736 Debye
        Dipole field         -0.0015 Ry au, 
 
        Potential amp.        0.1358 Ry
        Total length         46.3494 bohr
 

     total cpu time spent up to now is      571.7 secs

     total energy              =   -2966.68910683 Ry
     estimated scf accuracy    <      41.05822443 Ry

     iteration # 28     ecut=    29.40 Ry     beta= 0.05
     Davidson diagonalization with overlap
     ethr =  7.38E-04,  avg # of iterations =  1.2

     negative rho (up, down):  4.047E-03 0.000E+00
 
     Adding external electric field

     Computed dipole along edir(3) : 
        Dipole               -1.6516 Ry au,         -4.1980 Debye
        Dipole field         -0.0031 Ry au, 
 
        Potential amp.        0.2889 Ry
        Total length         46.3494 bohr
 

     total cpu time spent up to now is      584.2 secs

     total energy              =   -2966.08536648 Ry
     estimated scf accuracy    <      25.57324837 Ry

     iteration # 29     ecut=    29.40 Ry     beta= 0.05
     Davidson diagonalization with overlap
     ethr =  7.38E-04,  avg # of iterations =  1.2

     negative rho (up, down):  4.048E-03 0.000E+00
 
     Adding external electric field

     Computed dipole along edir(3) : 
        Dipole               -1.5095 Ry au,         -3.8369 Debye
        Dipole field         -0.0028 Ry au, 
 
        Potential amp.        0.2641 Ry
        Total length         46.3494 bohr
 

     total cpu time spent up to now is      596.8 secs

     total energy              =   -2966.37403525 Ry
     estimated scf accuracy    <       1.42360756 Ry

     iteration # 30     ecut=    29.40 Ry     beta= 0.05
     Davidson diagonalization with overlap
     c_bands:  1 eigenvalues not converged
     ethr =  3.57E-04,  avg # of iterations =  9.9

     negative rho (up, down):  4.475E-03 0.000E+00
 
     Adding external electric field

     Computed dipole along edir(3) : 
        Dipole               -1.0410 Ry au,         -2.6460 Debye
        Dipole field         -0.0020 Ry au, 
 
        Potential amp.        0.1821 Ry
        Total length         46.3494 bohr
 

     total cpu time spent up to now is      613.1 secs

     total energy              =   -2966.42002688 Ry
     estimated scf accuracy    <       1.10487575 Ry

     iteration # 31     ecut=    29.40 Ry     beta= 0.05
     Davidson diagonalization with overlap
     c_bands:  1 eigenvalues not converged
     ethr =  2.77E-04,  avg # of iterations =  8.8

     negative rho (up, down):  4.624E-03 0.000E+00
 
     Adding external electric field

     Computed dipole along edir(3) : 
        Dipole               -0.9537 Ry au,         -2.4241 Debye
        Dipole field         -0.0018 Ry au, 
 
        Potential amp.        0.1668 Ry
        Total length         46.3494 bohr
 

     total cpu time spent up to now is      629.0 secs

     total energy              =   -2966.46504312 Ry
     estimated scf accuracy    <       5.50882253 Ry

     iteration # 32     ecut=    29.40 Ry     beta= 0.05
     Davidson diagonalization with overlap
     ethr =  2.77E-04,  avg # of iterations =  6.5

     negative rho (up, down):  4.329E-03 0.000E+00
 
     Adding external electric field

     Computed dipole along edir(3) : 
        Dipole               -1.3486 Ry au,         -3.4278 Debye
        Dipole field         -0.0025 Ry au, 
 
        Potential amp.        0.2359 Ry
        Total length         46.3494 bohr
 

     total cpu time spent up to now is      643.8 secs

     total energy              =   -2966.18867321 Ry
     estimated scf accuracy    <       9.00997144 Ry

     iteration # 33     ecut=    29.40 Ry     beta= 0.05
     Davidson diagonalization with overlap
     ethr =  2.77E-04,  avg # of iterations =  7.1

     negative rho (up, down):  4.851E-03 0.000E+00
 
     Adding external electric field

     Computed dipole along edir(3) : 
        Dipole               -0.7696 Ry au,         -1.9561 Debye
        Dipole field         -0.0015 Ry au, 
 
        Potential amp.        0.1346 Ry
        Total length         46.3494 bohr
 

     total cpu time spent up to now is      658.8 secs

     total energy              =   -2966.32825166 Ry
     estimated scf accuracy    <       0.77296348 Ry

     iteration # 34     ecut=    29.40 Ry     beta= 0.05
     Davidson diagonalization with overlap
     c_bands:  4 eigenvalues not converged
     c_bands:  1 eigenvalues not converged
     ethr =  1.94E-04,  avg # of iterations =  7.1

     negative rho (up, down):  4.977E-03 0.000E+00
 
     Adding external electric field

     Computed dipole along edir(3) : 
        Dipole               -0.6596 Ry au,         -1.6766 Debye
        Dipole field         -0.0012 Ry au, 
 
        Potential amp.        0.1154 Ry
        Total length         46.3494 bohr
 

     total cpu time spent up to now is      674.1 secs

     total energy              =   -2966.34264277 Ry
     estimated scf accuracy    <       0.83264004 Ry

     iteration # 35     ecut=    29.40 Ry     beta= 0.05
     Davidson diagonalization with overlap
     ethr =  1.94E-04,  avg # of iterations =  3.4

     negative rho (up, down):  4.763E-03 0.000E+00
 
     Adding external electric field

     Computed dipole along edir(3) : 
        Dipole               -0.8589 Ry au,         -2.1831 Debye
        Dipole field         -0.0016 Ry au, 
 
        Potential amp.        0.1503 Ry
        Total length         46.3494 bohr
 

     total cpu time spent up to now is      687.8 secs

     total energy              =   -2966.32731343 Ry
     estimated scf accuracy    <       0.70326913 Ry

     iteration # 36     ecut=    29.40 Ry     beta= 0.05
     Davidson diagonalization with overlap
     ethr =  1.76E-04,  avg # of iterations =  8.4

     negative rho (up, down):  4.772E-03 0.000E+00
 
     Adding external electric field

     Computed dipole along edir(3) : 
        Dipole               -0.8462 Ry au,         -2.1509 Debye
        Dipole field         -0.0016 Ry au, 
 
        Potential amp.        0.1480 Ry
        Total length         46.3494 bohr
 

     total cpu time spent up to now is      703.4 secs

     total energy              =   -2966.34554401 Ry
     estimated scf accuracy    <       0.66565115 Ry

     iteration # 37     ecut=    29.40 Ry     beta= 0.05
     Davidson diagonalization with overlap
     ethr =  1.67E-04,  avg # of iterations =  2.6

     negative rho (up, down):  4.953E-03 0.000E+00
 
     Adding external electric field

     Computed dipole along edir(3) : 
        Dipole               -0.7178 Ry au,         -1.8245 Debye
        Dipole field         -0.0014 Ry au, 
 
        Potential amp.        0.1256 Ry
        Total length         46.3494 bohr
 

     total cpu time spent up to now is      716.3 secs

     total energy              =   -2966.34352466 Ry
     estimated scf accuracy    <       0.68797289 Ry

     iteration # 38     ecut=    29.40 Ry     beta= 0.05
     Davidson diagonalization with overlap
     ethr =  1.67E-04,  avg # of iterations =  1.1

     negative rho (up, down):  5.385E-03 0.000E+00
 
     Adding external electric field

     Computed dipole along edir(3) : 
        Dipole               -0.5171 Ry au,         -1.3144 Debye
        Dipole field         -0.0010 Ry au, 
 
        Potential amp.        0.0905 Ry
        Total length         46.3494 bohr
 

     total cpu time spent up to now is      728.8 secs

     total energy              =   -2966.33471357 Ry
     estimated scf accuracy    <       0.65621452 Ry

     iteration # 39     ecut=    29.40 Ry     beta= 0.05
     Davidson diagonalization with overlap
     ethr =  1.64E-04,  avg # of iterations =  1.4

     negative rho (up, down):  5.807E-03 0.000E+00
 
     Adding external electric field

     Computed dipole along edir(3) : 
        Dipole               -0.2681 Ry au,         -0.6814 Debye
        Dipole field         -0.0005 Ry au, 
 
        Potential amp.        0.0469 Ry
        Total length         46.3494 bohr
 

     total cpu time spent up to now is      741.6 secs

     total energy              =   -2966.34483894 Ry
     estimated scf accuracy    <       0.64875805 Ry

     iteration # 40     ecut=    29.40 Ry     beta= 0.05
     Davidson diagonalization with overlap
     ethr =  1.63E-04,  avg # of iterations = 11.2

     negative rho (up, down):  6.233E-03 0.000E+00
 
     Adding external electric field

     Computed dipole along edir(3) : 
        Dipole               -0.1736 Ry au,         -0.4414 Debye
        Dipole field         -0.0003 Ry au, 
 
        Potential amp.        0.0304 Ry
        Total length         46.3494 bohr
 

     total cpu time spent up to now is      758.6 secs

     total energy              =   -2966.36456256 Ry
     estimated scf accuracy    <       0.83338639 Ry

     iteration # 41     ecut=    29.40 Ry     beta= 0.05
     Davidson diagonalization with overlap
     ethr =  1.63E-04,  avg # of iterations =  2.8

     negative rho (up, down):  9.613E-03 0.000E+00
 
     Adding external electric field

     Computed dipole along edir(3) : 
        Dipole                0.5993 Ry au,          1.5233 Debye
        Dipole field          0.0011 Ry au, 
 
        Potential amp.       -0.1048 Ry
        Total length         46.3494 bohr
 

     total cpu time spent up to now is      772.2 secs

     total energy              =   -2966.48760403 Ry
     estimated scf accuracy    <       0.87216044 Ry

     iteration # 42     ecut=    29.40 Ry     beta= 0.05
     Davidson diagonalization with overlap
     c_bands:  4 eigenvalues not converged
     c_bands:  5 eigenvalues not converged
     c_bands:  4 eigenvalues not converged
     ethr =  1.63E-04,  avg # of iterations = 26.9

     negative rho (up, down):  6.514E-03 0.000E+00
 
     Adding external electric field

     Computed dipole along edir(3) : 
        Dipole               -0.1152 Ry au,         -0.2928 Debye
        Dipole field         -0.0002 Ry au, 
 
        Potential amp.        0.0202 Ry
        Total length         46.3494 bohr
 

     total cpu time spent up to now is      810.2 secs

     total energy              =   -2965.91985785 Ry
     estimated scf accuracy    <      33.66044692 Ry

     iteration # 43     ecut=    29.40 Ry     beta= 0.05
     Davidson diagonalization with overlap
     c_bands:  2 eigenvalues not converged
     c_bands:  1 eigenvalues not converged
     c_bands:  3 eigenvalues not converged
     c_bands:  1 eigenvalues not converged
     c_bands:  1 eigenvalues not converged
     c_bands:  1 eigenvalues not converged
     c_bands:  1 eigenvalues not converged
     ethr =  1.63E-04,  avg # of iterations = 21.6

     negative rho (up, down):  5.171E-03 0.000E+00
 
     Adding external electric field

     Computed dipole along edir(3) : 
        Dipole               -0.7686 Ry au,         -1.9535 Debye
        Dipole field         -0.0015 Ry au, 
 
        Potential amp.        0.1345 Ry
        Total length         46.3494 bohr
 

     total cpu time spent up to now is      834.6 secs

     total energy              =   -2966.12810418 Ry
     estimated scf accuracy    <       1.35012608 Ry

     iteration # 44     ecut=    29.40 Ry     beta= 0.05
     Davidson diagonalization with overlap
     c_bands:  1 eigenvalues not converged
     c_bands:  2 eigenvalues not converged
     c_bands:  1 eigenvalues not converged
     c_bands:  4 eigenvalues not converged
     c_bands:  3 eigenvalues not converged
     c_bands:  3 eigenvalues not converged
     c_bands:  4 eigenvalues not converged
     c_bands:  1 eigenvalues not converged
     c_bands:  4 eigenvalues not converged
     ethr =  1.63E-04,  avg # of iterations = 19.7

     negative rho (up, down):  5.101E-03 0.000E+00
 
     Adding external electric field

     Computed dipole along edir(3) : 
        Dipole               -0.7837 Ry au,         -1.9920 Debye
        Dipole field         -0.0015 Ry au, 
 
        Potential amp.        0.1371 Ry
        Total length         46.3494 bohr
 

     total cpu time spent up to now is      862.8 secs

     total energy              =   -2966.33043163 Ry
     estimated scf accuracy    <       0.73649095 Ry

     iteration # 45     ecut=    29.40 Ry     beta= 0.05
     Davidson diagonalization with overlap
     ethr =  1.63E-04,  avg # of iterations =  1.7

     negative rho (up, down):  5.542E-03 0.000E+00
 
     Adding external electric field

     Computed dipole along edir(3) : 
        Dipole               -0.3383 Ry au,         -0.8598 Debye
        Dipole field         -0.0006 Ry au, 
 
        Potential amp.        0.0592 Ry
        Total length         46.3494 bohr
 

     total cpu time spent up to now is      875.9 secs

     total energy              =   -2966.30415170 Ry
     estimated scf accuracy    <       0.67724850 Ry

     iteration # 46     ecut=    29.40 Ry     beta= 0.05
     Davidson diagonalization with overlap
     ethr =  1.63E-04,  avg # of iterations =  7.0

     negative rho (up, down):  6.514E-03 0.000E+00
 
     Adding external electric field

     Computed dipole along edir(3) : 
        Dipole               -0.0469 Ry au,         -0.1191 Debye
        Dipole field         -0.0001 Ry au, 
 
        Potential amp.        0.0082 Ry
        Total length         46.3494 bohr
 

     total cpu time spent up to now is      891.1 secs

     total energy              =   -2966.33158318 Ry
     estimated scf accuracy    <       0.54495958 Ry

     iteration # 47     ecut=    29.40 Ry     beta= 0.05
     Davidson diagonalization with overlap
     ethr =  1.37E-04,  avg # of iterations =  1.1

     negative rho (up, down):  7.932E-03 0.000E+00
 
     Adding external electric field

     Computed dipole along edir(3) : 
        Dipole                0.2438 Ry au,          0.6197 Debye
        Dipole field          0.0005 Ry au, 
 
        Potential amp.       -0.0427 Ry
        Total length         46.3494 bohr
 

     total cpu time spent up to now is      903.6 secs

     total energy              =   -2966.32452846 Ry
     estimated scf accuracy    <       0.52993976 Ry

     iteration # 48     ecut=    29.40 Ry     beta= 0.05
     Davidson diagonalization with overlap
     ethr =  1.33E-04,  avg # of iterations =  1.1

     negative rho (up, down):  8.300E-03 0.000E+00
 
     Adding external electric field

     Computed dipole along edir(3) : 
        Dipole                0.2856 Ry au,          0.7259 Debye
        Dipole field          0.0005 Ry au, 
 
        Potential amp.       -0.0500 Ry
        Total length         46.3494 bohr
 

     total cpu time spent up to now is      916.0 secs

     total energy              =   -2966.32304072 Ry
     estimated scf accuracy    <       0.50215506 Ry

     iteration # 49     ecut=    29.40 Ry     beta= 0.05
     Davidson diagonalization with overlap
     ethr =  1.26E-04,  avg # of iterations =  1.0

     negative rho (up, down):  8.140E-03 0.000E+00
 
     Adding external electric field

     Computed dipole along edir(3) : 
        Dipole                0.2141 Ry au,          0.5442 Debye
        Dipole field          0.0004 Ry au, 
 
        Potential amp.       -0.0375 Ry
        Total length         46.3494 bohr
 

     total cpu time spent up to now is      928.4 secs

     total energy              =   -2966.32569268 Ry
     estimated scf accuracy    <       0.48765851 Ry

     iteration # 50     ecut=    29.40 Ry     beta= 0.05
     Davidson diagonalization with overlap
     ethr =  1.22E-04,  avg # of iterations =  1.1

     negative rho (up, down):  8.161E-03 0.000E+00
 
     Adding external electric field

     Computed dipole along edir(3) : 
        Dipole                0.1951 Ry au,          0.4960 Debye
        Dipole field          0.0004 Ry au, 
 
        Potential amp.       -0.0341 Ry
        Total length         46.3494 bohr
 

     total cpu time spent up to now is      941.0 secs

     total energy              =   -2966.32409580 Ry
     estimated scf accuracy    <       0.47731277 Ry

     iteration # 51     ecut=    29.40 Ry     beta= 0.05
     Davidson diagonalization with overlap
     ethr =  1.20E-04,  avg # of iterations =  1.0

     negative rho (up, down):  1.344E-02 0.000E+00
 
     Adding external electric field

     Computed dipole along edir(3) : 
        Dipole                0.4585 Ry au,          1.1653 Debye
        Dipole field          0.0009 Ry au, 
 
        Potential amp.       -0.0802 Ry
        Total length         46.3494 bohr
 

     total cpu time spent up to now is      953.3 secs

     total energy              =   -2966.30055369 Ry
     estimated scf accuracy    <       0.46646267 Ry

     iteration # 52     ecut=    29.40 Ry     beta= 0.05
     Davidson diagonalization with overlap
     ethr =  1.17E-04,  avg # of iterations =  4.8

     negative rho (up, down):  4.021E-02 0.000E+00
 
     Adding external electric field

     Computed dipole along edir(3) : 
        Dipole                0.9970 Ry au,          2.5342 Debye
        Dipole field          0.0019 Ry au, 
 
        Potential amp.       -0.1744 Ry
        Total length         46.3494 bohr
 

     total cpu time spent up to now is      967.4 secs

     total energy              =   -2966.26596332 Ry
     estimated scf accuracy    <       0.37109432 Ry

     iteration # 53     ecut=    29.40 Ry     beta= 0.05
     Davidson diagonalization with overlap
     c_bands:  4 eigenvalues not converged
     c_bands:  2 eigenvalues not converged
     c_bands:  4 eigenvalues not converged
     c_bands:  3 eigenvalues not converged
     c_bands:  2 eigenvalues not converged
     c_bands:  2 eigenvalues not converged
     c_bands:  5 eigenvalues not converged
     ethr =  9.30E-05,  avg # of iterations = 23.7

     negative rho (up, down):  1.734E-02 0.000E+00
 
     Adding external electric field

     Computed dipole along edir(3) : 
        Dipole                0.9549 Ry au,          2.4271 Debye
        Dipole field          0.0018 Ry au, 
 
        Potential amp.       -0.1670 Ry
        Total length         46.3494 bohr
 

     total cpu time spent up to now is     1000.1 secs

     total energy              =   -2966.22349148 Ry
     estimated scf accuracy    <       0.56568814 Ry

     iteration # 54     ecut=    29.40 Ry     beta= 0.05
     Davidson diagonalization with overlap
     c_bands:  1 eigenvalues not converged
     c_bands:  3 eigenvalues not converged
     c_bands:  2 eigenvalues not converged
     ethr =  9.30E-05,  avg # of iterations = 18.9

     negative rho (up, down):  1.825E-02 0.000E+00
 
     Adding external electric field

     Computed dipole along edir(3) : 
        Dipole                0.9760 Ry au,          2.4807 Debye
        Dipole field          0.0018 Ry au, 
 
        Potential amp.       -0.1707 Ry
        Total length         46.3494 bohr
 

     total cpu time spent up to now is     1025.0 secs

     total energy              =   -2966.27174830 Ry
     estimated scf accuracy    <       0.05504409 Ry

     iteration # 55     ecut=    29.40 Ry     beta= 0.05
     Davidson diagonalization with overlap
     c_bands:  2 eigenvalues not converged
     c_bands:  2 eigenvalues not converged
     c_bands:  4 eigenvalues not converged
     c_bands:  3 eigenvalues not converged
     c_bands:  4 eigenvalues not converged
     c_bands:  2 eigenvalues not converged
     c_bands:  4 eigenvalues not converged
     c_bands:  2 eigenvalues not converged
     c_bands:  2 eigenvalues not converged
     ethr =  1.38E-05,  avg # of iterations = 19.8

     negative rho (up, down):  2.148E-02 0.000E+00
 
     Adding external electric field

     Computed dipole along edir(3) : 
        Dipole                1.1865 Ry au,          3.0158 Debye
        Dipole field          0.0022 Ry au, 
 
        Potential amp.       -0.2076 Ry
        Total length         46.3494 bohr
 

     total cpu time spent up to now is     1053.3 secs

     total energy              =   -2966.27635587 Ry
     estimated scf accuracy    <       0.11070378 Ry

     iteration # 56     ecut=    29.40 Ry     beta= 0.05
     Davidson diagonalization with overlap
     c_bands:  1 eigenvalues not converged
     c_bands:  2 eigenvalues not converged
     c_bands:  4 eigenvalues not converged
     c_bands:  4 eigenvalues not converged
     c_bands:  1 eigenvalues not converged
     c_bands:  4 eigenvalues not converged
     c_bands:  1 eigenvalues not converged
     c_bands:  1 eigenvalues not converged
     ethr =  1.38E-05,  avg # of iterations = 19.5

     negative rho (up, down):  1.404E-02 0.000E+00
 
     Adding external electric field

     Computed dipole along edir(3) : 
        Dipole                0.7754 Ry au,          1.9708 Debye
        Dipole field          0.0015 Ry au, 
 
        Potential amp.       -0.1356 Ry
        Total length         46.3494 bohr
 

     total cpu time spent up to now is     1075.7 secs

     total energy              =   -2966.26726247 Ry
     estimated scf accuracy    <       0.06550393 Ry

     iteration # 57     ecut=    29.40 Ry     beta= 0.05
     Davidson diagonalization with overlap
     c_bands:  2 eigenvalues not converged
     c_bands:  2 eigenvalues not converged
     c_bands:  4 eigenvalues not converged
     c_bands:  1 eigenvalues not converged
     c_bands:  3 eigenvalues not converged
     c_bands:  1 eigenvalues not converged
     c_bands:  2 eigenvalues not converged
     c_bands:  3 eigenvalues not converged
     c_bands:  3 eigenvalues not converged
     ethr =  1.38E-05,  avg # of iterations = 19.3

     negative rho (up, down):  1.387E-02 0.000E+00
 
     Adding external electric field

     Computed dipole along edir(3) : 
        Dipole                0.7701 Ry au,          1.9573 Debye
        Dipole field          0.0015 Ry au, 
 
        Potential amp.       -0.1347 Ry
        Total length         46.3494 bohr
 

     total cpu time spent up to now is     1101.4 secs

     total energy              =   -2966.28351175 Ry
     estimated scf accuracy    <       0.10829172 Ry

     iteration # 58     ecut=    29.40 Ry     beta= 0.05
     Davidson diagonalization with overlap
     c_bands:  1 eigenvalues not converged
     ethr =  1.38E-05,  avg # of iterations =  9.4

     negative rho (up, down):  1.717E-02 0.000E+00
 
     Adding external electric field

     Computed dipole along edir(3) : 
        Dipole                0.9987 Ry au,          2.5384 Debye
        Dipole field          0.0019 Ry au, 
 
        Potential amp.       -0.1747 Ry
        Total length         46.3494 bohr
 

     total cpu time spent up to now is     1116.9 secs

     total energy              =   -2966.27355573 Ry
     estimated scf accuracy    <       0.10542473 Ry

     iteration # 59     ecut=    29.40 Ry     beta= 0.05
     Davidson diagonalization with overlap
     c_bands:  1 eigenvalues not converged
     c_bands:  1 eigenvalues not converged
     c_bands:  2 eigenvalues not converged
     c_bands:  3 eigenvalues not converged
     c_bands:  2 eigenvalues not converged
     c_bands:  2 eigenvalues not converged
     c_bands:  4 eigenvalues not converged
     c_bands:  2 eigenvalues not converged
     ethr =  1.38E-05,  avg # of iterations = 19.6

     negative rho (up, down):  1.599E-02 0.000E+00
 
     Adding external electric field

     Computed dipole along edir(3) : 
        Dipole                0.9458 Ry au,          2.4041 Debye
        Dipole field          0.0018 Ry au, 
 
        Potential amp.       -0.1655 Ry
        Total length         46.3494 bohr
 

     total cpu time spent up to now is     1140.0 secs

     total energy              =   -2966.27675927 Ry
     estimated scf accuracy    <       0.01242070 Ry

     iteration # 60     ecut=    29.40 Ry     beta= 0.05
     Davidson diagonalization with overlap
     c_bands:  1 eigenvalues not converged
     c_bands:  2 eigenvalues not converged
     c_bands:  2 eigenvalues not converged
     c_bands:  2 eigenvalues not converged
     c_bands:  1 eigenvalues not converged
     c_bands:  1 eigenvalues not converged
     c_bands:  2 eigenvalues not converged
     c_bands:  1 eigenvalues not converged
     ethr =  3.11E-06,  avg # of iterations = 19.7

     negative rho (up, down):  1.639E-02 0.000E+00
 
     Adding external electric field

     Computed dipole along edir(3) : 
        Dipole                0.9976 Ry au,          2.5355 Debye
        Dipole field          0.0019 Ry au, 
 
        Potential amp.       -0.1745 Ry
        Total length         46.3494 bohr
 

     total cpu time spent up to now is     1162.8 secs

     total energy              =   -2966.27820446 Ry
     estimated scf accuracy    <       0.03176580 Ry

     iteration # 61     ecut=    29.40 Ry     beta= 0.05
     Davidson diagonalization with overlap
     ethr =  3.11E-06,  avg # of iterations = 10.0

     negative rho (up, down):  1.645E-02 0.000E+00
 
     Adding external electric field

     Computed dipole along edir(3) : 
        Dipole                1.0455 Ry au,          2.6575 Debye
        Dipole field          0.0020 Ry au, 
 
        Potential amp.       -0.1829 Ry
        Total length         46.3494 bohr
 

     total cpu time spent up to now is     1178.6 secs

     total energy              =   -2966.27765650 Ry
     estimated scf accuracy    <       0.00862721 Ry

     iteration # 62     ecut=    29.40 Ry     beta= 0.05
     Davidson diagonalization with overlap
     c_bands:  1 eigenvalues not converged
     c_bands:  2 eigenvalues not converged
     c_bands:  1 eigenvalues not converged
     c_bands:  2 eigenvalues not converged
     ethr =  2.16E-06,  avg # of iterations = 19.1

     negative rho (up, down):  1.603E-02 0.000E+00
 
     Adding external electric field

     Computed dipole along edir(3) : 
        Dipole                1.0232 Ry au,          2.6007 Debye
        Dipole field          0.0019 Ry au, 
 
        Potential amp.       -0.1790 Ry
        Total length         46.3494 bohr
 

     total cpu time spent up to now is     1201.2 secs

     total energy              =   -2966.27804860 Ry
     estimated scf accuracy    <       0.00722045 Ry

     iteration # 63     ecut=    29.40 Ry     beta= 0.05
     Davidson diagonalization with overlap
     c_bands:  1 eigenvalues not converged
     ethr =  1.81E-06,  avg # of iterations =  5.6

     negative rho (up, down):  1.587E-02 0.000E+00
 
     Adding external electric field

     Computed dipole along edir(3) : 
        Dipole                1.0472 Ry au,          2.6618 Debye
        Dipole field          0.0020 Ry au, 
 
        Potential amp.       -0.1832 Ry
        Total length         46.3494 bohr
 

     total cpu time spent up to now is     1215.6 secs

     total energy              =   -2966.27792786 Ry
     estimated scf accuracy    <       0.00164020 Ry

     iteration # 64     ecut=    29.40 Ry     beta= 0.05
     Davidson diagonalization with overlap
     c_bands:  1 eigenvalues not converged
     c_bands:  2 eigenvalues not converged
     ethr =  4.11E-07,  avg # of iterations = 15.4

     negative rho (up, down):  1.540E-02 0.000E+00
 
     Adding external electric field

     Computed dipole along edir(3) : 
        Dipole                1.0118 Ry au,          2.5718 Debye
        Dipole field          0.0019 Ry au, 
 
        Potential amp.       -0.1770 Ry
        Total length         46.3494 bohr
 

     total cpu time spent up to now is     1236.8 secs

     total energy              =   -2966.27732243 Ry
     estimated scf accuracy    <       0.02403855 Ry

     iteration # 65     ecut=    29.40 Ry     beta= 0.05
     Davidson diagonalization with overlap
     c_bands:  2 eigenvalues not converged
     c_bands:  1 eigenvalues not converged
     c_bands:  1 eigenvalues not converged
     ethr =  4.11E-07,  avg # of iterations = 18.6

     negative rho (up, down):  1.550E-02 0.000E+00
 
     Adding external electric field

     Computed dipole along edir(3) : 
        Dipole                1.0166 Ry au,          2.5841 Debye
        Dipole field          0.0019 Ry au, 
 
        Potential amp.       -0.1778 Ry
        Total length         46.3494 bohr
 

     total cpu time spent up to now is     1262.0 secs

     total energy              =   -2966.27821024 Ry
     estimated scf accuracy    <       0.00315987 Ry

     iteration # 66     ecut=    29.40 Ry     beta= 0.05
     Davidson diagonalization with overlap
     ethr =  4.11E-07,  avg # of iterations =  1.9

     negative rho (up, down):  1.569E-02 0.000E+00
 
     Adding external electric field

     Computed dipole along edir(3) : 
        Dipole                1.0313 Ry au,          2.6213 Debye
        Dipole field          0.0019 Ry au, 
 
        Potential amp.       -0.1804 Ry
        Total length         46.3494 bohr
 

     total cpu time spent up to now is     1274.7 secs

     total energy              =   -2966.27802099 Ry
     estimated scf accuracy    <       0.00207876 Ry

     iteration # 67     ecut=    29.40 Ry     beta= 0.05
     Davidson diagonalization with overlap
     ethr =  4.11E-07,  avg # of iterations = 12.9

     negative rho (up, down):  1.546E-02 0.000E+00
 
     Adding external electric field

     Computed dipole along edir(3) : 
        Dipole                1.0269 Ry au,          2.6102 Debye
        Dipole field          0.0019 Ry au, 
 
        Potential amp.       -0.1796 Ry
        Total length         46.3494 bohr
 

     total cpu time spent up to now is     1292.7 secs

     total energy              =   -2966.27809544 Ry
     estimated scf accuracy    <       0.00087387 Ry

     iteration # 68     ecut=    29.40 Ry     beta= 0.05
     Davidson diagonalization with overlap
     ethr =  2.19E-07,  avg # of iterations =  9.9

     negative rho (up, down):  1.563E-02 0.000E+00
 
     Adding external electric field

     Computed dipole along edir(3) : 
        Dipole                1.0292 Ry au,          2.6160 Debye
        Dipole field          0.0019 Ry au, 
 
        Potential amp.       -0.1800 Ry
        Total length         46.3494 bohr
 

     total cpu time spent up to now is     1309.0 secs

     total energy              =   -2966.27808411 Ry
     estimated scf accuracy    <       0.00024148 Ry

     iteration # 69     ecut=    29.40 Ry     beta= 0.05
     Davidson diagonalization with overlap
     c_bands:  2 eigenvalues not converged
     c_bands:  1 eigenvalues not converged
     ethr =  6.05E-08,  avg # of iterations = 14.3

     negative rho (up, down):  1.575E-02 0.000E+00
 
     Adding external electric field

     Computed dipole along edir(3) : 
        Dipole                1.0354 Ry au,          2.6317 Debye
        Dipole field          0.0020 Ry au, 
 
        Potential amp.       -0.1811 Ry
        Total length         46.3494 bohr
 

     total cpu time spent up to now is     1333.3 secs

     total energy              =   -2966.27814697 Ry
     estimated scf accuracy    <       0.00063359 Ry

     iteration # 70     ecut=    29.40 Ry     beta= 0.05
     Davidson diagonalization with overlap
     ethr =  6.05E-08,  avg # of iterations =  8.1

     negative rho (up, down):  1.594E-02 0.000E+00
 
     Adding external electric field

     Computed dipole along edir(3) : 
        Dipole                1.0406 Ry au,          2.6450 Debye
        Dipole field          0.0020 Ry au, 
 
        Potential amp.       -0.1820 Ry
        Total length         46.3494 bohr
 

     total cpu time spent up to now is     1348.6 secs

     total energy              =   -2966.27811208 Ry
     estimated scf accuracy    <       0.00023779 Ry

     iteration # 71     ecut=    29.40 Ry     beta= 0.05
     Davidson diagonalization with overlap
     c_bands:  1 eigenvalues not converged
     ethr =  5.96E-08,  avg # of iterations = 12.1

     negative rho (up, down):  1.603E-02 0.000E+00
 
     Adding external electric field

     Computed dipole along edir(3) : 
        Dipole                1.0392 Ry au,          2.6413 Debye
        Dipole field          0.0020 Ry au, 
 
        Potential amp.       -0.1818 Ry
        Total length         46.3494 bohr
 

     total cpu time spent up to now is     1368.4 secs

     total energy              =   -2966.27814262 Ry
     estimated scf accuracy    <       0.00004227 Ry

     iteration # 72     ecut=    29.40 Ry     beta= 0.05
     Davidson diagonalization with overlap
     ethr =  1.06E-08,  avg # of iterations = 10.6

     negative rho (up, down):  1.622E-02 0.000E+00
 
     Adding external electric field

     Computed dipole along edir(3) : 
        Dipole                1.0394 Ry au,          2.6419 Debye
        Dipole field          0.0020 Ry au, 
 
        Potential amp.       -0.1818 Ry
        Total length         46.3494 bohr
 

     total cpu time spent up to now is     1386.1 secs

     total energy              =   -2966.27814628 Ry
     estimated scf accuracy    <       0.00004267 Ry

     iteration # 73     ecut=    29.40 Ry     beta= 0.05
     Davidson diagonalization with overlap
     ethr =  1.06E-08,  avg # of iterations =  9.6

     negative rho (up, down):  1.638E-02 0.000E+00
 
     Adding external electric field

     Computed dipole along edir(3) : 
        Dipole                1.0425 Ry au,          2.6498 Debye
        Dipole field          0.0020 Ry au, 
 
        Potential amp.       -0.1824 Ry
        Total length         46.3494 bohr
 

     total cpu time spent up to now is     1403.6 secs

     total energy              =   -2966.27814983 Ry
     estimated scf accuracy    <       0.00001473 Ry

     iteration # 74     ecut=    29.40 Ry     beta= 0.05
     Davidson diagonalization with overlap
     c_bands:  2 eigenvalues not converged
     c_bands:  2 eigenvalues not converged
     ethr =  3.69E-09,  avg # of iterations = 17.2

     negative rho (up, down):  1.640E-02 0.000E+00
 
     Adding external electric field

     Computed dipole along edir(3) : 
        Dipole                1.0433 Ry au,          2.6517 Debye
        Dipole field          0.0020 Ry au, 
 
        Potential amp.       -0.1825 Ry
        Total length         46.3494 bohr
 

     total cpu time spent up to now is     1429.5 secs

     total energy              =   -2966.27814744 Ry
     estimated scf accuracy    <       0.00005077 Ry

     iteration # 75     ecut=    29.40 Ry     beta= 0.05
     Davidson diagonalization with overlap
     c_bands:  2 eigenvalues not converged
     ethr =  3.69E-09,  avg # of iterations = 16.6

     negative rho (up, down):  1.653E-02 0.000E+00
 
     Adding external electric field

     Computed dipole along edir(3) : 
        Dipole                1.0436 Ry au,          2.6525 Debye
        Dipole field          0.0020 Ry au, 
 
        Potential amp.       -0.1826 Ry
        Total length         46.3494 bohr
 

     total cpu time spent up to now is     1456.5 secs

     total energy              =   -2966.27815553 Ry
     estimated scf accuracy    <       0.00000862 Ry

     iteration # 76     ecut=    29.40 Ry     beta= 0.05
     Davidson diagonalization with overlap
     ethr =  2.16E-09,  avg # of iterations =  9.2

     negative rho (up, down):  1.659E-02 0.000E+00
 
     Adding external electric field

     Computed dipole along edir(3) : 
        Dipole                1.0433 Ry au,          2.6519 Debye
        Dipole field          0.0020 Ry au, 
 
        Potential amp.       -0.1825 Ry
        Total length         46.3494 bohr
 

     total cpu time spent up to now is     1473.2 secs

     total energy              =   -2966.27815732 Ry
     estimated scf accuracy    <       0.00000292 Ry

     iteration # 77     ecut=    29.40 Ry     beta= 0.05
     Davidson diagonalization with overlap
     ethr =  7.31E-10,  avg # of iterations = 11.5

     negative rho (up, down):  1.659E-02 0.000E+00
 
     Adding external electric field

     Computed dipole along edir(3) : 
        Dipole                1.0437 Ry au,          2.6528 Debye
        Dipole field          0.0020 Ry au, 
 
        Potential amp.       -0.1826 Ry
        Total length         46.3494 bohr
 

     total cpu time spent up to now is     1496.5 secs

     total energy              =   -2966.27815878 Ry
     estimated scf accuracy    <       0.00000248 Ry

     iteration # 78     ecut=    29.40 Ry     beta= 0.05
     Davidson diagonalization with overlap
     ethr =  6.22E-10,  avg # of iterations =  5.5

     negative rho (up, down):  1.662E-02 0.000E+00
 
     Adding external electric field

     Computed dipole along edir(3) : 
        Dipole                1.0445 Ry au,          2.6549 Debye
        Dipole field          0.0020 Ry au, 
 
        Potential amp.       -0.1827 Ry
        Total length         46.3494 bohr
 

     total cpu time spent up to now is     1511.3 secs

     total energy              =   -2966.27815970 Ry
     estimated scf accuracy    <       0.00000132 Ry

     iteration # 79     ecut=    29.40 Ry     beta= 0.05
     Davidson diagonalization with overlap
     ethr =  3.31E-10,  avg # of iterations = 11.7

     negative rho (up, down):  1.663E-02 0.000E+00
 
     Adding external electric field

     Computed dipole along edir(3) : 
        Dipole                1.0443 Ry au,          2.6544 Debye
        Dipole field          0.0020 Ry au, 
 
        Potential amp.       -0.1827 Ry
        Total length         46.3494 bohr
 

     total cpu time spent up to now is     1534.6 secs

     total energy              =   -2966.27816089 Ry
     estimated scf accuracy    <       0.00000104 Ry

     iteration # 80     ecut=    29.40 Ry     beta= 0.05
     Davidson diagonalization with overlap
     ethr =  2.62E-10,  avg # of iterations =  8.4

     negative rho (up, down):  1.667E-02 0.000E+00
 
     Adding external electric field

     Computed dipole along edir(3) : 
        Dipole                1.0449 Ry au,          2.6559 Debye
        Dipole field          0.0020 Ry au, 
 
        Potential amp.       -0.1828 Ry
        Total length         46.3494 bohr
 

     total cpu time spent up to now is     1551.1 secs

     total energy              =   -2966.27816192 Ry
     estimated scf accuracy    <       0.00000042 Ry

     iteration # 81     ecut=    29.40 Ry     beta= 0.05
     Davidson diagonalization with overlap
     ethr =  1.06E-10,  avg # of iterations = 10.1

     negative rho (up, down):  1.667E-02 0.000E+00
 
     Adding external electric field

     Computed dipole along edir(3) : 
        Dipole                1.0451 Ry au,          2.6564 Debye
        Dipole field          0.0020 Ry au, 
 
        Potential amp.       -0.1828 Ry
        Total length         46.3494 bohr
 

     total cpu time spent up to now is     1572.9 secs

     total energy              =   -2966.27816273 Ry
     estimated scf accuracy    <       0.00000049 Ry

     iteration # 82     ecut=    29.40 Ry     beta= 0.05
     Davidson diagonalization with overlap
     ethr =  1.06E-10,  avg # of iterations =  7.3

     negative rho (up, down):  1.668E-02 0.000E+00
 
     Adding external electric field

     Computed dipole along edir(3) : 
        Dipole                1.0453 Ry au,          2.6570 Debye
        Dipole field          0.0020 Ry au, 
 
        Potential amp.       -0.1829 Ry
        Total length         46.3494 bohr
 

     total cpu time spent up to now is     1588.6 secs

     total energy              =   -2966.27816343 Ry
     estimated scf accuracy    <       0.00000018 Ry

     iteration # 83     ecut=    29.40 Ry     beta= 0.05
     Davidson diagonalization with overlap
     ethr =  4.40E-11,  avg # of iterations = 10.9

     negative rho (up, down):  1.669E-02 0.000E+00
 
     Adding external electric field

     Computed dipole along edir(3) : 
        Dipole                1.0454 Ry au,          2.6571 Debye
        Dipole field          0.0020 Ry au, 
 
        Potential amp.       -0.1829 Ry
        Total length         46.3494 bohr
 

     total cpu time spent up to now is     1610.4 secs

     total energy              =   -2966.27816410 Ry
     estimated scf accuracy    <       0.00000008 Ry

     iteration # 84     ecut=    29.40 Ry     beta= 0.05
     Davidson diagonalization with overlap
     ethr =  2.06E-11,  avg # of iterations =  9.5

     negative rho (up, down):  1.671E-02 0.000E+00
 
     Adding external electric field

     Computed dipole along edir(3) : 
        Dipole                1.0453 Ry au,          2.6568 Debye
        Dipole field          0.0020 Ry au, 
 
        Potential amp.       -0.1829 Ry
        Total length         46.3494 bohr
 

     total cpu time spent up to now is     1627.2 secs

     End of self-consistent calculation

          k = 0.0000 0.0000 0.0000 ( 18029 PWs)   bands (ev):

   -55.7017 -55.6320 -55.5971 -55.5176 -55.4945 -55.4666 -55.4344 -55.4271
   -55.4229 -55.4101 -55.3979 -55.3705 -55.2846 -55.2125 -54.5898 -54.5557
   -32.1110 -32.0935 -32.0127 -32.0022 -31.9589 -31.9498 -31.9219 -31.9194
   -31.8921 -31.8756 -31.8662 -31.7941 -31.7912 -31.7855 -31.7581 -31.7404
   -31.7331 -31.7212 -31.7112 -31.6989 -31.6947 -31.6906 -31.6463 -31.6455
   -31.6439 -31.6364 -31.6318 -31.6245 -31.6125 -31.5965 -31.5914 -31.5815
   -31.5757 -31.5604 -31.5561 -31.5467 -31.5365 -31.5123 -31.4733 -31.4566
   -31.4243 -31.4170 -30.9958 -30.9101 -30.8875 -30.8130 -30.7266 -30.6148
   -20.0623 -16.5184 -16.2850 -16.1054 -15.9041 -15.8406 -15.7821 -15.5937
   -15.5184 -15.3776 -15.2329 -15.2204 -15.1663 -15.1656 -15.1568 -15.1336
   -15.1026 -15.0586 -15.0491 -15.0431 -15.0376 -14.9821 -14.9401 -14.9324
   -14.9254 -14.8845 -14.7564 -14.7160 -14.6596 -14.4890 -14.4461 -13.0897
   -12.9736 -10.9300  -6.7708  -4.9664  -4.7705  -4.0111  -3.6369  -3.5364
    -3.5185  -3.4561  -3.3998  -3.1873  -3.0675  -3.0156  -2.9031  -2.7765
    -2.7376  -2.6815  -2.6575  -2.5658  -2.5439  -2.5136  -2.4888  -2.4313
    -2.4017  -2.3935  -2.3813  -2.3092  -2.2996  -2.1693  -2.1655  -2.0925
    -2.0240  -2.0032  -1.9843  -1.9660  -1.9346  -1.9338  -1.8877  -1.8672
    -1.8454  -1.8133  -1.7420  -1.7210  -1.6609  -1.6204  -1.3860  -1.2254
    -1.2027  -1.1327  -1.1151  -1.0829  -1.0462  -1.0313  -1.0254  -0.9864
    -0.9703  -0.8621  -0.7660  -0.7535  -0.6935  -0.6542  -0.6528  -0.5189
    -0.4708  -0.3972  -0.3713  -0.3461  -0.3232  -0.2307  -0.1877  -0.1703
    -0.1073  -0.0767   0.0348   0.0746   0.0922   0.1307   0.1865   0.2545
     0.2850   0.3216   0.3294   0.3616   0.4108   0.4358   0.4683   0.4947
     0.5341   0.6388   0.6782   0.6936   0.8372   0.8406   0.9254   1.0539
     1.1017   1.3830   1.4351   1.4731   1.6280   2.0027   2.0488   3.4870
     3.6036   3.6145   3.6329   3.7034   3.7936   3.9492   3.9770   4.0480
     4.1432

          k = 0.0000 0.0419 0.0000 ( 17933 PWs)   bands (ev):

   -55.7013 -55.6271 -55.6018 -55.5144 -55.4922 -55.4696 -55.4297 -55.4279
   -55.4246 -55.4063 -55.4024 -55.3744 -55.2827 -55.2143 -54.5847 -54.5606
   -32.0571 -32.0564 -31.9836 -31.9558 -31.9475 -31.9229 -31.9186 -31.9089
   -31.8620 -31.8500 -31.8382 -31.7897 -31.7816 -31.7717 -31.7585 -31.7442
   -31.7383 -31.7177 -31.7077 -31.7044 -31.7014 -31.6971 -31.6733 -31.6696
   -31.6614 -31.6464 -31.6402 -31.6393 -31.6292 -31.6085 -31.5939 -31.5917
   -31.5807 -31.5781 -31.5761 -31.5670 -31.5613 -31.5513 -31.4834 -31.4721
   -31.4521 -31.4166 -30.9416 -30.9066 -30.8906 -30.8003 -30.7392 -30.6718
   -20.0606 -16.5078 -16.1636 -15.9969 -15.8254 -15.7817 -15.6802 -15.5262
   -15.4641 -15.3657 -15.3504 -15.2957 -15.1714 -15.1471 -15.1413 -15.1238
   -15.0978 -15.0785 -15.0730 -15.0576 -15.0268 -14.9934 -14.9889 -14.9710
   -14.9354 -14.8578 -14.8145 -14.7767 -14.7171 -14.5660 -14.5324 -13.0939
   -13.0132 -10.9299  -6.7706  -4.9586  -4.7608  -4.0134  -3.4545  -3.3677
    -3.3476  -3.3321  -3.2499  -3.0611  -2.9840  -2.8121  -2.7694  -2.7299
    -2.7157  -2.6723  -2.6360  -2.5893  -2.5731  -2.5579  -2.5331  -2.4972
    -2.4807  -2.4451  -2.3680  -2.3512  -2.3146  -2.2910  -2.2440  -2.2008
    -2.1774  -2.1587  -2.1131  -2.1058  -2.0359  -2.0266  -1.9398  -1.8920
    -1.8244  -1.7861  -1.7177  -1.6336  -1.5058  -1.4086  -1.3446  -1.3245
    -1.2636  -1.2206  -1.0662  -1.0537  -0.9378  -0.9113  -0.8367  -0.8007
    -0.7956  -0.7482  -0.6724  -0.6379  -0.5954  -0.5698  -0.5476  -0.4885
    -0.4410  -0.4287  -0.4154  -0.3739  -0.3357  -0.2937  -0.2788  -0.1984
    -0.1884  -0.1633  -0.1060  -0.0269   0.0286   0.0555   0.1054   0.1578
     0.1944   0.2124   0.2306   0.2501   0.3283   0.3397   0.4430   0.4966
     0.5213   0.5839   0.6358   0.6573   0.6855   0.7431   0.7694   0.8432
     0.9763   1.0551   1.3508   1.6247   1.7217   1.9563   1.9622   3.7108
     3.7158   3.7755   3.8483   3.8722   3.9454   3.9740   4.0403   4.0608
     4.1023

          k = 0.0000-0.0839 0.0000 ( 17884 PWs)   bands (ev):

   -55.7009 -55.6184 -55.6105 -55.5107 -55.4898 -55.4732 -55.4293 -55.4258
   -55.4219 -55.4105 -55.4005 -55.3798 -55.2806 -55.2162 -54.5728 -54.5724
   -32.0120 -31.9563 -31.9432 -31.9287 -31.9210 -31.9206 -31.9145 -31.9006
   -31.8323 -31.8303 -31.7932 -31.7674 -31.7618 -31.7543 -31.7405 -31.7356
   -31.7274 -31.7209 -31.7208 -31.7143 -31.7115 -31.7014 -31.6958 -31.6949
   -31.6926 -31.6862 -31.6783 -31.6690 -31.6559 -31.6305 -31.6279 -31.6094
   -31.5997 -31.5976 -31.5881 -31.5736 -31.5642 -31.5608 -31.5402 -31.4709
   -31.4634 -31.4162 -30.8985 -30.8982 -30.8096 -30.8081 -30.7699 -30.7690
   -20.0589 -16.4996 -15.9421 -15.8467 -15.7278 -15.7140 -15.5443 -15.5243
   -15.4842 -15.4591 -15.3775 -15.3441 -15.3116 -15.2699 -15.1533 -15.0958
   -15.0886 -15.0696 -15.0562 -15.0098 -14.9570 -14.9547 -14.9521 -14.9301
   -14.9192 -14.8990 -14.8632 -14.8465 -14.8040 -14.7775 -14.6108 -13.0762
   -13.0756 -10.9298  -6.7705  -4.9511  -4.7545  -4.0167  -3.0917  -3.0665
    -3.0502  -2.9818  -2.9521  -2.9433  -2.9113  -2.9103  -2.8930  -2.8803
    -2.8118  -2.7567  -2.6613  -2.6579  -2.6500  -2.6286  -2.5956  -2.5725
    -2.5429  -2.5176  -2.4848  -2.4217  -2.4042  -2.3743  -2.3323  -2.2893
    -2.2472  -2.1852  -2.1306  -2.0106  -1.9277  -1.8958  -1.7674  -1.7261
    -1.6915  -1.6576  -1.6246  -1.4987  -1.4572  -1.4184  -1.3295  -1.2992
    -1.2112  -1.1382  -1.0759  -1.0591  -1.0509  -1.0070  -0.9631  -0.9609
    -0.9481  -0.9013  -0.8552  -0.7682  -0.7134  -0.6754  -0.5852  -0.3395
    -0.3230  -0.2948  -0.2845  -0.2411  -0.2368  -0.2099  -0.1608  -0.1442
    -0.1342  -0.0860  -0.0632  -0.0567  -0.0389  -0.0185   0.0391   0.0757
     0.1083   0.1377   0.1810   0.1934   0.2044   0.2709   0.2796   0.3309
     0.3722   0.4042   0.4872   0.5868   0.6151   0.6355   0.6605   0.8085
     0.9069   1.1074   1.1170   1.7638   1.7792   1.8911   1.8963   3.9195
     3.9341   3.9520   3.9738   3.9798   4.0062   4.0557   4.0904   4.1270
     4.1769

          k = 0.0380 0.0000 0.0000 ( 17913 PWs)   bands (ev):

   -55.7016 -55.6319 -55.5970 -55.5174 -55.4944 -55.4665 -55.4341 -55.4269
   -55.4229 -55.4102 -55.3979 -55.3704 -55.2845 -55.2123 -54.5896 -54.5556
   -32.1118 -32.0937 -32.0151 -32.0040 -31.9551 -31.9499 -31.9217 -31.9183
   -31.8968 -31.8756 -31.8664 -31.7939 -31.7919 -31.7826 -31.7508 -31.7401
   -31.7328 -31.7110 -31.7011 -31.6956 -31.6946 -31.6904 -31.6461 -31.6445
   -31.6436 -31.6367 -31.6260 -31.6193 -31.6122 -31.6048 -31.6007 -31.5912
   -31.5755 -31.5602 -31.5560 -31.5459 -31.5365 -31.5126 -31.4778 -31.4564
   -31.4242 -31.4174 -30.9953 -30.9133 -30.8855 -30.8128 -30.7265 -30.6146
   -20.0621 -16.5097 -16.2058 -16.0245 -15.8866 -15.7986 -15.6937 -15.6157
   -15.5213 -15.3846 -15.3533 -15.3118 -15.2789 -15.2602 -15.2248 -15.1859
   -15.1131 -15.0822 -15.0589 -15.0408 -14.9630 -14.9296 -14.9004 -14.8650
   -14.8393 -14.8129 -14.7868 -14.7636 -14.7450 -14.4867 -14.4457 -13.0865
   -12.9733 -10.9316  -6.7742  -4.9542  -4.7690  -4.0032  -3.5001  -3.3574
    -3.2645  -3.2465  -3.2282  -3.1360  -3.0688  -3.0057  -2.9731  -2.9121
[...]
     0.1706   0.2317   0.2551   0.2791   0.3116   0.3473   0.4214   0.4589
     0.5477   0.5929   0.6225   0.6570   0.6727   0.7338   0.7945   0.9694
     1.0842   1.3299   1.4030   1.4469   1.5975   1.8912   1.9666   3.5096
     3.5743   3.7061   3.8567   3.8952   3.9413   3.9545   3.9614   3.9766
     4.0045

          k = 0.0380 0.0419 0.0000 ( 17878 PWs)   bands (ev):

   -55.7012 -55.6271 -55.6018 -55.5143 -55.4922 -55.4696 -55.4294 -55.4276
   -55.4248 -55.4063 -55.4024 -55.3744 -55.2826 -55.2142 -54.5846 -54.5606
   -32.0579 -32.0567 -31.9857 -31.9528 -31.9494 -31.9228 -31.9176 -31.9089
   -31.8622 -31.8502 -31.8435 -31.7898 -31.7815 -31.7693 -31.7598 -31.7384
   -31.7378 -31.7175 -31.7041 -31.7016 -31.6982 -31.6905 -31.6703 -31.6701
   -31.6579 -31.6401 -31.6391 -31.6296 -31.6286 -31.6083 -31.6019 -31.6001
   -31.5936 -31.5782 -31.5758 -31.5671 -31.5632 -31.5512 -31.4834 -31.4758
   -31.4521 -31.4179 -30.9413 -30.9091 -30.8896 -30.8002 -30.7393 -30.6717
   -20.0604 -16.5026 -16.0933 -15.9231 -15.8383 -15.7010 -15.6057 -15.5338
   -15.4668 -15.3703 -15.3523 -15.3413 -15.2711 -15.2384 -15.2064 -15.1365
   -15.1272 -15.1172 -15.0919 -15.0475 -15.0040 -14.9661 -14.9453 -14.9226
   -14.8979 -14.8657 -14.8378 -14.8114 -14.7848 -14.5632 -14.5330 -13.0917
   -13.0135 -10.9313  -6.7728  -4.9516  -4.7626  -3.9981  -3.3385  -3.2113
    -3.1096  -3.0951  -3.0725  -2.9991  -2.9677  -2.8371  -2.7921  -2.7728
    -2.7354  -2.6907  -2.6369  -2.6071  -2.5138  -2.5080  -2.4742  -2.4605
    -2.4126  -2.3953  -2.3574  -2.3263  -2.2963  -2.2668  -2.2471  -2.2138
    -2.1711  -2.1323  -2.0694  -2.0610  -1.9980  -1.9729  -1.8833  -1.8574
    -1.7454  -1.7197  -1.6680  -1.6125  -1.5654  -1.3969  -1.3682  -1.3011
    -1.2596  -1.2143  -1.1339  -1.0673  -1.0044  -0.9565  -0.9445  -0.9080
    -0.8500  -0.8045  -0.7691  -0.7376  -0.6976  -0.6595  -0.6097  -0.5805
    -0.5594  -0.4969  -0.4486  -0.3901  -0.3659  -0.3240  -0.3141  -0.2828
    -0.2748  -0.2102  -0.2006  -0.1399  -0.0491  -0.0293  -0.0138   0.0416
     0.0785   0.1272   0.1699   0.2249   0.2710   0.3647   0.4131   0.4592
     0.5401   0.5726   0.6290   0.6702   0.7071   0.7464   0.8217   0.8363
     0.9504   1.0242   1.2909   1.6353   1.7247   1.8797   1.9414   3.6935
     3.7127   3.7682   3.9102   3.9639   3.9783   4.0195   4.0653   4.0868
     4.0983

          k = 0.0380-0.0839 0.0000 ( 17916 PWs)   bands (ev):

   -55.7009 -55.6184 -55.6105 -55.5107 -55.4898 -55.4732 -55.4288 -55.4263
   -55.4218 -55.4103 -55.4007 -55.3799 -55.2807 -55.2163 -54.5729 -54.5724
   -32.0125 -31.9542 -31.9446 -31.9295 -31.9218 -31.9197 -31.9145 -31.9006
   -31.8324 -31.8320 -31.7952 -31.7676 -31.7623 -31.7547 -31.7394 -31.7345
   -31.7307 -31.7278 -31.7234 -31.7176 -31.7130 -31.7106 -31.6983 -31.6977
   -31.6828 -31.6763 -31.6559 -31.6485 -31.6477 -31.6303 -31.6282 -31.6093
   -31.5998 -31.5982 -31.5977 -31.5844 -31.5757 -31.5603 -31.5401 -31.4742
   -31.4635 -31.4186 -30.8994 -30.8992 -30.8095 -30.8080 -30.7699 -30.7690
   -20.0587 -16.4966 -15.9215 -15.8052 -15.6745 -15.6631 -15.4899 -15.4661
   -15.4469 -15.4262 -15.3967 -15.3154 -15.2907 -15.2740 -15.1853 -15.1661
   -15.1313 -15.1141 -15.0744 -15.0246 -15.0193 -14.9875 -14.9798 -14.9646
   -14.9538 -14.9124 -14.8877 -14.8720 -14.7910 -14.7660 -14.6071 -13.0760
   -13.0754 -10.9310  -6.7713  -4.9493  -4.7589  -3.9953  -3.0562  -2.9997
    -2.9272  -2.8602  -2.8324  -2.7770  -2.7466  -2.7314  -2.7146  -2.7020
    -2.6833  -2.6691  -2.6206  -2.6134  -2.5716  -2.5400  -2.5277  -2.5117
    -2.4904  -2.4751  -2.4485  -2.3891  -2.3585  -2.3425  -2.2914  -2.2679
    -2.2480  -2.1982  -2.1849  -2.0136  -1.8800  -1.8322  -1.7830  -1.6955
    -1.6743  -1.6190  -1.5687  -1.5305  -1.4910  -1.4464  -1.4277  -1.3909
    -1.3621  -1.3100  -1.2827  -1.2687  -1.2445  -1.2127  -1.1189  -1.1100
    -1.0074  -0.9062  -0.8306  -0.7850  -0.7633  -0.7163  -0.6543  -0.5001
    -0.4889  -0.4371  -0.3944  -0.3725  -0.3516  -0.3262  -0.3007  -0.2734
    -0.2508  -0.2166  -0.1940  -0.1734  -0.1518  -0.0943  -0.0510  -0.0196
     0.0609   0.0831   0.1779   0.2504   0.3092   0.3370   0.3922   0.4216
     0.5099   0.5133   0.5403   0.6042   0.6327   0.6889   0.7304   0.8256
     0.8975   1.0728   1.0911   1.7772   1.7915   1.8811   1.8855   3.7785
     3.9086   3.9260   3.9446   3.9824   4.0604   4.0811   4.1166   4.1468
     4.1673

          k = 0.0380-0.0419 0.0000 ( 17876 PWs)   bands (ev):

   -55.7012 -55.6271 -55.6018 -55.5143 -55.4922 -55.4696 -55.4294 -55.4275
   -55.4248 -55.4063 -55.4024 -55.3744 -55.2826 -55.2142 -54.5846 -54.5606
   -32.0579 -32.0567 -31.9858 -31.9525 -31.9493 -31.9228 -31.9177 -31.9089
   -31.8622 -31.8502 -31.8435 -31.7898 -31.7814 -31.7693 -31.7598 -31.7384
   -31.7378 -31.7177 -31.7040 -31.7015 -31.6980 -31.6907 -31.6718 -31.6702
   -31.6578 -31.6399 -31.6376 -31.6297 -31.6286 -31.6088 -31.6023 -31.5992
   -31.5937 -31.5781 -31.5757 -31.5664 -31.5641 -31.5512 -31.4833 -31.4758
   -31.4521 -31.4179 -30.9413 -30.9091 -30.8895 -30.8002 -30.7393 -30.6717
   -20.0604 -16.5025 -16.0934 -15.9233 -15.8380 -15.7002 -15.6048 -15.5337
   -15.4669 -15.3704 -15.3579 -15.3418 -15.2714 -15.2373 -15.2062 -15.1345
   -15.1240 -15.1155 -15.0924 -15.0488 -15.0039 -14.9666 -14.9450 -14.9241
   -14.8974 -14.8657 -14.8391 -14.8104 -14.7857 -14.5629 -14.5329 -13.0917
   -13.0135 -10.9313  -6.7725  -4.9518  -4.7614  -3.9996  -3.3374  -3.2130
    -3.1099  -3.0936  -3.0717  -3.0003  -2.9682  -2.8340  -2.7934  -2.7733
    -2.7378  -2.6887  -2.6432  -2.6140  -2.5223  -2.4999  -2.4863  -2.4652
    -2.4077  -2.3845  -2.3576  -2.3228  -2.2872  -2.2653  -2.2464  -2.2147
    -2.1747  -2.1291  -2.0724  -2.0666  -2.0064  -1.9618  -1.8622  -1.8303
    -1.7870  -1.7029  -1.6684  -1.6093  -1.5627  -1.4143  -1.3519  -1.3125
    -1.2635  -1.2442  -1.1260  -1.0749  -1.0020  -0.9439  -0.9364  -0.9090
    -0.8431  -0.7843  -0.7782  -0.7171  -0.6940  -0.6516  -0.6304  -0.5865
    -0.5707  -0.4882  -0.4432  -0.4089  -0.3829  -0.3389  -0.3174  -0.2863
    -0.2601  -0.2148  -0.1725  -0.1459  -0.0678  -0.0326   0.0014   0.0391
     0.1037   0.1404   0.1519   0.2124   0.2606   0.3554   0.4105   0.4513
     0.5482   0.5868   0.6233   0.6682   0.7146   0.7452   0.8286   0.8387
     0.9579   1.0224   1.2901   1.6352   1.7251   1.8791   1.9422   3.6953
     3.7129   3.7811   3.9114   3.9649   3.9767   4.0214   4.0510   4.0713
     4.1021

          k =-0.0760-0.0000 0.0000 ( 17886 PWs)   bands (ev):

   -55.7016 -55.6318 -55.5970 -55.5174 -55.4943 -55.4665 -55.4338 -55.4269
   -55.4229 -55.4104 -55.3979 -55.3705 -55.2845 -55.2123 -54.5896 -54.5556
   -32.1127 -32.0940 -32.0176 -32.0059 -31.9517 -31.9501 -31.9216 -31.9171
   -31.9013 -31.8756 -31.8667 -31.7935 -31.7929 -31.7798 -31.7432 -31.7399
   -31.7328 -31.7109 -31.6945 -31.6918 -31.6907 -31.6582 -31.6484 -31.6456
   -31.6433 -31.6410 -31.6370 -31.6189 -31.6172 -31.6121 -31.6120 -31.5911
   -31.5754 -31.5603 -31.5560 -31.5452 -31.5367 -31.5133 -31.4836 -31.4563
   -31.4243 -31.4176 -30.9949 -30.9165 -30.8842 -30.8127 -30.7264 -30.6146
   -20.0619 -16.5024 -16.0634 -15.9856 -15.8935 -15.7086 -15.6091 -15.5961
   -15.5018 -15.4152 -15.4083 -15.3949 -15.3530 -15.3326 -15.3075 -15.2939
   -15.1185 -15.1082 -15.0823 -14.9924 -14.9692 -14.9269 -14.9181 -14.8660
   -14.8612 -14.7777 -14.7757 -14.7614 -14.6980 -14.4856 -14.4458 -13.0835
   -12.9730 -10.9333  -6.7774  -4.9432  -4.7674  -3.9945  -3.4647  -3.2800
    -3.1177  -3.0977  -3.0540  -3.0494  -2.9914  -2.9509  -2.9099  -2.8802
    -2.8644  -2.8628  -2.8453  -2.6669  -2.5698  -2.5388  -2.4260  -2.2504
    -2.2138  -2.1812  -2.1710  -2.1544  -2.1154  -2.0881  -2.0663  -2.0609
    -2.0153  -1.9706  -1.9561  -1.9425  -1.9357  -1.8525  -1.8319  -1.7798
    -1.7730  -1.7471  -1.7163  -1.5897  -1.4979  -1.4609  -1.3637  -1.3073
    -1.2687  -1.2057  -1.2021  -1.1707  -1.1016  -1.0909  -1.0819  -1.0415
    -1.0107  -0.9867  -0.9580  -0.9081  -0.8874  -0.8144  -0.7869  -0.6971
    -0.6657  -0.5065  -0.4247  -0.3916  -0.3378  -0.2174  -0.2110  -0.1968
    -0.1373  -0.1244  -0.0718  -0.0472  -0.0176   0.0359   0.0771   0.1150
     0.1589   0.1679   0.1835   0.2462   0.2977   0.3443   0.3625   0.3989
     0.4622   0.4856   0.5745   0.6027   0.6622   0.7618   0.8846   1.0324
     1.0550   1.0838   1.4053   1.4680   1.5728   1.7629   1.9100   3.5132
     3.5344   3.7811   3.7890   3.7979   3.8615   3.8959   3.9381   4.0077
     4.0309

          k =-0.0760 0.0419 0.0000 ( 17914 PWs)   bands (ev):

   -55.7012 -55.6271 -55.6018 -55.5143 -55.4922 -55.4696 -55.4292 -55.4272
   -55.4252 -55.4064 -55.4025 -55.3745 -55.2827 -55.2142 -54.5846 -54.5606
   -32.0589 -32.0570 -31.9882 -31.9514 -31.9498 -31.9229 -31.9166 -31.9091
   -31.8624 -31.8507 -31.8486 -31.7901 -31.7814 -31.7672 -31.7612 -31.7382
   -31.7318 -31.7176 -31.7040 -31.7018 -31.7014 -31.6712 -31.6642 -31.6569
   -31.6545 -31.6412 -31.6374 -31.6288 -31.6263 -31.6199 -31.6159 -31.6060
   -31.5938 -31.5779 -31.5756 -31.5728 -31.5639 -31.5513 -31.4832 -31.4805
   -31.4521 -31.4192 -30.9411 -30.9119 -30.8889 -30.8002 -30.7393 -30.6718
   -20.0602 -16.4979 -15.9803 -15.8930 -15.8169 -15.6170 -15.5310 -15.5125
   -15.4330 -15.3773 -15.3627 -15.3531 -15.3422 -15.3184 -15.2925 -15.2487
   -15.1432 -15.1228 -15.1189 -15.0678 -14.9977 -14.9599 -14.9466 -14.9099
   -14.9039 -14.8805 -14.8629 -14.8037 -14.7754 -14.5593 -14.5358 -13.0896
   -13.0138 -10.9327  -6.7747  -4.9456  -4.7633  -3.9837  -3.3123  -3.1473
    -2.9987  -2.8747  -2.8529  -2.8168  -2.7815  -2.7631  -2.7342  -2.7249
    -2.6876  -2.6606  -2.6362  -2.5757  -2.5458  -2.5074  -2.4486  -2.4257
    -2.3568  -2.3419  -2.3020  -2.2887  -2.2549  -2.2167  -2.1784  -2.1606
    -2.1135  -2.0933  -2.0742  -2.0660  -2.0269  -1.9980  -1.7972  -1.7648
    -1.7147  -1.6861  -1.6083  -1.5856  -1.5257  -1.5043  -1.4046  -1.3110
    -1.2544  -1.2201  -1.1938  -1.1180  -1.0941  -1.0669  -1.0045  -0.9575
    -0.9374  -0.8777  -0.8547  -0.8459  -0.8241  -0.7832  -0.7658  -0.7497
    -0.6834  -0.6574  -0.6008  -0.5518  -0.5278  -0.4809  -0.4195  -0.3740
    -0.3479  -0.2910  -0.2333  -0.2072  -0.1877  -0.1182  -0.0346   0.0395
     0.0782   0.1752   0.2077   0.2308   0.2439   0.3249   0.3311   0.4776
     0.5387   0.5763   0.6955   0.7324   0.7522   0.8588   0.8982   0.9140
     0.9253   1.0249   1.0989   1.6494   1.7268   1.8024   1.9298   3.6983
     3.7090   3.7318   3.8209   3.8750   3.9053   3.9522   4.0010   4.1345
     4.1609

          k =-0.0760-0.0839 0.0000 ( 17948 PWs)   bands (ev):

   -55.7009 -55.6184 -55.6105 -55.5107 -55.4898 -55.4732 -55.4278 -55.4274
   -55.4218 -55.4101 -55.4010 -55.3800 -55.2807 -55.2163 -54.5729 -54.5725
   -32.0129 -31.9529 -31.9454 -31.9302 -31.9225 -31.9186 -31.9146 -31.9007
   -31.8336 -31.8324 -31.7971 -31.7676 -31.7626 -31.7551 -31.7388 -31.7383
   -31.7333 -31.7301 -31.7277 -31.7174 -31.7150 -31.7125 -31.7005 -31.6987
   -31.6722 -31.6691 -31.6357 -31.6303 -31.6293 -31.6289 -31.6187 -31.6149
   -31.6084 -31.6063 -31.5995 -31.5982 -31.5964 -31.5598 -31.5401 -31.4776
   -31.4636 -31.4209 -30.9003 -30.9001 -30.8095 -30.8080 -30.7699 -30.7690
   -20.0586 -16.4937 -15.9007 -15.7566 -15.5939 -15.5757 -15.4981 -15.4025
   -15.3858 -15.3574 -15.3469 -15.3269 -15.3015 -15.2987 -15.2526 -15.1960
   -15.1543 -15.1313 -15.1269 -15.0808 -15.0715 -15.0679 -15.0121 -14.9995
   -14.9901 -14.9515 -14.8917 -14.8634 -14.7852 -14.7576 -14.6041 -13.0758
   -13.0752 -10.9322  -6.7719  -4.9477  -4.7632  -3.9739  -3.0504  -2.9772
    -2.9036  -2.8169  -2.7359  -2.6784  -2.6276  -2.6087  -2.5657  -2.5455
    -2.4750  -2.4413  -2.4337  -2.4120  -2.4098  -2.3833  -2.3678  -2.3549
    -2.3324  -2.3022  -2.2881  -2.2742  -2.2558  -2.2353  -2.2146  -2.1952
    -2.1823  -2.1717  -2.1520  -2.0450  -2.0207  -1.9840  -1.8306  -1.8190
    -1.7536  -1.7212  -1.6908  -1.6855  -1.6528  -1.6448  -1.6018  -1.4927
    -1.4643  -1.4174  -1.3606  -1.2689  -1.2640  -1.2168  -1.1645  -1.1251
    -1.0958  -1.0486  -1.0457  -1.0002  -0.8587  -0.8323  -0.7935  -0.6696
    -0.5972  -0.5820  -0.5680  -0.5509  -0.5247  -0.4775  -0.4721  -0.4159
    -0.3946  -0.3224  -0.3198  -0.2959  -0.2716  -0.1649  -0.0511   0.0413
     0.0756   0.1319   0.1715   0.2071   0.2870   0.3619   0.4452   0.5311
     0.5578   0.5683   0.6897   0.7171   0.7677   0.8210   0.8357   0.8964
     0.9291   0.9718   1.0002   1.7961   1.8095   1.8653   1.8701   3.6750
     3.9242   3.9762   3.9943   4.0070   4.0405   4.0605   4.1070   4.1252
     4.1505

     the Fermi energy is     3.5004 ev

!    total energy              =   -2966.27816990 Ry
     estimated scf accuracy    <       0.00000005 Ry
     smearing contrib. (-TS)   =      -0.02072993 Ry
     internal energy E=F+TS    =   -2966.25743997 Ry

     The total energy is F=E-TS. E is the sum of the following terms:
     one-electron contribution =  -24038.93661318 Ry
     hartree contribution      =   12111.98031460 Ry
     xc contribution           =    -490.94433383 Ry
     ewald contribution        =    9451.64113064 Ry
     electric field correction =       0.00206180 Ry

     convergence has been achieved in  84 iterations

     Forces acting on atoms (cartesian axes, Ry/au):

     atom    1 type  1   force =    -0.00039732    0.00006097    0.09454965
     atom    2 type  1   force =    -0.00032568    0.00499518   -0.17463786
     atom    3 type  2   force =     0.00082206   -0.00023642   -0.02593455
     atom    4 type  2   force =     0.00125390    0.00074854    0.05286096
     atom    5 type  2   force =    -0.01097450   -0.00285616    0.00048910
     atom    6 type  2   force =     0.01163736   -0.00410351    0.00186654
     atom    7 type  1   force =     0.00052673    0.00039300   -0.00014271
     atom    8 type  1   force =    -0.00045041    0.00020034    0.00077954
     atom    9 type  2   force =    -0.00044435    0.00027731   -0.00025186
     atom   10 type  2   force =     0.00031640   -0.00035229   -0.00045340
     atom   11 type  2   force =     0.00061524    0.00032080   -0.00023622
     atom   12 type  2   force =    -0.00038956   -0.00045920   -0.00038281
     atom   13 type  1   force =    -0.00129938   -0.00080339    0.00031018
     atom   14 type  1   force =     0.00028103    0.00009482    0.00055441
     atom   15 type  2   force =     0.00048301    0.00061600    0.00017324
     atom   16 type  2   force =    -0.00049146    0.00053400    0.00056939
     atom   17 type  2   force =     0.00012919    0.00029596   -0.00009865
     atom   18 type  2   force =    -0.00054890    0.00029586   -0.00010000
     atom   19 type  1   force =    -0.00041341    0.00075521   -0.00023677
     atom   20 type  1   force =    -0.00001985   -0.00024538   -0.00066977
     atom   21 type  2   force =    -0.00001505    0.00005231    0.10308429
     atom   22 type  2   force =    -0.00037408   -0.00065703   -0.00046401
     atom   23 type  2   force =    -0.07206576    0.00005045   -0.02788224
     atom   24 type  2   force =     0.07192198    0.00054181   -0.02798996
     atom   25 type  1   force =    -0.00043798    0.00000114    0.10115222
     atom   26 type  1   force =    -0.00007184   -0.00460941   -0.17489118
     atom   27 type  2   force =     0.00089662    0.00114365   -0.02442439
     atom   28 type  2   force =     0.00113631    0.00015088    0.05242620
     atom   29 type  2   force =    -0.01186071    0.00306040    0.00195514
     atom   30 type  2   force =     0.01325871    0.00116015    0.00309121
     atom   31 type  1   force =     0.00058651    0.00003350   -0.00054394
     atom   32 type  1   force =    -0.00036580    0.00070666    0.00047953
     atom   33 type  2   force =    -0.00020249    0.00092856    0.00018255
     atom   34 type  2   force =     0.00013747   -0.00012849   -0.00095983
     atom   35 type  2   force =     0.00034868    0.00007264    0.00053942
     atom   36 type  2   force =     0.00008596    0.00016238    0.00047322
     atom   37 type  1   force =    -0.00145392   -0.00059952    0.00028977
     atom   38 type  1   force =     0.00078563   -0.00026639   -0.00014686
     atom   39 type  2   force =     0.00045579   -0.00014450    0.00123188
     atom   40 type  2   force =    -0.00010996    0.00035839    0.00050736
     atom   41 type  2   force =    -0.00055763   -0.00002001   -0.00051037
     atom   42 type  2   force =     0.00021978    0.00014860   -0.00006393
     atom   43 type  1   force =    -0.00007454    0.00034886   -0.00047782
     atom   44 type  1   force =    -0.00039218   -0.00042766   -0.00119331
     atom   45 type  2   force =    -0.00001427    0.00012886    0.10266601
     atom   46 type  2   force =    -0.07203468   -0.00056726   -0.02786315
     atom   47 type  2   force =     0.07188613   -0.00007829   -0.02794707
     atom   48 type  3   force =     0.00007215   -0.00095598   -0.00130033
     atom   49 type  2   force =    -0.00074103   -0.00039806   -0.00091834
     atom   50 type  4   force =     0.00012381   -0.00014633   -0.00004295
     atom   51 type  4   force =    -0.00009718   -0.00018356   -0.00030411
     atom   52 type  4   force =    -0.00006826   -0.00000033   -0.00001895
     atom   53 type  4   force =    -0.00079369    0.00056552   -0.00005363
     atom   54 type  2   force =     0.00211449   -0.00090813    0.00030656
     atom   55 type  4   force =    -0.00260912   -0.00005547    0.00060259

     Total force =     0.364411     Total SCF correction =     0.000507
  @ DRIVER MODE: Message from server: STATUS
  @ DRIVER MODE: Message from server: GETFORCE
  @ DRIVER MODE: Returning v,forces,stress,ensemble 

     Writing output data file ./calc.save/
  @ DRIVER MODE: Message from server: EXIT
  @ DRIVE MODE: Exiting  
 
     init_run     :     13.09s CPU     13.58s WALL (       1 calls)
     electrons    :   1580.79s CPU   1613.35s WALL (       1 calls)
     forces       :      2.60s CPU      2.71s WALL (       1 calls)

     Called by init_run:
     wfcinit      :      5.78s CPU      5.94s WALL (       1 calls)
     potinit      :      6.67s CPU      6.75s WALL (       1 calls)
     hinit0       :      0.29s CPU      0.31s WALL (       1 calls)

     Called by electrons:
     c_bands      :   1345.52s CPU   1363.28s WALL (      84 calls)
     sum_band     :    165.19s CPU    172.17s WALL (      84 calls)
     v_of_rho     :     54.01s CPU     56.23s WALL (      85 calls)
     newd         :     19.81s CPU     25.35s WALL (      85 calls)
     mix_rho      :      2.03s CPU      2.16s WALL (      84 calls)
     vdW_kernel   :      5.84s CPU      5.86s WALL (       1 calls)

     Called by c_bands:
     init_us_2    :      6.92s CPU      6.97s WALL (    1700 calls)
     cegterg      :   1319.19s CPU   1336.37s WALL (     864 calls)

     Called by *egterg:
     cdiaghg      :    222.77s CPU    223.75s WALL (    8361 calls)
     h_psi        :    719.16s CPU    730.19s WALL (    8372 calls)
     s_psi        :     88.69s CPU     88.99s WALL (    8372 calls)
     g_psi        :      2.38s CPU      2.40s WALL (    7498 calls)

     Called by h_psi:
     h_psi:calbec :     87.00s CPU     88.52s WALL (    8372 calls)
     vloc_psi     :    540.67s CPU    545.37s WALL (    8372 calls)
     add_vuspsi   :     89.04s CPU     91.15s WALL (    8372 calls)

     General routines
     calbec       :    115.80s CPU    117.40s WALL (    9252 calls)
     fft          :     27.36s CPU     27.50s WALL (    5355 calls)
     ffts         :      0.23s CPU      0.23s WALL (     169 calls)
     fftw         :    610.71s CPU    616.06s WALL ( 1111860 calls)
     interpolate  :      0.57s CPU      0.58s WALL (      85 calls)
     davcio       :      0.00s CPU      0.49s WALL (      10 calls)
 
     Parallel routines
 
     PWSCF        :  26m36.76s CPU  27m11.47s WALL

 
   This run was terminated on:  14:21:22  23Sep2021            

=------------------------------------------------------------------------------=
   JOB DONE.
=------------------------------------------------------------------------------=
