
     Program PWSCF v.6.7GPU starts on 15Sep2021 at 17:22:14 

     This program is part of the open-source Quantum ESPRESSO suite
     for quantum simulation of materials; please cite
         "P. Giannozzi et al., J. Phys.:Condens. Matter 21 395502 (2009);
         "P. Giannozzi et al., J. Phys.:Condens. Matter 29 465901 (2017);
         "P. Giannozzi et al., J. Chem. Phys. 152 154105 (2020);
          URL http://www.quantum-espresso.org", 
     in publications or presentations arising from this work. More details at
     http://www.quantum-espresso.org/quote

     Parallel version (MPI), running on    10 processors

     MPI processes distributed on     1 nodes
     R & G space division:  proc/nbgrp/npool/nimage =      10
     Reading input from /storage/home/hcoda1/3/ntian30/research/carbon/CxH_vib/H2O_calc/ads_slab/CH3NNHHHH2O_a/out_0005/pw.inp
Warning: card &CELL ignored
Warning: card   CELL_DYNAMICS='IPI', ignored
Warning: card / ignored

     Current dimensions of program PWSCF are:
     Max number of different atomic species (ntypx) = 10
     Max number of k-points (npk) =  40000
     Max angular momentum in pseudopotentials (lmaxx) =  3
     Presently no symmetry can be used with electric field

     Message from routine cell_base_init:
     DEPRECATED: use true lattice parameter, not A to a.u. conversion factor

     **************************************************************************
     Initializing libbeef V0.1.2 with the BEEF-vdW functional.
     Citation: Wellendorff et al., PRB 85, 235149 (2012).
     **************************************************************************


     IMPORTANT: XC functional enforced from input :
     Exchange-correlation= BEEF-VDW
                           (   1   4  43  14   2   0   0)
     Any further DFT definition will be discarded
     Please, verify this is what you really want


     Subspace diagonalization in iterative solution of the eigenvalue problem:
     one sub-group per band group will be used
     scalapack distributed-memory algorithm (size of sub-group:  3*  3 procs)

  @ DRIVER MODE: Connecting to 
 qe_1139763_2852622.sched-torque.pace.gatech.eduqgnzkj09_scratch
  using UNIX socket
  @ DRIVER MODE: Message from server: STATUS
  @ DRIVER MODE: Message from server: INIT
  @ DRIVER MODE: Receiving replica           0          -1
  @ DRIVER MODE: Receiving encoded integer          25
  @ DRIVER MODE:  SCF:  T  FORCE:  T  STRESS:  F  VC:  F  ENSEMBLE:  F
  @ DRIVER MODE:  SCF:  T  FORCE:  T  STRESS:  F  VC:  F  ENSEMBLE:  F
 
     Parallelization info
     --------------------
     sticks:   dense  smooth     PW     G-vecs:    dense   smooth      PW
     Min         327     131     37                56683    14340    2191
     Max         328     133     38                56694    14346    2206
     Sum        3275    1317    379               566857   143421   21985
 
     Using Slab Decomposition
 


     bravais-lattice index     =            0
     lattice parameter (alat)  =       1.8897  a.u.
     unit-cell volume          =    6658.9804 (a.u.)^3
     number of atoms/cell      =           59
     number of atomic types    =            5
     number of electrons       =       406.00
     number of Kohn-Sham states=          213
     kinetic-energy cutoff     =      29.3995  Ry
     charge density cutoff     =     293.9946  Ry
     scf convergence threshold =      7.3E-08
     mixing beta               =       0.0500
     number of iterations used =            8  plain     mixing
     Exchange-correlation= BEEF-VDW
                           (   1   4  43  14   2   0   0)

     celldm(1)=   1.889726  celldm(2)=   0.000000  celldm(3)=   0.000000
     celldm(4)=   0.000000  celldm(5)=   0.000000  celldm(6)=   0.000000

     crystal axes: (cart. coord. in units of alat)
               a(1) = (   6.579727   0.000000   0.000000 )  
               a(2) = (  -0.000775   5.961596   0.000000 )  
               a(3) = (   0.000000   0.000000  25.155947 )  

     reciprocal axes: (cart. coord. in units 2 pi/alat)
               b(1) = (  0.151982  0.000020  0.000000 )  
               b(2) = (  0.000000  0.167740  0.000000 )  
               b(3) = (  0.000000  0.000000  0.039752 )  


     PseudoPot. # 1 for Ti read from file:
     /storage/coda1/p-amedford6/0/shared/rich_project_chbe-medford/medford-share/data/pseudos_module/espresso/nninc/pbe/van/Ti.UPF
     MD5 check sum: 8e4df49b7f0d34bbd5052bf3f5ea0213
     Pseudo is Ultrasoft, Zval = 12.0
     Generated by new atomic code, or converted to UPF format
     Using radial grid of  851 points,  6 beta functions with: 
                l(1) =   0
                l(2) =   0
                l(3) =   1
                l(4) =   1
                l(5) =   2
                l(6) =   2
     Q(r) pseudized with  8 coefficients,  rinner =    1.000   1.000   1.000
                                                       1.000   1.000

     PseudoPot. # 2 for O  read from file:
     /storage/coda1/p-amedford6/0/shared/rich_project_chbe-medford/medford-share/data/pseudos_module/espresso/nninc/pbe/van/O.UPF
     MD5 check sum: 78c19812648e8988a0fe644b0f25305e
     Pseudo is Ultrasoft, Zval =  6.0
     Generated by new atomic code, or converted to UPF format
     Using radial grid of  737 points,  4 beta functions with: 
                l(1) =   0
                l(2) =   0
                l(3) =   1
                l(4) =   1
     Q(r) pseudized with  8 coefficients,  rinner =    0.800   0.800   0.800


     PseudoPot. # 3 for N  read from file:
     /storage/coda1/p-amedford6/0/shared/rich_project_chbe-medford/medford-share/data/pseudos_module/espresso/nninc/pbe/van/N.UPF
     MD5 check sum: 90d10febe142ad51ac9d5be1deb811c4
     Pseudo is Ultrasoft, Zval =  5.0
     Generated by new atomic code, or converted to UPF format
     Using radial grid of  729 points,  4 beta functions with: 
                l(1) =   0
                l(2) =   0
                l(3) =   1
                l(4) =   1
     Q(r) pseudized with  8 coefficients,  rinner =    0.800   0.800   0.800


     PseudoPot. # 4 for C  read from file:
     /storage/coda1/p-amedford6/0/shared/rich_project_chbe-medford/medford-share/data/pseudos_module/espresso/nninc/pbe/van/C.UPF
     MD5 check sum: 1a69bf6b8db32088f5b2163dbdb77a27
     Pseudo is Ultrasoft, Zval =  4.0
     Generated by new atomic code, or converted to UPF format
     Using radial grid of  721 points,  4 beta functions with: 
                l(1) =   0
                l(2) =   0
                l(3) =   1
                l(4) =   1
     Q(r) pseudized with  8 coefficients,  rinner =    0.800   0.800   0.800


     PseudoPot. # 5 for H  read from file:
     /storage/coda1/p-amedford6/0/shared/rich_project_chbe-medford/medford-share/data/pseudos_module/espresso/nninc/pbe/van/H.UPF
     MD5 check sum: b5ee9d7bfd3a09ee7748110bda690ff7
     Pseudo is Ultrasoft, Zval =  1.0
     Generated by new atomic code, or converted to UPF format
     Using radial grid of  615 points,  1 beta functions with: 
                l(1) =   0
     Q(r) pseudized with  8 coefficients,  rinner =    0.800

     atomic species   valence    mass     pseudopotential
        Ti1           12.00    47.86700     Ti( 1.00)
        O1             6.00    15.99900     O ( 1.00)
        N1             5.00    14.00700     N ( 1.00)
        C1             4.00    12.01100     C ( 1.00)
        H1             1.00     1.00800     H ( 1.00)

     No symmetry found



   Cartesian axes

     site n.     atom                  positions (alat units)
         1           Ti1 tau(   1) = (   0.0004258   2.9801865   6.0000000  )
         2           Ti1 tau(   2) = (   3.2906075   1.4906267   6.0002472  )
         3           O1  tau(   3) = (   0.0006271   0.0005054   7.9858123  )
         4           O1  tau(   4) = (   3.2906025   0.0005020   7.3038282  )
         5           O1  tau(   5) = (   4.5942328   1.4918067   9.2879030  )
         6           O1  tau(   6) = (   1.9868534   1.4903216   9.2879459  )
         7           Ti1 tau(   7) = (   3.2907910   2.8959150   9.1758416  )
         8           Ti1 tau(   8) = (   0.0015273   1.4827037   9.2680791  )
         9           O1  tau(   9) = (   3.2800960   5.9426830  11.3808346  )
        10           O1  tau(  10) = (   0.0116148   5.9584955  10.6183126  )
        11           O1  tau(  11) = (   1.2797812   1.4911726  12.6624455  )
        12           O1  tau(  12) = (   5.2824698   1.4871998  12.6412817  )
        13           Ti1 tau(  13) = (   0.0041451   2.9720195  12.5119452  )
        14           Ti1 tau(  14) = (   3.3095611   1.4699318  12.5307708  )
        15           O1  tau(  15) = (   6.5436702   0.0697967  14.6864816  )
        16           O1  tau(  16) = (   3.2812162   5.9597207  14.0300411  )
        17           O1  tau(  17) = (   4.5129646   1.5046642  16.2361130  )
        18           O1  tau(  18) = (   1.9708392   1.5012857  16.1671103  )
        19           Ti1 tau(  19) = (   3.2655272   2.9480959  15.7331506  )
        20           Ti1 tau(  20) = (   6.5674642   1.4497656  15.9937491  )
        21           O1  tau(  21) = (   3.2904802   0.0005063   4.7018136  )
        22           O1  tau(  22) = (   6.5217933   5.8323795  17.2454964  )
        23           O1  tau(  23) = (   1.3043587   1.4918075   6.0039043  )
        24           O1  tau(  24) = (   5.2767064   1.4903225   6.0039473  )
        25           Ti1 tau(  25) = (   0.0000382   5.9609847   6.0000000  )
        26           Ti1 tau(  26) = (   3.2902200   4.4714249   6.0002472  )
        27           O1  tau(  27) = (   0.0002396   2.9813036   7.9858123  )
        28           O1  tau(  28) = (   3.2902150   2.9813002   7.3038282  )
        29           O1  tau(  29) = (   4.5938453   4.4726049   9.2879030  )
        30           O1  tau(  30) = (   1.9864658   4.4711199   9.2879459  )
        31           Ti1 tau(  31) = (   3.2891106   5.8743827   9.1763621  )
        32           Ti1 tau(  32) = (   0.0006254   4.4649316   9.2693709  )
        33           O1  tau(  33) = (   3.2830490   2.9749636  11.3746576  )
        34           O1  tau(  34) = (   0.0092240   2.9805883  10.6323155  )
        35           O1  tau(  35) = (   1.2760807   4.4612897  12.6946019  )
        36           O1  tau(  36) = (   5.2846406   4.4647657  12.6742532  )
        37           Ti1 tau(  37) = (   0.0173662   5.9591775  12.4970172  )
        38           Ti1 tau(  38) = (   3.3070294   4.4569304  12.5379467  )
        39           O1  tau(  39) = (   6.5190077   2.9374781  14.9220565  )
        40           O1  tau(  40) = (   3.2909943   2.9519766  13.9498127  )
        41           O1  tau(  41) = (   4.5146313   4.4149292  16.1460290  )
        42           O1  tau(  42) = (   1.9668235   4.4047650  16.1116202  )
        43           Ti1 tau(  43) = (   3.2426406   5.9218513  15.8539982  )
        44           Ti1 tau(  44) = (   6.5337747   4.6515477  15.8702276  )
        45           O1  tau(  45) = (   3.2900926   2.9813045   4.7018136  )
        46           O1  tau(  46) = (   1.3039711   4.4726057   6.0039043  )
        47           O1  tau(  47) = (   5.2763189   4.4711207   6.0039473  )
        48           N1  tau(  48) = (   1.0802268   3.0592680  18.8337747  )
        49           N1  tau(  49) = (   6.4825355   2.6367244  18.1156036  )
        50           C1  tau(  50) = (   0.7269815   3.7261681  20.0984356  )
        51           H1  tau(  51) = (   0.0344531   4.5672025  19.9493712  )
        52           H1  tau(  52) = (   0.2718923   3.0081313  20.7822053  )
        53           H1  tau(  53) = (   1.6424345   4.1087450  20.5485440  )
        54           H1  tau(  54) = (   5.7152520   3.3097272  18.2274121  )
        55           H1  tau(  55) = (   6.1788988   1.7551022  18.5268573  )
        56           H1  tau(  56) = (   1.5478348   3.7306874  18.2371031  )
        57           O1  tau(  57) = (   3.1661568   0.0027346  18.3937517  )
        58           H1  tau(  58) = (   4.0701885   0.3469208  18.4697374  )
        59           H1  tau(  59) = (   2.5798038   0.7742236  18.5044111  )

     number of k points=    10  Fermi-Dirac smearing, width (Ry)=  0.0073
                       cart. coord. in units 2pi/alat
        k(    1) = (   0.0000000   0.0000000   0.0000000), wk =   0.1250000
        k(    2) = (   0.0000000   0.0419351   0.0000000), wk =   0.2500000
        k(    3) = (   0.0000000  -0.0838702   0.0000000), wk =   0.1250000
        k(    4) = (   0.0379955   0.0000049   0.0000000), wk =   0.2500000
        k(    5) = (   0.0379955   0.0419400   0.0000000), wk =   0.2500000
        k(    6) = (   0.0379955  -0.0838652   0.0000000), wk =   0.2500000
        k(    7) = (   0.0379955  -0.0419301   0.0000000), wk =   0.2500000
        k(    8) = (  -0.0759910  -0.0000099   0.0000000), wk =   0.1250000
        k(    9) = (  -0.0759910   0.0419252   0.0000000), wk =   0.2500000
        k(   10) = (  -0.0759910  -0.0838800   0.0000000), wk =   0.1250000

     Dense  grid:   566857 G-vectors     FFT dimensions: (  72,  64, 270)

     Smooth grid:   143421 G-vectors     FFT dimensions: (  45,  40, 180)

     Estimated max dynamical RAM per process >     368.16 MB

     Estimated total dynamical RAM >       3.60 GB
     Cannot read rho : file not found

     Initial potential from superposition of free atoms

     starting charge  389.99912, renormalised to  406.00000

     negative rho (up, down):  1.306E-02 0.000E+00


     %%%%%%%%%%%%%%%%%%%%%%%%%%%%%%%%%%%%%%%%%%%%%%%%%%%%%%%%%%%%%%%%%%%%%%%%
     %                                                                      %
     % You are using vdW-DF, which was implemented by the Thonhauser group. %
     % Please cite the following two papers that made this development      %
     % possible and the two reviews that describe the various versions:     %
     %                                                                      %
     %   T. Thonhauser et al., PRL 115, 136402 (2015).                      %
     %   T. Thonhauser et al., PRB 76, 125112 (2007).                       %
     %   K. Berland et al., Rep. Prog. Phys. 78, 066501 (2015).             %
     %   D.C. Langreth et al., J. Phys.: Condens. Matter 21, 084203 (2009). %
     %                                                                      %
     %                                                                      %
     % If you are calculating the stress with vdW-DF, please also cite:     %
     %                                                                      %
     %   R. Sabatini et al., J. Phys.: Condens. Matter 24, 424209 (2012).   %
     %                                                                      %
     %%%%%%%%%%%%%%%%%%%%%%%%%%%%%%%%%%%%%%%%%%%%%%%%%%%%%%%%%%%%%%%%%%%%%%%%


 
     Adding external electric field

     Computed dipole along edir(3) : 
        Dipole              -16.1119 Ry au,        -40.9525 Debye
        Dipole field         -0.0304 Ry au, 
 
        Potential amp.        2.8185 Ry
        Total length         46.3494 bohr
 
     Starting wfcs are  308 atomic wfcs
  @ DRIVER MODE: Message from server: STATUS
  @ DRIVER MODE: Message from server: POSDATA
  @ DRIVER MODE: Reading and sharing cell 
  @ DRIVER MODE: Reading and sharing positions 
  @ DRIVER MODE: Received positions 

     total cpu time spent up to now is       11.6 secs

     Self-consistent Calculation

     iteration #  1     ecut=    29.40 Ry     beta= 0.05
     Davidson diagonalization with overlap
     c_bands:  2 eigenvalues not converged
     c_bands:  3 eigenvalues not converged
     c_bands:  2 eigenvalues not converged
     c_bands:  3 eigenvalues not converged
     c_bands:  4 eigenvalues not converged
     c_bands:  2 eigenvalues not converged
     c_bands:  1 eigenvalues not converged
     c_bands:  5 eigenvalues not converged
     c_bands:  1 eigenvalues not converged
     ethr =  1.00E-05,  avg # of iterations = 23.1

     negative rho (up, down):  7.464E-03 0.000E+00
 
     Adding external electric field

     Computed dipole along edir(3) : 
        Dipole               63.0692 Ry au,        160.3060 Debye
        Dipole field          0.1190 Ry au, 
 
        Potential amp.      -11.0330 Ry
        Total length         46.3494 bohr
 

     total cpu time spent up to now is       59.0 secs

     total energy              =   -2140.64467713 Ry
     estimated scf accuracy    <    9598.52879373 Ry

     iteration #  2     ecut=    29.40 Ry     beta= 0.05
     Davidson diagonalization with overlap
     ethr =  1.00E-02,  avg # of iterations = 32.6

     negative rho (up, down):  2.096E-04 0.000E+00
 
     Adding external electric field

     Computed dipole along edir(3) : 
        Dipole                0.0821 Ry au,          0.2088 Debye
        Dipole field          0.0002 Ry au, 
 
        Potential amp.       -0.0144 Ry
        Total length         46.3494 bohr
 

     total cpu time spent up to now is      157.9 secs

     total energy              =   -2441.47838633 Ry
     estimated scf accuracy    <   80491.42512990 Ry

     iteration #  3     ecut=    29.40 Ry     beta= 0.05
     Davidson diagonalization with overlap
     ethr =  1.00E-02,  avg # of iterations = 17.1

     negative rho (up, down):  2.535E-04 0.000E+00
 
     Adding external electric field

     Computed dipole along edir(3) : 
        Dipole               -3.7573 Ry au,         -9.5501 Debye
        Dipole field         -0.0071 Ry au, 
 
        Potential amp.        0.6573 Ry
        Total length         46.3494 bohr
 

     total cpu time spent up to now is      208.9 secs

     total energy              =   -2966.67632353 Ry
     estimated scf accuracy    <    8636.94381589 Ry

     iteration #  4     ecut=    29.40 Ry     beta= 0.05
     Davidson diagonalization with overlap
     ethr =  1.00E-02,  avg # of iterations = 11.0

     negative rho (up, down):  2.664E-04 0.000E+00
 
     Adding external electric field

     Computed dipole along edir(3) : 
        Dipole               -5.3911 Ry au,        -13.7028 Debye
        Dipole field         -0.0102 Ry au, 
 
        Potential amp.        0.9431 Ry
        Total length         46.3494 bohr
 

     total cpu time spent up to now is      232.8 secs

     total energy              =   -2972.85706350 Ry
     estimated scf accuracy    <    2547.25209081 Ry

     iteration #  5     ecut=    29.40 Ry     beta= 0.05
     Davidson diagonalization with overlap
     c_bands:  4 eigenvalues not converged
     ethr =  1.00E-02,  avg # of iterations =  7.9

     negative rho (up, down):  3.243E-04 0.000E+00
 
     Adding external electric field

     Computed dipole along edir(3) : 
        Dipole               -9.4089 Ry au,        -23.9150 Debye
        Dipole field         -0.0178 Ry au, 
 
        Potential amp.        1.6459 Ry
        Total length         46.3494 bohr
 

     total cpu time spent up to now is      246.0 secs

     total energy              =   -2922.99525560 Ry
     estimated scf accuracy    <    2162.17708052 Ry

     iteration #  6     ecut=    29.40 Ry     beta= 0.05
     Davidson diagonalization with overlap
     ethr =  1.00E-02,  avg # of iterations = 10.0

     negative rho (up, down):  2.713E-04 0.000E+00
 
     Adding external electric field

     Computed dipole along edir(3) : 
        Dipole               -6.6693 Ry au,        -16.9516 Debye
        Dipole field         -0.0126 Ry au, 
 
        Potential amp.        1.1667 Ry
        Total length         46.3494 bohr
 

     total cpu time spent up to now is      272.1 secs

     total energy              =   -2978.91054521 Ry
     estimated scf accuracy    <     585.57934275 Ry

     iteration #  7     ecut=    29.40 Ry     beta= 0.05
     Davidson diagonalization with overlap
     ethr =  1.00E-02,  avg # of iterations =  2.8

     negative rho (up, down):  2.831E-04 0.000E+00
 
     Adding external electric field

     Computed dipole along edir(3) : 
        Dipole               -5.7040 Ry au,        -14.4981 Debye
        Dipole field         -0.0108 Ry au, 
 
        Potential amp.        0.9978 Ry
        Total length         46.3494 bohr
 

     total cpu time spent up to now is      283.3 secs

     total energy              =   -2981.53567498 Ry
     estimated scf accuracy    <      85.61676082 Ry

     iteration #  8     ecut=    29.40 Ry     beta= 0.05
     Davidson diagonalization with overlap
     ethr =  1.00E-02,  avg # of iterations =  3.1

     negative rho (up, down):  2.986E-04 0.000E+00
 
     Adding external electric field

     Computed dipole along edir(3) : 
        Dipole               -4.8369 Ry au,        -12.2941 Debye
        Dipole field         -0.0091 Ry au, 
 
        Potential amp.        0.8461 Ry
        Total length         46.3494 bohr
 

     total cpu time spent up to now is      294.3 secs

     total energy              =   -2980.24402570 Ry
     estimated scf accuracy    <      64.11307705 Ry

     iteration #  9     ecut=    29.40 Ry     beta= 0.05
     Davidson diagonalization with overlap
     ethr =  1.00E-02,  avg # of iterations =  3.3

     negative rho (up, down):  3.552E-04 0.000E+00
 
     Adding external electric field

     Computed dipole along edir(3) : 
        Dipole               -2.8863 Ry au,         -7.3362 Debye
        Dipole field         -0.0054 Ry au, 
 
        Potential amp.        0.5049 Ry
        Total length         46.3494 bohr
 

     total cpu time spent up to now is      305.4 secs

     total energy              =   -2977.54844908 Ry
     estimated scf accuracy    <      39.16398333 Ry

     iteration # 10     ecut=    29.40 Ry     beta= 0.05
     Davidson diagonalization with overlap
     ethr =  9.65E-03,  avg # of iterations =  8.1

     negative rho (up, down):  3.737E-04 0.000E+00
 
     Adding external electric field

     Computed dipole along edir(3) : 
        Dipole               -2.1311 Ry au,         -5.4168 Debye
        Dipole field         -0.0040 Ry au, 
 
        Potential amp.        0.3728 Ry
        Total length         46.3494 bohr
 

     total cpu time spent up to now is      320.1 secs

     total energy              =   -2986.21392355 Ry
     estimated scf accuracy    <     432.05902452 Ry

     iteration # 11     ecut=    29.40 Ry     beta= 0.05
     Davidson diagonalization with overlap
     ethr =  9.65E-03,  avg # of iterations =  2.8

     negative rho (up, down):  4.372E-04 0.000E+00
 
     Adding external electric field

     Computed dipole along edir(3) : 
        Dipole               -1.5095 Ry au,         -3.8368 Debye
        Dipole field         -0.0028 Ry au, 
 
        Potential amp.        0.2641 Ry
        Total length         46.3494 bohr
 

     total cpu time spent up to now is      331.4 secs

     total energy              =   -2986.54397691 Ry
     estimated scf accuracy    <     638.43521894 Ry

     iteration # 12     ecut=    29.40 Ry     beta= 0.05
     Davidson diagonalization with overlap
     ethr =  9.65E-03,  avg # of iterations =  2.5

     negative rho (up, down):  6.938E-04 0.000E+00
 
     Adding external electric field

     Computed dipole along edir(3) : 
        Dipole               -0.8553 Ry au,         -2.1739 Debye
        Dipole field         -0.0016 Ry au, 
 
        Potential amp.        0.1496 Ry
        Total length         46.3494 bohr
 

     total cpu time spent up to now is      342.6 secs

     total energy              =   -2972.72701491 Ry
     estimated scf accuracy    <     659.64187636 Ry

     iteration # 13     ecut=    29.40 Ry     beta= 0.05
     Davidson diagonalization with overlap
     ethr =  9.65E-03,  avg # of iterations =  5.3

     negative rho (up, down):  7.151E-04 0.000E+00
 
     Adding external electric field

     Computed dipole along edir(3) : 
        Dipole                0.1757 Ry au,          0.4465 Debye
        Dipole field          0.0003 Ry au, 
 
        Potential amp.       -0.0307 Ry
        Total length         46.3494 bohr
 

     total cpu time spent up to now is      355.0 secs

     total energy              =   -2982.47117689 Ry
     estimated scf accuracy    <     187.83237390 Ry

     iteration # 14     ecut=    29.40 Ry     beta= 0.05
     Davidson diagonalization with overlap
     ethr =  9.65E-03,  avg # of iterations =  2.5

     negative rho (up, down):  6.892E-04 0.000E+00
 
     Adding external electric field

     Computed dipole along edir(3) : 
        Dipole                0.0173 Ry au,          0.0439 Debye
        Dipole field          0.0000 Ry au, 
 
        Potential amp.       -0.0030 Ry
        Total length         46.3494 bohr
 

     total cpu time spent up to now is      366.3 secs

     total energy              =   -2991.44049758 Ry
     estimated scf accuracy    <     607.58415851 Ry

     iteration # 15     ecut=    29.40 Ry     beta= 0.05
     Davidson diagonalization with overlap
     ethr =  9.65E-03,  avg # of iterations = 10.7

     negative rho (up, down):  7.157E-04 0.000E+00
 
     Adding external electric field

     Computed dipole along edir(3) : 
        Dipole                0.6842 Ry au,          1.7389 Debye
        Dipole field          0.0013 Ry au, 
 
        Potential amp.       -0.1197 Ry
        Total length         46.3494 bohr
 

     total cpu time spent up to now is      384.4 secs

     total energy              =   -2985.93264739 Ry
     estimated scf accuracy    <    3273.32811175 Ry

     iteration # 16     ecut=    29.40 Ry     beta= 0.05
     Davidson diagonalization with overlap
     ethr =  9.65E-03,  avg # of iterations =  2.3

     negative rho (up, down):  6.637E-04 0.000E+00
 
     Adding external electric field

     Computed dipole along edir(3) : 
        Dipole                0.1739 Ry au,          0.4420 Debye
        Dipole field          0.0003 Ry au, 
 
        Potential amp.       -0.0304 Ry
        Total length         46.3494 bohr
 

     total cpu time spent up to now is      395.5 secs

     total energy              =   -2980.83392015 Ry
     estimated scf accuracy    <    2112.28195918 Ry

     iteration # 17     ecut=    29.40 Ry     beta= 0.05
     Davidson diagonalization with overlap
     ethr =  9.65E-03,  avg # of iterations =  2.7

     negative rho (up, down):  6.443E-04 0.000E+00
 
     Adding external electric field

     Computed dipole along edir(3) : 
        Dipole               -0.6700 Ry au,         -1.7029 Debye
        Dipole field         -0.0013 Ry au, 
 
        Potential amp.        0.1172 Ry
        Total length         46.3494 bohr
 

     total cpu time spent up to now is      406.6 secs

     total energy              =   -2972.36307535 Ry
     estimated scf accuracy    <    1897.31327775 Ry

     iteration # 18     ecut=    29.40 Ry     beta= 0.05
     Davidson diagonalization with overlap
     ethr =  9.65E-03,  avg # of iterations =  4.0

     negative rho (up, down):  8.571E-04 0.000E+00
 
     Adding external electric field

     Computed dipole along edir(3) : 
        Dipole               -0.0336 Ry au,         -0.0854 Debye
        Dipole field         -0.0001 Ry au, 
 
        Potential amp.        0.0059 Ry
        Total length         46.3494 bohr
 

     total cpu time spent up to now is      418.3 secs

     total energy              =   -2982.11009392 Ry
     estimated scf accuracy    <    1630.73486664 Ry

     iteration # 19     ecut=    29.40 Ry     beta= 0.05
     Davidson diagonalization with overlap
     ethr =  9.65E-03,  avg # of iterations =  2.7

     negative rho (up, down):  8.215E-04 0.000E+00
 
     Adding external electric field

     Computed dipole along edir(3) : 
        Dipole               -0.5764 Ry au,         -1.4651 Debye
        Dipole field         -0.0011 Ry au, 
 
        Potential amp.        0.1008 Ry
        Total length         46.3494 bohr
 

     total cpu time spent up to now is      429.6 secs

     total energy              =   -2979.17710042 Ry
     estimated scf accuracy    <    1740.95048194 Ry

     iteration # 20     ecut=    29.40 Ry     beta= 0.05
     Davidson diagonalization with overlap
     ethr =  9.65E-03,  avg # of iterations =  2.1

     negative rho (up, down):  8.148E-04 0.000E+00
 
     Adding external electric field

     Computed dipole along edir(3) : 
        Dipole               -0.6021 Ry au,         -1.5303 Debye
        Dipole field         -0.0011 Ry au, 
 
        Potential amp.        0.1053 Ry
        Total length         46.3494 bohr
 

     total cpu time spent up to now is      440.6 secs

     total energy              =   -2981.39668255 Ry
     estimated scf accuracy    <    1631.86186830 Ry

     iteration # 21     ecut=    29.40 Ry     beta= 0.05
     Davidson diagonalization with overlap
     ethr =  9.65E-03,  avg # of iterations =  2.5

     negative rho (up, down):  7.744E-04 0.000E+00
 
     Adding external electric field

     Computed dipole along edir(3) : 
        Dipole               -0.1011 Ry au,         -0.2569 Debye
        Dipole field         -0.0002 Ry au, 
 
        Potential amp.        0.0177 Ry
        Total length         46.3494 bohr
 

     total cpu time spent up to now is      451.8 secs

     total energy              =   -2979.76136288 Ry
     estimated scf accuracy    <    1490.03782907 Ry

     iteration # 22     ecut=    29.40 Ry     beta= 0.05
     Davidson diagonalization with overlap
     ethr =  9.65E-03,  avg # of iterations =  1.7

     negative rho (up, down):  9.883E-04 0.000E+00
 
     Adding external electric field

     Computed dipole along edir(3) : 
        Dipole                0.4722 Ry au,          1.2001 Debye
        Dipole field          0.0009 Ry au, 
 
        Potential amp.       -0.0826 Ry
        Total length         46.3494 bohr
 

     total cpu time spent up to now is      462.6 secs

     total energy              =   -2985.84543178 Ry
     estimated scf accuracy    <    1357.04935734 Ry

     iteration # 23     ecut=    29.40 Ry     beta= 0.05
     Davidson diagonalization with overlap
     ethr =  9.65E-03,  avg # of iterations =  4.6

     negative rho (up, down):  4.942E-04 0.000E+00
 
     Adding external electric field

     Computed dipole along edir(3) : 
        Dipole               -5.0563 Ry au,        -12.8519 Debye
        Dipole field         -0.0095 Ry au, 
 
        Potential amp.        0.8845 Ry
        Total length         46.3494 bohr
 

     total cpu time spent up to now is      474.4 secs

     total energy              =   -2887.03599460 Ry
     estimated scf accuracy    <    2358.50382779 Ry

     iteration # 24     ecut=    29.40 Ry     beta= 0.05
     Davidson diagonalization with overlap
     ethr =  9.65E-03,  avg # of iterations = 12.9

     negative rho (up, down):  1.014E-04 0.000E+00
 
     Adding external electric field

     Computed dipole along edir(3) : 
        Dipole               -6.2176 Ry au,        -15.8035 Debye
        Dipole field         -0.0117 Ry au, 
 
        Potential amp.        1.0877 Ry
        Total length         46.3494 bohr
 

     total cpu time spent up to now is      507.2 secs

     total energy              =   -3026.28203235 Ry
     estimated scf accuracy    <    7973.29003530 Ry

     iteration # 25     ecut=    29.40 Ry     beta= 0.05
     Davidson diagonalization with overlap
     ethr =  9.65E-03,  avg # of iterations =  9.7

     negative rho (up, down):  2.592E-06 0.000E+00
 
     Adding external electric field

     Computed dipole along edir(3) : 
        Dipole               -1.5348 Ry au,         -3.9012 Debye
        Dipole field         -0.0029 Ry au, 
 
        Potential amp.        0.2685 Ry
        Total length         46.3494 bohr
 

     total cpu time spent up to now is      523.4 secs

     total energy              =   -2961.19096358 Ry
     estimated scf accuracy    <    8952.95016884 Ry

     iteration # 26     ecut=    29.40 Ry     beta= 0.05
     Davidson diagonalization with overlap
     ethr =  9.65E-03,  avg # of iterations =  9.6

     negative rho (up, down):  2.594E-06 0.000E+00
 
     Adding external electric field

     Computed dipole along edir(3) : 
        Dipole               -1.5166 Ry au,         -3.8548 Debye
        Dipole field         -0.0029 Ry au, 
 
        Potential amp.        0.2653 Ry
        Total length         46.3494 bohr
 

     total cpu time spent up to now is      541.5 secs

     total energy              =   -2967.34559773 Ry
     estimated scf accuracy    <    2398.01130473 Ry

     iteration # 27     ecut=    29.40 Ry     beta= 0.05
     Davidson diagonalization with overlap
     ethr =  9.65E-03,  avg # of iterations = 14.1

     negative rho (up, down):  7.987E-06 0.000E+00
 
     Adding external electric field

     Computed dipole along edir(3) : 
        Dipole               -0.4784 Ry au,         -1.2159 Debye
        Dipole field         -0.0009 Ry au, 
 
        Potential amp.        0.0837 Ry
        Total length         46.3494 bohr
 

     total cpu time spent up to now is      561.2 secs

     total energy              =   -2977.11806732 Ry
     estimated scf accuracy    <     129.67458111 Ry

     iteration # 28     ecut=    29.40 Ry     beta= 0.05
     Davidson diagonalization with overlap
     ethr =  9.65E-03,  avg # of iterations =  4.0

     negative rho (up, down):  4.551E-06 0.000E+00
 
     Adding external electric field

     Computed dipole along edir(3) : 
        Dipole               -0.4526 Ry au,         -1.1503 Debye
        Dipole field         -0.0009 Ry au, 
 
        Potential amp.        0.0792 Ry
        Total length         46.3494 bohr
 

     total cpu time spent up to now is      572.7 secs

     total energy              =   -2977.82789035 Ry
     estimated scf accuracy    <      63.24948437 Ry

     iteration # 29     ecut=    29.40 Ry     beta= 0.05
     Davidson diagonalization with overlap
     ethr =  9.65E-03,  avg # of iterations =  1.4

     negative rho (up, down):  8.042E-07 0.000E+00
 
     Adding external electric field

     Computed dipole along edir(3) : 
        Dipole               -0.0307 Ry au,         -0.0781 Debye
        Dipole field         -0.0001 Ry au, 
 
        Potential amp.        0.0054 Ry
        Total length         46.3494 bohr
 

     total cpu time spent up to now is      583.0 secs

     total energy              =   -2973.53720821 Ry
     estimated scf accuracy    <      57.07903724 Ry

     iteration # 30     ecut=    29.40 Ry     beta= 0.05
     Davidson diagonalization with overlap
     ethr =  9.65E-03,  avg # of iterations =  3.0

     negative rho (up, down):  2.363E-06 0.000E+00
 
     Adding external electric field

     Computed dipole along edir(3) : 
        Dipole                0.5700 Ry au,          1.4488 Debye
        Dipole field          0.0011 Ry au, 
 
        Potential amp.       -0.0997 Ry
        Total length         46.3494 bohr
 

     total cpu time spent up to now is      594.0 secs

     total energy              =   -2974.37861156 Ry
     estimated scf accuracy    <      57.84712434 Ry

     iteration # 31     ecut=    29.40 Ry     beta= 0.05
     Davidson diagonalization with overlap
     ethr =  9.65E-03,  avg # of iterations =  4.0

     negative rho (up, down):  6.166E-06 0.000E+00
 
     Adding external electric field

     Computed dipole along edir(3) : 
        Dipole                0.7428 Ry au,          1.8881 Debye
        Dipole field          0.0014 Ry au, 
 
        Potential amp.       -0.1299 Ry
        Total length         46.3494 bohr
 

     total cpu time spent up to now is      605.7 secs

     total energy              =   -2975.82663168 Ry
     estimated scf accuracy    <      18.87185218 Ry

     iteration # 32     ecut=    29.40 Ry     beta= 0.05
     Davidson diagonalization with overlap
     c_bands:  2 eigenvalues not converged
     c_bands:  4 eigenvalues not converged
     ethr =  4.65E-03,  avg # of iterations =  7.8

     negative rho (up, down):  9.615E-06 0.000E+00
 
     Adding external electric field

     Computed dipole along edir(3) : 
        Dipole                1.3936 Ry au,          3.5422 Debye
        Dipole field          0.0026 Ry au, 
 
        Potential amp.       -0.2438 Ry
        Total length         46.3494 bohr
 

     total cpu time spent up to now is      619.3 secs

     total energy              =   -2977.25351710 Ry
     estimated scf accuracy    <       3.25719980 Ry

     iteration # 33     ecut=    29.40 Ry     beta= 0.05
     Davidson diagonalization with overlap
     c_bands:  2 eigenvalues not converged
     c_bands:  1 eigenvalues not converged
     c_bands:  1 eigenvalues not converged
     c_bands:  2 eigenvalues not converged
     ethr =  8.02E-04,  avg # of iterations = 19.5

     negative rho (up, down):  7.120E-06 0.000E+00
 
     Adding external electric field

     Computed dipole along edir(3) : 
        Dipole                1.0402 Ry au,          2.6438 Debye
        Dipole field          0.0020 Ry au, 
 
        Potential amp.       -0.1820 Ry
        Total length         46.3494 bohr
 

     total cpu time spent up to now is      645.4 secs

     total energy              =   -2978.02029795 Ry
     estimated scf accuracy    <     652.50995522 Ry

     iteration # 34     ecut=    29.40 Ry     beta= 0.05
     Davidson diagonalization with overlap
     ethr =  8.02E-04,  avg # of iterations =  5.0

     negative rho (up, down):  6.658E-06 0.000E+00
 
     Adding external electric field

     Computed dipole along edir(3) : 
        Dipole                1.0174 Ry au,          2.5859 Debye
        Dipole field          0.0019 Ry au, 
 
        Potential amp.       -0.1780 Ry
        Total length         46.3494 bohr
 

     total cpu time spent up to now is      657.2 secs

     total energy              =   -2978.59965224 Ry
     estimated scf accuracy    <     159.64109652 Ry

     iteration # 35     ecut=    29.40 Ry     beta= 0.05
     Davidson diagonalization with overlap
     ethr =  8.02E-04,  avg # of iterations =  1.9

     negative rho (up, down):  3.761E-06 0.000E+00
 
     Adding external electric field

     Computed dipole along edir(3) : 
        Dipole                0.7768 Ry au,          1.9745 Debye
        Dipole field          0.0015 Ry au, 
 
        Potential amp.       -0.1359 Ry
        Total length         46.3494 bohr
 

     total cpu time spent up to now is      667.6 secs

     total energy              =   -2978.26296215 Ry
     estimated scf accuracy    <     146.75971753 Ry

     iteration # 36     ecut=    29.40 Ry     beta= 0.05
     Davidson diagonalization with overlap
     ethr =  8.02E-04,  avg # of iterations =  5.4

     negative rho (up, down):  6.831E-06 0.000E+00
 
     Adding external electric field

     Computed dipole along edir(3) : 
        Dipole                0.8483 Ry au,          2.1561 Debye
        Dipole field          0.0016 Ry au, 
 
        Potential amp.       -0.1484 Ry
        Total length         46.3494 bohr
 

     total cpu time spent up to now is      680.0 secs

     total energy              =   -2978.39738916 Ry
     estimated scf accuracy    <      96.13247300 Ry

     iteration # 37     ecut=    29.40 Ry     beta= 0.05
     Davidson diagonalization with overlap
     ethr =  8.02E-04,  avg # of iterations =  1.2

     negative rho (up, down):  1.299E-05 0.000E+00
 
     Adding external electric field

     Computed dipole along edir(3) : 
        Dipole                0.9631 Ry au,          2.4480 Debye
        Dipole field          0.0018 Ry au, 
 
        Potential amp.       -0.1685 Ry
        Total length         46.3494 bohr
 

     total cpu time spent up to now is      690.3 secs

     total energy              =   -2978.35591968 Ry
     estimated scf accuracy    <      97.66060318 Ry

     iteration # 38     ecut=    29.40 Ry     beta= 0.05
     Davidson diagonalization with overlap
     ethr =  8.02E-04,  avg # of iterations =  1.0

     negative rho (up, down):  1.835E-05 0.000E+00
 
     Adding external electric field

     Computed dipole along edir(3) : 
        Dipole                1.0669 Ry au,          2.7118 Debye
        Dipole field          0.0020 Ry au, 
 
        Potential amp.       -0.1866 Ry
        Total length         46.3494 bohr
 

     total cpu time spent up to now is      700.6 secs

     total energy              =   -2978.48732120 Ry
     estimated scf accuracy    <      90.52241397 Ry

     iteration # 39     ecut=    29.40 Ry     beta= 0.05
     Davidson diagonalization with overlap
     ethr =  8.02E-04,  avg # of iterations =  1.0

     negative rho (up, down):  1.390E-05 0.000E+00
 
     Adding external electric field

     Computed dipole along edir(3) : 
        Dipole                1.0590 Ry au,          2.6918 Debye
        Dipole field          0.0020 Ry au, 
 
        Potential amp.       -0.1853 Ry
        Total length         46.3494 bohr
 

     total cpu time spent up to now is      710.7 secs

     total energy              =   -2978.57320807 Ry
     estimated scf accuracy    <     104.55664446 Ry

     iteration # 40     ecut=    29.40 Ry     beta= 0.05
     Davidson diagonalization with overlap
     ethr =  8.02E-04,  avg # of iterations =  1.0

     negative rho (up, down):  2.180E-05 0.000E+00
 
     Adding external electric field

     Computed dipole along edir(3) : 
        Dipole                0.9792 Ry au,          2.4888 Debye
        Dipole field          0.0018 Ry au, 
 
        Potential amp.       -0.1713 Ry
        Total length         46.3494 bohr
 

     total cpu time spent up to now is      720.8 secs

     total energy              =   -2978.12225578 Ry
     estimated scf accuracy    <     114.01185822 Ry

     iteration # 41     ecut=    29.40 Ry     beta= 0.05
     Davidson diagonalization with overlap
     ethr =  8.02E-04,  avg # of iterations =  8.1

     negative rho (up, down):  2.919E-06 0.000E+00
 
     Adding external electric field

     Computed dipole along edir(3) : 
        Dipole                0.6391 Ry au,          1.6245 Debye
        Dipole field          0.0012 Ry au, 
 
        Potential amp.       -0.1118 Ry
        Total length         46.3494 bohr
 

     total cpu time spent up to now is      733.7 secs

     total energy              =   -2978.00445762 Ry
     estimated scf accuracy    <      45.74486265 Ry

     iteration # 42     ecut=    29.40 Ry     beta= 0.05
     Davidson diagonalization with overlap
     ethr =  8.02E-04,  avg # of iterations =  3.1

     negative rho (up, down):  4.553E-06 0.000E+00
 
     Adding external electric field

     Computed dipole along edir(3) : 
        Dipole                0.4822 Ry au,          1.2257 Debye
        Dipole field          0.0009 Ry au, 
 
        Potential amp.       -0.0844 Ry
        Total length         46.3494 bohr
 

     total cpu time spent up to now is      745.2 secs

     total energy              =   -2977.59503689 Ry
     estimated scf accuracy    <      35.31222851 Ry

     iteration # 43     ecut=    29.40 Ry     beta= 0.05
     Davidson diagonalization with overlap
     c_bands:  2 eigenvalues not converged
     c_bands:  1 eigenvalues not converged
     c_bands:  1 eigenvalues not converged
     c_bands:  2 eigenvalues not converged
     ethr =  8.02E-04,  avg # of iterations = 16.1

     negative rho (up, down):  2.783E-04 0.000E+00
 
     Adding external electric field

     Computed dipole along edir(3) : 
        Dipole                1.0162 Ry au,          2.5830 Debye
        Dipole field          0.0019 Ry au, 
 
        Potential amp.       -0.1778 Ry
        Total length         46.3494 bohr
 

     total cpu time spent up to now is      763.0 secs

     total energy              =   -2977.22944754 Ry
     estimated scf accuracy    <       6.10973891 Ry

     iteration # 44     ecut=    29.40 Ry     beta= 0.05
     Davidson diagonalization with overlap
     c_bands:  3 eigenvalues not converged
     ethr =  8.02E-04,  avg # of iterations = 12.9

     negative rho (up, down):  2.839E-04 0.000E+00
 
     Adding external electric field

     Computed dipole along edir(3) : 
        Dipole                0.9629 Ry au,          2.4475 Debye
        Dipole field          0.0018 Ry au, 
 
        Potential amp.       -0.1684 Ry
        Total length         46.3494 bohr
 

     total cpu time spent up to now is      779.2 secs

     total energy              =   -2977.77112608 Ry
     estimated scf accuracy    <       5.01177264 Ry

     iteration # 45     ecut=    29.40 Ry     beta= 0.05
     Davidson diagonalization with overlap
     ethr =  8.02E-04,  avg # of iterations =  2.0

     negative rho (up, down):  1.661E-04 0.000E+00
 
     Adding external electric field

     Computed dipole along edir(3) : 
        Dipole                0.7186 Ry au,          1.8265 Debye
        Dipole field          0.0014 Ry au, 
 
        Potential amp.       -0.1257 Ry
        Total length         46.3494 bohr
 

     total cpu time spent up to now is      789.9 secs

     total energy              =   -2977.54758589 Ry
     estimated scf accuracy    <       3.89874700 Ry

     iteration # 46     ecut=    29.40 Ry     beta= 0.05
     Davidson diagonalization with overlap
     c_bands:  1 eigenvalues not converged
     c_bands:  2 eigenvalues not converged
     c_bands:  1 eigenvalues not converged
     ethr =  8.02E-04,  avg # of iterations = 14.1

     negative rho (up, down):  1.647E-04 0.000E+00
 
     Adding external electric field

     Computed dipole along edir(3) : 
        Dipole                0.7153 Ry au,          1.8180 Debye
        Dipole field          0.0013 Ry au, 
 
        Potential amp.       -0.1251 Ry
        Total length         46.3494 bohr
 

     total cpu time spent up to now is      805.0 secs

     total energy              =   -2977.81255686 Ry
     estimated scf accuracy    <       1.57942981 Ry

     iteration # 47     ecut=    29.40 Ry     beta= 0.05
     Davidson diagonalization with overlap
     ethr =  3.89E-04,  avg # of iterations =  7.0

     negative rho (up, down):  1.575E-04 0.000E+00
 
     Adding external electric field

     Computed dipole along edir(3) : 
        Dipole                0.7573 Ry au,          1.9249 Debye
        Dipole field          0.0014 Ry au, 
 
        Potential amp.       -0.1325 Ry
        Total length         46.3494 bohr
 

     total cpu time spent up to now is      817.7 secs

     total energy              =   -2977.81039661 Ry
     estimated scf accuracy    <       1.73161140 Ry

     iteration # 48     ecut=    29.40 Ry     beta= 0.05
     Davidson diagonalization with overlap
     ethr =  3.89E-04,  avg # of iterations =  1.4

     negative rho (up, down):  1.569E-04 0.000E+00
 
     Adding external electric field

     Computed dipole along edir(3) : 
        Dipole                0.8047 Ry au,          2.0455 Debye
        Dipole field          0.0015 Ry au, 
 
        Potential amp.       -0.1408 Ry
        Total length         46.3494 bohr
 

     total cpu time spent up to now is      828.2 secs

     total energy              =   -2977.80774700 Ry
     estimated scf accuracy    <       1.65123828 Ry

     iteration # 49     ecut=    29.40 Ry     beta= 0.05
     Davidson diagonalization with overlap
     ethr =  3.89E-04,  avg # of iterations =  1.1

     negative rho (up, down):  2.124E-04 0.000E+00
 
     Adding external electric field

     Computed dipole along edir(3) : 
        Dipole                0.6826 Ry au,          1.7350 Debye
        Dipole field          0.0013 Ry au, 
 
        Potential amp.       -0.1194 Ry
        Total length         46.3494 bohr
 

     total cpu time spent up to now is      838.4 secs

     total energy              =   -2977.85199319 Ry
     estimated scf accuracy    <       1.58791686 Ry

     iteration # 50     ecut=    29.40 Ry     beta= 0.05
     Davidson diagonalization with overlap
     c_bands:  1 eigenvalues not converged
     c_bands:  3 eigenvalues not converged
     c_bands:  3 eigenvalues not converged
     c_bands:  1 eigenvalues not converged
     c_bands:  1 eigenvalues not converged
     ethr =  3.89E-04,  avg # of iterations = 13.5

     negative rho (up, down):  2.232E-04 0.000E+00
 
     Adding external electric field

     Computed dipole along edir(3) : 
        Dipole                0.7021 Ry au,          1.7847 Debye
        Dipole field          0.0013 Ry au, 
 
        Potential amp.       -0.1228 Ry
        Total length         46.3494 bohr
 

     total cpu time spent up to now is      853.4 secs

     total energy              =   -2977.89164812 Ry
     estimated scf accuracy    <       2.05914983 Ry

     iteration # 51     ecut=    29.40 Ry     beta= 0.05
     Davidson diagonalization with overlap
     ethr =  3.89E-04,  avg # of iterations =  1.5

     negative rho (up, down):  7.833E-05 0.000E+00
 
     Adding external electric field

     Computed dipole along edir(3) : 
        Dipole                0.6230 Ry au,          1.5836 Debye
        Dipole field          0.0012 Ry au, 
 
        Potential amp.       -0.1090 Ry
        Total length         46.3494 bohr
 

     total cpu time spent up to now is      864.0 secs

     total energy              =   -2977.77575548 Ry
     estimated scf accuracy    <       2.04820290 Ry

     iteration # 52     ecut=    29.40 Ry     beta= 0.05
     Davidson diagonalization with overlap
     c_bands:  1 eigenvalues not converged
     ethr =  3.89E-04,  avg # of iterations =  9.9

     negative rho (up, down):  4.298E-05 0.000E+00
 
     Adding external electric field

     Computed dipole along edir(3) : 
        Dipole                0.8031 Ry au,          2.0412 Debye
        Dipole field          0.0015 Ry au, 
 
        Potential amp.       -0.1405 Ry
        Total length         46.3494 bohr
 

     total cpu time spent up to now is      877.4 secs

     total energy              =   -2977.51125620 Ry
     estimated scf accuracy    <       2.72195411 Ry

     iteration # 53     ecut=    29.40 Ry     beta= 0.05
     Davidson diagonalization with overlap
     c_bands:  2 eigenvalues not converged
     c_bands:  5 eigenvalues not converged
     c_bands:  2 eigenvalues not converged
     c_bands:  1 eigenvalues not converged
     c_bands:  1 eigenvalues not converged
     ethr =  3.89E-04,  avg # of iterations = 18.0

     negative rho (up, down):  7.064E-05 0.000E+00
 
     Adding external electric field

     Computed dipole along edir(3) : 
        Dipole                0.6463 Ry au,          1.6427 Debye
        Dipole field          0.0012 Ry au, 
 
        Potential amp.       -0.1131 Ry
        Total length         46.3494 bohr
 

     total cpu time spent up to now is      896.9 secs

     total energy              =   -2977.62646739 Ry
     estimated scf accuracy    <       3.81376062 Ry

     iteration # 54     ecut=    29.40 Ry     beta= 0.05
     Davidson diagonalization with overlap
     ethr =  3.89E-04,  avg # of iterations =  5.2

     negative rho (up, down):  2.245E-04 0.000E+00
 
     Adding external electric field

     Computed dipole along edir(3) : 
        Dipole                0.6626 Ry au,          1.6842 Debye
        Dipole field          0.0013 Ry au, 
 
        Potential amp.       -0.1159 Ry
        Total length         46.3494 bohr
 

     total cpu time spent up to now is      908.8 secs

     total energy              =   -2977.61760690 Ry
     estimated scf accuracy    <       0.75573955 Ry

     iteration # 55     ecut=    29.40 Ry     beta= 0.05
     Davidson diagonalization with overlap
     c_bands:  3 eigenvalues not converged
     c_bands:  4 eigenvalues not converged
     c_bands:  3 eigenvalues not converged
     c_bands:  4 eigenvalues not converged
     c_bands:  5 eigenvalues not converged
     c_bands:  4 eigenvalues not converged
     c_bands:  2 eigenvalues not converged
     ethr =  1.86E-04,  avg # of iterations = 21.2

     negative rho (up, down):  3.506E-04 0.000E+00
 
     Adding external electric field

     Computed dipole along edir(3) : 
        Dipole                0.7105 Ry au,          1.8058 Debye
        Dipole field          0.0013 Ry au, 
 
        Potential amp.       -0.1243 Ry
        Total length         46.3494 bohr
 

     total cpu time spent up to now is      932.2 secs

     total energy              =   -2977.78346680 Ry
     estimated scf accuracy    <       1.31262931 Ry

     iteration # 56     ecut=    29.40 Ry     beta= 0.05
     Davidson diagonalization with overlap
     ethr =  1.86E-04,  avg # of iterations =  1.7

     negative rho (up, down):  3.108E-04 0.000E+00
 
     Adding external electric field

     Computed dipole along edir(3) : 
        Dipole                0.8169 Ry au,          2.0763 Debye
        Dipole field          0.0015 Ry au, 
 
        Potential amp.       -0.1429 Ry
        Total length         46.3494 bohr
 

     total cpu time spent up to now is      942.9 secs

     total energy              =   -2977.66533180 Ry
     estimated scf accuracy    <       1.09661009 Ry

     iteration # 57     ecut=    29.40 Ry     beta= 0.05
     Davidson diagonalization with overlap
     c_bands:  1 eigenvalues not converged
     c_bands:  1 eigenvalues not converged
     ethr =  1.86E-04,  avg # of iterations =  9.1

     negative rho (up, down):  3.737E-04 0.000E+00
 
     Adding external electric field

     Computed dipole along edir(3) : 
        Dipole                0.8425 Ry au,          2.1414 Debye
        Dipole field          0.0016 Ry au, 
 
        Potential amp.       -0.1474 Ry
        Total length         46.3494 bohr
 

     total cpu time spent up to now is      956.3 secs

     total energy              =   -2977.71345937 Ry
     estimated scf accuracy    <       0.62684866 Ry

     iteration # 58     ecut=    29.40 Ry     beta= 0.05
     Davidson diagonalization with overlap
     ethr =  1.54E-04,  avg # of iterations =  2.5

     negative rho (up, down):  3.599E-04 0.000E+00
 
     Adding external electric field

     Computed dipole along edir(3) : 
        Dipole                0.8339 Ry au,          2.1196 Debye
        Dipole field          0.0016 Ry au, 
 
        Potential amp.       -0.1459 Ry
        Total length         46.3494 bohr
 

     total cpu time spent up to now is      967.1 secs

     total energy              =   -2977.68349993 Ry
     estimated scf accuracy    <       0.93434489 Ry

     iteration # 59     ecut=    29.40 Ry     beta= 0.05
     Davidson diagonalization with overlap
     c_bands:  3 eigenvalues not converged
     c_bands:  4 eigenvalues not converged
     c_bands:  1 eigenvalues not converged
     c_bands:  1 eigenvalues not converged
     ethr =  1.54E-04,  avg # of iterations = 18.3

     negative rho (up, down):  3.527E-04 0.000E+00
 
     Adding external electric field

     Computed dipole along edir(3) : 
        Dipole                0.8658 Ry au,          2.2007 Debye
        Dipole field          0.0016 Ry au, 
 
        Potential amp.       -0.1515 Ry
        Total length         46.3494 bohr
 

     total cpu time spent up to now is      984.9 secs

     total energy              =   -2977.71705217 Ry
     estimated scf accuracy    <       0.57743550 Ry

     iteration # 60     ecut=    29.40 Ry     beta= 0.05
     Davidson diagonalization with overlap
     ethr =  1.42E-04,  avg # of iterations =  4.1

     negative rho (up, down):  3.635E-04 0.000E+00
 
     Adding external electric field

     Computed dipole along edir(3) : 
        Dipole                0.8724 Ry au,          2.2174 Debye
        Dipole field          0.0016 Ry au, 
 
        Potential amp.       -0.1526 Ry
        Total length         46.3494 bohr
 

     total cpu time spent up to now is      996.2 secs

     total energy              =   -2977.71848541 Ry
     estimated scf accuracy    <       0.71174525 Ry

     iteration # 61     ecut=    29.40 Ry     beta= 0.05
     Davidson diagonalization with overlap
     ethr =  1.42E-04,  avg # of iterations =  1.0

     negative rho (up, down):  3.237E-04 0.000E+00
 
     Adding external electric field

     Computed dipole along edir(3) : 
        Dipole                0.8522 Ry au,          2.1660 Debye
        Dipole field          0.0016 Ry au, 
 
        Potential amp.       -0.1491 Ry
        Total length         46.3494 bohr
 

     total cpu time spent up to now is     1006.4 secs

     total energy              =   -2977.70185768 Ry
     estimated scf accuracy    <       0.67980436 Ry

     iteration # 62     ecut=    29.40 Ry     beta= 0.05
     Davidson diagonalization with overlap
     ethr =  1.42E-04,  avg # of iterations =  1.0

     negative rho (up, down):  4.825E-04 0.000E+00
 
     Adding external electric field

     Computed dipole along edir(3) : 
        Dipole                0.9604 Ry au,          2.4411 Debye
        Dipole field          0.0018 Ry au, 
 
        Potential amp.       -0.1680 Ry
        Total length         46.3494 bohr
 

     total cpu time spent up to now is     1016.7 secs

     total energy              =   -2977.71319252 Ry
     estimated scf accuracy    <       0.30297091 Ry

     iteration # 63     ecut=    29.40 Ry     beta= 0.05
     Davidson diagonalization with overlap
     c_bands:  3 eigenvalues not converged
     c_bands:  2 eigenvalues not converged
     c_bands:  1 eigenvalues not converged
     c_bands:  2 eigenvalues not converged
     c_bands:  1 eigenvalues not converged
     ethr =  7.46E-05,  avg # of iterations = 16.9

     negative rho (up, down):  7.902E-04 0.000E+00
 
     Adding external electric field

     Computed dipole along edir(3) : 
        Dipole                0.8921 Ry au,          2.2674 Debye
        Dipole field          0.0017 Ry au, 
 
        Potential amp.       -0.1561 Ry
        Total length         46.3494 bohr
 

     total cpu time spent up to now is     1033.9 secs

     total energy              =   -2977.66684881 Ry
     estimated scf accuracy    <       0.61382289 Ry

     iteration # 64     ecut=    29.40 Ry     beta= 0.05
     Davidson diagonalization with overlap
     c_bands:  1 eigenvalues not converged
     c_bands:  1 eigenvalues not converged
     c_bands:  2 eigenvalues not converged
     c_bands:  1 eigenvalues not converged
     c_bands:  2 eigenvalues not converged
     c_bands:  2 eigenvalues not converged
     ethr =  7.46E-05,  avg # of iterations = 17.0

     negative rho (up, down):  8.279E-04 0.000E+00
 
     Adding external electric field

     Computed dipole along edir(3) : 
        Dipole                0.9280 Ry au,          2.3587 Debye
        Dipole field          0.0018 Ry au, 
 
        Potential amp.       -0.1623 Ry
        Total length         46.3494 bohr
 

     total cpu time spent up to now is     1052.0 secs

     total energy              =   -2977.70507912 Ry
     estimated scf accuracy    <       0.75607797 Ry

     iteration # 65     ecut=    29.40 Ry     beta= 0.05
     Davidson diagonalization with overlap
     ethr =  7.46E-05,  avg # of iterations =  2.1

     negative rho (up, down):  1.506E-03 0.000E+00
 
     Adding external electric field

     Computed dipole along edir(3) : 
        Dipole                1.0687 Ry au,          2.7164 Debye
        Dipole field          0.0020 Ry au, 
 
        Potential amp.       -0.1870 Ry
        Total length         46.3494 bohr
 

     total cpu time spent up to now is     1062.8 secs

     total energy              =   -2977.70434706 Ry
     estimated scf accuracy    <       0.37462054 Ry

     iteration # 66     ecut=    29.40 Ry     beta= 0.05
     Davidson diagonalization with overlap
     c_bands:  1 eigenvalues not converged
     c_bands:  2 eigenvalues not converged
     c_bands:  1 eigenvalues not converged
     ethr =  7.46E-05,  avg # of iterations =  8.8

     negative rho (up, down):  1.933E-03 0.000E+00
 
     Adding external electric field

     Computed dipole along edir(3) : 
        Dipole                1.1599 Ry au,          2.9483 Debye
        Dipole field          0.0022 Ry au, 
 
        Potential amp.       -0.2029 Ry
        Total length         46.3494 bohr
 

     total cpu time spent up to now is     1075.6 secs

     total energy              =   -2977.70253374 Ry
     estimated scf accuracy    <       0.39379586 Ry

     iteration # 67     ecut=    29.40 Ry     beta= 0.05
     Davidson diagonalization with overlap
     ethr =  7.46E-05,  avg # of iterations =  2.0

     negative rho (up, down):  2.747E-03 0.000E+00
 
     Adding external electric field

     Computed dipole along edir(3) : 
        Dipole                1.2530 Ry au,          3.1849 Debye
        Dipole field          0.0024 Ry au, 
 
        Potential amp.       -0.2192 Ry
        Total length         46.3494 bohr
 

     total cpu time spent up to now is     1086.4 secs

     total energy              =   -2977.69120366 Ry
     estimated scf accuracy    <       0.30595512 Ry

     iteration # 68     ecut=    29.40 Ry     beta= 0.05
     Davidson diagonalization with overlap
     ethr =  7.46E-05,  avg # of iterations =  2.3

     negative rho (up, down):  4.650E-03 0.000E+00
 
     Adding external electric field

     Computed dipole along edir(3) : 
        Dipole                1.3233 Ry au,          3.3634 Debye
        Dipole field          0.0025 Ry au, 
 
        Potential amp.       -0.2315 Ry
        Total length         46.3494 bohr
 

     total cpu time spent up to now is     1097.4 secs

     total energy              =   -2977.69730862 Ry
     estimated scf accuracy    <       0.02420709 Ry

     iteration # 69     ecut=    29.40 Ry     beta= 0.05
     Davidson diagonalization with overlap
     c_bands:  3 eigenvalues not converged
     c_bands:  2 eigenvalues not converged
     c_bands:  2 eigenvalues not converged
     c_bands:  4 eigenvalues not converged
     c_bands:  4 eigenvalues not converged
     c_bands:  1 eigenvalues not converged
     ethr =  5.96E-06,  avg # of iterations = 18.8

     negative rho (up, down):  5.108E-03 0.000E+00
 
     Adding external electric field

     Computed dipole along edir(3) : 
        Dipole                1.3217 Ry au,          3.3595 Debye
        Dipole field          0.0025 Ry au, 
 
        Potential amp.       -0.2312 Ry
        Total length         46.3494 bohr
 

     total cpu time spent up to now is     1117.4 secs

     total energy              =   -2977.69931067 Ry
     estimated scf accuracy    <       0.00765711 Ry

     iteration # 70     ecut=    29.40 Ry     beta= 0.05
     Davidson diagonalization with overlap
     c_bands:  2 eigenvalues not converged
     c_bands:  1 eigenvalues not converged
     c_bands:  2 eigenvalues not converged
     c_bands:  3 eigenvalues not converged
     c_bands:  2 eigenvalues not converged
     c_bands:  2 eigenvalues not converged
     ethr =  1.89E-06,  avg # of iterations = 17.6

     negative rho (up, down):  5.679E-03 0.000E+00
 
     Adding external electric field

     Computed dipole along edir(3) : 
        Dipole                1.2922 Ry au,          3.2846 Debye
        Dipole field          0.0024 Ry au, 
 
        Potential amp.       -0.2261 Ry
        Total length         46.3494 bohr
 

     total cpu time spent up to now is     1134.4 secs

     total energy              =   -2977.69889963 Ry
     estimated scf accuracy    <       0.00671720 Ry

     iteration # 71     ecut=    29.40 Ry     beta= 0.05
     Davidson diagonalization with overlap
     c_bands:  1 eigenvalues not converged
     c_bands:  2 eigenvalues not converged
     c_bands:  1 eigenvalues not converged
     ethr =  1.65E-06,  avg # of iterations = 17.9

     negative rho (up, down):  8.543E-03 0.000E+00
 
     Adding external electric field

     Computed dipole along edir(3) : 
        Dipole                1.3536 Ry au,          3.4405 Debye
        Dipole field          0.0026 Ry au, 
 
        Potential amp.       -0.2368 Ry
        Total length         46.3494 bohr
 

     total cpu time spent up to now is     1152.5 secs

     total energy              =   -2977.69929698 Ry
     estimated scf accuracy    <       0.00695018 Ry

     iteration # 72     ecut=    29.40 Ry     beta= 0.05
     Davidson diagonalization with overlap
     c_bands:  1 eigenvalues not converged
     c_bands:  1 eigenvalues not converged
     ethr =  1.65E-06,  avg # of iterations = 16.4

     negative rho (up, down):  7.489E-03 0.000E+00
 
     Adding external electric field

     Computed dipole along edir(3) : 
        Dipole                1.3293 Ry au,          3.3787 Debye
        Dipole field          0.0025 Ry au, 
 
        Potential amp.       -0.2325 Ry
        Total length         46.3494 bohr
 

     total cpu time spent up to now is     1169.5 secs

     total energy              =   -2977.69945855 Ry
     estimated scf accuracy    <       0.00424917 Ry

     iteration # 73     ecut=    29.40 Ry     beta= 0.05
     Davidson diagonalization with overlap
     ethr =  1.05E-06,  avg # of iterations = 11.3

     negative rho (up, down):  7.309E-03 0.000E+00
 
     Adding external electric field

     Computed dipole along edir(3) : 
        Dipole                1.3230 Ry au,          3.3628 Debye
        Dipole field          0.0025 Ry au, 
 
        Potential amp.       -0.2314 Ry
        Total length         46.3494 bohr
 

     total cpu time spent up to now is     1183.4 secs

     total energy              =   -2977.69951844 Ry
     estimated scf accuracy    <       0.00143629 Ry

     iteration # 74     ecut=    29.40 Ry     beta= 0.05
     Davidson diagonalization with overlap
     c_bands:  1 eigenvalues not converged
     c_bands:  1 eigenvalues not converged
     c_bands:  2 eigenvalues not converged
     ethr =  3.54E-07,  avg # of iterations = 15.5

     negative rho (up, down):  1.003E-02 0.000E+00
 
     Adding external electric field

     Computed dipole along edir(3) : 
        Dipole                1.3234 Ry au,          3.3638 Debye
        Dipole field          0.0025 Ry au, 
 
        Potential amp.       -0.2315 Ry
        Total length         46.3494 bohr
 

     total cpu time spent up to now is     1200.5 secs

     total energy              =   -2977.69964242 Ry
     estimated scf accuracy    <       0.00166739 Ry

     iteration # 75     ecut=    29.40 Ry     beta= 0.05
     Davidson diagonalization with overlap
     c_bands:  1 eigenvalues not converged
     ethr =  3.54E-07,  avg # of iterations = 14.5

     negative rho (up, down):  1.221E-02 0.000E+00
 
     Adding external electric field

     Computed dipole along edir(3) : 
        Dipole                1.3457 Ry au,          3.4203 Debye
        Dipole field          0.0025 Ry au, 
 
        Potential amp.       -0.2354 Ry
        Total length         46.3494 bohr
 

     total cpu time spent up to now is     1216.9 secs

     total energy              =   -2977.69982773 Ry
     estimated scf accuracy    <       0.00120103 Ry

     iteration # 76     ecut=    29.40 Ry     beta= 0.05
     Davidson diagonalization with overlap
     ethr =  2.96E-07,  avg # of iterations = 11.1

     negative rho (up, down):  1.261E-02 0.000E+00
 
     Adding external electric field

     Computed dipole along edir(3) : 
        Dipole                1.3431 Ry au,          3.4138 Debye
        Dipole field          0.0025 Ry au, 
 
        Potential amp.       -0.2350 Ry
        Total length         46.3494 bohr
 

     total cpu time spent up to now is     1230.9 secs

     total energy              =   -2977.69989503 Ry
     estimated scf accuracy    <       0.00024952 Ry

     iteration # 77     ecut=    29.40 Ry     beta= 0.05
     Davidson diagonalization with overlap
     ethr =  6.15E-08,  avg # of iterations = 11.3

     negative rho (up, down):  1.339E-02 0.000E+00
 
     Adding external electric field

     Computed dipole along edir(3) : 
        Dipole                1.3534 Ry au,          3.4399 Debye
        Dipole field          0.0026 Ry au, 
 
        Potential amp.       -0.2367 Ry
        Total length         46.3494 bohr
 

     total cpu time spent up to now is     1245.8 secs

     total energy              =   -2977.69990923 Ry
     estimated scf accuracy    <       0.00022668 Ry

     iteration # 78     ecut=    29.40 Ry     beta= 0.05
     Davidson diagonalization with overlap
     ethr =  5.58E-08,  avg # of iterations =  9.8

     negative rho (up, down):  1.410E-02 0.000E+00
 
     Adding external electric field

     Computed dipole along edir(3) : 
        Dipole                1.3533 Ry au,          3.4396 Debye
        Dipole field          0.0026 Ry au, 
 
        Potential amp.       -0.2367 Ry
        Total length         46.3494 bohr
 

     total cpu time spent up to now is     1259.8 secs

     total energy              =   -2977.69993079 Ry
     estimated scf accuracy    <       0.00006852 Ry

     iteration # 79     ecut=    29.40 Ry     beta= 0.05
     Davidson diagonalization with overlap
     ethr =  1.69E-08,  avg # of iterations = 14.0

     negative rho (up, down):  1.399E-02 0.000E+00
 
     Adding external electric field

     Computed dipole along edir(3) : 
        Dipole                1.3476 Ry au,          3.4252 Debye
        Dipole field          0.0025 Ry au, 
 
        Potential amp.       -0.2357 Ry
        Total length         46.3494 bohr
 

     total cpu time spent up to now is     1278.7 secs

     total energy              =   -2977.69993874 Ry
     estimated scf accuracy    <       0.00003944 Ry

     iteration # 80     ecut=    29.40 Ry     beta= 0.05
     Davidson diagonalization with overlap
     ethr =  9.71E-09,  avg # of iterations = 11.6

     negative rho (up, down):  1.362E-02 0.000E+00
 
     Adding external electric field

     Computed dipole along edir(3) : 
        Dipole                1.3450 Ry au,          3.4185 Debye
        Dipole field          0.0025 Ry au, 
 
        Potential amp.       -0.2353 Ry
        Total length         46.3494 bohr
 

     total cpu time spent up to now is     1294.4 secs

     total energy              =   -2977.69993833 Ry
     estimated scf accuracy    <       0.00003031 Ry

     iteration # 81     ecut=    29.40 Ry     beta= 0.05
     Davidson diagonalization with overlap
     ethr =  7.46E-09,  avg # of iterations = 14.0

     negative rho (up, down):  1.387E-02 0.000E+00
 
     Adding external electric field

     Computed dipole along edir(3) : 
        Dipole                1.3439 Ry au,          3.4158 Debye
        Dipole field          0.0025 Ry au, 
 
        Potential amp.       -0.2351 Ry
        Total length         46.3494 bohr
 

     total cpu time spent up to now is     1313.2 secs

     total energy              =   -2977.69994698 Ry
     estimated scf accuracy    <       0.00001779 Ry

     iteration # 82     ecut=    29.40 Ry     beta= 0.05
     Davidson diagonalization with overlap
     ethr =  4.38E-09,  avg # of iterations = 10.4

     negative rho (up, down):  1.403E-02 0.000E+00
 
     Adding external electric field

     Computed dipole along edir(3) : 
        Dipole                1.3426 Ry au,          3.4125 Debye
        Dipole field          0.0025 Ry au, 
 
        Potential amp.       -0.2349 Ry
        Total length         46.3494 bohr
 

     total cpu time spent up to now is     1327.3 secs

     total energy              =   -2977.69995169 Ry
     estimated scf accuracy    <       0.00001031 Ry

     iteration # 83     ecut=    29.40 Ry     beta= 0.05
     Davidson diagonalization with overlap
     ethr =  2.54E-09,  avg # of iterations = 14.1

     negative rho (up, down):  1.392E-02 0.000E+00
 
     Adding external electric field

     Computed dipole along edir(3) : 
        Dipole                1.3425 Ry au,          3.4123 Debye
        Dipole field          0.0025 Ry au, 
 
        Potential amp.       -0.2348 Ry
        Total length         46.3494 bohr
 

     total cpu time spent up to now is     1346.3 secs

     total energy              =   -2977.69995479 Ry
     estimated scf accuracy    <       0.00000824 Ry

     iteration # 84     ecut=    29.40 Ry     beta= 0.05
     Davidson diagonalization with overlap
     ethr =  2.03E-09,  avg # of iterations = 10.8

     negative rho (up, down):  1.397E-02 0.000E+00
 
     Adding external electric field

     Computed dipole along edir(3) : 
        Dipole                1.3427 Ry au,          3.4128 Debye
        Dipole field          0.0025 Ry au, 
 
        Potential amp.       -0.2349 Ry
        Total length         46.3494 bohr
 

     total cpu time spent up to now is     1361.0 secs

     total energy              =   -2977.69995838 Ry
     estimated scf accuracy    <       0.00000355 Ry

     iteration # 85     ecut=    29.40 Ry     beta= 0.05
     Davidson diagonalization with overlap
     ethr =  8.74E-10,  avg # of iterations =  9.7

     negative rho (up, down):  1.408E-02 0.000E+00
 
     Adding external electric field

     Computed dipole along edir(3) : 
        Dipole                1.3420 Ry au,          3.4111 Debye
        Dipole field          0.0025 Ry au, 
 
        Potential amp.       -0.2348 Ry
        Total length         46.3494 bohr
 

     total cpu time spent up to now is     1375.0 secs

     total energy              =   -2977.69996124 Ry
     estimated scf accuracy    <       0.00000205 Ry

     iteration # 86     ecut=    29.40 Ry     beta= 0.05
     Davidson diagonalization with overlap
     ethr =  5.06E-10,  avg # of iterations = 13.8

     negative rho (up, down):  1.405E-02 0.000E+00
 
     Adding external electric field

     Computed dipole along edir(3) : 
        Dipole                1.3421 Ry au,          3.4112 Debye
        Dipole field          0.0025 Ry au, 
 
        Potential amp.       -0.2348 Ry
        Total length         46.3494 bohr
 

     total cpu time spent up to now is     1394.9 secs

     total energy              =   -2977.69996356 Ry
     estimated scf accuracy    <       0.00000220 Ry

     iteration # 87     ecut=    29.40 Ry     beta= 0.05
     Davidson diagonalization with overlap
     ethr =  5.06E-10,  avg # of iterations = 10.3

     negative rho (up, down):  1.406E-02 0.000E+00
 
     Adding external electric field

     Computed dipole along edir(3) : 
        Dipole                1.3422 Ry au,          3.4116 Debye
        Dipole field          0.0025 Ry au, 
 
        Potential amp.       -0.2348 Ry
        Total length         46.3494 bohr
 

     total cpu time spent up to now is     1409.1 secs

     total energy              =   -2977.69996567 Ry
     estimated scf accuracy    <       0.00000088 Ry

     iteration # 88     ecut=    29.40 Ry     beta= 0.05
     Davidson diagonalization with overlap
     c_bands:  1 eigenvalues not converged
     ethr =  2.17E-10,  avg # of iterations = 11.3

     negative rho (up, down):  1.411E-02 0.000E+00
 
     Adding external electric field

     Computed dipole along edir(3) : 
        Dipole                1.3424 Ry au,          3.4120 Debye
        Dipole field          0.0025 Ry au, 
 
        Potential amp.       -0.2348 Ry
        Total length         46.3494 bohr
 

     total cpu time spent up to now is     1428.7 secs

     total energy              =   -2977.69996755 Ry
     estimated scf accuracy    <       0.00000058 Ry

     iteration # 89     ecut=    29.40 Ry     beta= 0.05
     Davidson diagonalization with overlap
     ethr =  1.43E-10,  avg # of iterations =  8.1

     negative rho (up, down):  1.414E-02 0.000E+00
 
     Adding external electric field

     Computed dipole along edir(3) : 
        Dipole                1.3425 Ry au,          3.4123 Debye
        Dipole field          0.0025 Ry au, 
 
        Potential amp.       -0.2349 Ry
        Total length         46.3494 bohr
 

     total cpu time spent up to now is     1442.7 secs

     total energy              =   -2977.69996911 Ry
     estimated scf accuracy    <       0.00000022 Ry

     iteration # 90     ecut=    29.40 Ry     beta= 0.05
     Davidson diagonalization with overlap
     ethr =  5.46E-11,  avg # of iterations = 12.4

     negative rho (up, down):  1.411E-02 0.000E+00
 
     Adding external electric field

     Computed dipole along edir(3) : 
        Dipole                1.3424 Ry au,          3.4120 Debye
        Dipole field          0.0025 Ry au, 
 
        Potential amp.       -0.2348 Ry
        Total length         46.3494 bohr
 

     total cpu time spent up to now is     1461.5 secs

     total energy              =   -2977.69997059 Ry
     estimated scf accuracy    <       0.00000024 Ry

     iteration # 91     ecut=    29.40 Ry     beta= 0.05
     Davidson diagonalization with overlap
     ethr =  5.46E-11,  avg # of iterations =  6.6

     negative rho (up, down):  1.408E-02 0.000E+00
 
     Adding external electric field

     Computed dipole along edir(3) : 
        Dipole                1.3423 Ry au,          3.4117 Debye
        Dipole field          0.0025 Ry au, 
 
        Potential amp.       -0.2348 Ry
        Total length         46.3494 bohr
 

     total cpu time spent up to now is     1474.2 secs

     total energy              =   -2977.69997189 Ry
     estimated scf accuracy    <       0.00000011 Ry

     iteration # 92     ecut=    29.40 Ry     beta= 0.05
     Davidson diagonalization with overlap
     ethr =  2.68E-11,  avg # of iterations = 14.4

     negative rho (up, down):  1.409E-02 0.000E+00
 
     Adding external electric field

     Computed dipole along edir(3) : 
        Dipole                1.3423 Ry au,          3.4117 Debye
        Dipole field          0.0025 Ry au, 
 
        Potential amp.       -0.2348 Ry
        Total length         46.3494 bohr
 

     total cpu time spent up to now is     1497.8 secs

     total energy              =   -2977.69997309 Ry
     estimated scf accuracy    <       0.00000035 Ry

     iteration # 93     ecut=    29.40 Ry     beta= 0.05
     Davidson diagonalization with overlap
     ethr =  2.68E-11,  avg # of iterations =  1.3

     negative rho (up, down):  1.410E-02 0.000E+00
 
     Adding external electric field

     Computed dipole along edir(3) : 
        Dipole                1.3423 Ry au,          3.4118 Debye
        Dipole field          0.0025 Ry au, 
 
        Potential amp.       -0.2348 Ry
        Total length         46.3494 bohr
 

     total cpu time spent up to now is     1508.2 secs

     total energy              =   -2977.69997401 Ry
     estimated scf accuracy    <       0.00000026 Ry

     iteration # 94     ecut=    29.40 Ry     beta= 0.05
     Davidson diagonalization with overlap
     ethr =  2.68E-11,  avg # of iterations = 16.1

     negative rho (up, down):  1.408E-02 0.000E+00
 
     Adding external electric field

     Computed dipole along edir(3) : 
        Dipole                1.3422 Ry au,          3.4115 Debye
        Dipole field          0.0025 Ry au, 
 
        Potential amp.       -0.2348 Ry
        Total length         46.3494 bohr
 

     total cpu time spent up to now is     1532.4 secs

     total energy              =   -2977.69997501 Ry
     estimated scf accuracy    <       0.00000009 Ry

     iteration # 95     ecut=    29.40 Ry     beta= 0.05
     Davidson diagonalization with overlap
     ethr =  2.12E-11,  avg # of iterations =  2.4

     negative rho (up, down):  1.407E-02 0.000E+00
 
     Adding external electric field

     Computed dipole along edir(3) : 
        Dipole                1.3420 Ry au,          3.4110 Debye
        Dipole field          0.0025 Ry au, 
 
        Potential amp.       -0.2348 Ry
        Total length         46.3494 bohr
 

     total cpu time spent up to now is     1543.5 secs

     End of self-consistent calculation

          k = 0.0000 0.0000 0.0000 ( 18029 PWs)   bands (ev):

[...]
   -31.6219 -31.5538 -31.5119 -31.4366 -31.4030 -31.3829 -31.3815 -31.3663
   -31.3564 -31.3493 -31.3404 -31.3128 -31.3044 -31.3007 -31.2957 -31.2828
   -31.2602 -31.2564 -31.2537 -31.2431 -31.2209 -31.2096 -31.2059 -31.2050
   -31.2025 -31.1852 -31.1673 -31.1539 -31.1462 -31.1432 -31.1365 -31.1320
   -31.1203 -31.0962 -31.0920 -31.0901 -31.0897 -31.0690 -31.0677 -31.0537
   -31.0415 -31.0309 -30.4573 -30.4169 -30.3975 -30.3155 -30.2541 -30.1876
   -18.8054 -17.8433 -15.7502 -15.5200 -15.4743 -15.3112 -15.1683 -15.1202
   -15.0878 -15.0174 -14.9875 -14.9339 -14.9125 -14.8669 -14.8224 -14.7922
   -14.7672 -14.7332 -14.7056 -14.6722 -14.6488 -14.5951 -14.5737 -14.5554
   -14.5321 -14.4852 -14.4438 -14.4112 -14.4007 -14.3483 -14.1332 -13.1699
   -12.6062 -12.5271  -9.8041  -6.5644  -6.3812  -5.4743  -4.9054  -3.5128
    -3.0131  -2.9433  -2.8736  -2.8173  -2.7369  -2.6713  -2.6144  -2.5547
    -2.5006  -2.4679  -2.4338  -2.3918  -2.3224  -2.2548  -2.1928  -2.1613
    -2.1378  -2.1181  -2.0543  -2.0151  -1.9928  -1.9552  -1.9376  -1.9151
    -1.8777  -1.8254  -1.8142  -1.7599  -1.7445  -1.7011  -1.6406  -1.6234
    -1.5816  -1.5653  -1.5154  -1.4455  -1.3336  -1.2789  -1.1889  -1.1429
    -1.1024  -0.9740  -0.9393  -0.8692  -0.8360  -0.7978  -0.7285  -0.6532
    -0.6076  -0.5659  -0.5264  -0.5127  -0.4834  -0.4503  -0.3992  -0.3737
    -0.2944  -0.2477  -0.2104  -0.1616  -0.0923  -0.0612  -0.0546  -0.0236
     0.0477   0.1124   0.1170   0.1634   0.1838   0.2245   0.2616   0.2880
     0.3092   0.3503   0.3977   0.4429   0.4790   0.5301   0.6036   0.6282
     0.7235   0.7561   0.8151   0.8610   0.8932   0.9422   1.0003   1.0333
     1.1135   1.1554   1.2993   1.3050   1.4746   1.6564   2.1148   2.1833
     2.3736   2.4368   4.1495   4.1761   4.1990   4.3223   4.3586   4.3932
     4.4124   4.4673   4.5279   4.5542   4.5828

          k = 0.0380-0.0839 0.0000 ( 17916 PWs)   bands (ev):

   -55.1024 -55.0943 -55.0556 -55.0554 -55.0303 -55.0259 -54.9831 -54.9727
   -54.9271 -54.9210 -54.8879 -54.8867 -54.8855 -54.8373 -54.0854 -54.0854
   -31.5075 -31.4880 -31.4781 -31.3794 -31.3793 -31.3745 -31.3676 -31.3468
   -31.3468 -31.3183 -31.3137 -31.3126 -31.3057 -31.2868 -31.2725 -31.2636
   -31.2627 -31.2550 -31.2540 -31.2511 -31.2501 -31.2467 -31.2254 -31.2107
   -31.1942 -31.1934 -31.1768 -31.1766 -31.1717 -31.1676 -31.1658 -31.1636
   -31.1602 -31.1555 -31.1519 -31.1002 -31.0959 -31.0933 -31.0739 -31.0668
   -31.0661 -31.0298 -30.4071 -30.4071 -30.3244 -30.3243 -30.2849 -30.2848
   -18.8050 -17.8417 -15.5599 -15.4386 -15.2920 -15.2237 -15.1545 -15.1060
   -15.0695 -15.0081 -14.9698 -14.9646 -14.9069 -14.8635 -14.7998 -14.7706
   -14.7428 -14.7377 -14.7127 -14.7004 -14.6917 -14.6070 -14.6005 -14.5580
   -14.5540 -14.5464 -14.4910 -14.4841 -14.4638 -14.4626 -14.2916 -13.1698
   -12.5893 -12.5892  -9.8019  -6.5722  -6.3645  -5.4788  -4.9089  -3.4989
    -2.9823  -2.8236  -2.6577  -2.6241  -2.4828  -2.4162  -2.3963  -2.3867
    -2.3482  -2.3060  -2.2979  -2.2487  -2.2345  -2.2213  -2.1991  -2.1954
    -2.1769  -2.1601  -2.1217  -2.1021  -2.0657  -2.0265  -2.0052  -1.9758
    -1.9575  -1.8972  -1.8880  -1.8395  -1.8077  -1.7807  -1.7442  -1.6886
    -1.6068  -1.4680  -1.3987  -1.3203  -1.2884  -1.2679  -1.2057  -1.1130
    -1.0853  -1.0508  -1.0146  -0.9803  -0.9211  -0.8780  -0.8224  -0.8028
    -0.7941  -0.7389  -0.6754  -0.5972  -0.4816  -0.4619  -0.4352  -0.3854
    -0.3568  -0.2694  -0.2023  -0.1630  -0.1443  -0.0773  -0.0290   0.0206
     0.0590   0.0673   0.0886   0.1054   0.1884   0.2363   0.2421   0.2736
     0.3133   0.3528   0.3623   0.3856   0.4073   0.5587   0.6000   0.6147
     0.6421   0.7578   0.7962   0.8882   0.9420   0.9455   0.9536   1.0341
     1.0979   1.1243   1.2025   1.2134   1.4320   1.4424   2.2590   2.2602
     2.3776   2.3783   4.1547   4.2314   4.2801   4.3104   4.3955   4.4304
     4.4367   4.4654   4.5610   4.5920   4.6314

          k = 0.0380-0.0419 0.0000 ( 17876 PWs)   bands (ev):

   -55.1115 -55.0851 -55.0675 -55.0434 -55.0311 -55.0268 -54.9911 -54.9647
   -54.9364 -54.9116 -54.8980 -54.8869 -54.8741 -54.8364 -54.0973 -54.0733
   -31.6219 -31.5538 -31.5119 -31.4366 -31.4030 -31.3830 -31.3815 -31.3663
   -31.3564 -31.3493 -31.3404 -31.3128 -31.3043 -31.3008 -31.2957 -31.2829
   -31.2589 -31.2563 -31.2536 -31.2431 -31.2211 -31.2096 -31.2075 -31.2049
   -31.2020 -31.1852 -31.1673 -31.1539 -31.1462 -31.1432 -31.1365 -31.1320
   -31.1205 -31.0960 -31.0921 -31.0914 -31.0897 -31.0681 -31.0676 -31.0523
   -31.0415 -31.0318 -30.4573 -30.4169 -30.3975 -30.3155 -30.2541 -30.1876
   -18.8054 -17.8431 -15.7503 -15.5204 -15.4736 -15.3080 -15.1669 -15.1205
   -15.0879 -15.0196 -14.9913 -14.9329 -14.9166 -14.8663 -14.8218 -14.7910
   -14.7676 -14.7331 -14.7016 -14.6717 -14.6488 -14.5952 -14.5765 -14.5563
   -14.5325 -14.4851 -14.4431 -14.4110 -14.4011 -14.3487 -14.1318 -13.1696
   -12.6062 -12.5271  -9.8039  -6.5535  -6.3899  -5.4762  -4.9060  -3.5125
    -3.0085  -2.9359  -2.8769  -2.8466  -2.7373  -2.6694  -2.6135  -2.5542
    -2.4980  -2.4641  -2.4329  -2.3943  -2.3163  -2.2503  -2.1927  -2.1605
    -2.1346  -2.1198  -2.0554  -2.0154  -1.9953  -1.9574  -1.9358  -1.9134
    -1.8786  -1.8243  -1.8141  -1.7584  -1.7436  -1.7018  -1.6356  -1.6182
    -1.5918  -1.5578  -1.5221  -1.4512  -1.3361  -1.2787  -1.1866  -1.1377
    -1.1029  -0.9817  -0.9462  -0.8692  -0.8345  -0.7847  -0.7361  -0.6529
    -0.6052  -0.5644  -0.5297  -0.5111  -0.4747  -0.4522  -0.3983  -0.3792
    -0.2930  -0.2384  -0.2078  -0.1550  -0.0958  -0.0703  -0.0600  -0.0219
     0.0452   0.1003   0.1263   0.1698   0.1835   0.2190   0.2620   0.2782
     0.3117   0.3543   0.4101   0.4479   0.4854   0.5307   0.6019   0.6168
     0.7061   0.7638   0.8265   0.8655   0.8957   0.9414   0.9927   1.0339
     1.1044   1.1561   1.2989   1.3057   1.4749   1.6567   2.1149   2.1834
     2.3734   2.4375   4.1478   4.1765   4.1980   4.3219   4.3626   4.3955
     4.4138   4.4692   4.5297   4.5562   4.5803

          k =-0.0760-0.0000 0.0000 ( 17886 PWs)   bands (ev):

   -55.1165 -55.0800 -55.0725 -55.0384 -55.0315 -55.0283 -54.9958 -54.9599
   -54.9412 -54.9067 -54.9031 -54.8859 -54.8692 -54.8355 -54.1023 -54.0683
   -31.6789 -31.5928 -31.5669 -31.4955 -31.4387 -31.4352 -31.4140 -31.4091
   -31.3612 -31.3384 -31.3173 -31.3103 -31.3086 -31.2894 -31.2863 -31.2607
   -31.2579 -31.2441 -31.2368 -31.2256 -31.2195 -31.2175 -31.2155 -31.1940
   -31.1861 -31.1836 -31.1717 -31.1447 -31.1424 -31.1299 -31.1259 -31.1062
   -31.1015 -31.0988 -31.0939 -31.0575 -31.0528 -31.0435 -31.0359 -31.0307
   -31.0151 -31.0139 -30.5110 -30.4245 -30.3921 -30.3280 -30.2413 -30.1304
   -18.8054 -17.8447 -15.7215 -15.6580 -15.4674 -15.3329 -15.2043 -15.1631
   -15.0895 -15.0472 -15.0177 -14.9907 -14.9706 -14.9424 -14.8964 -14.8734
   -14.8396 -14.8041 -14.6719 -14.6182 -14.6033 -14.5624 -14.5470 -14.5252
   -14.5155 -14.4496 -14.3956 -14.3656 -14.2848 -14.2538 -14.0231 -13.1712
   -12.5986 -12.4869  -9.8068  -6.5467  -6.4047  -5.4673  -4.9050  -3.5294
    -3.1210  -3.0083  -2.9551  -2.8262  -2.7560  -2.6694  -2.6392  -2.6219
    -2.6071  -2.5851  -2.5536  -2.5384  -2.4319  -2.3671  -2.3512  -2.1741
    -2.0724  -2.0139  -1.9694  -1.8623  -1.7997  -1.7724  -1.7632  -1.7219
    -1.7049  -1.6630  -1.6323  -1.6064  -1.5983  -1.5869  -1.5688  -1.4771
    -1.4521  -1.4320  -1.4085  -1.3985  -1.3247  -1.2795  -1.2328  -1.1327
    -1.1169  -1.0505  -0.9375  -0.8636  -0.7937  -0.7830  -0.7625  -0.7547
    -0.7292  -0.7077  -0.6846  -0.6295  -0.5962  -0.5635  -0.5283  -0.4584
    -0.4206  -0.3939  -0.3883  -0.3194  -0.1227  -0.0942  -0.0303  -0.0031
     0.0762   0.1047   0.1512   0.1847   0.2359   0.2740   0.3240   0.3543
     0.3851   0.3942   0.4586   0.4711   0.5423   0.5642   0.6321   0.6645
     0.6829   0.7029   0.7294   0.7741   0.8099   0.8634   0.8945   1.0089
     1.1232   1.1528   1.3701   1.4089   1.5685   1.8363   1.9536   2.0478
     2.2537   2.4070   3.9920   4.0374   4.1277   4.2488   4.2637   4.3622
     4.4204   4.4364   4.4683   4.4841   4.5617

          k =-0.0760 0.0419 0.0000 ( 17914 PWs)   bands (ev):

   -55.1115 -55.0851 -55.0675 -55.0434 -55.0307 -55.0273 -54.9911 -54.9647
   -54.9363 -54.9116 -54.8982 -54.8869 -54.8742 -54.8364 -54.0974 -54.0733
   -31.6222 -31.5540 -31.5129 -31.4427 -31.4034 -31.3867 -31.3859 -31.3668
   -31.3564 -31.3494 -31.3404 -31.3130 -31.3017 -31.2964 -31.2856 -31.2829
   -31.2539 -31.2469 -31.2434 -31.2329 -31.2257 -31.2208 -31.2068 -31.2046
   -31.2027 -31.1717 -31.1681 -31.1532 -31.1515 -31.1463 -31.1429 -31.1392
   -31.1100 -31.1069 -31.0978 -31.0927 -31.0903 -31.0684 -31.0652 -31.0510
   -31.0415 -31.0406 -30.4570 -30.4199 -30.3968 -30.3155 -30.2542 -30.1877
   -18.8051 -17.8431 -15.6078 -15.5916 -15.3779 -15.2417 -15.1340 -15.0870
   -15.0393 -15.0177 -15.0020 -14.9520 -14.9212 -14.9107 -14.8971 -14.8482
   -14.8227 -14.7763 -14.7133 -14.6807 -14.6686 -14.5926 -14.5786 -14.5671
   -14.5449 -14.4976 -14.4950 -14.4096 -14.3728 -14.3608 -14.1318 -13.1708
   -12.6041 -12.5274  -9.8047  -6.5730  -6.3672  -5.4702  -4.9079  -3.5150
    -2.9927  -2.9124  -2.8591  -2.8335  -2.5412  -2.4869  -2.4809  -2.3965
    -2.3926  -2.3659  -2.3578  -2.3203  -2.2593  -2.2011  -2.1508  -2.1314
    -2.0773  -2.0729  -2.0446  -2.0124  -1.9412  -1.9325  -1.8655  -1.8382
    -1.7984  -1.7825  -1.7559  -1.7303  -1.7004  -1.6805  -1.6712  -1.6609
    -1.5838  -1.5683  -1.3751  -1.3505  -1.2837  -1.2606  -1.2119  -1.1150
    -1.0664  -1.0309  -0.9188  -0.8879  -0.8113  -0.7784  -0.7521  -0.7235
    -0.7008  -0.6325  -0.6130  -0.5983  -0.5152  -0.5113  -0.4774  -0.4568
    -0.3972  -0.3730  -0.3560  -0.3278  -0.2992  -0.2526  -0.1896  -0.1737
    -0.1081  -0.0884   0.0144   0.0810   0.0992   0.1100   0.1439   0.1813
     0.1967   0.3296   0.3509   0.3942   0.4525   0.5097   0.6062   0.6203
     0.6989   0.7652   0.8115   0.8226   0.9060   0.9966   1.0770   1.1257
     1.1533   1.2202   1.2946   1.3763   1.3959   1.5339   2.1301   2.1855
     2.2957   2.4260   4.1546   4.1751   4.1776   4.2051   4.2899   4.3610
     4.3805   4.4497   4.4810   4.5869   4.6180

          k =-0.0760-0.0839 0.0000 ( 17948 PWs)   bands (ev):

   -55.1023 -55.0943 -55.0556 -55.0554 -55.0299 -55.0263 -54.9831 -54.9728
   -54.9271 -54.9209 -54.8880 -54.8868 -54.8856 -54.8373 -54.0854 -54.0854
   -31.5077 -31.4883 -31.4785 -31.3802 -31.3801 -31.3746 -31.3680 -31.3469
   -31.3468 -31.3263 -31.3212 -31.3155 -31.3059 -31.2869 -31.2734 -31.2590
   -31.2546 -31.2535 -31.2498 -31.2435 -31.2415 -31.2377 -31.2257 -31.2246
   -31.1954 -31.1946 -31.1774 -31.1754 -31.1752 -31.1664 -31.1662 -31.1602
   -31.1520 -31.1395 -31.1341 -31.1184 -31.1169 -31.1010 -31.0669 -31.0663
   -31.0650 -31.0417 -30.4082 -30.4081 -30.3244 -30.3243 -30.2849 -30.2848
   -18.8048 -17.8415 -15.5278 -15.3892 -15.2502 -15.1466 -15.1317 -15.0781
   -15.0289 -14.9870 -14.9456 -14.9012 -14.8912 -14.8731 -14.8448 -14.8178
   -14.7934 -14.7342 -14.7179 -14.7023 -14.6800 -14.6332 -14.6254 -14.6226
   -14.6155 -14.5693 -14.5667 -14.5417 -14.4731 -14.4710 -14.2852 -13.1706
   -12.5891 -12.5890  -9.8025  -6.5925  -6.3375  -5.4736  -4.9108  -3.5013
    -2.9561  -2.8468  -2.6514  -2.6154  -2.4699  -2.3695  -2.3244  -2.2959
    -2.2424  -2.1967  -2.1366  -2.1216  -2.1032  -2.0446  -2.0193  -2.0003
    -1.9690  -1.9500  -1.9362  -1.9173  -1.9004  -1.8724  -1.8460  -1.8374
    -1.8328  -1.8029  -1.7883  -1.7485  -1.7419  -1.7342  -1.6907  -1.6787
    -1.6526  -1.5961  -1.4885  -1.4782  -1.3258  -1.3235  -1.2873  -1.2440
    -1.2244  -1.2137  -1.1532  -1.1451  -1.1330  -0.8958  -0.8701  -0.8600
    -0.8328  -0.7750  -0.7574  -0.6943  -0.6849  -0.6012  -0.5864  -0.4846
    -0.4679  -0.4091  -0.3288  -0.3208  -0.3085  -0.1971  -0.1475  -0.1098
    -0.0837  -0.0736  -0.0559  -0.0182  -0.0181   0.0716   0.1151   0.1455
     0.1607   0.1905   0.3559   0.4038   0.4125   0.5515   0.5656   0.7128
     0.7770   0.7914   0.8767   0.8994   0.9867   0.9970   1.0366   1.1761
     1.1877   1.2106   1.2580   1.2864   1.3383   1.3434   2.2767   2.2780
     2.3647   2.3649   4.1101   4.2353   4.2417   4.3024   4.4116   4.4446
     4.4910   4.5247   4.5620   4.5649   4.6349

     the Fermi energy is     4.0397 ev

!    total energy              =   -2977.69998338 Ry
     estimated scf accuracy    <       0.00000004 Ry
     smearing contrib. (-TS)   =      -0.03675123 Ry
     internal energy E=F+TS    =   -2977.66323215 Ry

     The total energy is F=E-TS. E is the sum of the following terms:
     one-electron contribution =  -23085.20846399 Ry
     hartree contribution      =   11641.77160915 Ry
     xc contribution           =    -496.62396070 Ry
     ewald contribution        =    8962.39418487 Ry
     electric field correction =       0.00339852 Ry

     convergence has been achieved in  95 iterations

     Forces acting on atoms (cartesian axes, Ry/au):

     atom    1 type  1   force =     0.00017510   -0.00019610    0.09313542
     atom    2 type  1   force =    -0.00010903   -0.00033579   -0.17820510
     atom    3 type  2   force =     0.00002159   -0.00017782   -0.02037586
     atom    4 type  2   force =    -0.00002635   -0.00200393    0.05899145
     atom    5 type  2   force =    -0.01059301   -0.00142009    0.00861023
     atom    6 type  2   force =     0.01185654   -0.00070380    0.00714276
     atom    7 type  1   force =    -0.00089007    0.00312782   -0.01228478
     atom    8 type  1   force =     0.00055728    0.00113918   -0.00449836
     atom    9 type  2   force =    -0.00007596   -0.00037266    0.00014140
     atom   10 type  2   force =    -0.00129285   -0.00051068   -0.00193622
     atom   11 type  2   force =    -0.00021886   -0.00021332   -0.00005639
     atom   12 type  2   force =     0.00060972   -0.00007072   -0.00023871
     atom   13 type  1   force =    -0.00102000   -0.00062356    0.00021346
     atom   14 type  1   force =     0.00011294   -0.00004980    0.00019020
     atom   15 type  2   force =    -0.00027992   -0.00055551   -0.00005766
     atom   16 type  2   force =    -0.00000253   -0.00007532    0.00067619
     atom   17 type  2   force =    -0.00031483    0.00021812    0.00056311
     atom   18 type  2   force =     0.00013999    0.00002582    0.00026851
     atom   19 type  1   force =     0.00021345    0.00005364    0.00055575
     atom   20 type  1   force =    -0.00031854   -0.00017993    0.00019647
     atom   21 type  2   force =     0.00007073   -0.00001663    0.10395756
     atom   22 type  2   force =     0.00004964   -0.00020304   -0.00097549
     atom   23 type  2   force =    -0.07038213   -0.00010595   -0.02687689
     atom   24 type  2   force =     0.07026037    0.00033852   -0.02691338
     atom   25 type  1   force =    -0.00000318   -0.00022285    0.09274740
     atom   26 type  1   force =    -0.00019626   -0.00038271   -0.17831510
     atom   27 type  2   force =     0.00010330   -0.00028554   -0.01934978
     atom   28 type  2   force =     0.00003820   -0.00162462    0.05806553
     atom   29 type  2   force =    -0.01067450   -0.00080736    0.00800782
     atom   30 type  2   force =     0.01179347   -0.00047769    0.00653132
     atom   31 type  1   force =    -0.00072731    0.00504408   -0.01493602
     atom   32 type  1   force =     0.00039561   -0.00139485   -0.00478213
     atom   33 type  2   force =    -0.00011230    0.00021626    0.00029226
     atom   34 type  2   force =    -0.00128888    0.00140804   -0.00089221
     atom   35 type  2   force =     0.00019693    0.00013570    0.00002410
     atom   36 type  2   force =     0.00011720   -0.00001584   -0.00011331
     atom   37 type  1   force =    -0.00102428    0.00056068    0.00005735
     atom   38 type  1   force =     0.00014239   -0.00015508   -0.00002541
     atom   39 type  2   force =    -0.00002186   -0.00013774    0.00011916
     atom   40 type  2   force =    -0.00020467    0.00020716    0.00025134
     atom   41 type  2   force =     0.00000565   -0.00015066    0.00040873
     atom   42 type  2   force =    -0.00012446    0.00001073   -0.00004407
     atom   43 type  1   force =     0.00009452    0.00028522    0.00033309
     atom   44 type  1   force =    -0.00009579    0.00023061   -0.00050238
     atom   45 type  2   force =     0.00004294   -0.00004937    0.10393962
     atom   46 type  2   force =    -0.07037441   -0.00005632   -0.02690131
     atom   47 type  2   force =     0.07028325    0.00037254   -0.02693091
     atom   48 type  3   force =    -0.00381107   -0.00209447    0.01808667
     atom   49 type  3   force =    -0.00290500   -0.00047950   -0.00336582
     atom   50 type  4   force =     0.00296404   -0.00192463   -0.00632903
     atom   51 type  5   force =     0.00033227   -0.00068836   -0.00017274
     atom   52 type  5   force =     0.00059839   -0.00112100   -0.00047667
     atom   53 type  5   force =     0.00069793   -0.00011239   -0.00067053
     atom   54 type  5   force =     0.00070626   -0.00023345   -0.00050851
     atom   55 type  5   force =     0.00091594    0.00091628    0.00011248
     atom   56 type  5   force =     0.00296237    0.00605519   -0.00670609
     atom   57 type  2   force =    -0.00035525    0.00060829   -0.00054468
     atom   58 type  5   force =     0.00075722   -0.00043809    0.00008831
     atom   59 type  5   force =     0.00022806   -0.00028676    0.00027785

     Total force =     0.366742     Total SCF correction =     0.000510
  @ DRIVER MODE: Message from server: STATUS
  @ DRIVER MODE: Message from server: GETFORCE
  @ DRIVER MODE: Returning v,forces,stress,ensemble 

     Writing output data file ./calc.save/
  @ DRIVER MODE: Message from server: EXIT
  @ DRIVE MODE: Exiting  
 
     init_run     :     11.11s CPU     11.34s WALL (       1 calls)
     electrons    :   1509.83s CPU   1531.91s WALL (       1 calls)
     forces       :      2.53s CPU      2.61s WALL (       1 calls)

     Called by init_run:
     wfcinit      :      4.97s CPU      5.05s WALL (       1 calls)
     potinit      :      5.34s CPU      5.40s WALL (       1 calls)
     hinit0       :      0.41s CPU      0.42s WALL (       1 calls)

     Called by electrons:
     c_bands      :   1278.38s CPU   1287.45s WALL (      95 calls)
     sum_band     :    156.83s CPU    162.07s WALL (      95 calls)
     v_of_rho     :     54.07s CPU     56.76s WALL (      96 calls)
     newd         :     22.91s CPU     27.96s WALL (      96 calls)
     mix_rho      :      2.06s CPU      2.09s WALL (      95 calls)
     vdW_kernel   :      4.54s CPU      4.56s WALL (       1 calls)

     Called by c_bands:
     init_us_2    :     10.96s CPU     10.99s WALL (    1920 calls)
     cegterg      :   1250.53s CPU   1259.21s WALL (     964 calls)

     Called by *egterg:
     cdiaghg      :    195.51s CPU    196.32s WALL (    9115 calls)
     h_psi        :    666.25s CPU    672.41s WALL (    9127 calls)
     s_psi        :     91.04s CPU     91.33s WALL (    9127 calls)
     g_psi        :      2.61s CPU      2.63s WALL (    8153 calls)

     Called by h_psi:
     h_psi:calbec :     85.90s CPU     86.29s WALL (    9127 calls)
     vloc_psi     :    483.62s CPU    488.55s WALL (    9127 calls)
     add_vuspsi   :     91.65s CPU     92.18s WALL (    9127 calls)

     General routines
     calbec       :    113.41s CPU    113.89s WALL (   10117 calls)
     fft          :     28.57s CPU     28.76s WALL (    6048 calls)
     ffts         :      0.17s CPU      0.18s WALL (     191 calls)
     fftw         :    544.26s CPU    549.80s WALL ( 1300398 calls)
     interpolate  :      0.60s CPU      0.60s WALL (      96 calls)
     davcio       :      0.00s CPU      0.35s WALL (      10 calls)
 
     Parallel routines
 
     PWSCF        :  25m23.69s CPU  25m46.76s WALL

 
   This run was terminated on:  17:48: 0  15Sep2021            

=------------------------------------------------------------------------------=
   JOB DONE.
=------------------------------------------------------------------------------=
