
     Program PWSCF v.6.7GPU starts on  2Aug2021 at 12:27:48 

     This program is part of the open-source Quantum ESPRESSO suite
     for quantum simulation of materials; please cite
         "P. Giannozzi et al., J. Phys.:Condens. Matter 21 395502 (2009);
         "P. Giannozzi et al., J. Phys.:Condens. Matter 29 465901 (2017);
         "P. Giannozzi et al., J. Chem. Phys. 152 154105 (2020);
          URL http://www.quantum-espresso.org", 
     in publications or presentations arising from this work. More details at
     http://www.quantum-espresso.org/quote

     Parallel version (MPI), running on    16 processors

     MPI processes distributed on     1 nodes
     R & G space division:  proc/nbgrp/npool/nimage =      16
     Reading input from /storage/home/hcoda1/3/ntian30/research/carbon/02Aug_vib_paired/ads_slab/CH3N_a/out_0002/pw.inp
Warning: card &CELL ignored
Warning: card   CELL_DYNAMICS='IPI', ignored
Warning: card / ignored

     Current dimensions of program PWSCF are:
     Max number of different atomic species (ntypx) = 10
     Max number of k-points (npk) =  40000
     Max angular momentum in pseudopotentials (lmaxx) =  3
     Presently no symmetry can be used with electric field

     Message from routine cell_base_init:
     DEPRECATED: use true lattice parameter, not A to a.u. conversion factor

     **************************************************************************
     Initializing libbeef V0.1.2 with the BEEF-vdW functional.
     Citation: Wellendorff et al., PRB 85, 235149 (2012).
     **************************************************************************


     IMPORTANT: XC functional enforced from input :
     Exchange-correlation= BEEF-VDW
                           (   1   4  43  14   2   0   0)
     Any further DFT definition will be discarded
     Please, verify this is what you really want


     Subspace diagonalization in iterative solution of the eigenvalue problem:
     one sub-group per band group will be used
     scalapack distributed-memory algorithm (size of sub-group:  4*  4 procs)

  @ DRIVER MODE: Connecting to 
 qe_1139763_2482542.sched-torque.pace.gatech.eduex1totcr_scratch
  using UNIX socket
  @ DRIVER MODE: Message from server: STATUS
  @ DRIVER MODE: Message from server: INIT
  @ DRIVER MODE: Receiving replica           0          -1
  @ DRIVER MODE: Receiving encoded integer          25
  @ DRIVER MODE:  SCF:  T  FORCE:  T  STRESS:  F  VC:  F  ENSEMBLE:  F
  @ DRIVER MODE:  SCF:  T  FORCE:  T  STRESS:  F  VC:  F  ENSEMBLE:  F
 
     Parallelization info
     --------------------
     sticks:   dense  smooth     PW     G-vecs:    dense   smooth      PW
     Min         204      82     23                35422     8962    1367
     Max         205      84     24                35435     8968    1382
     Sum        3275    1317    379               566857   143421   21985
 
     Using Slab Decomposition
 


     bravais-lattice index     =            0
     lattice parameter (alat)  =       1.8897  a.u.
     unit-cell volume          =    6658.9804 (a.u.)^3
     number of atoms/cell      =           52
     number of atomic types    =            5
     number of electrons       =       390.00
     number of Kohn-Sham states=          205
     kinetic-energy cutoff     =      29.3995  Ry
     charge density cutoff     =     293.9946  Ry
     scf convergence threshold =      7.3E-08
     mixing beta               =       0.0500
     number of iterations used =            8  plain     mixing
     Exchange-correlation= BEEF-VDW
                           (   1   4  43  14   2   0   0)

     celldm(1)=   1.889726  celldm(2)=   0.000000  celldm(3)=   0.000000
     celldm(4)=   0.000000  celldm(5)=   0.000000  celldm(6)=   0.000000

     crystal axes: (cart. coord. in units of alat)
               a(1) = (   6.579727   0.000000   0.000000 )  
               a(2) = (  -0.000775   5.961596   0.000000 )  
               a(3) = (   0.000000   0.000000  25.155947 )  

     reciprocal axes: (cart. coord. in units 2 pi/alat)
               b(1) = (  0.151982  0.000020  0.000000 )  
               b(2) = (  0.000000  0.167740  0.000000 )  
               b(3) = (  0.000000  0.000000  0.039752 )  


     PseudoPot. # 1 for Ti read from file:
     /storage/coda1/p-amedford6/0/shared/rich_project_chbe-medford/medford-share/data/pseudos_module/espresso/nninc/pbe/van/Ti.UPF
     MD5 check sum: 8e4df49b7f0d34bbd5052bf3f5ea0213
     Pseudo is Ultrasoft, Zval = 12.0
     Generated by new atomic code, or converted to UPF format
     Using radial grid of  851 points,  6 beta functions with: 
                l(1) =   0
                l(2) =   0
                l(3) =   1
                l(4) =   1
                l(5) =   2
                l(6) =   2
     Q(r) pseudized with  8 coefficients,  rinner =    1.000   1.000   1.000
                                                       1.000   1.000

     PseudoPot. # 2 for O  read from file:
     /storage/coda1/p-amedford6/0/shared/rich_project_chbe-medford/medford-share/data/pseudos_module/espresso/nninc/pbe/van/O.UPF
     MD5 check sum: 78c19812648e8988a0fe644b0f25305e
     Pseudo is Ultrasoft, Zval =  6.0
     Generated by new atomic code, or converted to UPF format
     Using radial grid of  737 points,  4 beta functions with: 
                l(1) =   0
                l(2) =   0
                l(3) =   1
                l(4) =   1
     Q(r) pseudized with  8 coefficients,  rinner =    0.800   0.800   0.800


     PseudoPot. # 3 for N  read from file:
     /storage/coda1/p-amedford6/0/shared/rich_project_chbe-medford/medford-share/data/pseudos_module/espresso/nninc/pbe/van/N.UPF
     MD5 check sum: 90d10febe142ad51ac9d5be1deb811c4
     Pseudo is Ultrasoft, Zval =  5.0
     Generated by new atomic code, or converted to UPF format
     Using radial grid of  729 points,  4 beta functions with: 
                l(1) =   0
                l(2) =   0
                l(3) =   1
                l(4) =   1
     Q(r) pseudized with  8 coefficients,  rinner =    0.800   0.800   0.800


     PseudoPot. # 4 for C  read from file:
     /storage/coda1/p-amedford6/0/shared/rich_project_chbe-medford/medford-share/data/pseudos_module/espresso/nninc/pbe/van/C.UPF
     MD5 check sum: 1a69bf6b8db32088f5b2163dbdb77a27
     Pseudo is Ultrasoft, Zval =  4.0
     Generated by new atomic code, or converted to UPF format
     Using radial grid of  721 points,  4 beta functions with: 
                l(1) =   0
                l(2) =   0
                l(3) =   1
                l(4) =   1
     Q(r) pseudized with  8 coefficients,  rinner =    0.800   0.800   0.800


     PseudoPot. # 5 for H  read from file:
     /storage/coda1/p-amedford6/0/shared/rich_project_chbe-medford/medford-share/data/pseudos_module/espresso/nninc/pbe/van/H.UPF
     MD5 check sum: b5ee9d7bfd3a09ee7748110bda690ff7
     Pseudo is Ultrasoft, Zval =  1.0
     Generated by new atomic code, or converted to UPF format
     Using radial grid of  615 points,  1 beta functions with: 
                l(1) =   0
     Q(r) pseudized with  8 coefficients,  rinner =    0.800

     atomic species   valence    mass     pseudopotential
        Ti1           12.00    47.86700     Ti( 1.00)
        O1             6.00    15.99900     O ( 1.00)
        N1             5.00    14.00700     N ( 1.00)
        C1             4.00    12.01100     C ( 1.00)
        H1             1.00     1.00800     H ( 1.00)

     No symmetry found



   Cartesian axes

     site n.     atom                  positions (alat units)
         1           Ti1 tau(   1) = (   0.0004258   2.9801865   6.0000000  )
         2           Ti1 tau(   2) = (   3.2906075   1.4906267   6.0002472  )
         3           O1  tau(   3) = (   0.0006271   0.0005054   7.9858123  )
         4           O1  tau(   4) = (   3.2906025   0.0005020   7.3038282  )
         5           O1  tau(   5) = (   4.5942328   1.4918067   9.2879030  )
         6           O1  tau(   6) = (   1.9868534   1.4903216   9.2879459  )
         7           Ti1 tau(   7) = (   3.2907910   2.8959150   9.1758416  )
         8           Ti1 tau(   8) = (   0.0015273   1.4827037   9.2680791  )
         9           O1  tau(   9) = (   3.2848820   0.0184509  11.2968037  )
        10           O1  tau(  10) = (   0.0116148   5.9584955  10.6183126  )
        11           O1  tau(  11) = (   1.3164307   1.5202202  12.6152053  )
        12           O1  tau(  12) = (   5.2938533   1.5248534  12.6363518  )
        13           Ti1 tau(  13) = (   6.4693392   3.0155455  12.7604093  )
        14           Ti1 tau(  14) = (   3.1621140   1.5165027  12.4659144  )
        15           O1  tau(  15) = (   0.0250032   0.0426882  14.5925537  )
        16           O1  tau(  16) = (   3.2896737   0.0171256  13.8799622  )
        17           O1  tau(  17) = (   4.5365032   1.4993634  16.0438468  )
        18           O1  tau(  18) = (   2.0814567   1.5015292  16.0591106  )
        19           Ti1 tau(  19) = (   3.3082904   2.9956922  15.6854367  )
        20           Ti1 tau(  20) = (   0.0032501   1.4479889  16.1249605  )
        21           O1  tau(  21) = (   3.2904802   0.0005063   4.7018136  )
        22           O1  tau(  22) = (   0.0161699   0.0004382  17.1970091  )
        23           O1  tau(  23) = (   1.3043587   1.4918075   6.0039043  )
        24           O1  tau(  24) = (   5.2767064   1.4903225   6.0039473  )
        25           Ti1 tau(  25) = (   0.0000382   5.9609847   6.0000000  )
        26           Ti1 tau(  26) = (   3.2902200   4.4714249   6.0002472  )
        27           O1  tau(  27) = (   0.0002396   2.9813036   7.9858123  )
        28           O1  tau(  28) = (   3.2902150   2.9813002   7.3038282  )
        29           O1  tau(  29) = (   4.5938453   4.4726049   9.2879030  )
        30           O1  tau(  30) = (   1.9864658   4.4711199   9.2879459  )
        31           Ti1 tau(  31) = (   3.2891106   5.8743827   9.1763621  )
        32           Ti1 tau(  32) = (   0.0006254   4.4649316   9.2693709  )
        33           O1  tau(  33) = (   3.2855107   2.9994495  11.2959752  )
        34           O1  tau(  34) = (   0.0092240   2.9805883  10.6323155  )
        35           O1  tau(  35) = (   1.3179678   4.4860142  12.6155112  )
        36           O1  tau(  36) = (   5.2920789   4.4901865  12.6316709  )
        37           Ti1 tau(  37) = (   6.5050993   0.0355131  12.7707974  )
        38           Ti1 tau(  38) = (   3.1594757   4.4963870  12.4672366  )
        39           O1  tau(  39) = (   6.5726527   3.0227966  14.6583025  )
        40           O1  tau(  40) = (   3.2932321   2.9979836  13.8792693  )
        41           O1  tau(  41) = (   4.5322310   4.4839795  16.0418810  )
        42           O1  tau(  42) = (   2.0800586   4.4799519  16.0553745  )
        43           Ti1 tau(  43) = (   3.2910362   0.0127607  15.6894215  )
        44           Ti1 tau(  44) = (   0.0049462   4.4269923  16.0943486  )
        45           O1  tau(  45) = (   3.2900926   2.9813045   4.7018136  )
        46           O1  tau(  46) = (   1.3039711   4.4726057   6.0039043  )
        47           O1  tau(  47) = (   5.2763189   4.4711207   6.0039473  )
        48           N1  tau(  48) = (   0.0696666   2.9942962  17.3216073  )
        49           C1  tau(  49) = (   0.3918855   2.9774893  18.7266025  )
        50           H1  tau(  50) = (   0.0017595   3.8652167  19.2343835  )
        51           H1  tau(  51) = (   0.0043965   2.0815098  19.2200810  )
        52           H1  tau(  52) = (   1.4843755   2.9788857  18.8581259  )

     number of k points=    10  Fermi-Dirac smearing, width (Ry)=  0.0073
                       cart. coord. in units 2pi/alat
        k(    1) = (   0.0000000   0.0000000   0.0000000), wk =   0.1250000
        k(    2) = (   0.0000000   0.0419351   0.0000000), wk =   0.2500000
        k(    3) = (   0.0000000  -0.0838702   0.0000000), wk =   0.1250000
        k(    4) = (   0.0379955   0.0000049   0.0000000), wk =   0.2500000
        k(    5) = (   0.0379955   0.0419400   0.0000000), wk =   0.2500000
        k(    6) = (   0.0379955  -0.0838652   0.0000000), wk =   0.2500000
        k(    7) = (   0.0379955  -0.0419301   0.0000000), wk =   0.2500000
        k(    8) = (  -0.0759910  -0.0000099   0.0000000), wk =   0.1250000
        k(    9) = (  -0.0759910   0.0419252   0.0000000), wk =   0.2500000
        k(   10) = (  -0.0759910  -0.0838800   0.0000000), wk =   0.1250000

     Dense  grid:   566857 G-vectors     FFT dimensions: (  72,  64, 270)

     Smooth grid:   143421 G-vectors     FFT dimensions: (  45,  40, 180)

     Estimated max dynamical RAM per process >     229.30 MB

     Estimated total dynamical RAM >       3.58 GB
     Cannot read rho : file not found

     Initial potential from superposition of free atoms

     starting charge  373.99917, renormalised to  390.00000

     negative rho (up, down):  1.730E-02 0.000E+00


     %%%%%%%%%%%%%%%%%%%%%%%%%%%%%%%%%%%%%%%%%%%%%%%%%%%%%%%%%%%%%%%%%%%%%%%%
     %                                                                      %
     % You are using vdW-DF, which was implemented by the Thonhauser group. %
     % Please cite the following two papers that made this development      %
     % possible and the two reviews that describe the various versions:     %
     %                                                                      %
     %   T. Thonhauser et al., PRL 115, 136402 (2015).                      %
     %   T. Thonhauser et al., PRB 76, 125112 (2007).                       %
     %   K. Berland et al., Rep. Prog. Phys. 78, 066501 (2015).             %
     %   D.C. Langreth et al., J. Phys.: Condens. Matter 21, 084203 (2009). %
     %                                                                      %
     %                                                                      %
     % If you are calculating the stress with vdW-DF, please also cite:     %
     %                                                                      %
     %   R. Sabatini et al., J. Phys.: Condens. Matter 24, 424209 (2012).   %
     %                                                                      %
     %%%%%%%%%%%%%%%%%%%%%%%%%%%%%%%%%%%%%%%%%%%%%%%%%%%%%%%%%%%%%%%%%%%%%%%%


 
     Adding external electric field

     Computed dipole along edir(3) : 
        Dipole               -4.6263 Ry au,        -11.7589 Debye
        Dipole field         -0.0087 Ry au, 
 
        Potential amp.        0.8093 Ry
        Total length         46.3494 bohr
 
     Starting wfcs are  295 atomic wfcs
  @ DRIVER MODE: Message from server: STATUS
  @ DRIVER MODE: Message from server: POSDATA
  @ DRIVER MODE: Reading and sharing cell 
  @ DRIVER MODE: Reading and sharing positions 
  @ DRIVER MODE: Received positions 

     total cpu time spent up to now is       26.8 secs

     Self-consistent Calculation

     iteration #  1     ecut=    29.40 Ry     beta= 0.05
     Davidson diagonalization with overlap
     c_bands:  3 eigenvalues not converged
     c_bands:  4 eigenvalues not converged
     c_bands:  2 eigenvalues not converged
     c_bands:  4 eigenvalues not converged
     c_bands:  4 eigenvalues not converged
     c_bands:  2 eigenvalues not converged
     c_bands:  3 eigenvalues not converged
     c_bands:  2 eigenvalues not converged
     ethr =  1.00E-05,  avg # of iterations = 19.7

     negative rho (up, down):  1.689E-02 0.000E+00
 
     Adding external electric field

     Computed dipole along edir(3) : 
        Dipole               12.6945 Ry au,         32.2662 Debye
        Dipole field          0.0240 Ry au, 
 
        Potential amp.       -2.2207 Ry
        Total length         46.3494 bohr
 

     total cpu time spent up to now is       55.4 secs

     total energy              =   -2877.32919183 Ry
     estimated scf accuracy    <     482.14143015 Ry

     iteration #  2     ecut=    29.40 Ry     beta= 0.05
     Davidson diagonalization with overlap
     ethr =  1.00E-02,  avg # of iterations = 13.9

     negative rho (up, down):  8.035E-03 0.000E+00
 
     Adding external electric field

     Computed dipole along edir(3) : 
        Dipole               -1.9962 Ry au,         -5.0739 Debye
        Dipole field         -0.0038 Ry au, 
 
        Potential amp.        0.3492 Ry
        Total length         46.3494 bohr
 

     total cpu time spent up to now is       77.0 secs

     total energy              =   -2827.90493343 Ry
     estimated scf accuracy    <   10745.13269658 Ry

     iteration #  3     ecut=    29.40 Ry     beta= 0.05
     Davidson diagonalization with overlap
     c_bands:  1 eigenvalues not converged
     ethr =  1.00E-02,  avg # of iterations = 18.6

     negative rho (up, down):  7.983E-03 0.000E+00
 
     Adding external electric field

     Computed dipole along edir(3) : 
        Dipole               -2.1153 Ry au,         -5.3766 Debye
        Dipole field         -0.0040 Ry au, 
 
        Potential amp.        0.3700 Ry
        Total length         46.3494 bohr
 

     total cpu time spent up to now is       99.5 secs

     total energy              =   -2920.96249538 Ry
     estimated scf accuracy    <      11.86284952 Ry

     iteration #  4     ecut=    29.40 Ry     beta= 0.05
     Davidson diagonalization with overlap
     ethr =  3.04E-03,  avg # of iterations =  2.5

     negative rho (up, down):  8.190E-03 0.000E+00
 
     Adding external electric field

     Computed dipole along edir(3) : 
        Dipole               -2.3823 Ry au,         -6.0553 Debye
        Dipole field         -0.0045 Ry au, 
 
        Potential amp.        0.4168 Ry
        Total length         46.3494 bohr
 

     total cpu time spent up to now is      107.2 secs

     total energy              =   -2918.67994321 Ry
     estimated scf accuracy    <      10.13745574 Ry

     iteration #  5     ecut=    29.40 Ry     beta= 0.05
     Davidson diagonalization with overlap
     ethr =  2.60E-03,  avg # of iterations =  2.0

     negative rho (up, down):  8.419E-03 0.000E+00
 
     Adding external electric field

     Computed dipole along edir(3) : 
        Dipole               -2.4650 Ry au,         -6.2655 Debye
        Dipole field         -0.0047 Ry au, 
 
        Potential amp.        0.4312 Ry
        Total length         46.3494 bohr
 

     total cpu time spent up to now is      124.4 secs

     total energy              =   -2917.91224247 Ry
     estimated scf accuracy    <       6.29193698 Ry

     iteration #  6     ecut=    29.40 Ry     beta= 0.05
     Davidson diagonalization with overlap
     ethr =  1.61E-03,  avg # of iterations = 13.2

     negative rho (up, down):  8.174E-03 0.000E+00
 
     Adding external electric field

     Computed dipole along edir(3) : 
        Dipole               -2.2141 Ry au,         -5.6276 Debye
        Dipole field         -0.0042 Ry au, 
 
        Potential amp.        0.3873 Ry
        Total length         46.3494 bohr
 

     total cpu time spent up to now is      138.9 secs

     total energy              =   -2918.90770877 Ry
     estimated scf accuracy    <     164.96841042 Ry

     iteration #  7     ecut=    29.40 Ry     beta= 0.05
     Davidson diagonalization with overlap
     ethr =  1.61E-03,  avg # of iterations =  1.1

     negative rho (up, down):  8.027E-03 0.000E+00
 
     Adding external electric field

     Computed dipole along edir(3) : 
        Dipole               -2.0234 Ry au,         -5.1430 Debye
        Dipole field         -0.0038 Ry au, 
 
        Potential amp.        0.3540 Ry
        Total length         46.3494 bohr
 

     total cpu time spent up to now is      145.8 secs

     total energy              =   -2919.09720441 Ry
     estimated scf accuracy    <      27.43749401 Ry

     iteration #  8     ecut=    29.40 Ry     beta= 0.05
     Davidson diagonalization with overlap
     ethr =  1.61E-03,  avg # of iterations =  1.1

     negative rho (up, down):  7.924E-03 0.000E+00
 
     Adding external electric field

     Computed dipole along edir(3) : 
        Dipole               -1.8621 Ry au,         -4.7331 Debye
        Dipole field         -0.0035 Ry au, 
 
        Potential amp.        0.3258 Ry
        Total length         46.3494 bohr
 

     total cpu time spent up to now is      152.9 secs

     total energy              =   -2919.10643239 Ry
     estimated scf accuracy    <       5.06006019 Ry

     iteration #  9     ecut=    29.40 Ry     beta= 0.05
     Davidson diagonalization with overlap
     ethr =  1.30E-03,  avg # of iterations =  1.1

     negative rho (up, down):  7.900E-03 0.000E+00
 
     Adding external electric field

     Computed dipole along edir(3) : 
        Dipole               -1.7886 Ry au,         -4.5461 Debye
        Dipole field         -0.0034 Ry au, 
 
        Potential amp.        0.3129 Ry
        Total length         46.3494 bohr
 

     total cpu time spent up to now is      159.8 secs

     total energy              =   -2919.14596269 Ry
     estimated scf accuracy    <       0.80406066 Ry

     iteration # 10     ecut=    29.40 Ry     beta= 0.05
     Davidson diagonalization with overlap
     c_bands:  1 eigenvalues not converged
     ethr =  2.06E-04,  avg # of iterations =  9.8

     negative rho (up, down):  8.125E-03 0.000E+00
 
     Adding external electric field

     Computed dipole along edir(3) : 
        Dipole               -1.5500 Ry au,         -3.9398 Debye
        Dipole field         -0.0029 Ry au, 
 
        Potential amp.        0.2712 Ry
        Total length         46.3494 bohr
 

     total cpu time spent up to now is      174.4 secs

     total energy              =   -2919.12760467 Ry
     estimated scf accuracy    <       0.84273949 Ry

     iteration # 11     ecut=    29.40 Ry     beta= 0.05
     Davidson diagonalization with overlap
     ethr =  2.06E-04,  avg # of iterations =  5.5

     negative rho (up, down):  8.900E-03 0.000E+00
 
     Adding external electric field

     Computed dipole along edir(3) : 
        Dipole               -0.4679 Ry au,         -1.1892 Debye
        Dipole field         -0.0009 Ry au, 
 
        Potential amp.        0.0818 Ry
        Total length         46.3494 bohr
 

     total cpu time spent up to now is      182.9 secs

     total energy              =   -2919.08601370 Ry
     estimated scf accuracy    <      19.29591469 Ry

     iteration # 12     ecut=    29.40 Ry     beta= 0.05
     Davidson diagonalization with overlap
     ethr =  2.06E-04,  avg # of iterations =  8.1

     negative rho (up, down):  8.625E-03 0.000E+00
 
     Adding external electric field

     Computed dipole along edir(3) : 
        Dipole               -0.4766 Ry au,         -1.2113 Debye
        Dipole field         -0.0009 Ry au, 
 
        Potential amp.        0.0834 Ry
        Total length         46.3494 bohr
 

     total cpu time spent up to now is      193.3 secs

     total energy              =   -2919.11974306 Ry
     estimated scf accuracy    <       4.48054694 Ry

     iteration # 13     ecut=    29.40 Ry     beta= 0.05
     Davidson diagonalization with overlap
     ethr =  2.06E-04,  avg # of iterations =  1.5

     negative rho (up, down):  8.700E-03 0.000E+00
 
     Adding external electric field

     Computed dipole along edir(3) : 
        Dipole               -0.3025 Ry au,         -0.7689 Debye
        Dipole field         -0.0006 Ry au, 
 
        Potential amp.        0.0529 Ry
        Total length         46.3494 bohr
 

     total cpu time spent up to now is      200.5 secs

     total energy              =   -2919.12658900 Ry
     estimated scf accuracy    <       0.39720883 Ry

     iteration # 14     ecut=    29.40 Ry     beta= 0.05
     Davidson diagonalization with overlap
     ethr =  1.02E-04,  avg # of iterations =  3.1

     negative rho (up, down):  9.018E-03 0.000E+00
 
     Adding external electric field

     Computed dipole along edir(3) : 
        Dipole                0.0374 Ry au,          0.0952 Debye
        Dipole field          0.0001 Ry au, 
 
        Potential amp.       -0.0066 Ry
        Total length         46.3494 bohr
 

     total cpu time spent up to now is      208.4 secs

     total energy              =   -2919.09883911 Ry
     estimated scf accuracy    <       0.20018844 Ry

     iteration # 15     ecut=    29.40 Ry     beta= 0.05
     Davidson diagonalization with overlap
     c_bands:  1 eigenvalues not converged
     c_bands:  1 eigenvalues not converged
     c_bands:  3 eigenvalues not converged
     c_bands:  2 eigenvalues not converged
     c_bands:  1 eigenvalues not converged
     ethr =  5.13E-05,  avg # of iterations = 16.9

     negative rho (up, down):  9.327E-03 0.000E+00
 
     Adding external electric field

     Computed dipole along edir(3) : 
        Dipole                0.2557 Ry au,          0.6499 Debye
        Dipole field          0.0005 Ry au, 
 
        Potential amp.       -0.0447 Ry
        Total length         46.3494 bohr
 

     total cpu time spent up to now is      223.4 secs

     total energy              =   -2919.12233777 Ry
     estimated scf accuracy    <       0.11146855 Ry

     iteration # 16     ecut=    29.40 Ry     beta= 0.05
     Davidson diagonalization with overlap
     c_bands:  2 eigenvalues not converged
     ethr =  2.86E-05,  avg # of iterations = 10.2

     negative rho (up, down):  9.977E-03 0.000E+00
 
     Adding external electric field

     Computed dipole along edir(3) : 
        Dipole                0.4850 Ry au,          1.2329 Debye
        Dipole field          0.0009 Ry au, 
 
        Potential amp.       -0.0849 Ry
        Total length         46.3494 bohr
 

     total cpu time spent up to now is      234.1 secs

     total energy              =   -2919.13445347 Ry
     estimated scf accuracy    <       0.10674512 Ry

     iteration # 17     ecut=    29.40 Ry     beta= 0.05
     Davidson diagonalization with overlap
     c_bands:  1 eigenvalues not converged
     ethr =  2.74E-05,  avg # of iterations =  4.0

     negative rho (up, down):  1.053E-02 0.000E+00
 
     Adding external electric field

     Computed dipole along edir(3) : 
        Dipole                0.5304 Ry au,          1.3482 Debye
        Dipole field          0.0010 Ry au, 
 
        Potential amp.       -0.0928 Ry
        Total length         46.3494 bohr
 

     total cpu time spent up to now is      242.2 secs

     total energy              =   -2919.13807782 Ry
     estimated scf accuracy    <       0.10349576 Ry

     iteration # 18     ecut=    29.40 Ry     beta= 0.05
     Davidson diagonalization with overlap
     c_bands:  3 eigenvalues not converged
     c_bands:  3 eigenvalues not converged
     c_bands:  5 eigenvalues not converged
     c_bands:  1 eigenvalues not converged
     c_bands:  2 eigenvalues not converged
     c_bands:  1 eigenvalues not converged
     ethr =  2.65E-05,  avg # of iterations = 20.3

     negative rho (up, down):  1.045E-02 0.000E+00
 
     Adding external electric field

     Computed dipole along edir(3) : 
        Dipole                0.5350 Ry au,          1.3598 Debye
        Dipole field          0.0010 Ry au, 
 
        Potential amp.       -0.0936 Ry
        Total length         46.3494 bohr
 

     total cpu time spent up to now is      257.4 secs

     total energy              =   -2919.14678662 Ry
     estimated scf accuracy    <       0.12111267 Ry

     iteration # 19     ecut=    29.40 Ry     beta= 0.05
     Davidson diagonalization with overlap
     c_bands:  2 eigenvalues not converged
     ethr =  2.65E-05,  avg # of iterations =  6.5

     negative rho (up, down):  1.057E-02 0.000E+00
 
     Adding external electric field

     Computed dipole along edir(3) : 
        Dipole                0.5526 Ry au,          1.4047 Debye
        Dipole field          0.0010 Ry au, 
 
        Potential amp.       -0.0967 Ry
        Total length         46.3494 bohr
 

     total cpu time spent up to now is      266.1 secs

     total energy              =   -2919.15224711 Ry
     estimated scf accuracy    <       0.12659434 Ry

     iteration # 20     ecut=    29.40 Ry     beta= 0.05
     Davidson diagonalization with overlap
     ethr =  2.65E-05,  avg # of iterations =  1.3

     negative rho (up, down):  1.055E-02 0.000E+00
 
     Adding external electric field

     Computed dipole along edir(3) : 
        Dipole                0.5704 Ry au,          1.4498 Debye
        Dipole field          0.0011 Ry au, 
 
        Potential amp.       -0.0998 Ry
        Total length         46.3494 bohr
 

     total cpu time spent up to now is      273.3 secs

     total energy              =   -2919.14887889 Ry
     estimated scf accuracy    <       0.14913899 Ry

     iteration # 21     ecut=    29.40 Ry     beta= 0.05
     Davidson diagonalization with overlap
     ethr =  2.65E-05,  avg # of iterations =  1.0

     negative rho (up, down):  1.041E-02 0.000E+00
 
     Adding external electric field

     Computed dipole along edir(3) : 
        Dipole                0.5552 Ry au,          1.4111 Debye
        Dipole field          0.0010 Ry au, 
 
        Potential amp.       -0.0971 Ry
        Total length         46.3494 bohr
 

     total cpu time spent up to now is      280.2 secs

     total energy              =   -2919.15382666 Ry
     estimated scf accuracy    <       0.14306870 Ry

     iteration # 22     ecut=    29.40 Ry     beta= 0.05
     Davidson diagonalization with overlap
     ethr =  2.65E-05,  avg # of iterations =  1.1

     negative rho (up, down):  1.144E-02 0.000E+00
 
     Adding external electric field

     Computed dipole along edir(3) : 
        Dipole                0.4874 Ry au,          1.2388 Debye
        Dipole field          0.0009 Ry au, 
 
        Potential amp.       -0.0853 Ry
        Total length         46.3494 bohr
 

     total cpu time spent up to now is      287.2 secs

     total energy              =   -2919.15244578 Ry
     estimated scf accuracy    <       0.15982776 Ry

     iteration # 23     ecut=    29.40 Ry     beta= 0.05
     Davidson diagonalization with overlap
     ethr =  2.65E-05,  avg # of iterations =  2.4

     negative rho (up, down):  1.184E-02 0.000E+00
 
     Adding external electric field

     Computed dipole along edir(3) : 
        Dipole                0.1634 Ry au,          0.4153 Debye
        Dipole field          0.0003 Ry au, 
 
        Potential amp.       -0.0286 Ry
        Total length         46.3494 bohr
 

     total cpu time spent up to now is      294.8 secs

     total energy              =   -2919.09533536 Ry
     estimated scf accuracy    <       0.15596676 Ry

     iteration # 24     ecut=    29.40 Ry     beta= 0.05
     Davidson diagonalization with overlap
     c_bands:  2 eigenvalues not converged
     c_bands:  2 eigenvalues not converged
     c_bands:  4 eigenvalues not converged
     c_bands:  1 eigenvalues not converged
     c_bands:  4 eigenvalues not converged
     c_bands:  1 eigenvalues not converged
     c_bands:  4 eigenvalues not converged
     c_bands:  4 eigenvalues not converged
     ethr =  2.65E-05,  avg # of iterations = 18.9

     negative rho (up, down):  1.180E-02 0.000E+00
 
     Adding external electric field

     Computed dipole along edir(3) : 
        Dipole                0.5068 Ry au,          1.2880 Debye
        Dipole field          0.0010 Ry au, 
 
        Potential amp.       -0.0886 Ry
        Total length         46.3494 bohr
 

     total cpu time spent up to now is      313.5 secs

     total energy              =   -2919.10801688 Ry
     estimated scf accuracy    <       0.15840853 Ry

     iteration # 25     ecut=    29.40 Ry     beta= 0.05
     Davidson diagonalization with overlap
     c_bands:  1 eigenvalues not converged
     c_bands:  2 eigenvalues not converged
     c_bands:  1 eigenvalues not converged
     ethr =  2.65E-05,  avg # of iterations = 15.4

     negative rho (up, down):  1.201E-02 0.000E+00
 
     Adding external electric field

     Computed dipole along edir(3) : 
        Dipole                0.5032 Ry au,          1.2791 Debye
        Dipole field          0.0009 Ry au, 
 
        Potential amp.       -0.0880 Ry
        Total length         46.3494 bohr
 

     total cpu time spent up to now is      328.9 secs

     total energy              =   -2919.14158497 Ry
     estimated scf accuracy    <       0.08923652 Ry

     iteration # 26     ecut=    29.40 Ry     beta= 0.05
     Davidson diagonalization with overlap
     ethr =  2.29E-05,  avg # of iterations =  2.0

     negative rho (up, down):  1.129E-02 0.000E+00
 
     Adding external electric field

     Computed dipole along edir(3) : 
        Dipole                0.3148 Ry au,          0.8001 Debye
        Dipole field          0.0006 Ry au, 
 
        Potential amp.       -0.0551 Ry
        Total length         46.3494 bohr
 

     total cpu time spent up to now is      336.5 secs

     total energy              =   -2919.13331701 Ry
     estimated scf accuracy    <       0.08838290 Ry

     iteration # 27     ecut=    29.40 Ry     beta= 0.05
     Davidson diagonalization with overlap
     ethr =  2.27E-05,  avg # of iterations =  6.6

     negative rho (up, down):  1.270E-02 0.000E+00
 
     Adding external electric field

     Computed dipole along edir(3) : 
        Dipole                0.2847 Ry au,          0.7235 Debye
        Dipole field          0.0005 Ry au, 
 
        Potential amp.       -0.0498 Ry
        Total length         46.3494 bohr
 

     total cpu time spent up to now is      345.4 secs

     total energy              =   -2919.12883964 Ry
     estimated scf accuracy    <       0.06913922 Ry

     iteration # 28     ecut=    29.40 Ry     beta= 0.05
     Davidson diagonalization with overlap
     c_bands:  2 eigenvalues not converged
     c_bands:  1 eigenvalues not converged
     c_bands:  2 eigenvalues not converged
     c_bands:  2 eigenvalues not converged
     ethr =  1.77E-05,  avg # of iterations = 14.8

     negative rho (up, down):  1.283E-02 0.000E+00
 
     Adding external electric field

     Computed dipole along edir(3) : 
        Dipole                0.1237 Ry au,          0.3145 Debye
        Dipole field          0.0002 Ry au, 
 
        Potential amp.       -0.0216 Ry
        Total length         46.3494 bohr
 

     total cpu time spent up to now is      356.8 secs

     total energy              =   -2919.12748171 Ry
     estimated scf accuracy    <       0.02386554 Ry

     iteration # 29     ecut=    29.40 Ry     beta= 0.05
     Davidson diagonalization with overlap
     c_bands:  2 eigenvalues not converged
     c_bands:  1 eigenvalues not converged
     c_bands:  2 eigenvalues not converged
     c_bands:  2 eigenvalues not converged
     c_bands:  3 eigenvalues not converged
     c_bands:  1 eigenvalues not converged
     c_bands:  1 eigenvalues not converged
     ethr =  6.12E-06,  avg # of iterations = 19.2

     negative rho (up, down):  1.243E-02 0.000E+00
 
     Adding external electric field

     Computed dipole along edir(3) : 
        Dipole                0.2922 Ry au,          0.7428 Debye
        Dipole field          0.0006 Ry au, 
 
        Potential amp.       -0.0511 Ry
        Total length         46.3494 bohr
 

     total cpu time spent up to now is      372.4 secs

     total energy              =   -2919.12819929 Ry
     estimated scf accuracy    <       0.05348528 Ry

     iteration # 30     ecut=    29.40 Ry     beta= 0.05
     Davidson diagonalization with overlap
     c_bands:  1 eigenvalues not converged
     c_bands:  2 eigenvalues not converged
     ethr =  6.12E-06,  avg # of iterations = 12.7

     negative rho (up, down):  1.223E-02 0.000E+00
 
     Adding external electric field

     Computed dipole along edir(3) : 
        Dipole                0.2971 Ry au,          0.7551 Debye
        Dipole field          0.0006 Ry au, 
 
        Potential amp.       -0.0520 Ry
        Total length         46.3494 bohr
 

     total cpu time spent up to now is      383.0 secs

     total energy              =   -2919.13226493 Ry
     estimated scf accuracy    <       0.01616694 Ry

     iteration # 31     ecut=    29.40 Ry     beta= 0.05
     Davidson diagonalization with overlap
     c_bands:  1 eigenvalues not converged
     c_bands:  2 eigenvalues not converged
     c_bands:  1 eigenvalues not converged
     ethr =  4.15E-06,  avg # of iterations = 11.3

     negative rho (up, down):  1.374E-02 0.000E+00
 
     Adding external electric field

     Computed dipole along edir(3) : 
        Dipole                0.1399 Ry au,          0.3557 Debye
        Dipole field          0.0003 Ry au, 
 
        Potential amp.       -0.0245 Ry
        Total length         46.3494 bohr
 

     total cpu time spent up to now is      393.1 secs

     total energy              =   -2919.13015842 Ry
     estimated scf accuracy    <       0.01664587 Ry

     iteration # 32     ecut=    29.40 Ry     beta= 0.05
     Davidson diagonalization with overlap
     c_bands:  2 eigenvalues not converged
     ethr =  4.15E-06,  avg # of iterations = 10.2

     negative rho (up, down):  1.408E-02 0.000E+00
 
     Adding external electric field

     Computed dipole along edir(3) : 
        Dipole                0.1557 Ry au,          0.3958 Debye
        Dipole field          0.0003 Ry au, 
 
        Potential amp.       -0.0272 Ry
        Total length         46.3494 bohr
 

     total cpu time spent up to now is      403.5 secs

     total energy              =   -2919.13158128 Ry
     estimated scf accuracy    <       0.00674119 Ry

     iteration # 33     ecut=    29.40 Ry     beta= 0.05
     Davidson diagonalization with overlap
     c_bands:  2 eigenvalues not converged
     c_bands:  2 eigenvalues not converged
     ethr =  1.73E-06,  avg # of iterations = 10.2

     negative rho (up, down):  1.434E-02 0.000E+00
 
     Adding external electric field

     Computed dipole along edir(3) : 
        Dipole                0.1784 Ry au,          0.4535 Debye
        Dipole field          0.0003 Ry au, 
 
        Potential amp.       -0.0312 Ry
        Total length         46.3494 bohr
 

     total cpu time spent up to now is      413.4 secs

     total energy              =   -2919.13177870 Ry
     estimated scf accuracy    <       0.00429787 Ry

     iteration # 34     ecut=    29.40 Ry     beta= 0.05
     Davidson diagonalization with overlap
     ethr =  1.10E-06,  avg # of iterations =  2.8

     negative rho (up, down):  1.478E-02 0.000E+00
 
     Adding external electric field

     Computed dipole along edir(3) : 
        Dipole                0.1668 Ry au,          0.4241 Debye
        Dipole field          0.0003 Ry au, 
 
        Potential amp.       -0.0292 Ry
        Total length         46.3494 bohr
 

     total cpu time spent up to now is      422.1 secs

     total energy              =   -2919.13212531 Ry
     estimated scf accuracy    <       0.00174842 Ry

     iteration # 35     ecut=    29.40 Ry     beta= 0.05
     Davidson diagonalization with overlap
     ethr =  4.48E-07,  avg # of iterations =  2.4

     negative rho (up, down):  1.563E-02 0.000E+00
 
     Adding external electric field

     Computed dipole along edir(3) : 
        Dipole                0.2214 Ry au,          0.5628 Debye
        Dipole field          0.0004 Ry au, 
 
        Potential amp.       -0.0387 Ry
        Total length         46.3494 bohr
 

     total cpu time spent up to now is      441.3 secs

     total energy              =   -2919.13208276 Ry
     estimated scf accuracy    <       0.00269840 Ry

     iteration # 36     ecut=    29.40 Ry     beta= 0.05
     Davidson diagonalization with overlap
     ethr =  4.48E-07,  avg # of iterations =  5.0

     negative rho (up, down):  1.627E-02 0.000E+00
 
     Adding external electric field

     Computed dipole along edir(3) : 
        Dipole                0.2241 Ry au,          0.5695 Debye
        Dipole field          0.0004 Ry au, 
 
        Potential amp.       -0.0392 Ry
        Total length         46.3494 bohr
 

     total cpu time spent up to now is      455.9 secs

     total energy              =   -2919.13169396 Ry
     estimated scf accuracy    <       0.00397827 Ry

     iteration # 37     ecut=    29.40 Ry     beta= 0.05
     Davidson diagonalization with overlap
     ethr =  4.48E-07,  avg # of iterations =  5.0

     negative rho (up, down):  1.619E-02 0.000E+00
 
     Adding external electric field

     Computed dipole along edir(3) : 
        Dipole                0.2208 Ry au,          0.5612 Debye
        Dipole field          0.0004 Ry au, 
 
        Potential amp.       -0.0386 Ry
        Total length         46.3494 bohr
 

     total cpu time spent up to now is      468.0 secs

     total energy              =   -2919.13245173 Ry
     estimated scf accuracy    <       0.00053170 Ry

     iteration # 38     ecut=    29.40 Ry     beta= 0.05
     Davidson diagonalization with overlap
     ethr =  1.36E-07,  avg # of iterations =  1.4

     negative rho (up, down):  1.610E-02 0.000E+00
 
     Adding external electric field

     Computed dipole along edir(3) : 
        Dipole                0.2257 Ry au,          0.5737 Debye
        Dipole field          0.0004 Ry au, 
 
        Potential amp.       -0.0395 Ry
        Total length         46.3494 bohr
 

     total cpu time spent up to now is      475.1 secs

     total energy              =   -2919.13245277 Ry
     estimated scf accuracy    <       0.00060601 Ry

     iteration # 39     ecut=    29.40 Ry     beta= 0.05
     Davidson diagonalization with overlap
     ethr =  1.36E-07,  avg # of iterations =  2.0

     negative rho (up, down):  1.683E-02 0.000E+00
 
     Adding external electric field

     Computed dipole along edir(3) : 
        Dipole                0.2342 Ry au,          0.5952 Debye
        Dipole field          0.0004 Ry au, 
 
        Potential amp.       -0.0410 Ry
        Total length         46.3494 bohr
 

     total cpu time spent up to now is      485.2 secs

     total energy              =   -2919.13252155 Ry
     estimated scf accuracy    <       0.00022064 Ry

     iteration # 40     ecut=    29.40 Ry     beta= 0.05
     Davidson diagonalization with overlap
     ethr =  5.66E-08,  avg # of iterations =  6.0

     negative rho (up, down):  1.739E-02 0.000E+00
 
     Adding external electric field

     Computed dipole along edir(3) : 
        Dipole                0.2498 Ry au,          0.6350 Debye
        Dipole field          0.0005 Ry au, 
 
        Potential amp.       -0.0437 Ry
        Total length         46.3494 bohr
 

     total cpu time spent up to now is      496.0 secs

     total energy              =   -2919.13252856 Ry
     estimated scf accuracy    <       0.00029955 Ry

     iteration # 41     ecut=    29.40 Ry     beta= 0.05
     Davidson diagonalization with overlap
     ethr =  5.66E-08,  avg # of iterations =  5.0

     negative rho (up, down):  1.744E-02 0.000E+00
 
     Adding external electric field

     Computed dipole along edir(3) : 
        Dipole                0.2526 Ry au,          0.6420 Debye
        Dipole field          0.0005 Ry au, 
 
        Potential amp.       -0.0442 Ry
        Total length         46.3494 bohr
 

     total cpu time spent up to now is      506.3 secs

     total energy              =   -2919.13260422 Ry
     estimated scf accuracy    <       0.00002837 Ry

     iteration # 42     ecut=    29.40 Ry     beta= 0.05
     Davidson diagonalization with overlap
     c_bands:  1 eigenvalues not converged
     c_bands:  1 eigenvalues not converged
     ethr =  7.27E-09,  avg # of iterations =  8.7

     negative rho (up, down):  1.752E-02 0.000E+00
 
     Adding external electric field

     Computed dipole along edir(3) : 
        Dipole                0.2537 Ry au,          0.6448 Debye
        Dipole field          0.0005 Ry au, 
 
        Potential amp.       -0.0444 Ry
        Total length         46.3494 bohr
 

     total cpu time spent up to now is      518.9 secs

     total energy              =   -2919.13262865 Ry
     estimated scf accuracy    <       0.00003990 Ry

     iteration # 43     ecut=    29.40 Ry     beta= 0.05
     Davidson diagonalization with overlap
     ethr =  7.27E-09,  avg # of iterations =  5.3

     negative rho (up, down):  1.761E-02 0.000E+00
 
     Adding external electric field

     Computed dipole along edir(3) : 
        Dipole                0.2534 Ry au,          0.6441 Debye
        Dipole field          0.0005 Ry au, 
 
        Potential amp.       -0.0443 Ry
        Total length         46.3494 bohr
 

     total cpu time spent up to now is      529.2 secs

     total energy              =   -2919.13265076 Ry
     estimated scf accuracy    <       0.00002072 Ry

     iteration # 44     ecut=    29.40 Ry     beta= 0.05
     Davidson diagonalization with overlap
     ethr =  5.31E-09,  avg # of iterations =  3.9

     negative rho (up, down):  1.764E-02 0.000E+00
 
     Adding external electric field

     Computed dipole along edir(3) : 
        Dipole                0.2526 Ry au,          0.6420 Debye
        Dipole field          0.0005 Ry au, 
 
        Potential amp.       -0.0442 Ry
        Total length         46.3494 bohr
 

     total cpu time spent up to now is      542.6 secs

     total energy              =   -2919.13267037 Ry
     estimated scf accuracy    <       0.00000822 Ry

     iteration # 45     ecut=    29.40 Ry     beta= 0.05
     Davidson diagonalization with overlap
     ethr =  2.11E-09,  avg # of iterations =  7.0

     negative rho (up, down):  1.763E-02 0.000E+00
 
     Adding external electric field

     Computed dipole along edir(3) : 
        Dipole                0.2525 Ry au,          0.6418 Debye
        Dipole field          0.0005 Ry au, 
 
        Potential amp.       -0.0442 Ry
        Total length         46.3494 bohr
 

     total cpu time spent up to now is      555.0 secs

     total energy              =   -2919.13269020 Ry
     estimated scf accuracy    <       0.00001012 Ry

     iteration # 46     ecut=    29.40 Ry     beta= 0.05
     Davidson diagonalization with overlap
     ethr =  2.11E-09,  avg # of iterations =  1.0

     negative rho (up, down):  1.764E-02 0.000E+00
 
     Adding external electric field

     Computed dipole along edir(3) : 
        Dipole                0.2533 Ry au,          0.6438 Debye
        Dipole field          0.0005 Ry au, 
 
        Potential amp.       -0.0443 Ry
        Total length         46.3494 bohr
 

     total cpu time spent up to now is      561.9 secs

     total energy              =   -2919.13270424 Ry
     estimated scf accuracy    <       0.00000979 Ry

     iteration # 47     ecut=    29.40 Ry     beta= 0.05
     Davidson diagonalization with overlap
     ethr =  2.11E-09,  avg # of iterations =  5.0

     negative rho (up, down):  1.765E-02 0.000E+00
 
     Adding external electric field

     Computed dipole along edir(3) : 
        Dipole                0.2549 Ry au,          0.6479 Debye
        Dipole field          0.0005 Ry au, 
 
        Potential amp.       -0.0446 Ry
        Total length         46.3494 bohr
 

     total cpu time spent up to now is      570.8 secs

     total energy              =   -2919.13271781 Ry
     estimated scf accuracy    <       0.00000611 Ry

     iteration # 48     ecut=    29.40 Ry     beta= 0.05
     Davidson diagonalization with overlap
     ethr =  1.57E-09,  avg # of iterations =  6.5

     negative rho (up, down):  1.765E-02 0.000E+00
 
     Adding external electric field

     Computed dipole along edir(3) : 
        Dipole                0.2540 Ry au,          0.6456 Debye
        Dipole field          0.0005 Ry au, 
 
        Potential amp.       -0.0444 Ry
        Total length         46.3494 bohr
 

     total cpu time spent up to now is      585.7 secs

     total energy              =   -2919.13273016 Ry
     estimated scf accuracy    <       0.00001203 Ry

     iteration # 49     ecut=    29.40 Ry     beta= 0.05
     Davidson diagonalization with overlap
     ethr =  1.57E-09,  avg # of iterations =  5.0

     negative rho (up, down):  1.767E-02 0.000E+00
 
     Adding external electric field

     Computed dipole along edir(3) : 
        Dipole                0.2533 Ry au,          0.6438 Debye
        Dipole field          0.0005 Ry au, 
 
        Potential amp.       -0.0443 Ry
        Total length         46.3494 bohr
 

     total cpu time spent up to now is      602.5 secs

     total energy              =   -2919.13274202 Ry
     estimated scf accuracy    <       0.00000249 Ry

     iteration # 50     ecut=    29.40 Ry     beta= 0.05
     Davidson diagonalization with overlap
     ethr =  6.39E-10,  avg # of iterations =  6.3

     negative rho (up, down):  1.768E-02 0.000E+00
 
     Adding external electric field

     Computed dipole along edir(3) : 
        Dipole                0.2536 Ry au,          0.6446 Debye
        Dipole field          0.0005 Ry au, 
 
        Potential amp.       -0.0444 Ry
        Total length         46.3494 bohr
 

     total cpu time spent up to now is      615.9 secs

     total energy              =   -2919.13275285 Ry
     estimated scf accuracy    <       0.00000842 Ry

     iteration # 51     ecut=    29.40 Ry     beta= 0.05
     Davidson diagonalization with overlap
     ethr =  6.39E-10,  avg # of iterations =  5.0

     negative rho (up, down):  1.767E-02 0.000E+00
 
     Adding external electric field

     Computed dipole along edir(3) : 
        Dipole                0.2531 Ry au,          0.6434 Debye
        Dipole field          0.0005 Ry au, 
 
        Potential amp.       -0.0443 Ry
        Total length         46.3494 bohr
 

     total cpu time spent up to now is      625.1 secs

     total energy              =   -2919.13276195 Ry
     estimated scf accuracy    <       0.00000398 Ry

     iteration # 52     ecut=    29.40 Ry     beta= 0.05
     Davidson diagonalization with overlap
     ethr =  6.39E-10,  avg # of iterations =  5.3

     negative rho (up, down):  1.767E-02 0.000E+00
 
     Adding external electric field

     Computed dipole along edir(3) : 
        Dipole                0.2532 Ry au,          0.6435 Debye
        Dipole field          0.0005 Ry au, 
 
        Potential amp.       -0.0443 Ry
        Total length         46.3494 bohr
 

     total cpu time spent up to now is      635.9 secs

     total energy              =   -2919.13277045 Ry
     estimated scf accuracy    <       0.00000225 Ry

     iteration # 53     ecut=    29.40 Ry     beta= 0.05
     Davidson diagonalization with overlap
     ethr =  5.76E-10,  avg # of iterations =  5.0

     negative rho (up, down):  1.768E-02 0.000E+00
 
     Adding external electric field

     Computed dipole along edir(3) : 
        Dipole                0.2537 Ry au,          0.6449 Debye
        Dipole field          0.0005 Ry au, 
 
        Potential amp.       -0.0444 Ry
        Total length         46.3494 bohr
 

     total cpu time spent up to now is      645.1 secs

     total energy              =   -2919.13277794 Ry
     estimated scf accuracy    <       0.00000122 Ry

     iteration # 54     ecut=    29.40 Ry     beta= 0.05
     Davidson diagonalization with overlap
     ethr =  3.12E-10,  avg # of iterations =  5.0

     negative rho (up, down):  1.767E-02 0.000E+00
 
     Adding external electric field

     Computed dipole along edir(3) : 
        Dipole                0.2536 Ry au,          0.6445 Debye
        Dipole field          0.0005 Ry au, 
 
        Potential amp.       -0.0444 Ry
        Total length         46.3494 bohr
 

     total cpu time spent up to now is      664.6 secs

     total energy              =   -2919.13278477 Ry
     estimated scf accuracy    <       0.00000104 Ry

     iteration # 55     ecut=    29.40 Ry     beta= 0.05
     Davidson diagonalization with overlap
     ethr =  2.68E-10,  avg # of iterations =  5.0

     negative rho (up, down):  1.767E-02 0.000E+00
 
     Adding external electric field

     Computed dipole along edir(3) : 
        Dipole                0.2531 Ry au,          0.6434 Debye
        Dipole field          0.0005 Ry au, 
 
        Potential amp.       -0.0443 Ry
        Total length         46.3494 bohr
 

     total cpu time spent up to now is      673.5 secs

     total energy              =   -2919.13279094 Ry
     estimated scf accuracy    <       0.00000024 Ry

     iteration # 56     ecut=    29.40 Ry     beta= 0.05
     Davidson diagonalization with overlap
     ethr =  6.28E-11,  avg # of iterations =  6.8

     negative rho (up, down):  1.767E-02 0.000E+00
 
     Adding external electric field

     Computed dipole along edir(3) : 
        Dipole                0.2531 Ry au,          0.6434 Debye
        Dipole field          0.0005 Ry au, 
 
        Potential amp.       -0.0443 Ry
        Total length         46.3494 bohr
 

     total cpu time spent up to now is      686.3 secs

     total energy              =   -2919.13279650 Ry
     estimated scf accuracy    <       0.00000031 Ry

     iteration # 57     ecut=    29.40 Ry     beta= 0.05
     Davidson diagonalization with overlap
     ethr =  6.28E-11,  avg # of iterations =  2.0

     negative rho (up, down):  1.767E-02 0.000E+00
 
     Adding external electric field

     Computed dipole along edir(3) : 
        Dipole                0.2531 Ry au,          0.6432 Debye
        Dipole field          0.0005 Ry au, 
 
        Potential amp.       -0.0443 Ry
        Total length         46.3494 bohr
 

     total cpu time spent up to now is      694.0 secs

     total energy              =   -2919.13280142 Ry
     estimated scf accuracy    <       0.00000013 Ry

     iteration # 58     ecut=    29.40 Ry     beta= 0.05
     Davidson diagonalization with overlap
     ethr =  3.40E-11,  avg # of iterations =  6.9

     negative rho (up, down):  1.767E-02 0.000E+00
 
     Adding external electric field

     Computed dipole along edir(3) : 
        Dipole                0.2530 Ry au,          0.6430 Debye
        Dipole field          0.0005 Ry au, 
 
        Potential amp.       -0.0443 Ry
        Total length         46.3494 bohr
 

     total cpu time spent up to now is      709.3 secs

     total energy              =   -2919.13280592 Ry
     estimated scf accuracy    <       0.00000017 Ry

     iteration # 59     ecut=    29.40 Ry     beta= 0.05
     Davidson diagonalization with overlap
     ethr =  3.40E-11,  avg # of iterations =  5.0

     negative rho (up, down):  1.773E-02 0.000E+00
 
     Adding external electric field

     Computed dipole along edir(3) : 
        Dipole                0.2531 Ry au,          0.6433 Debye
        Dipole field          0.0005 Ry au, 
 
        Potential amp.       -0.0443 Ry
        Total length         46.3494 bohr
 

     total cpu time spent up to now is      745.5 secs

     End of self-consistent calculation

          k = 0.0000 0.0000 0.0000 ( 18029 PWs)   bands (ev):

   -56.8961 -56.8625 -56.0105 -56.0011 -55.9754 -55.9687 -55.8620 -55.8262
   -55.6448 -55.6095 -55.5586 -55.5391 -55.5247 -55.4414 -54.9973 -54.9442
   -33.3238 -33.1706 -33.1424 -33.0726 -32.9815 -32.9498 -32.4839 -32.4747
   -32.4048 -32.2964 -32.2510 -32.2240 -32.2090 -32.1849 -32.1521 -32.1490
   -32.1427 -32.1394 -32.1152 -32.1090 -32.1008 -32.0704 -32.0443 -32.0293
   -32.0157 -31.9982 -31.9900 -31.9664 -31.9508 -31.8972 -31.8765 -31.8731
   -31.7837 -31.7828 -31.7695 -31.7146 -31.7111 -31.6861 -31.6692 -31.6478
   -31.6234 -31.5752 -31.5200 -31.2404 -31.2216 -31.1934 -31.1658 -31.0474
   -17.0586 -16.6201 -16.3896 -16.2576 -16.1872 -16.1357 -16.0885 -15.9641
   -15.8915 -15.8874 -15.8496 -15.8126 -15.7438 -15.6038 -15.5065 -15.4479
   -15.4049 -15.2854 -15.2268 -15.1922 -15.1836 -15.1542 -15.1334 -14.9352
   -14.9129 -14.8160 -14.8003 -14.6758 -14.4507 -14.0572 -13.9472 -13.1098
    -7.8039  -4.6247  -4.1162  -3.8741  -3.7911  -3.6813  -3.6726  -3.5933
    -3.4760  -3.4259  -3.3800  -3.2643  -3.2612  -3.1149  -3.1063  -3.0710
    -3.0655  -3.0282  -2.9965  -2.9508  -2.9085  -2.8956  -2.8888  -2.7386
    -2.6367  -2.5684  -2.5447  -2.5281  -2.4994  -2.4076  -2.4030  -2.3870
    -2.3833  -2.2901  -2.1376  -2.1304  -2.0961  -2.0578  -2.0559  -2.0128
    -2.0027  -1.8472  -1.8014  -1.6857  -1.6728  -1.6382  -1.5711  -1.5670
    -1.4532  -1.3966  -1.3522  -1.3048  -1.1973  -1.1547  -1.1253  -1.0376
    -0.9750  -0.9385  -0.9208  -0.9005  -0.7940  -0.7839  -0.7692  -0.6787
    -0.6739  -0.6218  -0.5319  -0.5103  -0.5076  -0.4169  -0.4093  -0.3116
    -0.2764  -0.2245  -0.1945  -0.1150  -0.0838   0.0210   0.0594   0.0750
     0.2049   0.2193   0.2781   0.3441   0.4019   0.4455   0.4629   0.4961
     0.5059   0.5971   0.7066   0.7087   0.8184   0.8566   1.0158   1.0547
     1.3498   1.3593   2.0278   2.3789   2.5394   2.8377   3.0315   3.1440
     3.3552   3.3693   3.3751   3.5532   3.6021

          k = 0.0000 0.0419 0.0000 ( 17933 PWs)   bands (ev):

   -56.8911 -56.8674 -56.0054 -55.9963 -55.9804 -55.9733 -55.8568 -55.8312
   -55.6397 -55.6145 -55.5536 -55.5375 -55.5296 -55.4429 -54.9941 -54.9473
   -33.2703 -33.1663 -33.1462 -33.0593 -33.0057 -32.9948 -32.4310 -32.4218
   -32.3493 -32.2820 -32.2450 -32.2125 -32.2118 -32.2057 -32.1700 -32.1565
   -32.1514 -32.1496 -32.1446 -32.1303 -32.0668 -32.0656 -32.0578 -32.0473
   -32.0306 -31.9829 -31.9695 -31.9650 -31.8981 -31.8935 -31.8764 -31.8630
   -31.7972 -31.7783 -31.7697 -31.7574 -31.7122 -31.6982 -31.6829 -31.6705
   -31.6482 -31.6319 -31.4710 -31.2501 -31.2195 -31.1975 -31.1684 -31.0856
   -16.9373 -16.4982 -16.3107 -16.2862 -16.1979 -16.1114 -16.0720 -15.9094
   -15.9053 -15.8562 -15.8312 -15.7458 -15.7225 -15.6350 -15.5486 -15.5371
   -15.4491 -15.2875 -15.2815 -15.2572 -15.2225 -15.1300 -15.0733 -14.9848
   -14.9084 -14.8569 -14.8209 -14.6978 -14.5210 -14.0644 -13.9883 -13.1189
    -7.7995  -4.4429  -3.9384  -3.7118  -3.6397  -3.5996  -3.5329  -3.4689
    -3.4193  -3.4069  -3.3943  -3.2302  -3.1708  -3.0885  -3.0710  -3.0693
    -3.0572  -3.0316  -2.9958  -2.9744  -2.9049  -2.8845  -2.8535  -2.7989
    -2.7691  -2.7395  -2.7009  -2.6365  -2.6066  -2.5446  -2.5206  -2.4524
    -2.3237  -2.3202  -2.3048  -2.1281  -2.0980  -2.0883  -2.0356  -1.9778
    -1.8913  -1.7432  -1.6949  -1.6866  -1.6457  -1.6439  -1.4715  -1.4539
    -1.4208  -1.3488  -1.3239  -1.3115  -1.2367  -1.1730  -1.1609  -1.1188
    -1.0084  -0.9332  -0.8694  -0.8079  -0.7284  -0.7197  -0.6753  -0.6588
    -0.5982  -0.5859  -0.5454  -0.5319  -0.5161  -0.4406  -0.4056  -0.3579
    -0.3318  -0.3081  -0.1831  -0.1641  -0.0640  -0.0435  -0.0313   0.0190
     0.0812   0.1010   0.1174   0.1292   0.1411   0.3144   0.3536   0.4315
     0.5212   0.6496   0.6954   0.7633   0.7836   0.8021   0.9614   0.9679
     1.2303   1.3164   1.9027   2.6461   2.6513   2.8464   3.1890   3.2184
     3.2470   3.3284   3.3511   3.5012   3.5446

          k = 0.0000-0.0839 0.0000 ( 17884 PWs)   bands (ev):

   -56.8794 -56.8790 -55.9949 -55.9910 -55.9847 -55.9846 -55.8469 -55.8410
   -55.6298 -55.6243 -55.5416 -55.5415 -55.5358 -55.4445 -54.9905 -54.9508
   -33.1564 -33.1561 -33.1395 -33.1393 -33.0271 -33.0268 -32.3037 -32.3009
   -32.2937 -32.2893 -32.2462 -32.2457 -32.2410 -32.2395 -32.1968 -32.1927
   -32.1833 -32.1790 -32.1454 -32.1442 -32.0987 -32.0936 -32.0480 -32.0444
   -31.9813 -31.9733 -31.9109 -31.9048 -31.8848 -31.8847 -31.8742 -31.8307
   -31.8294 -31.7928 -31.7672 -31.7670 -31.7580 -31.7280 -31.7279 -31.7094
   -31.6803 -31.6498 -31.3856 -31.3047 -31.2170 -31.1869 -31.1705 -31.1312
   -16.6362 -16.6356 -16.2223 -16.2185 -16.0666 -16.0650 -16.0537 -16.0537
   -15.9286 -15.9201 -15.7358 -15.7311 -15.6209 -15.6144 -15.5075 -15.5049
   -15.4962 -15.4946 -15.4207 -15.4083 -15.1082 -15.1039 -14.9971 -14.9898
   -14.9429 -14.9381 -14.7788 -14.7703 -14.6105 -14.0510 -14.0509 -13.1278
    -7.7951  -3.9887  -3.9886  -3.5225  -3.5148  -3.4987  -3.4983  -3.3970
    -3.3957  -3.3458  -3.3371  -3.1739  -3.1502  -3.1072  -3.0604  -3.0512
    -3.0282  -3.0244  -3.0225  -3.0008  -2.9952  -2.9574  -2.9284  -2.8151
    -2.8122  -2.7503  -2.7076  -2.6019  -2.5214  -2.5101  -2.4546  -2.4158
    -2.4073  -2.2243  -2.2032  -2.1941  -2.1821  -2.1101  -2.1060  -2.0969
    -2.0013  -1.9785  -1.8582  -1.8477  -1.5883  -1.5794  -1.3969  -1.3856
    -1.3704  -1.3362  -1.3005  -1.2581  -1.1848  -1.1586  -1.0334  -1.0314
    -1.0252  -0.9831  -0.8824  -0.8460  -0.7904  -0.7869  -0.7028  -0.6954
    -0.6739  -0.6526  -0.5857  -0.4657  -0.4494  -0.4336  -0.3865  -0.3694
    -0.2611  -0.2312  -0.2208  -0.1789  -0.1507  -0.1252  -0.1092  -0.0561
     0.0206   0.0301   0.0424   0.0961   0.1026   0.1113   0.2038   0.3205
     0.4030   0.6943   0.7189   0.8277   0.8283   0.8589   0.9325   0.9409
     0.9678   1.2844   1.7731   2.8890   2.8893   3.0245   3.0247   3.0851
     3.0853   3.4544   3.4725   3.5813   3.5959

          k = 0.0380 0.0000 0.0000 ( 17913 PWs)   bands (ev):

   -56.8960 -56.8624 -56.0097 -56.0017 -55.9752 -55.9686 -55.8619 -55.8260
   -55.6447 -55.6094 -55.5585 -55.5390 -55.5246 -55.4413 -54.9972 -54.9441
   -33.3244 -33.1704 -33.1423 -33.0705 -32.9812 -32.9495 -32.4880 -32.4750
   -32.4048 -32.2769 -32.2504 -32.2242 -32.2088 -32.1779 -32.1722 -32.1501
   -32.1425 -32.1393 -32.1127 -32.1099 -32.1024 -32.0633 -32.0595 -32.0416
   -31.9980 -31.9898 -31.9868 -31.9663 -31.9504 -31.8997 -31.8738 -31.8713
   -31.7894 -31.7837 -31.7693 -31.7144 -31.7108 -31.6860 -31.6696 -31.6476
   -31.6232 -31.5749 -31.5194 -31.2402 -31.2230 -31.1935 -31.1652 -31.0472
   -16.9547 -16.5431 -16.4152 -16.3570 -16.2363 -16.0850 -15.9924 -15.9736
   -15.8931 -15.8760 -15.8212 -15.8044 -15.7659 -15.7448 -15.4482 -15.4424
   -15.4042 -15.3321 -15.3268 -15.3038 -15.2249 -15.0277 -15.0229 -15.0150
   -14.9169 -14.8489 -14.7842 -14.6753 -14.4489 -14.0545 -13.9469 -13.1082
    -7.8024  -4.3410  -3.9525  -3.8219  -3.7937  -3.6995  -3.6260  -3.4562
    -3.4461  -3.4122  -3.3862  -3.2296  -3.2158  -3.1906  -3.1136  -3.0932
    -3.0724  -3.0323  -3.0166  -2.9434  -2.9038  -2.8213  -2.7759  -2.7035
    -2.6074  -2.5513  -2.5288  -2.5197  -2.5140  -2.4087  -2.3709  -2.3175
    -2.1966  -2.1756  -2.1523  -2.0904  -2.0595  -2.0500  -2.0425  -1.9737
    -1.9514  -1.9414  -1.7998  -1.7526  -1.7108  -1.6441  -1.5810  -1.5401
    -1.4540  -1.3994  -1.3581  -1.3350  -1.2879  -1.2394  -1.2175  -1.1809
    -1.1204  -1.0366  -0.9459  -0.8756  -0.8710  -0.8351  -0.7716  -0.7139
    -0.6771  -0.6729  -0.6382  -0.5699  -0.4231  -0.3683  -0.3409  -0.3190
    -0.2893  -0.2375  -0.1423  -0.1162  -0.0882  -0.0847  -0.0620   0.0260
     0.0955   0.1464   0.1896   0.2782   0.3137   0.3695   0.4742   0.4787
     0.4975   0.5779   0.6228   0.6556   0.6766   0.7344   0.9121   0.9657
     1.2222   1.3639   1.8873   2.5231   2.5558   2.8369   2.9984   3.1104
     3.3633   3.3841   3.4499   3.4540   3.6032

          k = 0.0380 0.0419 0.0000 ( 17878 PWs)   bands (ev):

   -56.8911 -56.8673 -56.0047 -55.9968 -55.9802 -55.9734 -55.8567 -55.8311
   -55.6396 -55.6145 -55.5535 -55.5374 -55.5295 -55.4429 -54.9941 -54.9472
   -33.2710 -33.1661 -33.1463 -33.0576 -33.0057 -32.9945 -32.4352 -32.4225
   -32.3494 -32.2649 -32.2445 -32.2125 -32.2119 -32.1937 -32.1791 -32.1631
   -32.1520 -32.1510 -32.1506 -32.1301 -32.0665 -32.0636 -32.0548 -32.0484
   -32.0428 -31.9828 -31.9651 -31.9550 -31.8979 -31.8954 -31.8754 -31.8607
   -31.7970 -31.7837 -31.7698 -31.7572 -31.7121 -31.6983 -31.6829 -31.6713
   -31.6482 -31.6318 -31.4706 -31.2500 -31.2205 -31.1978 -31.1683 -31.0855
   -16.8396 -16.4257 -16.3975 -16.2784 -16.1676 -16.1618 -16.0094 -15.9809
   -15.9053 -15.7953 -15.7673 -15.7464 -15.7253 -15.7213 -15.6035 -15.4473
   -15.3998 -15.3749 -15.3621 -15.2955 -15.1642 -15.1409 -15.1039 -15.0592
   -14.8979 -14.8815 -14.7967 -14.6983 -14.5198 -14.0624 -13.9885 -13.1177
    -7.7986  -4.1633  -3.7803  -3.6774  -3.6266  -3.5494  -3.5246  -3.3268
    -3.3146  -3.2835  -3.2485  -3.2201  -3.1969  -3.1253  -3.0875  -3.0827
    -3.0344  -2.9783  -2.9649  -2.9490  -2.8945  -2.8638  -2.8473  -2.7891
    -2.7682  -2.7116  -2.6266  -2.5940  -2.5493  -2.4667  -2.4401  -2.4059
    -2.3603  -2.2782  -2.2689  -2.1740  -2.1243  -2.0950  -1.9578  -1.9219
    -1.8403  -1.7954  -1.7770  -1.7352  -1.6928  -1.6019  -1.5651  -1.5068
    -1.4775  -1.4060  -1.3697  -1.3389  -1.3336  -1.1975  -1.1782  -1.0973
    -1.0651  -1.0479  -0.9718  -0.9379  -0.8492  -0.8085  -0.7909  -0.7646
    -0.7333  -0.6892  -0.6469  -0.6294  -0.5790  -0.4996  -0.4365  -0.4004
    -0.3732  -0.2982  -0.2341  -0.2036  -0.1476  -0.1102  -0.0406  -0.0336
     0.0203   0.0800   0.0995   0.1254   0.1792   0.2944   0.3814   0.4406
     0.5787   0.6168   0.6607   0.7096   0.7444   0.8310   0.8856   0.9443
     1.1538   1.3373   1.8731   2.6388   2.7974   2.8888   3.0460   3.2321
     3.3149   3.3681   3.4560   3.5103   3.6325

          k = 0.0380-0.0839 0.0000 ( 17916 PWs)   bands (ev):

   -56.8794 -56.8791 -55.9946 -55.9906 -55.9851 -55.9850 -55.8470 -55.8410
   -55.6298 -55.6244 -55.5416 -55.5415 -55.5359 -55.4445 -54.9905 -54.9509
   -33.1564 -33.1561 -33.1401 -33.1399 -33.0264 -33.0261 -32.3094 -32.3069
   -32.2964 -32.2914 -32.2411 -32.2396 -32.2264 -32.2261 -32.1968 -32.1928
   -32.1835 -32.1791 -32.1572 -32.1560 -32.0988 -32.0937 -32.0474 -32.0446
   -31.9814 -31.9735 -31.9116 -31.9055 -31.8855 -31.8854 -31.8706 -31.8297
   -31.8283 -31.7931 -31.7671 -31.7670 -31.7593 -31.7280 -31.7280 -31.7094
   -31.6833 -31.6498 -31.3856 -31.3046 -31.2177 -31.1869 -31.1712 -31.1312
   -16.5668 -16.5659 -16.2127 -16.2097 -16.1442 -16.1423 -16.0349 -16.0338
   -15.9015 -15.8934 -15.7166 -15.7110 -15.6074 -15.6027 -15.5033 -15.4916
   -15.4711 -15.4607 -15.4417 -15.4352 -15.1864 -15.1820 -15.0916 -15.0809
   -14.9125 -14.9074 -14.7720 -14.7615 -14.6082 -14.0508 -14.0508 -13.1271
    -7.7948  -3.7775  -3.7762  -3.4222  -3.4203  -3.4074  -3.4068  -3.3598
    -3.3551  -3.2707  -3.2617  -3.0874  -3.0701  -3.0672  -3.0092  -3.0043
    -2.9995  -2.9647  -2.9522  -2.9429  -2.9315  -2.8814  -2.8329  -2.7821
    -2.7208  -2.6806  -2.6726  -2.5659  -2.4694  -2.4662  -2.4282  -2.4108
    -2.3727  -2.3360  -2.3270  -2.2216  -2.2148  -2.1495  -2.1230  -2.0891
    -1.9562  -1.9422  -1.8629  -1.8521  -1.6673  -1.6577  -1.6018  -1.5912
    -1.4554  -1.4298  -1.3952  -1.3693  -1.2823  -1.2687  -1.1724  -1.1638
    -1.0846  -1.0682  -0.9677  -0.9540  -0.9048  -0.8970  -0.8714  -0.8155
    -0.7526  -0.6851  -0.6158  -0.5483  -0.5013  -0.4837  -0.4388  -0.4248
    -0.3960  -0.3825  -0.3216  -0.2924  -0.2497  -0.2291  -0.1723  -0.1206
    -0.0490  -0.0473   0.0988   0.1863   0.2005   0.2278   0.3749   0.4623
     0.5147   0.6977   0.7205   0.8369   0.8377   0.8760   0.8935   0.9351
     0.9446   1.3100   1.8445   2.8927   2.8942   3.0552   3.0571   3.2538
     3.2544   3.4255   3.4415   3.5795   3.5934

          k = 0.0380-0.0419 0.0000 ( 17876 PWs)   bands (ev):

   -56.8911 -56.8673 -56.0047 -55.9968 -55.9802 -55.9734 -55.8567 -55.8311
   -55.6396 -55.6144 -55.5535 -55.5374 -55.5295 -55.4429 -54.9941 -54.9472
   -33.2709 -33.1661 -33.1463 -33.0576 -33.0057 -32.9945 -32.4352 -32.4225
   -32.3493 -32.2649 -32.2444 -32.2126 -32.2119 -32.1937 -32.1790 -32.1630
   -32.1521 -32.1515 -32.1502 -32.1301 -32.0666 -32.0636 -32.0548 -32.0484
   -32.0429 -31.9828 -31.9651 -31.9550 -31.8978 -31.8954 -31.8754 -31.8607
   -31.7970 -31.7837 -31.7698 -31.7572 -31.7121 -31.6983 -31.6831 -31.6711
   -31.6482 -31.6318 -31.4706 -31.2501 -31.2206 -31.1975 -31.1684 -31.0855
   -16.8394 -16.4257 -16.3983 -16.2784 -16.1671 -16.1619 -16.0091 -15.9811
   -15.9054 -15.7953 -15.7672 -15.7462 -15.7259 -15.7215 -15.6030 -15.4472
   -15.3994 -15.3752 -15.3610 -15.2960 -15.1633 -15.1444 -15.1033 -15.0576
   -14.8980 -14.8817 -14.7968 -14.6982 -14.5198 -14.0624 -13.9885 -13.1177
    -7.7986  -4.1627  -3.7790  -3.6791  -3.6275  -3.5480  -3.5247  -3.3263
    -3.3150  -3.2850  -3.2467  -3.2194  -3.1959  -3.1251  -3.1002  -3.0845
    -3.0262  -2.9765  -2.9683  -2.9496  -2.8967  -2.8608  -2.8462  -2.7840
    -2.7647  -2.7157  -2.6267  -2.5921  -2.5468  -2.4687  -2.4395  -2.4135
    -2.3563  -2.2803  -2.2703  -2.1700  -2.1208  -2.0915  -1.9624  -1.9246
    -1.8414  -1.8032  -1.7820  -1.7343  -1.6955  -1.5955  -1.5667  -1.5046
    -1.4714  -1.4065  -1.3673  -1.3397  -1.3334  -1.1954  -1.1813  -1.1017
    -1.0582  -1.0397  -0.9780  -0.9389  -0.8627  -0.8156  -0.7824  -0.7519
    -0.7168  -0.6861  -0.6420  -0.6263  -0.5832  -0.4982  -0.4353  -0.4138
    -0.3751  -0.3215  -0.2164  -0.1892  -0.1544  -0.1115  -0.0596  -0.0350
     0.0264   0.0773   0.0987   0.1342   0.1662   0.2895   0.3847   0.4449
     0.5880   0.6089   0.6614   0.7093   0.7463   0.8317   0.8853   0.9449
     1.1531   1.3375   1.8734   2.6395   2.7977   2.8889   3.0449   3.2318
     3.3158   3.3675   3.4507   3.5096   3.6308

          k =-0.0760-0.0000 0.0000 ( 17886 PWs)   bands (ev):

   -56.8960 -56.8624 -56.0089 -56.0024 -55.9752 -55.9686 -55.8618 -55.8260
   -55.6446 -55.6094 -55.5584 -55.5390 -55.5246 -55.4413 -54.9972 -54.9441
   -33.3251 -33.1703 -33.1422 -33.0685 -32.9815 -32.9495 -32.4920 -32.4754
   -32.4049 -32.2504 -32.2413 -32.2244 -32.2087 -32.2081 -32.1701 -32.1528
   -32.1425 -32.1392 -32.1107 -32.1087 -32.1062 -32.0734 -32.0554 -32.0419
   -31.9979 -31.9898 -31.9725 -31.9663 -31.9501 -31.9021 -31.8711 -31.8702
   -31.7965 -31.7842 -31.7693 -31.7142 -31.7107 -31.6858 -31.6704 -31.6475
   -31.6232 -31.5750 -31.5189 -31.2401 -31.2247 -31.1937 -31.1648 -31.0472
   -16.7922 -16.5001 -16.4982 -16.3340 -16.3092 -16.0814 -16.0430 -15.8950
   -15.8948 -15.8384 -15.8289 -15.7812 -15.7578 -15.7457 -15.5191 -15.4552
   -15.4462 -15.3848 -15.3598 -15.3375 -15.2425 -15.1119 -14.9699 -14.9396
   -14.9260 -14.8604 -14.7776 -14.6751 -14.4477 -14.0519 -13.9465 -13.1066
    -7.8009  -3.9532  -3.9497  -3.9134  -3.8058  -3.5508  -3.5367  -3.4984
    -3.3829  -3.3569  -3.2332  -3.1936  -3.1559  -3.1067  -3.0986  -3.0879
    -3.0063  -2.9912  -2.9789  -2.8537  -2.7918  -2.7459  -2.6961  -2.6710
    -2.6192  -2.6049  -2.5767  -2.5262  -2.4605  -2.4346  -2.3264  -2.3212
    -2.2808  -2.2002  -2.1828  -2.1605  -2.0520  -2.0009  -1.9958  -1.9464
    -1.9096  -1.8720  -1.8308  -1.7579  -1.7265  -1.7009  -1.6544  -1.5793
    -1.5470  -1.5090  -1.4923  -1.3934  -1.2823  -1.2631  -1.1720  -1.1273
    -1.1030  -1.0821  -1.0525  -0.9731  -0.9707  -0.9436  -0.8138  -0.8038
    -0.7562  -0.7195  -0.6354  -0.5991  -0.5742  -0.5230  -0.3944  -0.3093
    -0.2885  -0.2103  -0.2037  -0.1322  -0.0926  -0.0886  -0.0295   0.0615
     0.1103   0.1564   0.2136   0.2426   0.2511   0.3364   0.3505   0.4160
     0.4919   0.5593   0.5830   0.6305   0.6772   0.7756   0.7809   0.9003
     1.0102   1.3637   1.7667   2.5134   2.6498   2.7419   2.8360   3.1974
     3.2219   3.3957   3.5123   3.5449   3.5659

          k =-0.0760 0.0419 0.0000 ( 17914 PWs)   bands (ev):

   -56.8911 -56.8674 -56.0041 -55.9975 -55.9801 -55.9736 -55.8567 -55.8311
   -55.6396 -55.6145 -55.5535 -55.5375 -55.5296 -55.4429 -54.9941 -54.9473
   -33.2718 -33.1661 -33.1463 -33.0562 -33.0060 -32.9945 -32.4395 -32.4233
   -32.3496 -32.2450 -32.2299 -32.2140 -32.2121 -32.2119 -32.1738 -32.1658
   -32.1600 -32.1554 -32.1515 -32.1301 -32.0669 -32.0625 -32.0549 -32.0500
   -32.0476 -31.9829 -31.9651 -31.9440 -31.8977 -31.8976 -31.8748 -31.8587
   -31.7971 -31.7896 -31.7702 -31.7572 -31.7121 -31.6983 -31.6836 -31.6720
   -31.6482 -31.6318 -31.4704 -31.2500 -31.2219 -31.1978 -31.1684 -31.0856
   -16.6787 -16.4534 -16.4168 -16.2588 -16.2468 -16.1571 -15.9958 -15.9576
   -15.9037 -15.7908 -15.7478 -15.7449 -15.7243 -15.6588 -15.6138 -15.5053
   -15.4194 -15.4005 -15.3339 -15.3222 -15.2764 -15.1597 -15.1160 -15.0833
   -14.8964 -14.8716 -14.7871 -14.6989 -14.5191 -14.0606 -13.9888 -13.1167
    -7.7978  -3.7495  -3.7433  -3.6702  -3.6465  -3.4260  -3.4157  -3.3195
    -3.2965  -3.2414  -3.2208  -3.1163  -3.0860  -3.0802  -3.0428  -2.9715
    -2.9549  -2.9349  -2.9184  -2.9145  -2.8479  -2.8412  -2.8167  -2.7762
    -2.7338  -2.6549  -2.5452  -2.5322  -2.4793  -2.4653  -2.4156  -2.3725
    -2.3138  -2.2793  -2.2571  -2.1978  -2.0891  -2.0341  -2.0213  -1.9195
    -1.8870  -1.8822  -1.8623  -1.7752  -1.6976  -1.6559  -1.6116  -1.5746
    -1.5320  -1.4873  -1.4685  -1.4141  -1.3683  -1.3058  -1.2481  -1.2140
    -1.1714  -1.1139  -1.0698  -1.0405  -0.9732  -0.9345  -0.8593  -0.8389
    -0.7881  -0.7510  -0.7288  -0.7162  -0.6744  -0.6034  -0.5707  -0.4731
    -0.4702  -0.4388  -0.3428  -0.2765  -0.2192  -0.1003  -0.0904   0.0089
     0.0252   0.0720   0.0981   0.2362   0.2914   0.3878   0.4266   0.5204
     0.5576   0.5875   0.6495   0.7547   0.7554   0.8180   0.8212   0.9313
     1.0320   1.3560   1.8558   2.6512   2.8244   2.8377   2.9362   3.3387
     3.3890   3.3929   3.4381   3.5537   3.6532

          k =-0.0760-0.0839 0.0000 ( 17948 PWs)   bands (ev):

   -56.8794 -56.8791 -55.9943 -55.9899 -55.9857 -55.9854 -55.8470 -55.8410
   -55.6298 -55.6244 -55.5416 -55.5415 -55.5359 -55.4445 -54.9905 -54.9509
   -33.1564 -33.1561 -33.1407 -33.1405 -33.0256 -33.0253 -32.3136 -32.3112
   -32.2986 -32.2933 -32.2411 -32.2396 -32.1970 -32.1967 -32.1956 -32.1928
   -32.1841 -32.1816 -32.1806 -32.1786 -32.0989 -32.0938 -32.0476 -32.0438
   -31.9816 -31.9736 -31.9122 -31.9063 -31.8861 -31.8860 -31.8669 -31.8286
   -31.8272 -31.7935 -31.7671 -31.7670 -31.7606 -31.7280 -31.7280 -31.7095
   -31.6863 -31.6499 -31.3856 -31.3046 -31.2184 -31.1870 -31.1719 -31.1312
   -16.4067 -16.4046 -16.3729 -16.3726 -16.1018 -16.0982 -16.0501 -16.0480
   -15.8765 -15.8687 -15.6635 -15.6544 -15.6483 -15.6446 -15.5169 -15.5099
   -15.4472 -15.4343 -15.3462 -15.3396 -15.2782 -15.2719 -15.2358 -15.2145
   -14.8970 -14.8909 -14.7681 -14.7553 -14.6062 -14.0507 -14.0506 -13.1265
    -7.7945  -3.5057  -3.5049  -3.4389  -3.4380  -3.3143  -3.3074  -3.2371
    -3.2365  -3.1315  -3.1277  -3.0797  -3.0032  -2.9900  -2.9867  -2.9769
    -2.9717  -2.8375  -2.8322  -2.8193  -2.8040  -2.7517  -2.7492  -2.7383
    -2.6571  -2.6408  -2.6095  -2.5654  -2.4651  -2.4485  -2.4333  -2.4056
    -2.3498  -2.3350  -2.3215  -2.2760  -2.2580  -2.1569  -2.1077  -2.0637
    -1.9424  -1.9397  -1.9312  -1.9141  -1.7655  -1.7283  -1.6976  -1.6897
    -1.6822  -1.6337  -1.5398  -1.5318  -1.3978  -1.3930  -1.3224  -1.2385
    -1.2194  -1.1915  -1.0589  -1.0116  -0.9788  -0.9726  -0.9535  -0.9245
    -0.8964  -0.8693  -0.7244  -0.7051  -0.6804  -0.6430  -0.6303  -0.5783
    -0.5280  -0.4469  -0.3665  -0.3656  -0.2863  -0.2425  -0.1782  -0.0949
    -0.0831  -0.0770   0.2030   0.2811   0.3726   0.4568   0.5192   0.5836
     0.6069   0.6719   0.7040   0.8436   0.8467   0.8637   0.8639   0.9296
     0.9344   1.3301   1.9220   2.9526   2.9529   3.0202   3.0206   3.3442
     3.3497   3.4590   3.4684   3.5830   3.5854

     the Fermi energy is     2.2143 ev

!    total energy              =   -2919.13284715 Ry
     estimated scf accuracy    <       0.00000004 Ry
     smearing contrib. (-TS)   =      -0.00467987 Ry
     internal energy E=F+TS    =   -2919.12816729 Ry

     The total energy is F=E-TS. E is the sum of the following terms:
     one-electron contribution =  -24579.16642085 Ry
     hartree contribution      =   12373.77794010 Ry
     xc contribution           =    -479.90180852 Ry
     ewald contribution        =    9766.16200109 Ry
     electric field correction =       0.00012090 Ry

     convergence has been achieved in  59 iterations

     Forces acting on atoms (cartesian axes, Ry/au):

     atom    1 type  1   force =    -0.00002246   -0.00045887    0.12458183
     atom    2 type  1   force =    -0.00012488   -0.00052262   -0.16053337
     atom    3 type  2   force =     0.00015824   -0.00014136   -0.06858589
     atom    4 type  2   force =    -0.00004238   -0.00017616    0.02748811
     atom    5 type  2   force =    -0.01663854    0.00229415   -0.00875100
     atom    6 type  2   force =     0.01809374    0.00295775   -0.00970193
     atom    7 type  1   force =     0.00057751   -0.00360683    0.02209894
     atom    8 type  1   force =    -0.00014678   -0.00292008    0.11204995
     atom    9 type  2   force =     0.00048133   -0.00002438   -0.00021096
     atom   10 type  2   force =    -0.00265979    0.00369341   -0.07353530
     atom   11 type  2   force =     0.00128978   -0.00058497   -0.00040544
     atom   12 type  2   force =    -0.00055836   -0.00106219   -0.00075144
     atom   13 type  1   force =     0.00031572   -0.00067511    0.00054647
     atom   14 type  1   force =    -0.00081759   -0.00057233   -0.00001788
     atom   15 type  2   force =    -0.00016519   -0.00012386    0.00018825
     atom   16 type  2   force =     0.00030553    0.00012042   -0.00051910
     atom   17 type  2   force =     0.00060960    0.00002367    0.00014794
     atom   18 type  2   force =     0.00004307   -0.00061452   -0.00075668
     atom   19 type  1   force =     0.00032360   -0.00037746   -0.00024026
     atom   20 type  1   force =     0.00021338   -0.00013033   -0.00020077
     atom   21 type  2   force =     0.00006083   -0.00006254    0.09973136
     atom   22 type  2   force =    -0.00009952   -0.00032310    0.00054744
     atom   23 type  2   force =    -0.07924375   -0.00009360   -0.03247111
     atom   24 type  2   force =     0.07911722    0.00035535   -0.03249276
     atom   25 type  1   force =     0.00002172   -0.00047575    0.12404514
     atom   26 type  1   force =    -0.00014664   -0.00045248   -0.16061512
     atom   27 type  2   force =     0.00029144   -0.00031586   -0.06760212
     atom   28 type  2   force =    -0.00002444   -0.00001549    0.02725332
     atom   29 type  2   force =    -0.01709992    0.00187413   -0.00885958
     atom   30 type  2   force =     0.01843482    0.00225765   -0.00975616
     atom   31 type  1   force =     0.00058999   -0.00090847    0.02166567
     atom   32 type  1   force =    -0.00010707    0.00052650    0.11248316
     atom   33 type  2   force =     0.00026537   -0.00063804   -0.00040027
     atom   34 type  2   force =    -0.00273365    0.00315994   -0.07270285
     atom   35 type  2   force =    -0.00111345    0.00023271    0.00019096
     atom   36 type  2   force =     0.00084801    0.00009516    0.00031113
     atom   37 type  1   force =    -0.00007950   -0.00004672   -0.00030055
     atom   38 type  1   force =     0.00088707   -0.00028148   -0.00021468
     atom   39 type  2   force =    -0.00014641   -0.00050097    0.00024579
     atom   40 type  2   force =     0.00008214   -0.00012411   -0.00009378
     atom   41 type  2   force =     0.00056906   -0.00068425    0.00022518
     atom   42 type  2   force =     0.00047582    0.00014478   -0.00088823
     atom   43 type  1   force =    -0.00015461    0.00065631    0.00058451
     atom   44 type  1   force =    -0.00011200   -0.00067959   -0.00030550
     atom   45 type  2   force =     0.00004561   -0.00006775    0.09975070
     atom   46 type  2   force =    -0.07925025   -0.00004517   -0.03246387
     atom   47 type  2   force =     0.07912450    0.00039717   -0.03247995
     atom   48 type  3   force =    -0.00311116   -0.00047014   -0.00115040
     atom   49 type  4   force =     0.00194367    0.00019460    0.00143417
     atom   50 type  5   force =     0.00007731    0.00005686   -0.00026576
     atom   51 type  5   force =    -0.00006556   -0.00055945    0.00015074
     atom   52 type  5   force =    -0.00058221   -0.00030451    0.00155195

     Total force =     0.425448     Total SCF correction =     0.000854
  @ DRIVER MODE: Message from server: STATUS
  @ DRIVER MODE: Message from server: GETFORCE
  @ DRIVER MODE: Returning v,forces,stress,ensemble 

     Writing output data file ./calc.save/
  @ DRIVER MODE: Message from server: EXIT
  @ DRIVE MODE: Exiting  
 
     init_run     :     21.56s CPU     21.72s WALL (       1 calls)
     electrons    :    699.11s CPU    718.66s WALL (       1 calls)
     forces       :      6.52s CPU      6.57s WALL (       1 calls)

     Called by init_run:
     wfcinit      :     12.78s CPU     12.85s WALL (       1 calls)
     potinit      :      7.71s CPU      7.75s WALL (       1 calls)
     hinit0       :      0.64s CPU      0.65s WALL (       1 calls)

     Called by electrons:
     c_bands      :    586.48s CPU    596.19s WALL (      59 calls)
     sum_band     :     80.45s CPU     84.62s WALL (      59 calls)
     v_of_rho     :     26.66s CPU     27.69s WALL (      60 calls)
     newd         :      8.96s CPU     10.97s WALL (      60 calls)
     mix_rho      :      3.34s CPU      5.77s WALL (      59 calls)
     vdW_kernel   :      6.11s CPU      6.12s WALL (       1 calls)

     Called by c_bands:
     init_us_2    :      2.77s CPU      2.79s WALL (    1200 calls)
     cegterg      :    576.06s CPU    585.45s WALL (     592 calls)

     Called by *egterg:
     cdiaghg      :    132.08s CPU    134.55s WALL (    4697 calls)
     h_psi        :    290.41s CPU    296.55s WALL (    4707 calls)
     s_psi        :     30.20s CPU     30.32s WALL (    4707 calls)
     g_psi        :      0.81s CPU      0.82s WALL (    4105 calls)

     Called by h_psi:
     h_psi:calbec :     35.61s CPU     35.81s WALL (    4707 calls)
     vloc_psi     :    223.27s CPU    229.12s WALL (    4707 calls)
     add_vuspsi   :     30.46s CPU     30.55s WALL (    4707 calls)

     General routines
     calbec       :     53.39s CPU     53.74s WALL (    5337 calls)
     fft          :     13.82s CPU     14.30s WALL (    3780 calls)
     ffts         :      0.12s CPU      0.13s WALL (     119 calls)
     fftw         :    266.60s CPU    275.13s WALL (  755682 calls)
     interpolate  :      0.29s CPU      0.31s WALL (      60 calls)
     davcio       :      0.00s CPU      0.11s WALL (      10 calls)
 
     Parallel routines
 
     PWSCF        :  12m12.88s CPU  12m32.89s WALL

 
   This run was terminated on:  12:40:20   2Aug2021            

=------------------------------------------------------------------------------=
   JOB DONE.
=------------------------------------------------------------------------------=
