
     Program PWSCF v.6.7GPU starts on 26Sep2021 at 23: 4:38 

     This program is part of the open-source Quantum ESPRESSO suite
     for quantum simulation of materials; please cite
         "P. Giannozzi et al., J. Phys.:Condens. Matter 21 395502 (2009);
         "P. Giannozzi et al., J. Phys.:Condens. Matter 29 465901 (2017);
         "P. Giannozzi et al., J. Chem. Phys. 152 154105 (2020);
          URL http://www.quantum-espresso.org", 
     in publications or presentations arising from this work. More details at
     http://www.quantum-espresso.org/quote

     Parallel version (MPI), running on     8 processors

     MPI processes distributed on     1 nodes
     R & G space division:  proc/nbgrp/npool/nimage =       8
     Reading input from /storage/home/hcoda1/3/ntian30/research/carbon/CxH_vib/H2O_calc/ads_slab/CH2NHNHHO_b/out_0029/pw.inp
Warning: card &CELL ignored
Warning: card   CELL_DYNAMICS='IPI', ignored
Warning: card / ignored

     Current dimensions of program PWSCF are:
     Max number of different atomic species (ntypx) = 10
     Max number of k-points (npk) =  40000
     Max angular momentum in pseudopotentials (lmaxx) =  3
     Presently no symmetry can be used with electric field

     Message from routine cell_base_init:
     DEPRECATED: use true lattice parameter, not A to a.u. conversion factor

     **************************************************************************
     Initializing libbeef V0.1.2 with the BEEF-vdW functional.
     Citation: Wellendorff et al., PRB 85, 235149 (2012).
     **************************************************************************


     IMPORTANT: XC functional enforced from input :
     Exchange-correlation= BEEF-VDW
                           (   1   4  43  14   2   0   0)
     Any further DFT definition will be discarded
     Please, verify this is what you really want


     Subspace diagonalization in iterative solution of the eigenvalue problem:
     one sub-group per band group will be used
     scalapack distributed-memory algorithm (size of sub-group:  2*  2 procs)

  @ DRIVER MODE: Connecting to 
 qe_1139763_2971671.sched-torque.pace.gatech.edu1r8drg0c_scratch
  using UNIX socket
  @ DRIVER MODE: Message from server: STATUS
  @ DRIVER MODE: Message from server: INIT
  @ DRIVER MODE: Receiving replica           0          -1
  @ DRIVER MODE: Receiving encoded integer          25
  @ DRIVER MODE:  SCF:  T  FORCE:  T  STRESS:  F  VC:  F  ENSEMBLE:  F
  @ DRIVER MODE:  SCF:  T  FORCE:  T  STRESS:  F  VC:  F  ENSEMBLE:  F
 
     Parallelization info
     --------------------
     sticks:   dense  smooth     PW     G-vecs:    dense   smooth      PW
     Min         409     164     47                70857    17926    2743
     Max         411     165     48                70858    17931    2751
     Sum        3275    1317    379               566857   143421   21985
 
     Using Slab Decomposition
 


     bravais-lattice index     =            0
     lattice parameter (alat)  =       1.8897  a.u.
     unit-cell volume          =    6658.9804 (a.u.)^3
     number of atoms/cell      =           56
     number of atomic types    =            5
     number of electrons       =       403.00
     number of Kohn-Sham states=          211
     kinetic-energy cutoff     =      29.3995  Ry
     charge density cutoff     =     293.9946  Ry
     scf convergence threshold =      7.3E-08
     mixing beta               =       0.0500
     number of iterations used =            8  plain     mixing
     Exchange-correlation= BEEF-VDW
                           (   1   4  43  14   2   0   0)

     celldm(1)=   1.889726  celldm(2)=   0.000000  celldm(3)=   0.000000
     celldm(4)=   0.000000  celldm(5)=   0.000000  celldm(6)=   0.000000

     crystal axes: (cart. coord. in units of alat)
               a(1) = (   6.579727   0.000000   0.000000 )  
               a(2) = (  -0.000775   5.961596   0.000000 )  
               a(3) = (   0.000000   0.000000  25.155947 )  

     reciprocal axes: (cart. coord. in units 2 pi/alat)
               b(1) = (  0.151982  0.000020  0.000000 )  
               b(2) = (  0.000000  0.167740  0.000000 )  
               b(3) = (  0.000000  0.000000  0.039752 )  


     PseudoPot. # 1 for Ti read from file:
     /storage/coda1/p-amedford6/0/shared/rich_project_chbe-medford/medford-share/data/pseudos_module/espresso/nninc/pbe/van/Ti.UPF
     MD5 check sum: 8e4df49b7f0d34bbd5052bf3f5ea0213
     Pseudo is Ultrasoft, Zval = 12.0
     Generated by new atomic code, or converted to UPF format
     Using radial grid of  851 points,  6 beta functions with: 
                l(1) =   0
                l(2) =   0
                l(3) =   1
                l(4) =   1
                l(5) =   2
                l(6) =   2
     Q(r) pseudized with  8 coefficients,  rinner =    1.000   1.000   1.000
                                                       1.000   1.000

     PseudoPot. # 2 for O  read from file:
     /storage/coda1/p-amedford6/0/shared/rich_project_chbe-medford/medford-share/data/pseudos_module/espresso/nninc/pbe/van/O.UPF
     MD5 check sum: 78c19812648e8988a0fe644b0f25305e
     Pseudo is Ultrasoft, Zval =  6.0
     Generated by new atomic code, or converted to UPF format
     Using radial grid of  737 points,  4 beta functions with: 
                l(1) =   0
                l(2) =   0
                l(3) =   1
                l(4) =   1
     Q(r) pseudized with  8 coefficients,  rinner =    0.800   0.800   0.800


     PseudoPot. # 3 for N  read from file:
     /storage/coda1/p-amedford6/0/shared/rich_project_chbe-medford/medford-share/data/pseudos_module/espresso/nninc/pbe/van/N.UPF
     MD5 check sum: 90d10febe142ad51ac9d5be1deb811c4
     Pseudo is Ultrasoft, Zval =  5.0
     Generated by new atomic code, or converted to UPF format
     Using radial grid of  729 points,  4 beta functions with: 
                l(1) =   0
                l(2) =   0
                l(3) =   1
                l(4) =   1
     Q(r) pseudized with  8 coefficients,  rinner =    0.800   0.800   0.800


     PseudoPot. # 4 for C  read from file:
     /storage/coda1/p-amedford6/0/shared/rich_project_chbe-medford/medford-share/data/pseudos_module/espresso/nninc/pbe/van/C.UPF
     MD5 check sum: 1a69bf6b8db32088f5b2163dbdb77a27
     Pseudo is Ultrasoft, Zval =  4.0
     Generated by new atomic code, or converted to UPF format
     Using radial grid of  721 points,  4 beta functions with: 
                l(1) =   0
                l(2) =   0
                l(3) =   1
                l(4) =   1
     Q(r) pseudized with  8 coefficients,  rinner =    0.800   0.800   0.800


     PseudoPot. # 5 for H  read from file:
     /storage/coda1/p-amedford6/0/shared/rich_project_chbe-medford/medford-share/data/pseudos_module/espresso/nninc/pbe/van/H.UPF
     MD5 check sum: b5ee9d7bfd3a09ee7748110bda690ff7
     Pseudo is Ultrasoft, Zval =  1.0
     Generated by new atomic code, or converted to UPF format
     Using radial grid of  615 points,  1 beta functions with: 
                l(1) =   0
     Q(r) pseudized with  8 coefficients,  rinner =    0.800

     atomic species   valence    mass     pseudopotential
        Ti1           12.00    47.86700     Ti( 1.00)
        O1             6.00    15.99900     O ( 1.00)
        N1             5.00    14.00700     N ( 1.00)
        C1             4.00    12.01100     C ( 1.00)
        H1             1.00     1.00800     H ( 1.00)

     No symmetry found



   Cartesian axes

     site n.     atom                  positions (alat units)
         1           Ti1 tau(   1) = (   0.0004258   2.9801865   6.0000000  )
         2           Ti1 tau(   2) = (   3.2906075   1.4906267   6.0002472  )
         3           O1  tau(   3) = (   0.0006271   0.0005054   7.9858123  )
         4           O1  tau(   4) = (   3.2906025   0.0005020   7.3038282  )
         5           O1  tau(   5) = (   4.5942328   1.4918067   9.2879030  )
         6           O1  tau(   6) = (   1.9868534   1.4903216   9.2879459  )
         7           Ti1 tau(   7) = (   3.2907910   2.8959150   9.1758416  )
         8           Ti1 tau(   8) = (   0.0015273   1.4827037   9.2680791  )
         9           O1  tau(   9) = (   3.2987294   5.9443783  11.3578989  )
        10           O1  tau(  10) = (   0.0116148   5.9584955  10.6183126  )
        11           O1  tau(  11) = (   1.2795512   1.4821507  12.6386044  )
        12           O1  tau(  12) = (   5.2980455   1.5005163  12.6536529  )
        13           Ti1 tau(  13) = (   6.5652885   2.9238251  12.5528928  )
        14           Ti1 tau(  14) = (   3.2988635   1.2998061  12.7048432  )
        15           O1  tau(  15) = (   0.0127057   0.0339484  14.6761273  )
        16           O1  tau(  16) = (   3.2875936   0.0940603  14.0290633  )
        17           O1  tau(  17) = (   4.5650748   1.6033894  16.0357995  )
        18           O1  tau(  18) = (   2.0190796   1.5896112  16.2175902  )
        19           Ti1 tau(  19) = (   3.3013862   3.0422678  15.6649453  )
        20           Ti1 tau(  20) = (   6.4815444   1.5191555  15.8288377  )
        21           O1  tau(  21) = (   3.2904802   0.0005063   4.7018136  )
        22           O1  tau(  22) = (   6.5172723   5.9480513  17.2191950  )
        23           O1  tau(  23) = (   1.3043587   1.4918075   6.0039043  )
        24           O1  tau(  24) = (   5.2767064   1.4903225   6.0039473  )
        25           Ti1 tau(  25) = (   0.0000382   5.9609847   6.0000000  )
        26           Ti1 tau(  26) = (   3.2902200   4.4714249   6.0002472  )
        27           O1  tau(  27) = (   0.0002396   2.9813036   7.9858123  )
        28           O1  tau(  28) = (   3.2902150   2.9813002   7.3038282  )
        29           O1  tau(  29) = (   4.5938453   4.4726049   9.2879030  )
        30           O1  tau(  30) = (   1.9864658   4.4711199   9.2879459  )
        31           Ti1 tau(  31) = (   3.2891106   5.8743827   9.1763621  )
        32           Ti1 tau(  32) = (   0.0006254   4.4649316   9.2693709  )
        33           O1  tau(  33) = (   3.2945946   2.9940555  11.3077331  )
        34           O1  tau(  34) = (   0.0092240   2.9805883  10.6323155  )
        35           O1  tau(  35) = (   1.2876619   4.4781899  12.6403949  )
        36           O1  tau(  36) = (   5.3010724   4.4646845  12.6541769  )
        37           Ti1 tau(  37) = (   0.0424196   5.9023569  12.5123361  )
        38           Ti1 tau(  38) = (   3.3119368   4.3729351  12.4217702  )
        39           O1  tau(  39) = (   0.0401333   2.9740317  14.7512036  )
        40           O1  tau(  40) = (   3.2576645   3.0028392  13.8982547  )
        41           O1  tau(  41) = (   4.5666544   4.4234537  16.0705803  )
        42           O1  tau(  42) = (   2.0215446   4.4756893  16.1430302  )
        43           Ti1 tau(  43) = (   3.2259990   0.0392177  16.2341362  )
        44           Ti1 tau(  44) = (   6.5723990   4.6710500  15.9980081  )
        45           O1  tau(  45) = (   3.2900926   2.9813045   4.7018136  )
        46           O1  tau(  46) = (   1.3039711   4.4726057   6.0039043  )
        47           O1  tau(  47) = (   5.2763189   4.4711207   6.0039473  )
        48           N1  tau(  48) = (   0.9334729   2.5913682  18.4753943  )
        49           N1  tau(  49) = (   6.5156687   2.9055835  17.6419879  )
        50           C1  tau(  50) = (   1.0224037   2.6952286  19.7617917  )
        51           H1  tau(  51) = (   1.9166829   2.3177709  20.2270220  )
        52           H1  tau(  52) = (   0.2162702   3.1370440  20.3160263  )
        53           H1  tau(  53) = (   1.6995924   2.1399843  17.9426691  )
        54           H1  tau(  54) = (   5.6785098   3.1284051  18.1783837  )
        55           O1  tau(  55) = (   3.5318048   0.0910060  18.0897867  )
        56           H1  tau(  56) = (   4.4897960   0.0680733  18.2655997  )

     number of k points=    10  Fermi-Dirac smearing, width (Ry)=  0.0073
                       cart. coord. in units 2pi/alat
        k(    1) = (   0.0000000   0.0000000   0.0000000), wk =   0.1250000
        k(    2) = (   0.0000000   0.0419351   0.0000000), wk =   0.2500000
        k(    3) = (   0.0000000  -0.0838702   0.0000000), wk =   0.1250000
        k(    4) = (   0.0379955   0.0000049   0.0000000), wk =   0.2500000
        k(    5) = (   0.0379955   0.0419400   0.0000000), wk =   0.2500000
        k(    6) = (   0.0379955  -0.0838652   0.0000000), wk =   0.2500000
        k(    7) = (   0.0379955  -0.0419301   0.0000000), wk =   0.2500000
        k(    8) = (  -0.0759910  -0.0000099   0.0000000), wk =   0.1250000
        k(    9) = (  -0.0759910   0.0419252   0.0000000), wk =   0.2500000
        k(   10) = (  -0.0759910  -0.0838800   0.0000000), wk =   0.1250000

     Dense  grid:   566857 G-vectors     FFT dimensions: (  72,  64, 270)

     Smooth grid:   143421 G-vectors     FFT dimensions: (  45,  40, 180)

     Estimated max dynamical RAM per process >     457.66 MB

     Estimated total dynamical RAM >       3.58 GB
     Cannot read rho : file not found

     Initial potential from superposition of free atoms

     starting charge  386.99914, renormalised to  403.00000

     negative rho (up, down):  1.428E-02 0.000E+00


     %%%%%%%%%%%%%%%%%%%%%%%%%%%%%%%%%%%%%%%%%%%%%%%%%%%%%%%%%%%%%%%%%%%%%%%%
     %                                                                      %
     % You are using vdW-DF, which was implemented by the Thonhauser group. %
     % Please cite the following two papers that made this development      %
     % possible and the two reviews that describe the various versions:     %
     %                                                                      %
     %   T. Thonhauser et al., PRL 115, 136402 (2015).                      %
     %   T. Thonhauser et al., PRB 76, 125112 (2007).                       %
     %   K. Berland et al., Rep. Prog. Phys. 78, 066501 (2015).             %
     %   D.C. Langreth et al., J. Phys.: Condens. Matter 21, 084203 (2009). %
     %                                                                      %
     %                                                                      %
     % If you are calculating the stress with vdW-DF, please also cite:     %
     %                                                                      %
     %   R. Sabatini et al., J. Phys.: Condens. Matter 24, 424209 (2012).   %
     %                                                                      %
     %%%%%%%%%%%%%%%%%%%%%%%%%%%%%%%%%%%%%%%%%%%%%%%%%%%%%%%%%%%%%%%%%%%%%%%%


 
     Adding external electric field

     Computed dipole along edir(3) : 
        Dipole              -12.9675 Ry au,        -32.9602 Debye
        Dipole field         -0.0245 Ry au, 
 
        Potential amp.        2.2685 Ry
        Total length         46.3494 bohr
 
     Starting wfcs are  305 atomic wfcs
  @ DRIVER MODE: Message from server: STATUS
  @ DRIVER MODE: Message from server: POSDATA
  @ DRIVER MODE: Reading and sharing cell 
  @ DRIVER MODE: Reading and sharing positions 
  @ DRIVER MODE: Received positions 

     total cpu time spent up to now is       15.3 secs

     Self-consistent Calculation

     iteration #  1     ecut=    29.40 Ry     beta= 0.05
     Davidson diagonalization with overlap
     c_bands:  4 eigenvalues not converged
     c_bands:  4 eigenvalues not converged
     c_bands:  3 eigenvalues not converged
     c_bands:  1 eigenvalues not converged
     c_bands:  3 eigenvalues not converged
     c_bands:  2 eigenvalues not converged
     ethr =  1.00E-05,  avg # of iterations = 25.6

     negative rho (up, down):  8.332E-03 0.000E+00
 
     Adding external electric field

     Computed dipole along edir(3) : 
        Dipole               53.9585 Ry au,        137.1488 Debye
        Dipole field          0.1018 Ry au, 
 
        Potential amp.       -9.4392 Ry
        Total length         46.3494 bohr
 

     total cpu time spent up to now is       78.4 secs

     total energy              =   -2352.63693310 Ry
     estimated scf accuracy    <    7059.98989679 Ry

     iteration #  2     ecut=    29.40 Ry     beta= 0.05
     Davidson diagonalization with overlap
     ethr =  1.00E-02,  avg # of iterations = 22.7

     negative rho (up, down):  4.298E-04 0.000E+00
 
     Adding external electric field

     Computed dipole along edir(3) : 
        Dipole               -0.6168 Ry au,         -1.5677 Debye
        Dipole field         -0.0012 Ry au, 
 
        Potential amp.        0.1079 Ry
        Total length         46.3494 bohr
 

     total cpu time spent up to now is      185.0 secs

     total energy              =   -2468.06642703 Ry
     estimated scf accuracy    <   72333.33723917 Ry

     iteration #  3     ecut=    29.40 Ry     beta= 0.05
     Davidson diagonalization with overlap
     ethr =  1.00E-02,  avg # of iterations = 16.5

     negative rho (up, down):  4.835E-04 0.000E+00
 
     Adding external electric field

     Computed dipole along edir(3) : 
        Dipole               -3.7282 Ry au,         -9.4762 Debye
        Dipole field         -0.0070 Ry au, 
 
        Potential amp.        0.6522 Ry
        Total length         46.3494 bohr
 

     total cpu time spent up to now is      251.2 secs

     total energy              =   -2959.71817011 Ry
     estimated scf accuracy    <    6175.04021772 Ry

     iteration #  4     ecut=    29.40 Ry     beta= 0.05
     Davidson diagonalization with overlap
     ethr =  1.00E-02,  avg # of iterations = 12.3

     negative rho (up, down):  5.003E-04 0.000E+00
 
     Adding external electric field

     Computed dipole along edir(3) : 
        Dipole               -5.1622 Ry au,        -13.1209 Debye
        Dipole field         -0.0097 Ry au, 
 
        Potential amp.        0.9030 Ry
        Total length         46.3494 bohr
 

     total cpu time spent up to now is      280.8 secs

     total energy              =   -2966.46327147 Ry
     estimated scf accuracy    <    1828.66526624 Ry

     iteration #  5     ecut=    29.40 Ry     beta= 0.05
     Davidson diagonalization with overlap
     ethr =  1.00E-02,  avg # of iterations =  2.7

     negative rho (up, down):  5.543E-04 0.000E+00
 
     Adding external electric field

     Computed dipole along edir(3) : 
        Dipole               -7.1952 Ry au,        -18.2883 Debye
        Dipole field         -0.0136 Ry au, 
 
        Potential amp.        1.2587 Ry
        Total length         46.3494 bohr
 

     total cpu time spent up to now is      294.9 secs

     total energy              =   -2944.76900158 Ry
     estimated scf accuracy    <    1826.69232317 Ry

     iteration #  6     ecut=    29.40 Ry     beta= 0.05
     Davidson diagonalization with overlap
     ethr =  1.00E-02,  avg # of iterations = 11.3

     negative rho (up, down):  5.536E-04 0.000E+00
 
     Adding external electric field

     Computed dipole along edir(3) : 
        Dipole               -6.2666 Ry au,        -15.9282 Debye
        Dipole field         -0.0118 Ry au, 
 
        Potential amp.        1.0963 Ry
        Total length         46.3494 bohr
 

     total cpu time spent up to now is      326.3 secs

     total energy              =   -2978.46666015 Ry
     estimated scf accuracy    <      24.92044650 Ry

     iteration #  7     ecut=    29.40 Ry     beta= 0.05
     Davidson diagonalization with overlap
     ethr =  6.18E-03,  avg # of iterations =  1.9

     negative rho (up, down):  6.092E-04 0.000E+00
 
     Adding external electric field

     Computed dipole along edir(3) : 
        Dipole               -3.3737 Ry au,         -8.5751 Debye
        Dipole field         -0.0064 Ry au, 
 
        Potential amp.        0.5902 Ry
        Total length         46.3494 bohr
 

     total cpu time spent up to now is      340.4 secs

     total energy              =   -2975.24353570 Ry
     estimated scf accuracy    <      19.32889205 Ry

     iteration #  8     ecut=    29.40 Ry     beta= 0.05
     Davidson diagonalization with overlap
     ethr =  4.80E-03,  avg # of iterations =  4.4

     negative rho (up, down):  6.106E-04 0.000E+00
 
     Adding external electric field

     Computed dipole along edir(3) : 
        Dipole               -3.3923 Ry au,         -8.6224 Debye
        Dipole field         -0.0064 Ry au, 
 
        Potential amp.        0.5934 Ry
        Total length         46.3494 bohr
 

     total cpu time spent up to now is      355.6 secs

     total energy              =   -2976.23088555 Ry
     estimated scf accuracy    <     114.09666678 Ry

     iteration #  9     ecut=    29.40 Ry     beta= 0.05
     Davidson diagonalization with overlap
     ethr =  4.80E-03,  avg # of iterations =  1.5

     negative rho (up, down):  6.575E-04 0.000E+00
 
     Adding external electric field

     Computed dipole along edir(3) : 
        Dipole               -2.7493 Ry au,         -6.9881 Debye
        Dipole field         -0.0052 Ry au, 
 
        Potential amp.        0.4810 Ry
        Total length         46.3494 bohr
 

     total cpu time spent up to now is      369.1 secs

     total energy              =   -2976.10549440 Ry
     estimated scf accuracy    <     100.11877004 Ry

     iteration # 10     ecut=    29.40 Ry     beta= 0.05
     Davidson diagonalization with overlap
     ethr =  4.80E-03,  avg # of iterations =  2.9

     negative rho (up, down):  9.066E-04 0.000E+00
 
     Adding external electric field

     Computed dipole along edir(3) : 
        Dipole               -3.0694 Ry au,         -7.8017 Debye
        Dipole field         -0.0058 Ry au, 
 
        Potential amp.        0.5369 Ry
        Total length         46.3494 bohr
 

     total cpu time spent up to now is      383.3 secs

     total energy              =   -2970.38202074 Ry
     estimated scf accuracy    <     212.67009821 Ry

     iteration # 11     ecut=    29.40 Ry     beta= 0.05
     Davidson diagonalization with overlap
     ethr =  4.80E-03,  avg # of iterations =  2.1

     negative rho (up, down):  9.846E-04 0.000E+00
 
     Adding external electric field

     Computed dipole along edir(3) : 
        Dipole               -2.5714 Ry au,         -6.5358 Debye
        Dipole field         -0.0049 Ry au, 
 
        Potential amp.        0.4498 Ry
        Total length         46.3494 bohr
 

     total cpu time spent up to now is      398.9 secs

     total energy              =   -2974.51695682 Ry
     estimated scf accuracy    <      10.89926498 Ry

     iteration # 12     ecut=    29.40 Ry     beta= 0.05
     Davidson diagonalization with overlap
     ethr =  2.70E-03,  avg # of iterations =  1.5

     negative rho (up, down):  1.003E-03 0.000E+00
 
     Adding external electric field

     Computed dipole along edir(3) : 
        Dipole               -1.8842 Ry au,         -4.7891 Debye
        Dipole field         -0.0036 Ry au, 
 
        Potential amp.        0.3296 Ry
        Total length         46.3494 bohr
 

     total cpu time spent up to now is      412.5 secs

     total energy              =   -2974.47725116 Ry
     estimated scf accuracy    <       5.80398564 Ry

     iteration # 13     ecut=    29.40 Ry     beta= 0.05
     Davidson diagonalization with overlap
     ethr =  1.44E-03,  avg # of iterations =  2.9

     negative rho (up, down):  9.950E-04 0.000E+00
 
     Adding external electric field

     Computed dipole along edir(3) : 
        Dipole               -0.3737 Ry au,         -0.9498 Debye
        Dipole field         -0.0007 Ry au, 
 
        Potential amp.        0.0654 Ry
        Total length         46.3494 bohr
 

     total cpu time spent up to now is      427.0 secs

     total energy              =   -2973.61216646 Ry
     estimated scf accuracy    <       5.52696190 Ry

     iteration # 14     ecut=    29.40 Ry     beta= 0.05
     Davidson diagonalization with overlap
     ethr =  1.37E-03,  avg # of iterations =  9.0

     negative rho (up, down):  9.877E-04 0.000E+00
 
     Adding external electric field

     Computed dipole along edir(3) : 
        Dipole               -0.5151 Ry au,         -1.3093 Debye
        Dipole field         -0.0010 Ry au, 
 
        Potential amp.        0.0901 Ry
        Total length         46.3494 bohr
 

     total cpu time spent up to now is      445.2 secs

     total energy              =   -2973.95234922 Ry
     estimated scf accuracy    <      75.70561807 Ry

     iteration # 15     ecut=    29.40 Ry     beta= 0.05
     Davidson diagonalization with overlap
     ethr =  1.37E-03,  avg # of iterations =  5.5

     negative rho (up, down):  1.059E-03 0.000E+00
 
     Adding external electric field

     Computed dipole along edir(3) : 
        Dipole               -1.4635 Ry au,         -3.7200 Debye
        Dipole field         -0.0028 Ry au, 
 
        Potential amp.        0.2560 Ry
        Total length         46.3494 bohr
 

     total cpu time spent up to now is      461.0 secs

     total energy              =   -2973.53568681 Ry
     estimated scf accuracy    <       7.05546982 Ry

     iteration # 16     ecut=    29.40 Ry     beta= 0.05
     Davidson diagonalization with overlap
     ethr =  1.37E-03,  avg # of iterations =  7.9

     negative rho (up, down):  1.179E-03 0.000E+00
 
     Adding external electric field

     Computed dipole along edir(3) : 
        Dipole               -1.7086 Ry au,         -4.3429 Debye
        Dipole field         -0.0032 Ry au, 
 
        Potential amp.        0.2989 Ry
        Total length         46.3494 bohr
 

     total cpu time spent up to now is      478.2 secs

     total energy              =   -2974.04426869 Ry
     estimated scf accuracy    <       0.82627395 Ry

     iteration # 17     ecut=    29.40 Ry     beta= 0.05
     Davidson diagonalization with overlap
     c_bands:  1 eigenvalues not converged
     c_bands:  1 eigenvalues not converged
     ethr =  2.05E-04,  avg # of iterations = 16.8

     negative rho (up, down):  1.198E-03 0.000E+00
 
     Adding external electric field

     Computed dipole along edir(3) : 
        Dipole               -1.4926 Ry au,         -3.7939 Debye
        Dipole field         -0.0028 Ry au, 
 
        Potential amp.        0.2611 Ry
        Total length         46.3494 bohr
 

     total cpu time spent up to now is      505.5 secs

     total energy              =   -2974.17424746 Ry
     estimated scf accuracy    <       2.18646699 Ry

     iteration # 18     ecut=    29.40 Ry     beta= 0.05
     Davidson diagonalization with overlap
     ethr =  2.05E-04,  avg # of iterations =  2.2

     negative rho (up, down):  1.548E-03 0.000E+00
 
     Adding external electric field

     Computed dipole along edir(3) : 
        Dipole                0.0148 Ry au,          0.0376 Debye
        Dipole field          0.0000 Ry au, 
 
        Potential amp.       -0.0026 Ry
        Total length         46.3494 bohr
 

     total cpu time spent up to now is      519.6 secs

     total energy              =   -2973.84040262 Ry
     estimated scf accuracy    <       1.70946279 Ry

     iteration # 19     ecut=    29.40 Ry     beta= 0.05
     Davidson diagonalization with overlap
     c_bands:  3 eigenvalues not converged
     c_bands:  1 eigenvalues not converged
     c_bands:  1 eigenvalues not converged
     c_bands:  1 eigenvalues not converged
     ethr =  2.05E-04,  avg # of iterations = 17.5

     negative rho (up, down):  1.964E-03 0.000E+00
 
     Adding external electric field

     Computed dipole along edir(3) : 
        Dipole               -0.6057 Ry au,         -1.5394 Debye
        Dipole field         -0.0011 Ry au, 
 
        Potential amp.        0.1060 Ry
        Total length         46.3494 bohr
 

     total cpu time spent up to now is      549.7 secs

     total energy              =   -2973.84064520 Ry
     estimated scf accuracy    <       1.01997296 Ry

     iteration # 20     ecut=    29.40 Ry     beta= 0.05
     Davidson diagonalization with overlap
     c_bands:  1 eigenvalues not converged
     ethr =  2.05E-04,  avg # of iterations = 12.9

     negative rho (up, down):  2.292E-03 0.000E+00
 
     Adding external electric field

     Computed dipole along edir(3) : 
        Dipole               -0.6572 Ry au,         -1.6703 Debye
        Dipole field         -0.0012 Ry au, 
 
        Potential amp.        0.1150 Ry
        Total length         46.3494 bohr
 

     total cpu time spent up to now is      577.6 secs

     total energy              =   -2974.21336699 Ry
     estimated scf accuracy    <       1.58251495 Ry

     iteration # 21     ecut=    29.40 Ry     beta= 0.05
     Davidson diagonalization with overlap
     ethr =  2.05E-04,  avg # of iterations =  1.7

     negative rho (up, down):  2.912E-03 0.000E+00
 
     Adding external electric field

     Computed dipole along edir(3) : 
        Dipole               -0.5154 Ry au,         -1.3100 Debye
        Dipole field         -0.0010 Ry au, 
 
        Potential amp.        0.0902 Ry
        Total length         46.3494 bohr
 

     total cpu time spent up to now is      591.1 secs

     total energy              =   -2974.20907271 Ry
     estimated scf accuracy    <       2.00212567 Ry

     iteration # 22     ecut=    29.40 Ry     beta= 0.05
     Davidson diagonalization with overlap
     ethr =  2.05E-04,  avg # of iterations =  4.1

     negative rho (up, down):  3.033E-03 0.000E+00
 
     Adding external electric field

     Computed dipole along edir(3) : 
        Dipole               -0.0621 Ry au,         -0.1577 Debye
        Dipole field         -0.0001 Ry au, 
 
        Potential amp.        0.0109 Ry
        Total length         46.3494 bohr
 

     total cpu time spent up to now is      606.2 secs

     total energy              =   -2974.10008765 Ry
     estimated scf accuracy    <       2.07118629 Ry

     iteration # 23     ecut=    29.40 Ry     beta= 0.05
     Davidson diagonalization with overlap
     ethr =  2.05E-04,  avg # of iterations =  1.8

     negative rho (up, down):  3.726E-03 0.000E+00
 
     Adding external electric field

     Computed dipole along edir(3) : 
        Dipole                0.4967 Ry au,          1.2624 Debye
        Dipole field          0.0009 Ry au, 
 
        Potential amp.       -0.0869 Ry
        Total length         46.3494 bohr
 

     total cpu time spent up to now is      620.6 secs

     total energy              =   -2974.01136088 Ry
     estimated scf accuracy    <       1.43782794 Ry

     iteration # 24     ecut=    29.40 Ry     beta= 0.05
     Davidson diagonalization with overlap
     ethr =  2.05E-04,  avg # of iterations =  7.0

     negative rho (up, down):  2.616E-03 0.000E+00
 
     Adding external electric field

     Computed dipole along edir(3) : 
        Dipole                0.5541 Ry au,          1.4083 Debye
        Dipole field          0.0010 Ry au, 
 
        Potential amp.       -0.0969 Ry
        Total length         46.3494 bohr
 

     total cpu time spent up to now is      637.3 secs

     total energy              =   -2973.98072890 Ry
     estimated scf accuracy    <       0.76368977 Ry

     iteration # 25     ecut=    29.40 Ry     beta= 0.05
     Davidson diagonalization with overlap
     c_bands:  2 eigenvalues not converged
     c_bands:  1 eigenvalues not converged
     c_bands:  2 eigenvalues not converged
     ethr =  1.90E-04,  avg # of iterations = 12.2

     negative rho (up, down):  3.611E-03 0.000E+00
 
     Adding external electric field

     Computed dipole along edir(3) : 
        Dipole                1.4281 Ry au,          3.6298 Debye
        Dipole field          0.0027 Ry au, 
 
        Potential amp.       -0.2498 Ry
        Total length         46.3494 bohr
 

     total cpu time spent up to now is      655.8 secs

     total energy              =   -2973.94747308 Ry
     estimated scf accuracy    <       0.37516064 Ry

     iteration # 26     ecut=    29.40 Ry     beta= 0.05
     Davidson diagonalization with overlap
     c_bands:  5 eigenvalues not converged
     c_bands:  1 eigenvalues not converged
     c_bands:  3 eigenvalues not converged
     c_bands:  5 eigenvalues not converged
     c_bands:  5 eigenvalues not converged
     ethr =  9.31E-05,  avg # of iterations = 27.6

     negative rho (up, down):  3.523E-03 0.000E+00
 
     Adding external electric field

     Computed dipole along edir(3) : 
        Dipole                1.0185 Ry au,          2.5887 Debye
        Dipole field          0.0019 Ry au, 
 
        Potential amp.       -0.1782 Ry
        Total length         46.3494 bohr
 

     total cpu time spent up to now is      695.4 secs

     total energy              =   -2973.97869074 Ry
     estimated scf accuracy    <       2.45551251 Ry

     iteration # 27     ecut=    29.40 Ry     beta= 0.05
     Davidson diagonalization with overlap
     c_bands:  2 eigenvalues not converged
     c_bands:  1 eigenvalues not converged
     ethr =  9.31E-05,  avg # of iterations = 11.0

     negative rho (up, down):  3.501E-03 0.000E+00
 
     Adding external electric field

     Computed dipole along edir(3) : 
        Dipole                1.0306 Ry au,          2.6196 Debye
        Dipole field          0.0019 Ry au, 
 
        Potential amp.       -0.1803 Ry
        Total length         46.3494 bohr
 

     total cpu time spent up to now is      713.4 secs

     total energy              =   -2974.01692469 Ry
     estimated scf accuracy    <       0.94846415 Ry

     iteration # 28     ecut=    29.40 Ry     beta= 0.05
     Davidson diagonalization with overlap
     ethr =  9.31E-05,  avg # of iterations =  1.7

     negative rho (up, down):  4.360E-03 0.000E+00
 
     Adding external electric field

     Computed dipole along edir(3) : 
        Dipole                0.9653 Ry au,          2.4536 Debye
        Dipole field          0.0018 Ry au, 
 
        Potential amp.       -0.1689 Ry
        Total length         46.3494 bohr
 

     total cpu time spent up to now is      726.9 secs

     total energy              =   -2973.94940094 Ry
     estimated scf accuracy    <       0.98334183 Ry

     iteration # 29     ecut=    29.40 Ry     beta= 0.05
     Davidson diagonalization with overlap
     c_bands:  4 eigenvalues not converged
     c_bands:  2 eigenvalues not converged
     c_bands:  1 eigenvalues not converged
     c_bands:  5 eigenvalues not converged
     c_bands:  3 eigenvalues not converged
     c_bands:  1 eigenvalues not converged
     c_bands:  3 eigenvalues not converged
     c_bands:  5 eigenvalues not converged
     ethr =  9.31E-05,  avg # of iterations = 24.5

     negative rho (up, down):  4.454E-03 0.000E+00
 
     Adding external electric field

     Computed dipole along edir(3) : 
        Dipole                0.9723 Ry au,          2.4713 Debye
        Dipole field          0.0018 Ry au, 
 
        Potential amp.       -0.1701 Ry
        Total length         46.3494 bohr
 

     total cpu time spent up to now is      758.4 secs

     total energy              =   -2974.01224053 Ry
     estimated scf accuracy    <       0.21388624 Ry

     iteration # 30     ecut=    29.40 Ry     beta= 0.05
     Davidson diagonalization with overlap
     c_bands:  1 eigenvalues not converged
     c_bands:  2 eigenvalues not converged
     ethr =  5.31E-05,  avg # of iterations = 10.3

     negative rho (up, down):  5.190E-03 0.000E+00
 
     Adding external electric field

     Computed dipole along edir(3) : 
        Dipole                1.0334 Ry au,          2.6267 Debye
        Dipole field          0.0020 Ry au, 
 
        Potential amp.       -0.1808 Ry
        Total length         46.3494 bohr
 

     total cpu time spent up to now is      775.8 secs

     total energy              =   -2973.98222965 Ry
     estimated scf accuracy    <       0.20086961 Ry

     iteration # 31     ecut=    29.40 Ry     beta= 0.05
     Davidson diagonalization with overlap
     c_bands:  2 eigenvalues not converged
     c_bands:  1 eigenvalues not converged
     ethr =  4.98E-05,  avg # of iterations = 15.9

     negative rho (up, down):  7.872E-03 0.000E+00
 
     Adding external electric field

     Computed dipole along edir(3) : 
        Dipole                1.3395 Ry au,          3.4047 Debye
        Dipole field          0.0025 Ry au, 
 
        Potential amp.       -0.2343 Ry
        Total length         46.3494 bohr
 

     total cpu time spent up to now is      798.0 secs

     total energy              =   -2973.98936253 Ry
     estimated scf accuracy    <       0.10462814 Ry

     iteration # 32     ecut=    29.40 Ry     beta= 0.05
     Davidson diagonalization with overlap
     c_bands:  3 eigenvalues not converged
     c_bands:  5 eigenvalues not converged
     c_bands:  4 eigenvalues not converged
     c_bands:  4 eigenvalues not converged
     c_bands:  1 eigenvalues not converged
     c_bands:  3 eigenvalues not converged
     c_bands:  1 eigenvalues not converged
     c_bands:  2 eigenvalues not converged
     c_bands:  2 eigenvalues not converged
     ethr =  2.60E-05,  avg # of iterations = 21.9

     negative rho (up, down):  6.511E-03 0.000E+00
 
     Adding external electric field

     Computed dipole along edir(3) : 
        Dipole                1.2746 Ry au,          3.2396 Debye
        Dipole field          0.0024 Ry au, 
 
        Potential amp.       -0.2230 Ry
        Total length         46.3494 bohr
 

     total cpu time spent up to now is      825.5 secs

     total energy              =   -2974.00170811 Ry
     estimated scf accuracy    <       0.27451044 Ry

     iteration # 33     ecut=    29.40 Ry     beta= 0.05
     Davidson diagonalization with overlap
     ethr =  2.60E-05,  avg # of iterations =  5.7

     negative rho (up, down):  6.691E-03 0.000E+00
 
     Adding external electric field

     Computed dipole along edir(3) : 
        Dipole                1.2870 Ry au,          3.2712 Debye
        Dipole field          0.0024 Ry au, 
 
        Potential amp.       -0.2251 Ry
        Total length         46.3494 bohr
 

     total cpu time spent up to now is      840.8 secs

     total energy              =   -2974.00327693 Ry
     estimated scf accuracy    <       0.27562895 Ry

     iteration # 34     ecut=    29.40 Ry     beta= 0.05
     Davidson diagonalization with overlap
     ethr =  2.60E-05,  avg # of iterations =  2.1

     negative rho (up, down):  6.701E-03 0.000E+00
 
     Adding external electric field

     Computed dipole along edir(3) : 
        Dipole                1.2852 Ry au,          3.2668 Debye
        Dipole field          0.0024 Ry au, 
 
        Potential amp.       -0.2248 Ry
        Total length         46.3494 bohr
 

     total cpu time spent up to now is      854.1 secs

     total energy              =   -2974.00391797 Ry
     estimated scf accuracy    <       0.29099889 Ry

     iteration # 35     ecut=    29.40 Ry     beta= 0.05
     Davidson diagonalization with overlap
     ethr =  2.60E-05,  avg # of iterations =  1.5

     negative rho (up, down):  5.491E-03 0.000E+00
 
     Adding external electric field

     Computed dipole along edir(3) : 
        Dipole                1.0493 Ry au,          2.6671 Debye
        Dipole field          0.0020 Ry au, 
 
        Potential amp.       -0.1836 Ry
        Total length         46.3494 bohr
 

     total cpu time spent up to now is      867.3 secs

     total energy              =   -2973.98618752 Ry
     estimated scf accuracy    <       0.30403913 Ry

     iteration # 36     ecut=    29.40 Ry     beta= 0.05
     Davidson diagonalization with overlap
     c_bands:  5 eigenvalues not converged
     c_bands:  4 eigenvalues not converged
     c_bands:  3 eigenvalues not converged
     c_bands:  1 eigenvalues not converged
     c_bands:  1 eigenvalues not converged
     c_bands:  1 eigenvalues not converged
     ethr =  2.60E-05,  avg # of iterations = 18.9

     negative rho (up, down):  6.018E-03 0.000E+00
 
     Adding external electric field

     Computed dipole along edir(3) : 
        Dipole                1.1797 Ry au,          2.9984 Debye
        Dipole field          0.0022 Ry au, 
 
        Potential amp.       -0.2064 Ry
        Total length         46.3494 bohr
 

     total cpu time spent up to now is      891.6 secs

     total energy              =   -2973.99437405 Ry
     estimated scf accuracy    <       0.10919377 Ry

     iteration # 37     ecut=    29.40 Ry     beta= 0.05
     Davidson diagonalization with overlap
     ethr =  2.60E-05,  avg # of iterations =  8.2

     negative rho (up, down):  7.012E-03 0.000E+00
 
     Adding external electric field

     Computed dipole along edir(3) : 
        Dipole                1.2714 Ry au,          3.2317 Debye
        Dipole field          0.0024 Ry au, 
 
        Potential amp.       -0.2224 Ry
        Total length         46.3494 bohr
 

     total cpu time spent up to now is      908.8 secs

     total energy              =   -2973.99074927 Ry
     estimated scf accuracy    <       0.07696288 Ry

     iteration # 38     ecut=    29.40 Ry     beta= 0.05
     Davidson diagonalization with overlap
     c_bands:  3 eigenvalues not converged
     c_bands:  3 eigenvalues not converged
     c_bands:  3 eigenvalues not converged
     c_bands:  3 eigenvalues not converged
     c_bands:  5 eigenvalues not converged
     c_bands:  2 eigenvalues not converged
     ethr =  1.91E-05,  avg # of iterations = 17.9

     negative rho (up, down):  8.311E-03 0.000E+00
 
     Adding external electric field

     Computed dipole along edir(3) : 
        Dipole                1.2535 Ry au,          3.1861 Debye
        Dipole field          0.0024 Ry au, 
 
        Potential amp.       -0.2193 Ry
        Total length         46.3494 bohr
 

     total cpu time spent up to now is      931.5 secs

     total energy              =   -2973.99445136 Ry
     estimated scf accuracy    <       0.08078417 Ry

     iteration # 39     ecut=    29.40 Ry     beta= 0.05
     Davidson diagonalization with overlap
     c_bands:  3 eigenvalues not converged
     c_bands:  1 eigenvalues not converged
     ethr =  1.91E-05,  avg # of iterations = 10.8

     negative rho (up, down):  8.515E-03 0.000E+00
 
     Adding external electric field

     Computed dipole along edir(3) : 
        Dipole                1.2679 Ry au,          3.2226 Debye
        Dipole field          0.0024 Ry au, 
 
        Potential amp.       -0.2218 Ry
        Total length         46.3494 bohr
 

     total cpu time spent up to now is      949.0 secs

     total energy              =   -2973.99734089 Ry
     estimated scf accuracy    <       0.01686553 Ry

     iteration # 40     ecut=    29.40 Ry     beta= 0.05
     Davidson diagonalization with overlap
     c_bands:  2 eigenvalues not converged
     c_bands:  1 eigenvalues not converged
     c_bands:  1 eigenvalues not converged
     ethr =  4.18E-06,  avg # of iterations = 16.1

     negative rho (up, down):  9.987E-03 0.000E+00
 
     Adding external electric field

     Computed dipole along edir(3) : 
        Dipole                1.3103 Ry au,          3.3304 Debye
        Dipole field          0.0025 Ry au, 
 
        Potential amp.       -0.2292 Ry
        Total length         46.3494 bohr
 

     total cpu time spent up to now is      970.5 secs

     total energy              =   -2973.99722386 Ry
     estimated scf accuracy    <       0.00540062 Ry

     iteration # 41     ecut=    29.40 Ry     beta= 0.05
     Davidson diagonalization with overlap
     c_bands:  1 eigenvalues not converged
     c_bands:  1 eigenvalues not converged
     c_bands:  3 eigenvalues not converged
     c_bands:  2 eigenvalues not converged
     c_bands:  2 eigenvalues not converged
     c_bands:  1 eigenvalues not converged
     c_bands:  1 eigenvalues not converged
     ethr =  1.34E-06,  avg # of iterations = 19.3

     negative rho (up, down):  1.321E-02 0.000E+00
 
     Adding external electric field

     Computed dipole along edir(3) : 
        Dipole                1.3363 Ry au,          3.3966 Debye
        Dipole field          0.0025 Ry au, 
 
        Potential amp.       -0.2338 Ry
        Total length         46.3494 bohr
 

     total cpu time spent up to now is      995.1 secs

     total energy              =   -2973.99742018 Ry
     estimated scf accuracy    <       0.01233707 Ry

     iteration # 42     ecut=    29.40 Ry     beta= 0.05
     Davidson diagonalization with overlap
     c_bands:  2 eigenvalues not converged
     c_bands:  1 eigenvalues not converged
     c_bands:  2 eigenvalues not converged
     c_bands:  2 eigenvalues not converged
     c_bands:  1 eigenvalues not converged
     c_bands:  1 eigenvalues not converged
     c_bands:  1 eigenvalues not converged
     ethr =  1.34E-06,  avg # of iterations = 18.6

     negative rho (up, down):  1.365E-02 0.000E+00
 
     Adding external electric field

     Computed dipole along edir(3) : 
        Dipole                1.3501 Ry au,          3.4317 Debye
        Dipole field          0.0025 Ry au, 
 
        Potential amp.       -0.2362 Ry
        Total length         46.3494 bohr
 

     total cpu time spent up to now is     1017.7 secs

     total energy              =   -2973.99812976 Ry
     estimated scf accuracy    <       0.01040264 Ry

     iteration # 43     ecut=    29.40 Ry     beta= 0.05
     Davidson diagonalization with overlap
     ethr =  1.34E-06,  avg # of iterations =  2.6

     negative rho (up, down):  1.385E-02 0.000E+00
 
     Adding external electric field

     Computed dipole along edir(3) : 
        Dipole                1.3465 Ry au,          3.4225 Debye
        Dipole field          0.0025 Ry au, 
 
        Potential amp.       -0.2356 Ry
        Total length         46.3494 bohr
 

     total cpu time spent up to now is     1031.6 secs

     total energy              =   -2973.99807474 Ry
     estimated scf accuracy    <       0.00319766 Ry

     iteration # 44     ecut=    29.40 Ry     beta= 0.05
     Davidson diagonalization with overlap
     ethr =  7.93E-07,  avg # of iterations = 11.4

     negative rho (up, down):  1.364E-02 0.000E+00
 
     Adding external electric field

     Computed dipole along edir(3) : 
        Dipole                1.3349 Ry au,          3.3929 Debye
        Dipole field          0.0025 Ry au, 
 
        Potential amp.       -0.2335 Ry
        Total length         46.3494 bohr
 

     total cpu time spent up to now is     1050.1 secs

     total energy              =   -2973.99805378 Ry
     estimated scf accuracy    <       0.00131697 Ry

     iteration # 45     ecut=    29.40 Ry     beta= 0.05
     Davidson diagonalization with overlap
     ethr =  3.27E-07,  avg # of iterations = 10.0

     negative rho (up, down):  1.427E-02 0.000E+00
 
     Adding external electric field

     Computed dipole along edir(3) : 
        Dipole                1.3441 Ry au,          3.4163 Debye
        Dipole field          0.0025 Ry au, 
 
        Potential amp.       -0.2351 Ry
        Total length         46.3494 bohr
 

     total cpu time spent up to now is     1068.3 secs

     total energy              =   -2973.99811960 Ry
     estimated scf accuracy    <       0.00079069 Ry

     iteration # 46     ecut=    29.40 Ry     beta= 0.05
     Davidson diagonalization with overlap
     c_bands:  1 eigenvalues not converged
     ethr =  1.96E-07,  avg # of iterations = 14.8

     negative rho (up, down):  1.486E-02 0.000E+00
 
     Adding external electric field

     Computed dipole along edir(3) : 
        Dipole                1.3460 Ry au,          3.4213 Debye
        Dipole field          0.0025 Ry au, 
 
        Potential amp.       -0.2355 Ry
        Total length         46.3494 bohr
 

     total cpu time spent up to now is     1088.3 secs

     total energy              =   -2973.99819936 Ry
     estimated scf accuracy    <       0.00060635 Ry

     iteration # 47     ecut=    29.40 Ry     beta= 0.05
     Davidson diagonalization with overlap
     ethr =  1.50E-07,  avg # of iterations =  9.9

     negative rho (up, down):  1.489E-02 0.000E+00
 
     Adding external electric field

     Computed dipole along edir(3) : 
        Dipole                1.3484 Ry au,          3.4272 Debye
        Dipole field          0.0025 Ry au, 
 
        Potential amp.       -0.2359 Ry
        Total length         46.3494 bohr
 

     total cpu time spent up to now is     1104.9 secs

     total energy              =   -2973.99823127 Ry
     estimated scf accuracy    <       0.00008574 Ry

     iteration # 48     ecut=    29.40 Ry     beta= 0.05
     Davidson diagonalization with overlap
     ethr =  2.13E-08,  avg # of iterations = 12.8

     negative rho (up, down):  1.503E-02 0.000E+00
 
     Adding external electric field

     Computed dipole along edir(3) : 
        Dipole                1.3517 Ry au,          3.4357 Debye
        Dipole field          0.0026 Ry au, 
 
        Potential amp.       -0.2365 Ry
        Total length         46.3494 bohr
 

     total cpu time spent up to now is     1129.0 secs

     total energy              =   -2973.99826349 Ry
     estimated scf accuracy    <       0.00006967 Ry

     iteration # 49     ecut=    29.40 Ry     beta= 0.05
     Davidson diagonalization with overlap
     ethr =  1.73E-08,  avg # of iterations =  4.2

     negative rho (up, down):  1.506E-02 0.000E+00
 
     Adding external electric field

     Computed dipole along edir(3) : 
        Dipole                1.3521 Ry au,          3.4366 Debye
        Dipole field          0.0026 Ry au, 
 
        Potential amp.       -0.2365 Ry
        Total length         46.3494 bohr
 

     total cpu time spent up to now is     1143.8 secs

     total energy              =   -2973.99827369 Ry
     estimated scf accuracy    <       0.00007042 Ry

     iteration # 50     ecut=    29.40 Ry     beta= 0.05
     Davidson diagonalization with overlap
     ethr =  1.73E-08,  avg # of iterations = 10.7

     negative rho (up, down):  1.510E-02 0.000E+00
 
     Adding external electric field

     Computed dipole along edir(3) : 
        Dipole                1.3509 Ry au,          3.4338 Debye
        Dipole field          0.0025 Ry au, 
 
        Potential amp.       -0.2363 Ry
        Total length         46.3494 bohr
 

     total cpu time spent up to now is     1161.8 secs

     total energy              =   -2973.99829042 Ry
     estimated scf accuracy    <       0.00001997 Ry

     iteration # 51     ecut=    29.40 Ry     beta= 0.05
     Davidson diagonalization with overlap
     ethr =  4.96E-09,  avg # of iterations = 12.1

     negative rho (up, down):  1.505E-02 0.000E+00
 
     Adding external electric field

     Computed dipole along edir(3) : 
        Dipole                1.3505 Ry au,          3.4325 Debye
        Dipole field          0.0025 Ry au, 
 
        Potential amp.       -0.2362 Ry
        Total length         46.3494 bohr
 

     total cpu time spent up to now is     1186.5 secs

     total energy              =   -2973.99830238 Ry
     estimated scf accuracy    <       0.00002265 Ry

     iteration # 52     ecut=    29.40 Ry     beta= 0.05
     Davidson diagonalization with overlap
     ethr =  4.96E-09,  avg # of iterations =  9.5

     negative rho (up, down):  1.493E-02 0.000E+00
 
     Adding external electric field

     Computed dipole along edir(3) : 
        Dipole                1.3489 Ry au,          3.4284 Debye
        Dipole field          0.0025 Ry au, 
 
        Potential amp.       -0.2360 Ry
        Total length         46.3494 bohr
 

     total cpu time spent up to now is     1203.9 secs

     total energy              =   -2973.99831070 Ry
     estimated scf accuracy    <       0.00000983 Ry

     iteration # 53     ecut=    29.40 Ry     beta= 0.05
     Davidson diagonalization with overlap
     ethr =  2.44E-09,  avg # of iterations = 15.7

     negative rho (up, down):  1.502E-02 0.000E+00
 
     Adding external electric field

     Computed dipole along edir(3) : 
        Dipole                1.3496 Ry au,          3.4303 Debye
        Dipole field          0.0025 Ry au, 
 
        Potential amp.       -0.2361 Ry
        Total length         46.3494 bohr
 

     total cpu time spent up to now is     1232.4 secs

     total energy              =   -2973.99832118 Ry
     estimated scf accuracy    <       0.00001110 Ry

     iteration # 54     ecut=    29.40 Ry     beta= 0.05
     Davidson diagonalization with overlap
     ethr =  2.44E-09,  avg # of iterations = 10.2

     negative rho (up, down):  1.500E-02 0.000E+00
 
     Adding external electric field

     Computed dipole along edir(3) : 
        Dipole                1.3490 Ry au,          3.4289 Debye
        Dipole field          0.0025 Ry au, 
 
        Potential amp.       -0.2360 Ry
        Total length         46.3494 bohr
 

     total cpu time spent up to now is     1252.1 secs

     total energy              =   -2973.99833037 Ry
     estimated scf accuracy    <       0.00000371 Ry

     iteration # 55     ecut=    29.40 Ry     beta= 0.05
     Davidson diagonalization with overlap
     c_bands:  2 eigenvalues not converged
     c_bands:  1 eigenvalues not converged
     c_bands:  1 eigenvalues not converged
     ethr =  9.20E-10,  avg # of iterations = 16.4

     negative rho (up, down):  1.497E-02 0.000E+00
 
     Adding external electric field

     Computed dipole along edir(3) : 
        Dipole                1.3487 Ry au,          3.4281 Debye
        Dipole field          0.0025 Ry au, 
 
        Potential amp.       -0.2359 Ry
        Total length         46.3494 bohr
 

     total cpu time spent up to now is     1285.0 secs

     total energy              =   -2973.99833765 Ry
     estimated scf accuracy    <       0.00001425 Ry

     iteration # 56     ecut=    29.40 Ry     beta= 0.05
     Davidson diagonalization with overlap
     ethr =  9.20E-10,  avg # of iterations =  9.8

     negative rho (up, down):  1.498E-02 0.000E+00
 
     Adding external electric field

     Computed dipole along edir(3) : 
        Dipole                1.3491 Ry au,          3.4291 Debye
        Dipole field          0.0025 Ry au, 
 
        Potential amp.       -0.2360 Ry
        Total length         46.3494 bohr
 

     total cpu time spent up to now is     1308.0 secs

     total energy              =   -2973.99834461 Ry
     estimated scf accuracy    <       0.00000286 Ry

     iteration # 57     ecut=    29.40 Ry     beta= 0.05
     Davidson diagonalization with overlap
     ethr =  7.10E-10,  avg # of iterations =  3.1

     negative rho (up, down):  1.500E-02 0.000E+00
 
     Adding external electric field

     Computed dipole along edir(3) : 
        Dipole                1.3497 Ry au,          3.4305 Debye
        Dipole field          0.0025 Ry au, 
 
        Potential amp.       -0.2361 Ry
        Total length         46.3494 bohr
 

     total cpu time spent up to now is     1322.5 secs

     total energy              =   -2973.99835048 Ry
     estimated scf accuracy    <       0.00000150 Ry

     iteration # 58     ecut=    29.40 Ry     beta= 0.05
     Davidson diagonalization with overlap
     ethr =  3.73E-10,  avg # of iterations = 13.5

     negative rho (up, down):  1.499E-02 0.000E+00
 
     Adding external electric field

     Computed dipole along edir(3) : 
        Dipole                1.3494 Ry au,          3.4299 Debye
        Dipole field          0.0025 Ry au, 
 
        Potential amp.       -0.2361 Ry
        Total length         46.3494 bohr
 

     total cpu time spent up to now is     1348.8 secs

     total energy              =   -2973.99835611 Ry
     estimated scf accuracy    <       0.00000059 Ry

     iteration # 59     ecut=    29.40 Ry     beta= 0.05
     Davidson diagonalization with overlap
     ethr =  1.46E-10,  avg # of iterations =  9.9

     negative rho (up, down):  1.498E-02 0.000E+00
 
     Adding external electric field

     Computed dipole along edir(3) : 
        Dipole                1.3493 Ry au,          3.4297 Debye
        Dipole field          0.0025 Ry au, 
 
        Potential amp.       -0.2360 Ry
        Total length         46.3494 bohr
 

     total cpu time spent up to now is     1366.3 secs

     total energy              =   -2973.99836088 Ry
     estimated scf accuracy    <       0.00000041 Ry

     iteration # 60     ecut=    29.40 Ry     beta= 0.05
     Davidson diagonalization with overlap
     ethr =  1.02E-10,  avg # of iterations = 11.8

     negative rho (up, down):  1.499E-02 0.000E+00
 
     Adding external electric field

     Computed dipole along edir(3) : 
        Dipole                1.3494 Ry au,          3.4299 Debye
        Dipole field          0.0025 Ry au, 
 
        Potential amp.       -0.2361 Ry
        Total length         46.3494 bohr
 

     total cpu time spent up to now is     1387.7 secs

     total energy              =   -2973.99836526 Ry
     estimated scf accuracy    <       0.00000037 Ry

     iteration # 61     ecut=    29.40 Ry     beta= 0.05
     Davidson diagonalization with overlap
     ethr =  9.10E-11,  avg # of iterations =  1.9

     negative rho (up, down):  1.499E-02 0.000E+00
 
     Adding external electric field

     Computed dipole along edir(3) : 
        Dipole                1.3494 Ry au,          3.4298 Debye
        Dipole field          0.0025 Ry au, 
 
        Potential amp.       -0.2361 Ry
        Total length         46.3494 bohr
 

     total cpu time spent up to now is     1401.8 secs

     total energy              =   -2973.99836919 Ry
     estimated scf accuracy    <       0.00000027 Ry

     iteration # 62     ecut=    29.40 Ry     beta= 0.05
     Davidson diagonalization with overlap
     ethr =  6.59E-11,  avg # of iterations = 12.8

     negative rho (up, down):  1.498E-02 0.000E+00
 
     Adding external electric field

     Computed dipole along edir(3) : 
        Dipole                1.3491 Ry au,          3.4291 Debye
        Dipole field          0.0025 Ry au, 
 
        Potential amp.       -0.2360 Ry
        Total length         46.3494 bohr
 

     total cpu time spent up to now is     1421.1 secs

     total energy              =   -2973.99837277 Ry
     estimated scf accuracy    <       0.00000012 Ry

     iteration # 63     ecut=    29.40 Ry     beta= 0.05
     Davidson diagonalization with overlap
     ethr =  2.94E-11,  avg # of iterations =  9.8

     negative rho (up, down):  1.498E-02 0.000E+00
 
     Adding external electric field

     Computed dipole along edir(3) : 
        Dipole                1.3490 Ry au,          3.4289 Debye
        Dipole field          0.0025 Ry au, 
 
        Potential amp.       -0.2360 Ry
        Total length         46.3494 bohr
 

     total cpu time spent up to now is     1438.3 secs

     total energy              =   -2973.99837596 Ry
     estimated scf accuracy    <       0.00000008 Ry

     iteration # 64     ecut=    29.40 Ry     beta= 0.05
     Davidson diagonalization with overlap
     ethr =  1.99E-11,  avg # of iterations = 10.5

     negative rho (up, down):  1.507E-02 0.000E+00
 
     Adding external electric field

     Computed dipole along edir(3) : 
        Dipole                1.3484 Ry au,          3.4273 Debye
        Dipole field          0.0025 Ry au, 
 
        Potential amp.       -0.2359 Ry
        Total length         46.3494 bohr
 

     total cpu time spent up to now is     1458.6 secs

     End of self-consistent calculation

          k = 0.0000 0.0000 0.0000 ( 18029 PWs)   bands (ev):

   -55.4245 -55.3284 -55.2943 -55.1495 -55.1459 -55.1341 -55.1138 -55.1120
   -55.0851 -55.0568 -55.0350 -54.9581 -54.9558 -54.9112 -54.2920 -54.2580
   -31.8113 -31.7464 -31.6810 -31.6493 -31.6382 -31.6280 -31.6201 -31.5988
   -31.5734 -31.5722 -31.5683 -31.4836 -31.4807 -31.4334 -31.4198 -31.4057
   -31.3996 -31.3858 -31.3626 -31.3480 -31.3399 -31.3392 -31.3304 -31.3161
   -31.3042 -31.2922 -31.2797 -31.2766 -31.2754 -31.2640 -31.2605 -31.2504
   -31.2344 -31.2305 -31.2278 -31.1909 -31.1800 -31.1515 -31.1396 -31.1296
   -31.1172 -31.1128 -30.6975 -30.6124 -30.5899 -30.5151 -30.4288 -30.3170
   -19.6158 -16.1810 -15.9500 -15.7979 -15.6157 -15.4921 -15.4341 -15.2210
   -15.1533 -15.0823 -15.0016 -14.9368 -14.8593 -14.8452 -14.8198 -14.8045
   -14.7801 -14.7422 -14.7406 -14.7362 -14.6936 -14.6871 -14.6565 -14.6068
   -14.6015 -14.5794 -14.4573 -14.3836 -14.3375 -14.2038 -14.0835 -13.9525
   -12.7904 -12.6743 -10.1760  -7.0120  -6.6968  -4.2780  -4.0400  -3.6433
    -3.3307  -3.2540  -3.2234  -3.1824  -3.0584  -2.8772  -2.7598  -2.6864
    -2.5832  -2.4591  -2.4419  -2.3408  -2.3162  -2.2487  -2.2129  -2.1732
    -2.1527  -2.1293  -2.1063  -2.1027  -1.9907  -1.9863  -1.8612  -1.8438
    -1.7950  -1.7355  -1.6875  -1.6406  -1.6289  -1.6104  -1.5947  -1.5861
    -1.5554  -1.5416  -1.5182  -1.4660  -1.4052  -1.3577  -1.3207  -1.2076
    -1.0182  -0.9206  -0.8682  -0.8269  -0.7941  -0.7449  -0.7183  -0.7104
    -0.6806  -0.6423  -0.5096  -0.5018  -0.4555  -0.3797  -0.3400  -0.3192
    -0.1931  -0.1802  -0.1076  -0.0510  -0.0482  -0.0369   0.0573   0.1149
     0.1434   0.1725   0.2233   0.2799   0.3535   0.3823   0.4156   0.4749
     0.5360   0.5643   0.6238   0.6429   0.6547   0.7367   0.7576   0.7821
     0.8044   0.8756   0.9228   0.9586   0.9988   1.0873   1.1176   1.1666
     1.2039   1.3592   1.4137   1.6831   1.7344   1.7988   1.9283   2.3008
     2.3456   3.7735   3.9092   3.9284   3.9328   4.0302   4.1331   4.2464
     4.2944   4.3300   4.3755

          k = 0.0000 0.0419 0.0000 ( 17933 PWs)   bands (ev):

   -55.4241 -55.3233 -55.2992 -55.1445 -55.1411 -55.1344 -55.1189 -55.1165
   -55.0820 -55.0553 -55.0380 -54.9572 -54.9550 -54.9142 -54.2870 -54.2629
   -31.7574 -31.7160 -31.6783 -31.6276 -31.6154 -31.6139 -31.5835 -31.5626
   -31.5603 -31.5565 -31.5150 -31.4900 -31.4669 -31.4458 -31.4078 -31.3996
   -31.3958 -31.3913 -31.3846 -31.3560 -31.3508 -31.3409 -31.3324 -31.3163
   -31.3128 -31.3114 -31.3038 -31.2975 -31.2816 -31.2807 -31.2715 -31.2662
   -31.2464 -31.2381 -31.2350 -31.2296 -31.1795 -31.1781 -31.1689 -31.1469
   -31.1382 -31.1122 -30.6434 -30.6089 -30.5929 -30.5025 -30.4413 -30.3740
   -19.6150 -16.1641 -15.8284 -15.6916 -15.5135 -15.4188 -15.3551 -15.1643
   -15.1180 -15.1018 -15.0576 -14.9976 -14.9425 -14.8383 -14.8062 -14.8002
   -14.7868 -14.7669 -14.7297 -14.7208 -14.7138 -14.6832 -14.6731 -14.6668
   -14.6090 -14.5534 -14.5157 -14.4404 -14.3971 -14.2544 -14.1701 -13.9602
   -12.7947 -12.7139 -10.1758  -7.0126  -6.6976  -4.2661  -4.0392  -3.6407
    -3.1598  -3.0977  -3.0507  -3.0245  -2.9063  -2.7522  -2.6703  -2.4790
    -2.4312  -2.4028  -2.3885  -2.3228  -2.3058  -2.2774  -2.2463  -2.2304
    -2.2046  -2.1906  -2.1581  -2.1024  -2.0428  -2.0252  -1.9855  -1.9779
    -1.9500  -1.9205  -1.8549  -1.8306  -1.7964  -1.7588  -1.7342  -1.6171
    -1.5490  -1.5220  -1.4494  -1.4235  -1.3551  -1.2247  -1.0897  -1.0459
    -1.0104  -0.9734  -0.9421  -0.7996  -0.7411  -0.7151  -0.6122  -0.5243
    -0.5045  -0.4781  -0.4339  -0.3554  -0.3446  -0.2953  -0.2739  -0.2348
    -0.1966  -0.1483  -0.1353  -0.0937  -0.0540  -0.0431   0.0096   0.0275
     0.1114   0.1229   0.1451   0.1887   0.2752   0.3091   0.3950   0.4126
     0.4474   0.4963   0.5186   0.5566   0.5797   0.6399   0.6596   0.7306
     0.7760   0.8243   0.8918   0.9246   0.9342   0.9771   1.0182   1.0538
     1.0721   1.1563   1.2879   1.3544   1.6826   1.9244   2.0187   2.2558
     2.2580   4.0034   4.0121   4.0700   4.1568   4.2087   4.2308   4.2878
     4.2989   4.3671   4.3763

          k = 0.0000-0.0839 0.0000 ( 17884 PWs)   bands (ev):

   -55.4237 -55.3116 -55.3109 -55.1348 -55.1346 -55.1315 -55.1298 -55.1248
   -55.0785 -55.0538 -55.0414 -54.9586 -54.9514 -54.9177 -54.2754 -54.2743
   -31.6774 -31.6762 -31.6297 -31.6253 -31.6250 -31.6058 -31.6052 -31.5459
   -31.5077 -31.4578 -31.4504 -31.4502 -31.4429 -31.4374 -31.4337 -31.4328
   -31.3985 -31.3832 -31.3744 -31.3740 -31.3698 -31.3664 -31.3595 -31.3581
   -31.3493 -31.3445 -31.3096 -31.3032 -31.2986 -31.2951 -31.2813 -31.2744
   -31.2663 -31.2595 -31.2517 -31.2407 -31.2211 -31.2109 -31.1781 -31.1600
   -31.1368 -31.1117 -30.6011 -30.6004 -30.5111 -30.5099 -30.4723 -30.4716
   -19.6143 -16.1512 -15.5690 -15.5107 -15.4090 -15.4025 -15.2904 -15.2402
   -15.1542 -15.1395 -15.0542 -15.0151 -14.9688 -14.9477 -14.8767 -14.8599
   -14.7969 -14.7542 -14.7336 -14.6784 -14.6594 -14.6580 -14.6565 -14.5914
   -14.5715 -14.5677 -14.5526 -14.5270 -14.4973 -14.3480 -14.2939 -13.9652
   -12.7769 -12.7763 -10.1756  -7.0132  -6.6984  -4.2564  -4.0390  -3.6389
    -2.8176  -2.7965  -2.7609  -2.6786  -2.6324  -2.6165  -2.6126  -2.5842
    -2.5672  -2.5126  -2.4712  -2.4017  -2.3480  -2.3250  -2.3154  -2.2832
    -2.2619  -2.2382  -2.2261  -2.2015  -2.1527  -2.1215  -2.0904  -2.0321
    -1.9925  -1.9790  -1.9387  -1.8565  -1.8153  -1.6770  -1.6021  -1.5809
    -1.4496  -1.3980  -1.3858  -1.2754  -1.2551  -1.1479  -1.0589  -1.0000
    -0.9602  -0.9235  -0.8608  -0.7622  -0.7283  -0.7138  -0.6835  -0.6788
    -0.6462  -0.5898  -0.5636  -0.5329  -0.4475  -0.3999  -0.3563  -0.2367
    -0.1104  -0.0392  -0.0081   0.0199   0.0606   0.0654   0.1215   0.1442
     0.1527   0.1685   0.2128   0.2291   0.2440   0.2587   0.2931   0.3349
     0.3618   0.3762   0.4399   0.4521   0.4848   0.5630   0.5751   0.5952
     0.6148   0.6800   0.7377   0.7952   0.8927   0.8982   0.9430   0.9514
     1.0109   1.1178   1.2250   1.4182   1.4569   2.0660   2.0752   2.1914
     2.1929   4.1405   4.2393   4.2454   4.2535   4.2734   4.3055   4.3325
     4.3768   4.3821   4.4249

          k = 0.0380 0.0000 0.0000 ( 17913 PWs)   bands (ev):

   -55.4244 -55.3283 -55.2942 -55.1494 -55.1457 -55.1340 -55.1137 -55.1119
   -55.0851 -55.0567 -55.0349 -54.9580 -54.9557 -54.9111 -54.2919 -54.2579
   -31.8122 -31.7480 -31.6786 -31.6495 -31.6402 -31.6277 -31.6199 -31.5985
   -31.5739 -31.5733 -31.5723 -31.4841 -31.4778 -31.4331 -31.4055 -31.4009
   -31.3907 -31.3856 -31.3599 -31.3432 -31.3387 -31.3325 -31.3302 -31.3161
   -31.3041 -31.2941 -31.2909 -31.2856 -31.2764 -31.2639 -31.2598 -31.2500
   -31.2343 -31.2314 -31.2276 -31.1908 -31.1811 -31.1514 -31.1460 -31.1296
   -31.1172 -31.1122 -30.6970 -30.6157 -30.5879 -30.5149 -30.4287 -30.3167
   -19.6155 -16.1681 -15.8695 -15.7192 -15.5421 -15.4847 -15.3742 -15.2670
   -15.1475 -15.1164 -15.0827 -15.0148 -14.9225 -14.9134 -14.9009 -14.8634
   -14.8197 -14.8098 -14.7674 -14.7057 -14.6724 -14.6039 -14.5978 -14.5680
   -14.5151 -14.4867 -14.4737 -14.4544 -14.4042 -14.2011 -14.0820 -13.9531
   -12.7872 -12.6740 -10.1791  -7.0077  -6.6959  -4.2804  -4.0361  -3.6261
    -3.1814  -3.0349  -3.0263  -2.9506  -2.9247  -2.8173  -2.7588  -2.6692
    -2.6488  -2.5952  -2.5901  -2.4969  -2.3986  -2.3772  -2.2554  -2.1441
    -2.0910  -2.0578  -2.0229  -1.9609  -1.9310  -1.8852  -1.8498  -1.7946
    -1.7301  -1.7150  -1.7057  -1.6715  -1.6096  -1.5959  -1.5915  -1.5580
    -1.5086  -1.4994  -1.4039  -1.3622  -1.2811  -1.2104  -1.1847  -1.0818
    -1.0748  -0.9871  -0.9555  -0.9132  -0.8105  -0.7728  -0.7532  -0.6997
    -0.6699  -0.6547  -0.6282  -0.5807  -0.5405  -0.4763  -0.4518  -0.4071
    -0.3202  -0.2384  -0.1695  -0.1300   0.0060   0.0152   0.0563   0.1037
     0.1450   0.1915   0.2388   0.2666   0.3296   0.3619   0.3945   0.4295
     0.4391   0.4960   0.5312   0.5572   0.5852   0.6145   0.6180   0.7339
     0.7459   0.8537   0.8926   0.9263   0.9419   0.9857   1.0548   1.0976
     1.1457   1.2938   1.3853   1.6608   1.6980   1.7462   1.8981   2.1899
     2.2637   3.7917   3.8714   4.0214   4.1633   4.2073   4.2405   4.2505
     4.2615   4.2899   4.3230

          k = 0.0380 0.0419 0.0000 ( 17878 PWs)   bands (ev):

   -55.4240 -55.3232 -55.2992 -55.1443 -55.1409 -55.1343 -55.1189 -55.1165
   -55.0820 -55.0553 -55.0379 -54.9571 -54.9549 -54.9141 -54.2869 -54.2629
   -31.7582 -31.7175 -31.6763 -31.6274 -31.6152 -31.6140 -31.5855 -31.5622
   -31.5605 -31.5566 -31.5215 -31.4901 -31.4644 -31.4467 -31.3993 -31.3956
   -31.3937 -31.3920 -31.3772 -31.3473 -31.3410 -31.3399 -31.3322 -31.3164
   -31.3120 -31.3111 -31.3026 -31.2979 -31.2888 -31.2851 -31.2812 -31.2662
   -31.2443 -31.2390 -31.2381 -31.2295 -31.1817 -31.1779 -31.1686 -31.1471
   -31.1426 -31.1134 -30.6431 -30.6115 -30.5919 -30.5024 -30.4414 -30.3739
   -19.6148 -16.1565 -15.7543 -15.6169 -15.4611 -15.4059 -15.2781 -15.2018
   -15.1214 -15.1027 -15.0912 -15.0091 -14.9744 -14.9214 -14.8929 -14.8516
   -14.8103 -14.7994 -14.7599 -14.7525 -14.6893 -14.6542 -14.6251 -14.5934
   -14.5645 -14.5527 -14.5337 -14.5011 -14.4511 -14.2506 -14.1697 -13.9601
   -12.7924 -12.7141 -10.1777  -7.0095  -6.6956  -4.2699  -4.0318  -3.6258
    -3.0208  -2.9027  -2.8881  -2.7766  -2.7577  -2.6766  -2.6459  -2.4974
    -2.4730  -2.4403  -2.3937  -2.3402  -2.3075  -2.2570  -2.1999  -2.1869
    -2.1628  -2.1339  -2.1035  -2.0593  -2.0318  -2.0009  -1.9753  -1.9466
    -1.9240  -1.9009  -1.8733  -1.8276  -1.7633  -1.7140  -1.6677  -1.5713
    -1.5135  -1.4568  -1.3994  -1.3904  -1.3048  -1.2704  -1.1171  -1.0598
    -1.0015  -0.9583  -0.9011  -0.8231  -0.7948  -0.7215  -0.6927  -0.6424
    -0.5772  -0.5698  -0.5096  -0.4748  -0.4228  -0.4140  -0.3605  -0.2997
    -0.2631  -0.2432  -0.1976  -0.1520  -0.0989  -0.0677  -0.0350  -0.0228
     0.0215   0.0421   0.0880   0.1111   0.1970   0.2643   0.2806   0.3068
     0.3366   0.4012   0.4449   0.4832   0.5219   0.5811   0.6756   0.6962
     0.7609   0.8280   0.8729   0.9034   0.9681   1.0172   1.0444   1.0749
     1.1201   1.1373   1.2693   1.3287   1.6200   1.9345   2.0222   2.1786
     2.2384   3.9946   4.0022   4.0813   4.1906   4.2448   4.2778   4.3229
     4.3379   4.3717   4.3866

          k = 0.0380-0.0839 0.0000 ( 17916 PWs)   bands (ev):

   -55.4237 -55.3116 -55.3109 -55.1348 -55.1346 -55.1315 -55.1298 -55.1248
   -55.0785 -55.0539 -55.0415 -54.9586 -54.9514 -54.9177 -54.2754 -54.2744
   -31.6787 -31.6747 -31.6296 -31.6260 -31.6258 -31.6058 -31.6052 -31.5460
   -31.5073 -31.4590 -31.4517 -31.4511 -31.4445 -31.4409 -31.4326 -31.4317
   -31.4132 -31.3931 -31.3764 -31.3692 -31.3583 -31.3533 -31.3518 -31.3458
   -31.3435 -31.3369 -31.3097 -31.3028 -31.2989 -31.2961 -31.2837 -31.2770
   -31.2740 -31.2590 -31.2510 -31.2504 -31.2211 -31.2107 -31.1810 -31.1601
   -31.1405 -31.1146 -30.6020 -30.6013 -30.5111 -30.5098 -30.4723 -30.4716
   -19.6141 -16.1473 -15.5301 -15.4683 -15.3560 -15.3478 -15.2481 -15.1904
   -15.1336 -15.0982 -15.0628 -15.0069 -14.9861 -14.9398 -14.9267 -14.8834
   -14.8585 -14.7670 -14.7394 -14.7288 -14.7237 -14.6620 -14.6523 -14.6241
   -14.6190 -14.6089 -14.5836 -14.5397 -14.4828 -14.3344 -14.2964 -13.9653
   -12.7767 -12.7761 -10.1774  -7.0105  -6.6963  -4.2628  -4.0332  -3.6178
    -2.7282  -2.7103  -2.6358  -2.5867  -2.4986  -2.4549  -2.4328  -2.4133
    -2.4034  -2.3897  -2.3690  -2.3363  -2.2921  -2.2623  -2.2374  -2.2063
    -2.1958  -2.1865  -2.1682  -2.1504  -2.1321  -2.0624  -2.0359  -2.0223
    -1.9798  -1.9623  -1.9285  -1.8762  -1.8621  -1.6590  -1.5613  -1.4962
    -1.4463  -1.4013  -1.3067  -1.2586  -1.2234  -1.1783  -1.1416  -1.1046
    -1.0972  -1.0585  -1.0359  -0.9939  -0.9594  -0.9448  -0.8257  -0.8091
    -0.6669  -0.6358  -0.6025  -0.5407  -0.4630  -0.4407  -0.4036  -0.3339
    -0.1885  -0.1793  -0.1532  -0.1225  -0.0814  -0.0455  -0.0248  -0.0036
     0.0326   0.0500   0.0880   0.1204   0.1248   0.1559   0.2080   0.2483
     0.2676   0.3577   0.3824   0.4151   0.5388   0.5803   0.6490   0.7039
     0.7466   0.8124   0.8188   0.8493   0.8794   0.9414   0.9818   1.0327
     1.0484   1.1337   1.2221   1.4013   1.4205   2.0790   2.0877   2.1807
     2.1821   4.1166   4.1410   4.2307   4.2344   4.2557   4.3075   4.3610
     4.4019   4.4095   4.4411

          k = 0.0380-0.0419 0.0000 ( 17876 PWs)   bands (ev):

   -55.4240 -55.3232 -55.2992 -55.1443 -55.1409 -55.1343 -55.1189 -55.1165
   -55.0820 -55.0553 -55.0379 -54.9571 -54.9549 -54.9141 -54.2869 -54.2628
   -31.7582 -31.7176 -31.6762 -31.6274 -31.6152 -31.6140 -31.5855 -31.5622
   -31.5605 -31.5569 -31.5215 -31.4901 -31.4644 -31.4466 -31.3993 -31.3955
   -31.3921 -31.3920 -31.3771 -31.3489 -31.3409 -31.3398 -31.3322 -31.3162
   -31.3124 -31.3102 -31.3030 -31.2974 -31.2889 -31.2859 -31.2812 -31.2662
   -31.2442 -31.2391 -31.2380 -31.2295 -31.1816 -31.1778 -31.1686 -31.1468
   -31.1431 -31.1133 -30.6431 -30.6115 -30.5919 -30.5024 -30.4414 -30.3739
   -19.6148 -16.1569 -15.7541 -15.6170 -15.4597 -15.4117 -15.2806 -15.2029
   -15.1224 -15.1012 -15.0777 -15.0081 -14.9744 -14.9256 -14.8902 -14.8638
   -14.8107 -14.7986 -14.7595 -14.7459 -14.6890 -14.6540 -14.6229 -14.5923
   -14.5644 -14.5553 -14.5337 -14.5015 -14.4503 -14.2506 -14.1709 -13.9608
   -12.7924 -12.7141 -10.1787  -7.0085  -6.6965  -4.2709  -4.0370  -3.6166
    -3.0153  -2.8987  -2.8820  -2.7764  -2.7603  -2.6836  -2.6554  -2.4972
    -2.4730  -2.4330  -2.4004  -2.3472  -2.3176  -2.2638  -2.2102  -2.1860
    -2.1669  -2.1384  -2.0949  -2.0633  -2.0219  -1.9976  -1.9713  -1.9356
    -1.9245  -1.9016  -1.8735  -1.8253  -1.7643  -1.7068  -1.6713  -1.5535
    -1.5065  -1.4607  -1.4173  -1.3699  -1.2957  -1.2708  -1.1113  -1.0772
    -0.9911  -0.9629  -0.9200  -0.8159  -0.7931  -0.7546  -0.6919  -0.6284
    -0.5766  -0.5441  -0.4973  -0.4814  -0.4411  -0.4051  -0.3489  -0.3068
    -0.2709  -0.2638  -0.1865  -0.1270  -0.1022  -0.0555  -0.0350  -0.0143
     0.0307   0.0483   0.0922   0.1125   0.1805   0.2317   0.2778   0.3033
     0.3563   0.4037   0.4304   0.4562   0.5141   0.5859   0.6740   0.6923
     0.7542   0.8193   0.8754   0.9147   0.9602   1.0177   1.0477   1.0713
     1.1229   1.1540   1.2743   1.3289   1.6183   1.9345   2.0223   2.1784
     2.2390   3.9947   4.0020   4.0833   4.2048   4.2602   4.2938   4.3029
     4.3422   4.3762   4.3846

          k =-0.0760-0.0000 0.0000 ( 17886 PWs)   bands (ev):

   -55.4243 -55.3282 -55.2942 -55.1494 -55.1455 -55.1340 -55.1137 -55.1119
   -55.0851 -55.0567 -55.0349 -54.9580 -54.9557 -54.9111 -54.2919 -54.2579
   -31.8131 -31.7498 -31.6764 -31.6496 -31.6423 -31.6274 -31.6198 -31.5983
   -31.5791 -31.5734 -31.5725 -31.4848 -31.4750 -31.4330 -31.4052 -31.3859
   -31.3824 -31.3672 -31.3586 -31.3393 -31.3336 -31.3301 -31.3270 -31.3262
   -31.3159 -31.3040 -31.2954 -31.2902 -31.2763 -31.2638 -31.2595 -31.2498
   -31.2343 -31.2326 -31.2275 -31.1910 -31.1822 -31.1541 -31.1512 -31.1296
   -31.1173 -31.1111 -30.6967 -30.6189 -30.5866 -30.5148 -30.4286 -30.3168
   -19.6152 -16.1577 -15.7067 -15.6850 -15.4962 -15.4549 -15.3316 -15.2493
   -15.1726 -15.1289 -15.0979 -15.0903 -15.0048 -14.9884 -14.9878 -14.9753
   -14.8084 -14.8062 -14.7606 -14.7110 -14.6635 -14.6198 -14.6094 -14.5681
   -14.5396 -14.4787 -14.4463 -14.3996 -14.3919 -14.2002 -14.0812 -13.9536
   -12.7842 -12.6736 -10.1822  -7.0036  -6.6951  -4.2831  -4.0336  -3.6075
    -3.1275  -2.9829  -2.8346  -2.7910  -2.7347  -2.7276  -2.6471  -2.6353
    -2.5989  -2.5841  -2.5807  -2.5638  -2.5338  -2.2784  -2.1817  -2.1261
    -2.0647  -1.9305  -1.8951  -1.8658  -1.8582  -1.8306  -1.8183  -1.7733
    -1.7192  -1.6764  -1.6723  -1.6335  -1.5998  -1.5908  -1.5667  -1.5540
    -1.5230  -1.5119  -1.4536  -1.4405  -1.4115  -1.2975  -1.2001  -1.0504
    -0.9411  -0.9107  -0.9037  -0.8919  -0.8508  -0.8063  -0.7849  -0.7787
    -0.7190  -0.6901  -0.6644  -0.6415  -0.6098  -0.5833  -0.4943  -0.4690
    -0.3961  -0.3492  -0.3083  -0.2027  -0.0759  -0.0121   0.0412   0.0615
     0.0869   0.1070   0.1669   0.2591   0.2691   0.3108   0.3509   0.3724
     0.4306   0.4430   0.4672   0.4832   0.5576   0.5960   0.6153   0.6584
     0.7200   0.7461   0.8029   0.9195   0.9493   0.9659   1.0790   1.0968
     1.2183   1.3534   1.3789   1.3913   1.6986   1.7672   1.8739   2.0630
     2.2085   3.7945   3.8312   4.0855   4.0964   4.1106   4.1783   4.2259
     4.2465   4.3266   4.3439

          k =-0.0760 0.0419 0.0000 ( 17914 PWs)   bands (ev):

   -55.4240 -55.3233 -55.2992 -55.1443 -55.1409 -55.1343 -55.1189 -55.1165
   -55.0821 -55.0553 -55.0380 -54.9571 -54.9550 -54.9141 -54.2869 -54.2629
   -31.7592 -31.7193 -31.6745 -31.6272 -31.6153 -31.6143 -31.5878 -31.5620
   -31.5607 -31.5571 -31.5278 -31.4904 -31.4623 -31.4477 -31.3992 -31.3955
   -31.3946 -31.3709 -31.3661 -31.3415 -31.3379 -31.3328 -31.3290 -31.3213
   -31.3124 -31.3112 -31.3086 -31.3012 -31.2980 -31.2919 -31.2813 -31.2663
   -31.2445 -31.2427 -31.2380 -31.2296 -31.1837 -31.1777 -31.1686 -31.1493
   -31.1466 -31.1141 -30.6428 -30.6143 -30.5913 -30.5024 -30.4414 -30.3740
   -19.6146 -16.1502 -15.6167 -15.5776 -15.4259 -15.3611 -15.2589 -15.1687
   -15.1378 -15.0862 -15.0648 -15.0453 -15.0234 -14.9876 -14.9564 -14.9351
   -14.8584 -14.8255 -14.7826 -14.7661 -14.6840 -14.6344 -14.6293 -14.6044
   -14.5873 -14.5754 -14.4983 -14.4929 -14.4598 -14.2481 -14.1713 -13.9608
   -12.7903 -12.7145 -10.1807  -7.0057  -6.6947  -4.2747  -4.0307  -3.6008
    -2.9745  -2.8542  -2.7164  -2.5651  -2.5465  -2.5092  -2.4624  -2.4114
    -2.3853  -2.3835  -2.3605  -2.3390  -2.3009  -2.2752  -2.2414  -2.1938
    -2.1465  -2.0811  -2.0488  -2.0085  -1.9883  -1.9839  -1.9237  -1.8823
    -1.8670  -1.8364  -1.8055  -1.7936  -1.7816  -1.7163  -1.6800  -1.5508
    -1.4560  -1.4186  -1.3735  -1.2972  -1.2819  -1.2674  -1.2125  -1.1070
    -0.9979  -0.9516  -0.9092  -0.8874  -0.8176  -0.7844  -0.7469  -0.7289
    -0.6498  -0.6178  -0.5782  -0.5580  -0.5472  -0.5290  -0.5004  -0.4661
    -0.4272  -0.3863  -0.3724  -0.3163  -0.2478  -0.2046  -0.1736  -0.0783
    -0.0601  -0.0302   0.0121   0.0553   0.1116   0.1260   0.1971   0.2815
     0.3446   0.4020   0.4762   0.5079   0.5309   0.5575   0.5844   0.6267
     0.7838   0.7911   0.8415   1.0129   1.0347   1.0577   1.0860   1.1469
     1.1969   1.2425   1.2635   1.3385   1.4188   1.9480   2.0245   2.1017
     2.2277   3.9920   3.9970   4.0755   4.1332   4.1803   4.2094   4.2238
     4.2868   4.3308   4.4626

          k =-0.0760-0.0839 0.0000 ( 17948 PWs)   bands (ev):

   -55.4237 -55.3116 -55.3110 -55.1347 -55.1347 -55.1314 -55.1298 -55.1248
   -55.0786 -55.0539 -55.0415 -54.9587 -54.9515 -54.9177 -54.2755 -54.2744
   -31.6801 -31.6730 -31.6296 -31.6268 -31.6265 -31.6059 -31.6053 -31.5460
   -31.5068 -31.4603 -31.4527 -31.4521 -31.4457 -31.4443 -31.4314 -31.4305
   -31.4211 -31.3991 -31.3782 -31.3695 -31.3584 -31.3435 -31.3425 -31.3311
   -31.3298 -31.3199 -31.3099 -31.3022 -31.2993 -31.2980 -31.2955 -31.2862
   -31.2739 -31.2635 -31.2587 -31.2502 -31.2211 -31.2106 -31.1838 -31.1602
   -31.1443 -31.1176 -30.6030 -30.6023 -30.5110 -30.5098 -30.4723 -30.4716
   -19.6139 -16.1436 -15.4859 -15.4173 -15.2686 -15.2594 -15.1883 -15.1472
   -15.1408 -15.0894 -15.0830 -15.0149 -14.9902 -14.9817 -14.9418 -14.8906
   -14.8405 -14.8105 -14.8050 -14.7569 -14.7469 -14.7355 -14.6990 -14.6793
   -14.6305 -14.6269 -14.6115 -14.5324 -14.4768 -14.3186 -14.3035 -13.9653
   -12.7765 -12.7759 -10.1792  -7.0078  -6.6942  -4.2689  -4.0278  -3.5963
    -2.6926  -2.6878  -2.6263  -2.4717  -2.4274  -2.3273  -2.3163  -2.2574
    -2.2436  -2.1956  -2.1751  -2.1636  -2.1271  -2.1072  -2.1040  -2.0771
    -2.0574  -2.0471  -2.0212  -1.9852  -1.9830  -1.9530  -1.9445  -1.9275
    -1.9073  -1.8859  -1.8664  -1.8609  -1.8095  -1.7759  -1.6186  -1.5991
    -1.4610  -1.4584  -1.4442  -1.4227  -1.3892  -1.3776  -1.3385  -1.3044
    -1.2344  -1.1913  -1.0967  -1.0615  -0.9545  -0.9263  -0.8560  -0.8080
    -0.7689  -0.7461  -0.7354  -0.7053  -0.6326  -0.5571  -0.5113  -0.4708
    -0.3709  -0.2950  -0.2706  -0.2662  -0.2589  -0.2259  -0.1556  -0.1542
    -0.1131  -0.0969  -0.0148  -0.0043   0.0097   0.0289   0.1631   0.1939
     0.2918   0.3559   0.4059   0.4598   0.4924   0.5428   0.6572   0.7881
     0.8409   0.8663   0.8799   0.9417   0.9901   1.0053   1.0520   1.1242
     1.1953   1.2444   1.2640   1.2875   1.3386   2.0974   2.1061   2.1657
     2.1661   4.0360   4.1374   4.2521   4.2865   4.3021   4.3214   4.3387
     4.3635   4.4075   4.4522

     the Fermi energy is     3.7989 ev

!    total energy              =   -2973.99840527 Ry
     estimated scf accuracy    <       0.00000006 Ry
     smearing contrib. (-TS)   =      -0.02052683 Ry
     internal energy E=F+TS    =   -2973.97787844 Ry

     The total energy is F=E-TS. E is the sum of the following terms:
     one-electron contribution =  -23635.88097767 Ry
     hartree contribution      =   11914.84762361 Ry
     xc contribution           =    -494.12218037 Ry
     ewald contribution        =    9241.17422479 Ry
     electric field correction =       0.00343120 Ry

     convergence has been achieved in  64 iterations

     Forces acting on atoms (cartesian axes, Ry/au):

     atom    1 type  1   force =    -0.00005888   -0.00028677    0.09520603
     atom    2 type  1   force =    -0.00011004    0.00043015   -0.17496977
     atom    3 type  2   force =     0.00000996   -0.00028197   -0.02254648
     atom    4 type  2   force =     0.00005323   -0.00195738    0.05326727
     atom    5 type  2   force =    -0.00764027   -0.00250916    0.00195471
     atom    6 type  2   force =     0.00923378   -0.00206846    0.00147588
     atom    7 type  1   force =    -0.00022532   -0.00468099    0.00731628
     atom    8 type  1   force =     0.00013873    0.00535366    0.01281290
     atom    9 type  2   force =    -0.00010749   -0.00002249    0.00022125
     atom   10 type  2   force =    -0.00275459    0.00061262   -0.01380492
     atom   11 type  2   force =    -0.00015422    0.00022443   -0.00001347
     atom   12 type  2   force =     0.00014358   -0.00003155    0.00024202
     atom   13 type  1   force =     0.00025097    0.00019068    0.00030039
     atom   14 type  1   force =     0.00002387    0.00000514    0.00018299
     atom   15 type  2   force =     0.00036366   -0.00004590    0.00010392
     atom   16 type  2   force =    -0.00036754   -0.00007299    0.00004197
     atom   17 type  2   force =     0.00029118   -0.00025499   -0.00001849
     atom   18 type  2   force =     0.00009038    0.00001425    0.00019420
     atom   19 type  1   force =     0.00027058   -0.00004916   -0.00006403
     atom   20 type  1   force =     0.00012483   -0.00013925   -0.00008021
     atom   21 type  2   force =     0.00005720    0.00003683    0.10301785
     atom   22 type  2   force =     0.00006045    0.00011257   -0.00009170
     atom   23 type  2   force =    -0.07222358   -0.00019729   -0.02752436
     atom   24 type  2   force =     0.07212900    0.00021426   -0.02759134
     atom   25 type  1   force =     0.00010860   -0.00024826    0.09494624
     atom   26 type  1   force =    -0.00023078   -0.00136760   -0.17518448
     atom   27 type  2   force =     0.00015879   -0.00013780   -0.02139065
     atom   28 type  2   force =     0.00004922   -0.00025413    0.04861008
     atom   29 type  2   force =    -0.00690158    0.00262531    0.00144483
     atom   30 type  2   force =     0.00848502    0.00314597    0.00087103
     atom   31 type  1   force =    -0.00009883    0.00788171   -0.00301624
     atom   32 type  1   force =     0.00038628   -0.00772753    0.01219689
     atom   33 type  2   force =     0.00008347   -0.00003216   -0.00012828
     atom   34 type  2   force =    -0.00195948    0.00048665   -0.01637127
     atom   35 type  2   force =    -0.00012987    0.00002361   -0.00000239
     atom   36 type  2   force =    -0.00005108    0.00031363   -0.00001135
     atom   37 type  1   force =    -0.00013711    0.00017662    0.00002708
     atom   38 type  1   force =    -0.00009518    0.00004357    0.00016642
     atom   39 type  2   force =    -0.00005508   -0.00030099    0.00001998
     atom   40 type  2   force =     0.00012390   -0.00000139    0.00019723
     atom   41 type  2   force =     0.00008855   -0.00012004   -0.00002554
     atom   42 type  2   force =     0.00024021   -0.00013981   -0.00004549
     atom   43 type  1   force =    -0.00024344    0.00001288   -0.00031924
     atom   44 type  1   force =     0.00025215   -0.00004123   -0.00009031
     atom   45 type  2   force =     0.00008673   -0.00014121    0.10281306
     atom   46 type  2   force =    -0.07221396   -0.00009784   -0.02757374
     atom   47 type  2   force =     0.07214376    0.00036057   -0.02760211
     atom   48 type  3   force =     0.00106118   -0.00045676   -0.00080008
     atom   49 type  3   force =     0.00056125    0.00003240    0.00014370
     atom   50 type  4   force =     0.00360770   -0.00197274   -0.00488701
     atom   51 type  5   force =    -0.00010447    0.00043317    0.00073681
     atom   52 type  5   force =    -0.00506652    0.00247366    0.00544154
     atom   53 type  5   force =     0.00042681    0.00006933   -0.00020655
     atom   54 type  5   force =     0.00000694    0.00011540   -0.00003063
     atom   55 type  2   force =    -0.00058973   -0.00010669    0.00028332
     atom   56 type  5   force =     0.00040709    0.00035547    0.00015428

     Total force =     0.363380     Total SCF correction =     0.000499
  @ DRIVER MODE: Message from server: STATUS
  @ DRIVER MODE: Message from server: GETFORCE
  @ DRIVER MODE: Returning v,forces,stress,ensemble 

     Writing output data file ./calc.save/
  @ DRIVER MODE: Message from server: EXIT
  @ DRIVE MODE: Exiting  
 
     init_run     :     14.12s CPU     14.75s WALL (       1 calls)
     electrons    :   1411.70s CPU   1443.40s WALL (       1 calls)
     forces       :      3.19s CPU      3.34s WALL (       1 calls)

     Called by init_run:
     wfcinit      :      6.35s CPU      6.64s WALL (       1 calls)
     potinit      :      6.99s CPU      7.13s WALL (       1 calls)
     hinit0       :      0.38s CPU      0.44s WALL (       1 calls)

     Called by electrons:
     c_bands      :   1214.02s CPU   1231.86s WALL (      64 calls)
     sum_band     :    135.66s CPU    142.16s WALL (      64 calls)
     v_of_rho     :     47.49s CPU     49.57s WALL (      65 calls)
     newd         :     18.04s CPU     23.09s WALL (      65 calls)
     mix_rho      :      2.11s CPU      2.28s WALL (      64 calls)
     vdW_kernel   :      5.88s CPU      5.92s WALL (       1 calls)

     Called by c_bands:
     init_us_2    :      6.53s CPU      6.60s WALL (    1300 calls)
     cegterg      :   1191.90s CPU   1209.15s WALL (     666 calls)

     Called by *egterg:
     cdiaghg      :    210.61s CPU    212.61s WALL (    7284 calls)
     h_psi        :    624.46s CPU    634.97s WALL (    7299 calls)
     s_psi        :     82.03s CPU     82.43s WALL (    7299 calls)
     g_psi        :      2.13s CPU      2.15s WALL (    6623 calls)

     Called by h_psi:
     h_psi:calbec :     79.84s CPU     80.99s WALL (    7299 calls)
     vloc_psi     :    459.73s CPU    464.88s WALL (    7299 calls)
     add_vuspsi   :     82.17s CPU     84.40s WALL (    7299 calls)

     General routines
     calbec       :    103.89s CPU    105.13s WALL (    7979 calls)
     fft          :     25.11s CPU     25.39s WALL (    4095 calls)
     ffts         :      0.22s CPU      0.23s WALL (     129 calls)
     fftw         :    510.67s CPU    516.36s WALL (  918408 calls)
     interpolate  :      0.61s CPU      0.64s WALL (      65 calls)
     davcio       :      0.00s CPU      0.25s WALL (      10 calls)
 
     Parallel routines
 
     PWSCF        :  23m49.80s CPU  24m22.92s WALL

 
   This run was terminated on:  23:29: 1  26Sep2021            

=------------------------------------------------------------------------------=
   JOB DONE.
=------------------------------------------------------------------------------=
