
     Program PWSCF v.6.7GPU starts on 22Sep2021 at 17:49:38 

     This program is part of the open-source Quantum ESPRESSO suite
     for quantum simulation of materials; please cite
         "P. Giannozzi et al., J. Phys.:Condens. Matter 21 395502 (2009);
         "P. Giannozzi et al., J. Phys.:Condens. Matter 29 465901 (2017);
         "P. Giannozzi et al., J. Chem. Phys. 152 154105 (2020);
          URL http://www.quantum-espresso.org", 
     in publications or presentations arising from this work. More details at
     http://www.quantum-espresso.org/quote

     Parallel version (MPI), running on    10 processors

     MPI processes distributed on     1 nodes
     R & G space division:  proc/nbgrp/npool/nimage =      10
     Reading input from /storage/home/hcoda1/3/ntian30/research/carbon/CxH_vib/H2O_calc/ads_slab/CHNHHO_a/out_0006/pw.inp
Warning: card &CELL ignored
Warning: card   CELL_DYNAMICS='IPI', ignored
Warning: card / ignored

     Current dimensions of program PWSCF are:
     Max number of different atomic species (ntypx) = 10
     Max number of k-points (npk) =  40000
     Max angular momentum in pseudopotentials (lmaxx) =  3
     Presently no symmetry can be used with electric field

     Message from routine cell_base_init:
     DEPRECATED: use true lattice parameter, not A to a.u. conversion factor

     **************************************************************************
     Initializing libbeef V0.1.2 with the BEEF-vdW functional.
     Citation: Wellendorff et al., PRB 85, 235149 (2012).
     **************************************************************************


     IMPORTANT: XC functional enforced from input :
     Exchange-correlation= BEEF-VDW
                           (   1   4  43  14   2   0   0)
     Any further DFT definition will be discarded
     Please, verify this is what you really want


     Subspace diagonalization in iterative solution of the eigenvalue problem:
     one sub-group per band group will be used
     scalapack distributed-memory algorithm (size of sub-group:  3*  3 procs)

  @ DRIVER MODE: Connecting to 
 qe_1139763_2937314.sched-torque.pace.gatech.edurq2evbl1_scratch
  using UNIX socket
  @ DRIVER MODE: Message from server: STATUS
  @ DRIVER MODE: Message from server: INIT
  @ DRIVER MODE: Receiving replica           0          -1
  @ DRIVER MODE: Receiving encoded integer          25
  @ DRIVER MODE:  SCF:  T  FORCE:  T  STRESS:  F  VC:  F  ENSEMBLE:  F
  @ DRIVER MODE:  SCF:  T  FORCE:  T  STRESS:  F  VC:  F  ENSEMBLE:  F
 
     Parallelization info
     --------------------
     sticks:   dense  smooth     PW     G-vecs:    dense   smooth      PW
     Min         327     131     37                56683    14340    2191
     Max         328     133     38                56694    14346    2206
     Sum        3275    1317    379               566857   143421   21985
 
     Using Slab Decomposition
 


     bravais-lattice index     =            0
     lattice parameter (alat)  =       1.8897  a.u.
     unit-cell volume          =    6658.9804 (a.u.)^3
     number of atoms/cell      =           53
     number of atomic types    =            5
     number of electrons       =       396.00
     number of Kohn-Sham states=          208
     kinetic-energy cutoff     =      29.3995  Ry
     charge density cutoff     =     293.9946  Ry
     scf convergence threshold =      7.3E-08
     mixing beta               =       0.0500
     number of iterations used =            8  plain     mixing
     Exchange-correlation= BEEF-VDW
                           (   1   4  43  14   2   0   0)

     celldm(1)=   1.889726  celldm(2)=   0.000000  celldm(3)=   0.000000
     celldm(4)=   0.000000  celldm(5)=   0.000000  celldm(6)=   0.000000

     crystal axes: (cart. coord. in units of alat)
               a(1) = (   6.579727   0.000000   0.000000 )  
               a(2) = (  -0.000775   5.961596   0.000000 )  
               a(3) = (   0.000000   0.000000  25.155947 )  

     reciprocal axes: (cart. coord. in units 2 pi/alat)
               b(1) = (  0.151982  0.000020  0.000000 )  
               b(2) = (  0.000000  0.167740  0.000000 )  
               b(3) = (  0.000000  0.000000  0.039752 )  


     PseudoPot. # 1 for Ti read from file:
     /storage/coda1/p-amedford6/0/shared/rich_project_chbe-medford/medford-share/data/pseudos_module/espresso/nninc/pbe/van/Ti.UPF
     MD5 check sum: 8e4df49b7f0d34bbd5052bf3f5ea0213
     Pseudo is Ultrasoft, Zval = 12.0
     Generated by new atomic code, or converted to UPF format
     Using radial grid of  851 points,  6 beta functions with: 
                l(1) =   0
                l(2) =   0
                l(3) =   1
                l(4) =   1
                l(5) =   2
                l(6) =   2
     Q(r) pseudized with  8 coefficients,  rinner =    1.000   1.000   1.000
                                                       1.000   1.000

     PseudoPot. # 2 for O  read from file:
     /storage/coda1/p-amedford6/0/shared/rich_project_chbe-medford/medford-share/data/pseudos_module/espresso/nninc/pbe/van/O.UPF
     MD5 check sum: 78c19812648e8988a0fe644b0f25305e
     Pseudo is Ultrasoft, Zval =  6.0
     Generated by new atomic code, or converted to UPF format
     Using radial grid of  737 points,  4 beta functions with: 
                l(1) =   0
                l(2) =   0
                l(3) =   1
                l(4) =   1
     Q(r) pseudized with  8 coefficients,  rinner =    0.800   0.800   0.800


     PseudoPot. # 3 for N  read from file:
     /storage/coda1/p-amedford6/0/shared/rich_project_chbe-medford/medford-share/data/pseudos_module/espresso/nninc/pbe/van/N.UPF
     MD5 check sum: 90d10febe142ad51ac9d5be1deb811c4
     Pseudo is Ultrasoft, Zval =  5.0
     Generated by new atomic code, or converted to UPF format
     Using radial grid of  729 points,  4 beta functions with: 
                l(1) =   0
                l(2) =   0
                l(3) =   1
                l(4) =   1
     Q(r) pseudized with  8 coefficients,  rinner =    0.800   0.800   0.800


     PseudoPot. # 4 for C  read from file:
     /storage/coda1/p-amedford6/0/shared/rich_project_chbe-medford/medford-share/data/pseudos_module/espresso/nninc/pbe/van/C.UPF
     MD5 check sum: 1a69bf6b8db32088f5b2163dbdb77a27
     Pseudo is Ultrasoft, Zval =  4.0
     Generated by new atomic code, or converted to UPF format
     Using radial grid of  721 points,  4 beta functions with: 
                l(1) =   0
                l(2) =   0
                l(3) =   1
                l(4) =   1
     Q(r) pseudized with  8 coefficients,  rinner =    0.800   0.800   0.800


     PseudoPot. # 5 for H  read from file:
     /storage/coda1/p-amedford6/0/shared/rich_project_chbe-medford/medford-share/data/pseudos_module/espresso/nninc/pbe/van/H.UPF
     MD5 check sum: b5ee9d7bfd3a09ee7748110bda690ff7
     Pseudo is Ultrasoft, Zval =  1.0
     Generated by new atomic code, or converted to UPF format
     Using radial grid of  615 points,  1 beta functions with: 
                l(1) =   0
     Q(r) pseudized with  8 coefficients,  rinner =    0.800

     atomic species   valence    mass     pseudopotential
        Ti1           12.00    47.86700     Ti( 1.00)
        O1             6.00    15.99900     O ( 1.00)
        N1             5.00    14.00700     N ( 1.00)
        C1             4.00    12.01100     C ( 1.00)
        H1             1.00     1.00800     H ( 1.00)

     No symmetry found



   Cartesian axes

     site n.     atom                  positions (alat units)
         1           Ti1 tau(   1) = (   0.0004258   2.9801865   6.0000000  )
         2           Ti1 tau(   2) = (   3.2906075   1.4906267   6.0002472  )
         3           O1  tau(   3) = (   0.0006271   0.0005054   7.9858123  )
         4           O1  tau(   4) = (   3.2906025   0.0005020   7.3038282  )
         5           O1  tau(   5) = (   4.5942328   1.4918067   9.2879030  )
         6           O1  tau(   6) = (   1.9868534   1.4903216   9.2879459  )
         7           Ti1 tau(   7) = (   3.2907910   2.8959150   9.1758416  )
         8           Ti1 tau(   8) = (   0.0015273   1.4827037   9.2680791  )
         9           O1  tau(   9) = (   3.2817170   5.9459930  11.3074998  )
        10           O1  tau(  10) = (   0.0116148   5.9584955  10.6183126  )
        11           O1  tau(  11) = (   1.2737360   1.4926482  12.6406718  )
        12           O1  tau(  12) = (   5.2902952   1.4950437  12.6299455  )
        13           Ti1 tau(  13) = (   6.5743562   2.8588748  12.6391164  )
        14           Ti1 tau(  14) = (   3.2840152   1.3010445  12.6757008  )
        15           O1  tau(  15) = (   6.5722207   0.0022838  14.6395268  )
        16           O1  tau(  16) = (   3.2882888   0.0547267  13.9272720  )
        17           O1  tau(  17) = (   4.5277618   1.5549090  16.0796657  )
        18           O1  tau(  18) = (   1.9889223   1.5445724  16.0964948  )
        19           Ti1 tau(  19) = (   3.2710169   3.0098750  15.6493427  )
        20           Ti1 tau(  20) = (   0.0212523   1.3583160  16.0154628  )
        21           O1  tau(  21) = (   3.2904802   0.0005063   4.7018136  )
        22           O1  tau(  22) = (   6.5278121   5.9442159  17.1408904  )
        23           O1  tau(  23) = (   1.3043587   1.4918075   6.0039043  )
        24           O1  tau(  24) = (   5.2767064   1.4903225   6.0039473  )
        25           Ti1 tau(  25) = (   0.0000382   5.9609847   6.0000000  )
        26           Ti1 tau(  26) = (   3.2902200   4.4714249   6.0002472  )
        27           O1  tau(  27) = (   0.0002396   2.9813036   7.9858123  )
        28           O1  tau(  28) = (   3.2902150   2.9813002   7.3038282  )
        29           O1  tau(  29) = (   4.5938453   4.4726049   9.2879030  )
        30           O1  tau(  30) = (   1.9864658   4.4711199   9.2879459  )
        31           Ti1 tau(  31) = (   3.2891106   5.8743827   9.1763621  )
        32           Ti1 tau(  32) = (   0.0006254   4.4649316   9.2693709  )
        33           O1  tau(  33) = (   3.2809651   3.0158959  11.2742024  )
        34           O1  tau(  34) = (   0.0092240   2.9805883  10.6323155  )
        35           O1  tau(  35) = (   1.2801966   4.4796301  12.6363892  )
        36           O1  tau(  36) = (   5.2833020   4.4787161  12.6245292  )
        37           Ti1 tau(  37) = (   6.5725262   5.8449372  12.5269696  )
        38           Ti1 tau(  38) = (   3.2830651   4.3950422  12.4122791  )
        39           O1  tau(  39) = (   6.5612936   2.9998473  14.7091997  )
        40           O1  tau(  40) = (   3.2734765   2.9867355  13.8776313  )
        41           O1  tau(  41) = (   4.5260587   4.4294304  16.0527172  )
        42           O1  tau(  42) = (   1.9919704   4.4458081  16.0639873  )
        43           Ti1 tau(  43) = (   3.3135318   0.0270965  16.3071496  )
        44           Ti1 tau(  44) = (   0.0294795   4.5257316  15.8201724  )
        45           O1  tau(  45) = (   3.2900926   2.9813045   4.7018136  )
        46           O1  tau(  46) = (   1.3039711   4.4726057   6.0039043  )
        47           O1  tau(  47) = (   5.2763189   4.4711207   6.0039473  )
        48           N1  tau(  48) = (   6.4282372   2.9740631  17.7202171  )
        49           C1  tau(  49) = (   0.6535733   3.0176064  18.7020832  )
        50           H1  tau(  50) = (   1.7291544   2.9413089  18.4820742  )
        51           H1  tau(  51) = (   5.4410488   3.0579230  17.9716058  )
        52           O1  tau(  52) = (   3.3635319   0.0010587  18.1193045  )
        53           H1  tau(  53) = (   4.1580425   0.0400832  18.6733683  )

     number of k points=    10  Fermi-Dirac smearing, width (Ry)=  0.0073
                       cart. coord. in units 2pi/alat
        k(    1) = (   0.0000000   0.0000000   0.0000000), wk =   0.1250000
        k(    2) = (   0.0000000   0.0419351   0.0000000), wk =   0.2500000
        k(    3) = (   0.0000000  -0.0838702   0.0000000), wk =   0.1250000
        k(    4) = (   0.0379955   0.0000049   0.0000000), wk =   0.2500000
        k(    5) = (   0.0379955   0.0419400   0.0000000), wk =   0.2500000
        k(    6) = (   0.0379955  -0.0838652   0.0000000), wk =   0.2500000
        k(    7) = (   0.0379955  -0.0419301   0.0000000), wk =   0.2500000
        k(    8) = (  -0.0759910  -0.0000099   0.0000000), wk =   0.1250000
        k(    9) = (  -0.0759910   0.0419252   0.0000000), wk =   0.2500000
        k(   10) = (  -0.0759910  -0.0838800   0.0000000), wk =   0.1250000

     Dense  grid:   566857 G-vectors     FFT dimensions: (  72,  64, 270)

     Smooth grid:   143421 G-vectors     FFT dimensions: (  45,  40, 180)

     Estimated max dynamical RAM per process >     366.30 MB

     Estimated total dynamical RAM >       3.58 GB
     Cannot read rho : file not found

     Initial potential from superposition of free atoms

     starting charge  379.99917, renormalised to  396.00000

     negative rho (up, down):  1.779E-02 0.000E+00


     %%%%%%%%%%%%%%%%%%%%%%%%%%%%%%%%%%%%%%%%%%%%%%%%%%%%%%%%%%%%%%%%%%%%%%%%
     %                                                                      %
     % You are using vdW-DF, which was implemented by the Thonhauser group. %
     % Please cite the following two papers that made this development      %
     % possible and the two reviews that describe the various versions:     %
     %                                                                      %
     %   T. Thonhauser et al., PRL 115, 136402 (2015).                      %
     %   T. Thonhauser et al., PRB 76, 125112 (2007).                       %
     %   K. Berland et al., Rep. Prog. Phys. 78, 066501 (2015).             %
     %   D.C. Langreth et al., J. Phys.: Condens. Matter 21, 084203 (2009). %
     %                                                                      %
     %                                                                      %
     % If you are calculating the stress with vdW-DF, please also cite:     %
     %                                                                      %
     %   R. Sabatini et al., J. Phys.: Condens. Matter 24, 424209 (2012).   %
     %                                                                      %
     %%%%%%%%%%%%%%%%%%%%%%%%%%%%%%%%%%%%%%%%%%%%%%%%%%%%%%%%%%%%%%%%%%%%%%%%


 
     Adding external electric field

     Computed dipole along edir(3) : 
        Dipole               -8.0693 Ry au,        -20.5101 Debye
        Dipole field         -0.0152 Ry au, 
 
        Potential amp.        1.4116 Ry
        Total length         46.3494 bohr
 
     Starting wfcs are  299 atomic wfcs
  @ DRIVER MODE: Message from server: STATUS
  @ DRIVER MODE: Message from server: POSDATA
  @ DRIVER MODE: Reading and sharing cell 
  @ DRIVER MODE: Reading and sharing positions 
  @ DRIVER MODE: Received positions 

     total cpu time spent up to now is       51.4 secs

     Self-consistent Calculation

     iteration #  1     ecut=    29.40 Ry     beta= 0.05
     Davidson diagonalization with overlap
     c_bands:  2 eigenvalues not converged
     c_bands:  1 eigenvalues not converged
     c_bands:  3 eigenvalues not converged
     c_bands:  1 eigenvalues not converged
     c_bands:  2 eigenvalues not converged
     c_bands:  1 eigenvalues not converged
     c_bands:  1 eigenvalues not converged
     ethr =  1.00E-05,  avg # of iterations = 18.9

     negative rho (up, down):  1.511E-02 0.000E+00
 
     Adding external electric field

     Computed dipole along edir(3) : 
        Dipole               38.9895 Ry au,         99.1015 Debye
        Dipole field          0.0736 Ry au, 
 
        Potential amp.       -6.8206 Ry
        Total length         46.3494 bohr
 

     total cpu time spent up to now is       91.7 secs

     total energy              =   -2618.23854628 Ry
     estimated scf accuracy    <    3681.25546571 Ry

     iteration #  2     ecut=    29.40 Ry     beta= 0.05
     Davidson diagonalization with overlap
     ethr =  1.00E-02,  avg # of iterations = 21.7

     negative rho (up, down):  5.594E-03 0.000E+00
 
     Adding external electric field

     Computed dipole along edir(3) : 
        Dipole               -2.1521 Ry au,         -5.4701 Debye
        Dipole field         -0.0041 Ry au, 
 
        Potential amp.        0.3765 Ry
        Total length         46.3494 bohr
 

     total cpu time spent up to now is      160.8 secs

     total energy              =   -2471.09159079 Ry
     estimated scf accuracy    <   64494.67167488 Ry

     iteration #  3     ecut=    29.40 Ry     beta= 0.05
     Davidson diagonalization with overlap
     ethr =  1.00E-02,  avg # of iterations = 15.0

     negative rho (up, down):  5.655E-03 0.000E+00
 
     Adding external electric field

     Computed dipole along edir(3) : 
        Dipole               -4.2649 Ry au,        -10.8402 Debye
        Dipole field         -0.0080 Ry au, 
 
        Potential amp.        0.7461 Ry
        Total length         46.3494 bohr
 

     total cpu time spent up to now is      206.6 secs

     total energy              =   -2929.70900743 Ry
     estimated scf accuracy    <    3822.56335433 Ry

     iteration #  4     ecut=    29.40 Ry     beta= 0.05
     Davidson diagonalization with overlap
     c_bands:  3 eigenvalues not converged
     c_bands:  3 eigenvalues not converged
     ethr =  1.00E-02,  avg # of iterations = 14.9

     negative rho (up, down):  5.694E-03 0.000E+00
 
     Adding external electric field

     Computed dipole along edir(3) : 
        Dipole               -5.2017 Ry au,        -13.2215 Debye
        Dipole field         -0.0098 Ry au, 
 
        Potential amp.        0.9100 Ry
        Total length         46.3494 bohr
 

     total cpu time spent up to now is      226.9 secs

     total energy              =   -2943.58458615 Ry
     estimated scf accuracy    <     656.00524903 Ry

     iteration #  5     ecut=    29.40 Ry     beta= 0.05
     Davidson diagonalization with overlap
     ethr =  1.00E-02,  avg # of iterations =  4.6

     negative rho (up, down):  5.690E-03 0.000E+00
 
     Adding external electric field

     Computed dipole along edir(3) : 
        Dipole               -5.6127 Ry au,        -14.2662 Debye
        Dipole field         -0.0106 Ry au, 
 
        Potential amp.        0.9819 Ry
        Total length         46.3494 bohr
 

     total cpu time spent up to now is      238.7 secs

     total energy              =   -2944.16279999 Ry
     estimated scf accuracy    <     339.02263891 Ry

     iteration #  6     ecut=    29.40 Ry     beta= 0.05
     Davidson diagonalization with overlap
     ethr =  1.00E-02,  avg # of iterations =  3.3

     negative rho (up, down):  5.828E-03 0.000E+00
 
     Adding external electric field

     Computed dipole along edir(3) : 
        Dipole               -6.8915 Ry au,        -17.5164 Debye
        Dipole field         -0.0130 Ry au, 
 
        Potential amp.        1.2056 Ry
        Total length         46.3494 bohr
 

     total cpu time spent up to now is      249.7 secs

     total energy              =   -2937.45548846 Ry
     estimated scf accuracy    <     304.69885424 Ry

     iteration #  7     ecut=    29.40 Ry     beta= 0.05
     Davidson diagonalization with overlap
     ethr =  1.00E-02,  avg # of iterations =  9.5

     negative rho (up, down):  4.732E-03 0.000E+00
 
     Adding external electric field

     Computed dipole along edir(3) : 
        Dipole               -5.7838 Ry au,        -14.7010 Debye
        Dipole field         -0.0109 Ry au, 
 
        Potential amp.        1.0118 Ry
        Total length         46.3494 bohr
 

     total cpu time spent up to now is      268.0 secs

     total energy              =   -2952.81690984 Ry
     estimated scf accuracy    <     133.32419584 Ry

     iteration #  8     ecut=    29.40 Ry     beta= 0.05
     Davidson diagonalization with overlap
     ethr =  1.00E-02,  avg # of iterations =  1.8

     negative rho (up, down):  4.750E-03 0.000E+00
 
     Adding external electric field

     Computed dipole along edir(3) : 
        Dipole               -5.4208 Ry au,        -13.7783 Debye
        Dipole field         -0.0102 Ry au, 
 
        Potential amp.        0.9483 Ry
        Total length         46.3494 bohr
 

     total cpu time spent up to now is      278.7 secs

     total energy              =   -2954.26545560 Ry
     estimated scf accuracy    <      20.49743643 Ry

     iteration #  9     ecut=    29.40 Ry     beta= 0.05
     Davidson diagonalization with overlap
     ethr =  5.18E-03,  avg # of iterations =  1.1

     negative rho (up, down):  4.821E-03 0.000E+00
 
     Adding external electric field

     Computed dipole along edir(3) : 
        Dipole               -5.3103 Ry au,        -13.4975 Debye
        Dipole field         -0.0100 Ry au, 
 
        Potential amp.        0.9290 Ry
        Total length         46.3494 bohr
 

     total cpu time spent up to now is      288.8 secs

     total energy              =   -2954.22249400 Ry
     estimated scf accuracy    <      19.25356589 Ry

     iteration # 10     ecut=    29.40 Ry     beta= 0.05
     Davidson diagonalization with overlap
     ethr =  4.86E-03,  avg # of iterations =  1.0

     negative rho (up, down):  6.030E-03 0.000E+00
 
     Adding external electric field

     Computed dipole along edir(3) : 
        Dipole               -3.8176 Ry au,         -9.7034 Debye
        Dipole field         -0.0072 Ry au, 
 
        Potential amp.        0.6678 Ry
        Total length         46.3494 bohr
 

     total cpu time spent up to now is      298.7 secs

     total energy              =   -2952.47134687 Ry
     estimated scf accuracy    <      18.88086417 Ry

     iteration # 11     ecut=    29.40 Ry     beta= 0.05
     Davidson diagonalization with overlap
     c_bands:  1 eigenvalues not converged
     ethr =  4.77E-03,  avg # of iterations = 14.4

     negative rho (up, down):  1.516E-02 0.000E+00
 
     Adding external electric field

     Computed dipole along edir(3) : 
        Dipole               -2.0531 Ry au,         -5.2185 Debye
        Dipole field         -0.0039 Ry au, 
 
        Potential amp.        0.3592 Ry
        Total length         46.3494 bohr
 

     total cpu time spent up to now is      313.7 secs

     total energy              =   -2951.67511702 Ry
     estimated scf accuracy    <       8.45929702 Ry

     iteration # 12     ecut=    29.40 Ry     beta= 0.05
     Davidson diagonalization with overlap
     ethr =  2.14E-03,  avg # of iterations = 15.3

     negative rho (up, down):  6.951E-03 0.000E+00
 
     Adding external electric field

     Computed dipole along edir(3) : 
        Dipole               -2.9559 Ry au,         -7.5132 Debye
        Dipole field         -0.0056 Ry au, 
 
        Potential amp.        0.5171 Ry
        Total length         46.3494 bohr
 

     total cpu time spent up to now is      332.8 secs

     total energy              =   -2948.84155840 Ry
     estimated scf accuracy    <     289.61208836 Ry

     iteration # 13     ecut=    29.40 Ry     beta= 0.05
     Davidson diagonalization with overlap
     c_bands:  2 eigenvalues not converged
     ethr =  2.14E-03,  avg # of iterations = 12.9

     negative rho (up, down):  5.753E-03 0.000E+00
 
     Adding external electric field

     Computed dipole along edir(3) : 
        Dipole               -2.6168 Ry au,         -6.6511 Debye
        Dipole field         -0.0049 Ry au, 
 
        Potential amp.        0.4578 Ry
        Total length         46.3494 bohr
 

     total cpu time spent up to now is      348.4 secs

     total energy              =   -2950.90783188 Ry
     estimated scf accuracy    <      15.18879810 Ry

     iteration # 14     ecut=    29.40 Ry     beta= 0.05
     Davidson diagonalization with overlap
     ethr =  2.14E-03,  avg # of iterations =  1.5

     negative rho (up, down):  4.621E-03 0.000E+00
 
     Adding external electric field

     Computed dipole along edir(3) : 
        Dipole               -2.2995 Ry au,         -5.8448 Debye
        Dipole field         -0.0043 Ry au, 
 
        Potential amp.        0.4023 Ry
        Total length         46.3494 bohr
 

     total cpu time spent up to now is      358.6 secs

     total energy              =   -2950.64514273 Ry
     estimated scf accuracy    <      10.07536908 Ry

     iteration # 15     ecut=    29.40 Ry     beta= 0.05
     Davidson diagonalization with overlap
     ethr =  2.14E-03,  avg # of iterations =  3.2

     negative rho (up, down):  4.040E-03 0.000E+00
 
     Adding external electric field

     Computed dipole along edir(3) : 
        Dipole               -2.5610 Ry au,         -6.5094 Debye
        Dipole field         -0.0048 Ry au, 
 
        Potential amp.        0.4480 Ry
        Total length         46.3494 bohr
 

     total cpu time spent up to now is      369.7 secs

     total energy              =   -2950.61971033 Ry
     estimated scf accuracy    <       3.97197074 Ry

     iteration # 16     ecut=    29.40 Ry     beta= 0.05
     Davidson diagonalization with overlap
     c_bands:  2 eigenvalues not converged
     c_bands:  4 eigenvalues not converged
     c_bands:  1 eigenvalues not converged
     c_bands:  3 eigenvalues not converged
     ethr =  1.00E-03,  avg # of iterations = 17.3

     negative rho (up, down):  3.887E-03 0.000E+00
 
     Adding external electric field

     Computed dipole along edir(3) : 
        Dipole               -2.7294 Ry au,         -6.9373 Debye
        Dipole field         -0.0052 Ry au, 
 
        Potential amp.        0.4775 Ry
        Total length         46.3494 bohr
 

     total cpu time spent up to now is      388.9 secs

     total energy              =   -2951.93109776 Ry
     estimated scf accuracy    <       8.24599168 Ry

     iteration # 17     ecut=    29.40 Ry     beta= 0.05
     Davidson diagonalization with overlap
     ethr =  1.00E-03,  avg # of iterations =  4.5

     negative rho (up, down):  4.074E-03 0.000E+00
 
     Adding external electric field

     Computed dipole along edir(3) : 
        Dipole               -2.6898 Ry au,         -6.8369 Debye
        Dipole field         -0.0051 Ry au, 
 
        Potential amp.        0.4705 Ry
        Total length         46.3494 bohr
 

     total cpu time spent up to now is      400.2 secs

     total energy              =   -2951.89552839 Ry
     estimated scf accuracy    <      14.30902473 Ry

     iteration # 18     ecut=    29.40 Ry     beta= 0.05
     Davidson diagonalization with overlap
     ethr =  1.00E-03,  avg # of iterations =  3.1

     negative rho (up, down):  4.746E-03 0.000E+00
 
     Adding external electric field

     Computed dipole along edir(3) : 
        Dipole               -2.3548 Ry au,         -5.9852 Debye
        Dipole field         -0.0044 Ry au, 
 
        Potential amp.        0.4119 Ry
        Total length         46.3494 bohr
 

     total cpu time spent up to now is      411.1 secs

     total energy              =   -2951.84015554 Ry
     estimated scf accuracy    <      10.17024445 Ry

     iteration # 19     ecut=    29.40 Ry     beta= 0.05
     Davidson diagonalization with overlap
     c_bands:  1 eigenvalues not converged
     ethr =  1.00E-03,  avg # of iterations =  4.0

     negative rho (up, down):  4.997E-03 0.000E+00
 
     Adding external electric field

     Computed dipole along edir(3) : 
        Dipole               -2.1928 Ry au,         -5.5736 Debye
        Dipole field         -0.0041 Ry au, 
 
        Potential amp.        0.3836 Ry
        Total length         46.3494 bohr
 

     total cpu time spent up to now is      422.1 secs

     total energy              =   -2951.70997498 Ry
     estimated scf accuracy    <      12.78076870 Ry

     iteration # 20     ecut=    29.40 Ry     beta= 0.05
     Davidson diagonalization with overlap
     ethr =  1.00E-03,  avg # of iterations =  1.1

     negative rho (up, down):  5.729E-03 0.000E+00
 
     Adding external electric field

     Computed dipole along edir(3) : 
        Dipole               -1.8791 Ry au,         -4.7763 Debye
        Dipole field         -0.0035 Ry au, 
 
        Potential amp.        0.3287 Ry
        Total length         46.3494 bohr
 

     total cpu time spent up to now is      432.1 secs

     total energy              =   -2951.62177565 Ry
     estimated scf accuracy    <       8.66804504 Ry

     iteration # 21     ecut=    29.40 Ry     beta= 0.05
     Davidson diagonalization with overlap
     ethr =  1.00E-03,  avg # of iterations =  1.1

     negative rho (up, down):  7.600E-03 0.000E+00
 
     Adding external electric field

     Computed dipole along edir(3) : 
        Dipole               -1.7782 Ry au,         -4.5198 Debye
        Dipole field         -0.0034 Ry au, 
 
        Potential amp.        0.3111 Ry
        Total length         46.3494 bohr
 

     total cpu time spent up to now is      442.2 secs

     total energy              =   -2951.49941064 Ry
     estimated scf accuracy    <       8.13212497 Ry

     iteration # 22     ecut=    29.40 Ry     beta= 0.05
     Davidson diagonalization with overlap
     ethr =  1.00E-03,  avg # of iterations =  1.2

     negative rho (up, down):  7.464E-03 0.000E+00
 
     Adding external electric field

     Computed dipole along edir(3) : 
        Dipole               -1.7375 Ry au,         -4.4163 Debye
        Dipole field         -0.0033 Ry au, 
 
        Potential amp.        0.3040 Ry
        Total length         46.3494 bohr
 

     total cpu time spent up to now is      452.3 secs

     total energy              =   -2951.51119009 Ry
     estimated scf accuracy    <       6.92554884 Ry

     iteration # 23     ecut=    29.40 Ry     beta= 0.05
     Davidson diagonalization with overlap
     ethr =  1.00E-03,  avg # of iterations =  1.1

     negative rho (up, down):  8.906E-03 0.000E+00
 
     Adding external electric field

     Computed dipole along edir(3) : 
        Dipole               -1.2833 Ry au,         -3.2617 Debye
        Dipole field         -0.0024 Ry au, 
 
        Potential amp.        0.2245 Ry
        Total length         46.3494 bohr
 

     total cpu time spent up to now is      462.3 secs

     total energy              =   -2951.56488358 Ry
     estimated scf accuracy    <       6.79549050 Ry

     iteration # 24     ecut=    29.40 Ry     beta= 0.05
     Davidson diagonalization with overlap
     c_bands:  1 eigenvalues not converged
     ethr =  1.00E-03,  avg # of iterations =  4.4

     negative rho (up, down):  4.997E-02 0.000E+00
 
     Adding external electric field

     Computed dipole along edir(3) : 
        Dipole               -1.0998 Ry au,         -2.7954 Debye
        Dipole field         -0.0021 Ry au, 
 
        Potential amp.        0.1924 Ry
        Total length         46.3494 bohr
 

     total cpu time spent up to now is      473.5 secs

     total energy              =   -2951.10138815 Ry
     estimated scf accuracy    <      14.48074304 Ry

     iteration # 25     ecut=    29.40 Ry     beta= 0.05
     Davidson diagonalization with overlap
     c_bands:  1 eigenvalues not converged
     ethr =  1.00E-03,  avg # of iterations = 15.4

     negative rho (up, down):  4.639E-02 0.000E+00
 
     Adding external electric field

     Computed dipole along edir(3) : 
        Dipole               -0.6986 Ry au,         -1.7755 Debye
        Dipole field         -0.0013 Ry au, 
 
        Potential amp.        0.1222 Ry
        Total length         46.3494 bohr
 

     total cpu time spent up to now is      491.1 secs

     total energy              =   -2952.07949852 Ry
     estimated scf accuracy    <      39.06859246 Ry

     iteration # 26     ecut=    29.40 Ry     beta= 0.05
     Davidson diagonalization with overlap
     c_bands:  2 eigenvalues not converged
     ethr =  1.00E-03,  avg # of iterations = 11.9

     negative rho (up, down):  3.786E-02 0.000E+00
 
     Adding external electric field

     Computed dipole along edir(3) : 
        Dipole               -0.8403 Ry au,         -2.1358 Debye
        Dipole field         -0.0016 Ry au, 
 
        Potential amp.        0.1470 Ry
        Total length         46.3494 bohr
 

     total cpu time spent up to now is      505.1 secs

     total energy              =   -2952.16002894 Ry
     estimated scf accuracy    <     119.35710750 Ry

     iteration # 27     ecut=    29.40 Ry     beta= 0.05
     Davidson diagonalization with overlap
     ethr =  1.00E-03,  avg # of iterations =  1.2

     negative rho (up, down):  1.290E-02 0.000E+00
 
     Adding external electric field

     Computed dipole along edir(3) : 
        Dipole               -1.0336 Ry au,         -2.6273 Debye
        Dipole field         -0.0020 Ry au, 
 
        Potential amp.        0.1808 Ry
        Total length         46.3494 bohr
 

     total cpu time spent up to now is      515.2 secs

     total energy              =   -2949.85329422 Ry
     estimated scf accuracy    <      67.53363680 Ry

     iteration # 28     ecut=    29.40 Ry     beta= 0.05
     Davidson diagonalization with overlap
     ethr =  1.00E-03,  avg # of iterations =  6.9

     negative rho (up, down):  8.233E-03 0.000E+00
 
     Adding external electric field

     Computed dipole along edir(3) : 
        Dipole               -1.1008 Ry au,         -2.7980 Debye
        Dipole field         -0.0021 Ry au, 
 
        Potential amp.        0.1926 Ry
        Total length         46.3494 bohr
 

     total cpu time spent up to now is      527.9 secs

     total energy              =   -2951.35240230 Ry
     estimated scf accuracy    <       0.75840334 Ry

     iteration # 29     ecut=    29.40 Ry     beta= 0.05
     Davidson diagonalization with overlap
     c_bands:  1 eigenvalues not converged
     c_bands:  1 eigenvalues not converged
     ethr =  1.92E-04,  avg # of iterations = 15.8

     negative rho (up, down):  7.793E-03 0.000E+00
 
     Adding external electric field

     Computed dipole along edir(3) : 
        Dipole               -1.2296 Ry au,         -3.1254 Debye
        Dipole field         -0.0023 Ry au, 
 
        Potential amp.        0.2151 Ry
        Total length         46.3494 bohr
 

     total cpu time spent up to now is      545.8 secs

     total energy              =   -2951.43767245 Ry
     estimated scf accuracy    <       1.91237483 Ry

     iteration # 30     ecut=    29.40 Ry     beta= 0.05
     Davidson diagonalization with overlap
     ethr =  1.92E-04,  avg # of iterations =  2.7

     negative rho (up, down):  7.656E-03 0.000E+00
 
     Adding external electric field

     Computed dipole along edir(3) : 
        Dipole               -1.2476 Ry au,         -3.1710 Debye
        Dipole field         -0.0024 Ry au, 
 
        Potential amp.        0.2182 Ry
        Total length         46.3494 bohr
 

     total cpu time spent up to now is      556.8 secs

     total energy              =   -2951.43578767 Ry
     estimated scf accuracy    <       1.20389769 Ry

     iteration # 31     ecut=    29.40 Ry     beta= 0.05
     Davidson diagonalization with overlap
     ethr =  1.92E-04,  avg # of iterations =  2.2

     negative rho (up, down):  8.165E-03 0.000E+00
 
     Adding external electric field

     Computed dipole along edir(3) : 
        Dipole               -0.7966 Ry au,         -2.0247 Debye
        Dipole field         -0.0015 Ry au, 
 
        Potential amp.        0.1394 Ry
        Total length         46.3494 bohr
 

     total cpu time spent up to now is      567.1 secs

     total energy              =   -2951.41647930 Ry
     estimated scf accuracy    <       0.67029022 Ry

     iteration # 32     ecut=    29.40 Ry     beta= 0.05
     Davidson diagonalization with overlap
     ethr =  1.69E-04,  avg # of iterations =  2.4

     negative rho (up, down):  8.277E-03 0.000E+00
 
     Adding external electric field

     Computed dipole along edir(3) : 
        Dipole               -0.7068 Ry au,         -1.7965 Debye
        Dipole field         -0.0013 Ry au, 
 
        Potential amp.        0.1236 Ry
        Total length         46.3494 bohr
 

     total cpu time spent up to now is      578.2 secs

     total energy              =   -2951.41959951 Ry
     estimated scf accuracy    <       1.01646046 Ry

     iteration # 33     ecut=    29.40 Ry     beta= 0.05
     Davidson diagonalization with overlap
     ethr =  1.69E-04,  avg # of iterations =  1.0

     negative rho (up, down):  8.006E-03 0.000E+00
 
     Adding external electric field

     Computed dipole along edir(3) : 
        Dipole               -0.5164 Ry au,         -1.3126 Debye
        Dipole field         -0.0010 Ry au, 
 
        Potential amp.        0.0903 Ry
        Total length         46.3494 bohr
 

     total cpu time spent up to now is      588.1 secs

     total energy              =   -2951.41118990 Ry
     estimated scf accuracy    <       0.53019514 Ry

     iteration # 34     ecut=    29.40 Ry     beta= 0.05
     Davidson diagonalization with overlap
     ethr =  1.34E-04,  avg # of iterations =  1.4

     negative rho (up, down):  5.939E-03 0.000E+00
 
     Adding external electric field

     Computed dipole along edir(3) : 
        Dipole               -0.4888 Ry au,         -1.2423 Debye
        Dipole field         -0.0009 Ry au, 
 
        Potential amp.        0.0855 Ry
        Total length         46.3494 bohr
 

     total cpu time spent up to now is      598.4 secs

     total energy              =   -2951.38699201 Ry
     estimated scf accuracy    <       0.54144215 Ry

     iteration # 35     ecut=    29.40 Ry     beta= 0.05
     Davidson diagonalization with overlap
     c_bands:  2 eigenvalues not converged
     ethr =  1.34E-04,  avg # of iterations =  7.2

     negative rho (up, down):  6.240E-03 0.000E+00
 
     Adding external electric field

     Computed dipole along edir(3) : 
        Dipole               -0.0541 Ry au,         -0.1376 Debye
        Dipole field         -0.0001 Ry au, 
 
        Potential amp.        0.0095 Ry
        Total length         46.3494 bohr
 

     total cpu time spent up to now is      610.9 secs

     total energy              =   -2951.36767295 Ry
     estimated scf accuracy    <       0.70076950 Ry

     iteration # 36     ecut=    29.40 Ry     beta= 0.05
     Davidson diagonalization with overlap
     c_bands:  2 eigenvalues not converged
     c_bands:  5 eigenvalues not converged
     ethr =  1.34E-04,  avg # of iterations =  7.1

     negative rho (up, down):  1.043E-02 0.000E+00
 
     Adding external electric field

     Computed dipole along edir(3) : 
        Dipole                0.3798 Ry au,          0.9653 Debye
        Dipole field          0.0007 Ry au, 
 
        Potential amp.       -0.0664 Ry
        Total length         46.3494 bohr
 

     total cpu time spent up to now is      623.3 secs

     total energy              =   -2951.37468003 Ry
     estimated scf accuracy    <       0.23827267 Ry

     iteration # 37     ecut=    29.40 Ry     beta= 0.05
     Davidson diagonalization with overlap
     c_bands:  2 eigenvalues not converged
     c_bands:  5 eigenvalues not converged
     c_bands:  4 eigenvalues not converged
     c_bands:  4 eigenvalues not converged
     c_bands:  3 eigenvalues not converged
     c_bands:  3 eigenvalues not converged
     c_bands:  3 eigenvalues not converged
     c_bands:  3 eigenvalues not converged
     c_bands:  5 eigenvalues not converged
     ethr =  6.02E-05,  avg # of iterations = 20.8

     negative rho (up, down):  8.855E-03 0.000E+00
 
     Adding external electric field

     Computed dipole along edir(3) : 
        Dipole                0.0105 Ry au,          0.0267 Debye
        Dipole field          0.0000 Ry au, 
 
        Potential amp.       -0.0018 Ry
        Total length         46.3494 bohr
 

     total cpu time spent up to now is      645.1 secs

     total energy              =   -2951.37832269 Ry
     estimated scf accuracy    <       0.45860485 Ry

     iteration # 38     ecut=    29.40 Ry     beta= 0.05
     Davidson diagonalization with overlap
     ethr =  6.02E-05,  avg # of iterations =  7.6

     negative rho (up, down):  1.054E-02 0.000E+00
 
     Adding external electric field

     Computed dipole along edir(3) : 
        Dipole                0.1028 Ry au,          0.2613 Debye
        Dipole field          0.0002 Ry au, 
 
        Potential amp.       -0.0180 Ry
        Total length         46.3494 bohr
 

     total cpu time spent up to now is      657.4 secs

     total energy              =   -2951.38024349 Ry
     estimated scf accuracy    <       0.31972911 Ry

     iteration # 39     ecut=    29.40 Ry     beta= 0.05
     Davidson diagonalization with overlap
     ethr =  6.02E-05,  avg # of iterations =  1.0

     negative rho (up, down):  1.413E-02 0.000E+00
 
     Adding external electric field

     Computed dipole along edir(3) : 
        Dipole                0.0752 Ry au,          0.1911 Debye
        Dipole field          0.0001 Ry au, 
 
        Potential amp.       -0.0131 Ry
        Total length         46.3494 bohr
 

     total cpu time spent up to now is      667.4 secs

     total energy              =   -2951.36864773 Ry
     estimated scf accuracy    <       0.22992548 Ry

     iteration # 40     ecut=    29.40 Ry     beta= 0.05
     Davidson diagonalization with overlap
     c_bands:  2 eigenvalues not converged
     c_bands:  2 eigenvalues not converged
     c_bands:  1 eigenvalues not converged
     c_bands:  2 eigenvalues not converged
     ethr =  5.81E-05,  avg # of iterations = 13.6

     negative rho (up, down):  1.382E-02 0.000E+00
 
     Adding external electric field

     Computed dipole along edir(3) : 
        Dipole                0.1903 Ry au,          0.4836 Debye
        Dipole field          0.0004 Ry au, 
 
        Potential amp.       -0.0333 Ry
        Total length         46.3494 bohr
 

     total cpu time spent up to now is      682.3 secs

     total energy              =   -2951.37429561 Ry
     estimated scf accuracy    <       0.12375849 Ry

     iteration # 41     ecut=    29.40 Ry     beta= 0.05
     Davidson diagonalization with overlap
     ethr =  3.13E-05,  avg # of iterations =  7.4

     negative rho (up, down):  1.230E-02 0.000E+00
 
     Adding external electric field

     Computed dipole along edir(3) : 
        Dipole                0.0627 Ry au,          0.1594 Debye
        Dipole field          0.0001 Ry au, 
 
        Potential amp.       -0.0110 Ry
        Total length         46.3494 bohr
 

     total cpu time spent up to now is      694.6 secs

     total energy              =   -2951.37161345 Ry
     estimated scf accuracy    <       0.01752474 Ry

     iteration # 42     ecut=    29.40 Ry     beta= 0.05
     Davidson diagonalization with overlap
     c_bands:  2 eigenvalues not converged
     c_bands:  4 eigenvalues not converged
     c_bands:  3 eigenvalues not converged
     c_bands:  2 eigenvalues not converged
     c_bands:  1 eigenvalues not converged
     c_bands:  2 eigenvalues not converged
     c_bands:  2 eigenvalues not converged
     ethr =  4.43E-06,  avg # of iterations = 18.4

     negative rho (up, down):  1.291E-02 0.000E+00
 
     Adding external electric field

     Computed dipole along edir(3) : 
        Dipole                0.0796 Ry au,          0.2023 Debye
        Dipole field          0.0002 Ry au, 
 
        Potential amp.       -0.0139 Ry
        Total length         46.3494 bohr
 

     total cpu time spent up to now is      718.3 secs

     total energy              =   -2951.37803165 Ry
     estimated scf accuracy    <       0.12182299 Ry

     iteration # 43     ecut=    29.40 Ry     beta= 0.05
     Davidson diagonalization with overlap
     c_bands:  1 eigenvalues not converged
     ethr =  4.43E-06,  avg # of iterations =  6.7

     negative rho (up, down):  1.306E-02 0.000E+00
 
     Adding external electric field

     Computed dipole along edir(3) : 
        Dipole                0.1278 Ry au,          0.3249 Debye
        Dipole field          0.0002 Ry au, 
 
        Potential amp.       -0.0224 Ry
        Total length         46.3494 bohr
 

     total cpu time spent up to now is      730.2 secs

     total energy              =   -2951.37497395 Ry
     estimated scf accuracy    <       0.10221345 Ry

     iteration # 44     ecut=    29.40 Ry     beta= 0.05
     Davidson diagonalization with overlap
     ethr =  4.43E-06,  avg # of iterations =  7.1

     negative rho (up, down):  1.333E-02 0.000E+00
 
     Adding external electric field

     Computed dipole along edir(3) : 
        Dipole                0.1323 Ry au,          0.3364 Debye
        Dipole field          0.0002 Ry au, 
 
        Potential amp.       -0.0232 Ry
        Total length         46.3494 bohr
 

     total cpu time spent up to now is      742.4 secs

     total energy              =   -2951.37613823 Ry
     estimated scf accuracy    <       0.00658682 Ry

     iteration # 45     ecut=    29.40 Ry     beta= 0.05
     Davidson diagonalization with overlap
     ethr =  1.66E-06,  avg # of iterations =  6.6

     negative rho (up, down):  1.535E-02 0.000E+00
 
     Adding external electric field

     Computed dipole along edir(3) : 
        Dipole                0.1976 Ry au,          0.5023 Debye
        Dipole field          0.0004 Ry au, 
 
        Potential amp.       -0.0346 Ry
        Total length         46.3494 bohr
 

     total cpu time spent up to now is      754.9 secs

     total energy              =   -2951.37610235 Ry
     estimated scf accuracy    <       0.02328985 Ry

     iteration # 46     ecut=    29.40 Ry     beta= 0.05
     Davidson diagonalization with overlap
     ethr =  1.66E-06,  avg # of iterations =  6.5

     negative rho (up, down):  1.544E-02 0.000E+00
 
     Adding external electric field

     Computed dipole along edir(3) : 
        Dipole                0.1939 Ry au,          0.4929 Debye
        Dipole field          0.0004 Ry au, 
 
        Potential amp.       -0.0339 Ry
        Total length         46.3494 bohr
 

     total cpu time spent up to now is      767.7 secs

     total energy              =   -2951.37597927 Ry
     estimated scf accuracy    <       0.02604557 Ry

     iteration # 47     ecut=    29.40 Ry     beta= 0.05
     Davidson diagonalization with overlap
     c_bands:  1 eigenvalues not converged
     ethr =  1.66E-06,  avg # of iterations =  9.0

     negative rho (up, down):  1.468E-02 0.000E+00
 
     Adding external electric field

     Computed dipole along edir(3) : 
        Dipole                0.1730 Ry au,          0.4398 Debye
        Dipole field          0.0003 Ry au, 
 
        Potential amp.       -0.0303 Ry
        Total length         46.3494 bohr
 

     total cpu time spent up to now is      780.5 secs

     total energy              =   -2951.37593407 Ry
     estimated scf accuracy    <       0.00637668 Ry

     iteration # 48     ecut=    29.40 Ry     beta= 0.05
     Davidson diagonalization with overlap
     ethr =  1.61E-06,  avg # of iterations =  3.0

     negative rho (up, down):  1.513E-02 0.000E+00
 
     Adding external electric field

     Computed dipole along edir(3) : 
        Dipole                0.1751 Ry au,          0.4451 Debye
        Dipole field          0.0003 Ry au, 
 
        Potential amp.       -0.0306 Ry
        Total length         46.3494 bohr
 

     total cpu time spent up to now is      791.7 secs

     total energy              =   -2951.37608807 Ry
     estimated scf accuracy    <       0.00133931 Ry

     iteration # 49     ecut=    29.40 Ry     beta= 0.05
     Davidson diagonalization with overlap
     c_bands:  1 eigenvalues not converged
     c_bands:  1 eigenvalues not converged
     ethr =  3.38E-07,  avg # of iterations = 15.3

     negative rho (up, down):  1.565E-02 0.000E+00
 
     Adding external electric field

     Computed dipole along edir(3) : 
        Dipole                0.1955 Ry au,          0.4970 Debye
        Dipole field          0.0004 Ry au, 
 
        Potential amp.       -0.0342 Ry
        Total length         46.3494 bohr
 

     total cpu time spent up to now is      812.1 secs

     total energy              =   -2951.37608021 Ry
     estimated scf accuracy    <       0.00308785 Ry

     iteration # 50     ecut=    29.40 Ry     beta= 0.05
     Davidson diagonalization with overlap
     ethr =  3.38E-07,  avg # of iterations =  6.7

     negative rho (up, down):  1.618E-02 0.000E+00
 
     Adding external electric field

     Computed dipole along edir(3) : 
        Dipole                0.1996 Ry au,          0.5073 Debye
        Dipole field          0.0004 Ry au, 
 
        Potential amp.       -0.0349 Ry
        Total length         46.3494 bohr
 

     total cpu time spent up to now is      825.1 secs

     total energy              =   -2951.37622987 Ry
     estimated scf accuracy    <       0.00090382 Ry

     iteration # 51     ecut=    29.40 Ry     beta= 0.05
     Davidson diagonalization with overlap
     ethr =  2.28E-07,  avg # of iterations =  4.1

     negative rho (up, down):  1.682E-02 0.000E+00
 
     Adding external electric field

     Computed dipole along edir(3) : 
        Dipole                0.2098 Ry au,          0.5332 Debye
        Dipole field          0.0004 Ry au, 
 
        Potential amp.       -0.0367 Ry
        Total length         46.3494 bohr
 

     total cpu time spent up to now is      836.4 secs

     total energy              =   -2951.37620072 Ry
     estimated scf accuracy    <       0.00084632 Ry

     iteration # 52     ecut=    29.40 Ry     beta= 0.05
     Davidson diagonalization with overlap
     ethr =  2.14E-07,  avg # of iterations =  3.3

     negative rho (up, down):  1.676E-02 0.000E+00
 
     Adding external electric field

     Computed dipole along edir(3) : 
        Dipole                0.2130 Ry au,          0.5415 Debye
        Dipole field          0.0004 Ry au, 
 
        Potential amp.       -0.0373 Ry
        Total length         46.3494 bohr
 

     total cpu time spent up to now is      847.8 secs

     total energy              =   -2951.37623873 Ry
     estimated scf accuracy    <       0.00011637 Ry

     iteration # 53     ecut=    29.40 Ry     beta= 0.05
     Davidson diagonalization with overlap
     ethr =  2.94E-08,  avg # of iterations =  9.1

     negative rho (up, down):  1.671E-02 0.000E+00
 
     Adding external electric field

     Computed dipole along edir(3) : 
        Dipole                0.2104 Ry au,          0.5349 Debye
        Dipole field          0.0004 Ry au, 
 
        Potential amp.       -0.0368 Ry
        Total length         46.3494 bohr
 

     total cpu time spent up to now is      866.5 secs

     total energy              =   -2951.37629088 Ry
     estimated scf accuracy    <       0.00027335 Ry

     iteration # 54     ecut=    29.40 Ry     beta= 0.05
     Davidson diagonalization with overlap
     ethr =  2.94E-08,  avg # of iterations =  1.7

     negative rho (up, down):  1.644E-02 0.000E+00
 
     Adding external electric field

     Computed dipole along edir(3) : 
        Dipole                0.1886 Ry au,          0.4794 Debye
        Dipole field          0.0004 Ry au, 
 
        Potential amp.       -0.0330 Ry
        Total length         46.3494 bohr
 

     total cpu time spent up to now is      877.1 secs

     total energy              =   -2951.37620614 Ry
     estimated scf accuracy    <       0.00021829 Ry

     iteration # 55     ecut=    29.40 Ry     beta= 0.05
     Davidson diagonalization with overlap
     ethr =  2.94E-08,  avg # of iterations = 10.2

     negative rho (up, down):  1.668E-02 0.000E+00
 
     Adding external electric field

     Computed dipole along edir(3) : 
        Dipole                0.2081 Ry au,          0.5288 Debye
        Dipole field          0.0004 Ry au, 
 
        Potential amp.       -0.0364 Ry
        Total length         46.3494 bohr
 

     total cpu time spent up to now is      899.2 secs

     total energy              =   -2951.37613870 Ry
     estimated scf accuracy    <       0.00065346 Ry

     iteration # 56     ecut=    29.40 Ry     beta= 0.05
     Davidson diagonalization with overlap
     ethr =  2.94E-08,  avg # of iterations = 10.0

     negative rho (up, down):  1.673E-02 0.000E+00
 
     Adding external electric field

     Computed dipole along edir(3) : 
        Dipole                0.2060 Ry au,          0.5235 Debye
        Dipole field          0.0004 Ry au, 
 
        Potential amp.       -0.0360 Ry
        Total length         46.3494 bohr
 

     total cpu time spent up to now is      921.5 secs

     total energy              =   -2951.37631721 Ry
     estimated scf accuracy    <       0.00023906 Ry

     iteration # 57     ecut=    29.40 Ry     beta= 0.05
     Davidson diagonalization with overlap
     ethr =  2.94E-08,  avg # of iterations =  1.2

     negative rho (up, down):  1.666E-02 0.000E+00
 
     Adding external electric field

     Computed dipole along edir(3) : 
        Dipole                0.1986 Ry au,          0.5048 Debye
        Dipole field          0.0004 Ry au, 
 
        Potential amp.       -0.0347 Ry
        Total length         46.3494 bohr
 

     total cpu time spent up to now is      931.6 secs

     total energy              =   -2951.37628493 Ry
     estimated scf accuracy    <       0.00019918 Ry

     iteration # 58     ecut=    29.40 Ry     beta= 0.05
     Davidson diagonalization with overlap
     ethr =  2.94E-08,  avg # of iterations =  6.0

     negative rho (up, down):  1.657E-02 0.000E+00
 
     Adding external electric field

     Computed dipole along edir(3) : 
        Dipole                0.1965 Ry au,          0.4994 Debye
        Dipole field          0.0004 Ry au, 
 
        Potential amp.       -0.0344 Ry
        Total length         46.3494 bohr
 

     total cpu time spent up to now is      945.2 secs

     total energy              =   -2951.37630341 Ry
     estimated scf accuracy    <       0.00002519 Ry

     iteration # 59     ecut=    29.40 Ry     beta= 0.05
     Davidson diagonalization with overlap
     ethr =  6.36E-09,  avg # of iterations =  5.7

     negative rho (up, down):  1.655E-02 0.000E+00
 
     Adding external electric field

     Computed dipole along edir(3) : 
        Dipole                0.1942 Ry au,          0.4936 Debye
        Dipole field          0.0004 Ry au, 
 
        Potential amp.       -0.0340 Ry
        Total length         46.3494 bohr
 

     total cpu time spent up to now is      959.6 secs

     total energy              =   -2951.37631384 Ry
     estimated scf accuracy    <       0.00001181 Ry

     iteration # 60     ecut=    29.40 Ry     beta= 0.05
     Davidson diagonalization with overlap
     ethr =  2.98E-09,  avg # of iterations =  6.1

     negative rho (up, down):  1.658E-02 0.000E+00
 
     Adding external electric field

     Computed dipole along edir(3) : 
        Dipole                0.1942 Ry au,          0.4936 Debye
        Dipole field          0.0004 Ry au, 
 
        Potential amp.       -0.0340 Ry
        Total length         46.3494 bohr
 

     total cpu time spent up to now is      974.9 secs

     total energy              =   -2951.37632006 Ry
     estimated scf accuracy    <       0.00002732 Ry

     iteration # 61     ecut=    29.40 Ry     beta= 0.05
     Davidson diagonalization with overlap
     ethr =  2.98E-09,  avg # of iterations =  5.0

     negative rho (up, down):  1.658E-02 0.000E+00
 
     Adding external electric field

     Computed dipole along edir(3) : 
        Dipole                0.1941 Ry au,          0.4933 Debye
        Dipole field          0.0004 Ry au, 
 
        Potential amp.       -0.0340 Ry
        Total length         46.3494 bohr
 

     total cpu time spent up to now is      987.0 secs

     total energy              =   -2951.37632473 Ry
     estimated scf accuracy    <       0.00001303 Ry

     iteration # 62     ecut=    29.40 Ry     beta= 0.05
     Davidson diagonalization with overlap
     ethr =  2.98E-09,  avg # of iterations =  1.7

     negative rho (up, down):  1.661E-02 0.000E+00
 
     Adding external electric field

     Computed dipole along edir(3) : 
        Dipole                0.1956 Ry au,          0.4970 Debye
        Dipole field          0.0004 Ry au, 
 
        Potential amp.       -0.0342 Ry
        Total length         46.3494 bohr
 

     total cpu time spent up to now is      997.6 secs

     total energy              =   -2951.37632618 Ry
     estimated scf accuracy    <       0.00000964 Ry

     iteration # 63     ecut=    29.40 Ry     beta= 0.05
     Davidson diagonalization with overlap
     ethr =  2.43E-09,  avg # of iterations =  6.1

     negative rho (up, down):  1.660E-02 0.000E+00
 
     Adding external electric field

     Computed dipole along edir(3) : 
        Dipole                0.1948 Ry au,          0.4951 Debye
        Dipole field          0.0004 Ry au, 
 
        Potential amp.       -0.0341 Ry
        Total length         46.3494 bohr
 

     total cpu time spent up to now is     1012.3 secs

     total energy              =   -2951.37633153 Ry
     estimated scf accuracy    <       0.00000175 Ry

     iteration # 64     ecut=    29.40 Ry     beta= 0.05
     Davidson diagonalization with overlap
     ethr =  4.42E-10,  avg # of iterations =  5.2

     negative rho (up, down):  1.659E-02 0.000E+00
 
     Adding external electric field

     Computed dipole along edir(3) : 
        Dipole                0.1939 Ry au,          0.4929 Debye
        Dipole field          0.0004 Ry au, 
 
        Potential amp.       -0.0339 Ry
        Total length         46.3494 bohr
 

     total cpu time spent up to now is     1025.0 secs

     total energy              =   -2951.37633500 Ry
     estimated scf accuracy    <       0.00000068 Ry

     iteration # 65     ecut=    29.40 Ry     beta= 0.05
     Davidson diagonalization with overlap
     ethr =  1.71E-10,  avg # of iterations =  5.7

     negative rho (up, down):  1.659E-02 0.000E+00
 
     Adding external electric field

     Computed dipole along edir(3) : 
        Dipole                0.1939 Ry au,          0.4930 Debye
        Dipole field          0.0004 Ry au, 
 
        Potential amp.       -0.0339 Ry
        Total length         46.3494 bohr
 

     total cpu time spent up to now is     1039.5 secs

     total energy              =   -2951.37633799 Ry
     estimated scf accuracy    <       0.00000056 Ry

     iteration # 66     ecut=    29.40 Ry     beta= 0.05
     Davidson diagonalization with overlap
     ethr =  1.42E-10,  avg # of iterations =  4.7

     negative rho (up, down):  1.660E-02 0.000E+00
 
     Adding external electric field

     Computed dipole along edir(3) : 
        Dipole                0.1942 Ry au,          0.4935 Debye
        Dipole field          0.0004 Ry au, 
 
        Potential amp.       -0.0340 Ry
        Total length         46.3494 bohr
 

     total cpu time spent up to now is     1052.0 secs

     total energy              =   -2951.37634067 Ry
     estimated scf accuracy    <       0.00000043 Ry

     iteration # 67     ecut=    29.40 Ry     beta= 0.05
     Davidson diagonalization with overlap
     ethr =  1.08E-10,  avg # of iterations =  5.9

     negative rho (up, down):  1.660E-02 0.000E+00
 
     Adding external electric field

     Computed dipole along edir(3) : 
        Dipole                0.1941 Ry au,          0.4932 Debye
        Dipole field          0.0004 Ry au, 
 
        Potential amp.       -0.0339 Ry
        Total length         46.3494 bohr
 

     total cpu time spent up to now is     1068.8 secs

     total energy              =   -2951.37634312 Ry
     estimated scf accuracy    <       0.00000066 Ry

     iteration # 68     ecut=    29.40 Ry     beta= 0.05
     Davidson diagonalization with overlap
     ethr =  1.08E-10,  avg # of iterations =  1.3

     negative rho (up, down):  1.659E-02 0.000E+00
 
     Adding external electric field

     Computed dipole along edir(3) : 
        Dipole                0.1938 Ry au,          0.4926 Debye
        Dipole field          0.0004 Ry au, 
 
        Potential amp.       -0.0339 Ry
        Total length         46.3494 bohr
 

     total cpu time spent up to now is     1079.3 secs

     total energy              =   -2951.37634517 Ry
     estimated scf accuracy    <       0.00000052 Ry

     iteration # 69     ecut=    29.40 Ry     beta= 0.05
     Davidson diagonalization with overlap
     ethr =  1.08E-10,  avg # of iterations =  4.6

     negative rho (up, down):  1.659E-02 0.000E+00
 
     Adding external electric field

     Computed dipole along edir(3) : 
        Dipole                0.1936 Ry au,          0.4920 Debye
        Dipole field          0.0004 Ry au, 
 
        Potential amp.       -0.0339 Ry
        Total length         46.3494 bohr
 

     total cpu time spent up to now is     1092.0 secs

     total energy              =   -2951.37634715 Ry
     estimated scf accuracy    <       0.00000021 Ry

     iteration # 70     ecut=    29.40 Ry     beta= 0.05
     Davidson diagonalization with overlap
     ethr =  5.37E-11,  avg # of iterations =  5.8

     negative rho (up, down):  1.659E-02 0.000E+00
 
     Adding external electric field

     Computed dipole along edir(3) : 
        Dipole                0.1932 Ry au,          0.4912 Debye
        Dipole field          0.0004 Ry au, 
 
        Potential amp.       -0.0338 Ry
        Total length         46.3494 bohr
 

     total cpu time spent up to now is     1106.0 secs

     total energy              =   -2951.37634892 Ry
     estimated scf accuracy    <       0.00000013 Ry

     iteration # 71     ecut=    29.40 Ry     beta= 0.05
     Davidson diagonalization with overlap
     ethr =  3.36E-11,  avg # of iterations =  6.1

     negative rho (up, down):  1.659E-02 0.000E+00
 
     Adding external electric field

     Computed dipole along edir(3) : 
        Dipole                0.1934 Ry au,          0.4916 Debye
        Dipole field          0.0004 Ry au, 
 
        Potential amp.       -0.0338 Ry
        Total length         46.3494 bohr
 

     total cpu time spent up to now is     1122.9 secs

     total energy              =   -2951.37635051 Ry
     estimated scf accuracy    <       0.00000013 Ry

     iteration # 72     ecut=    29.40 Ry     beta= 0.05
     Davidson diagonalization with overlap
     ethr =  3.29E-11,  avg # of iterations =  5.0

     negative rho (up, down):  1.659E-02 0.000E+00
 
     Adding external electric field

     Computed dipole along edir(3) : 
        Dipole                0.1935 Ry au,          0.4918 Debye
        Dipole field          0.0004 Ry au, 
 
        Potential amp.       -0.0338 Ry
        Total length         46.3494 bohr
 

     total cpu time spent up to now is     1134.6 secs

     total energy              =   -2951.37635193 Ry
     estimated scf accuracy    <       0.00000008 Ry

     iteration # 73     ecut=    29.40 Ry     beta= 0.05
     Davidson diagonalization with overlap
     ethr =  2.00E-11,  avg # of iterations =  5.2

     negative rho (up, down):  1.665E-02 0.000E+00
 
     Adding external electric field

     Computed dipole along edir(3) : 
        Dipole                0.1932 Ry au,          0.4911 Debye
        Dipole field          0.0004 Ry au, 
 
        Potential amp.       -0.0338 Ry
        Total length         46.3494 bohr
 

     total cpu time spent up to now is     1149.8 secs

     End of self-consistent calculation

          k = 0.0000 0.0000 0.0000 ( 18029 PWs)   bands (ev):

   -56.4140 -56.3801 -56.1616 -56.1379 -56.1041 -55.9404 -55.8873 -55.8715
   -55.8649 -55.8488 -55.8139 -55.7327 -55.6706 -55.5317 -55.2667 -55.2327
   -32.8786 -32.7081 -32.6881 -32.6106 -32.5682 -32.5018 -32.4746 -32.4550
   -32.4316 -32.4241 -32.3812 -32.3710 -32.3558 -32.3543 -32.3500 -32.2989
   -32.2767 -32.2703 -32.2430 -32.1737 -32.1566 -32.1531 -32.1521 -32.1197
   -32.1088 -32.0979 -32.0885 -32.0740 -32.0622 -32.0474 -32.0440 -32.0138
   -31.9988 -31.9848 -31.9660 -31.9654 -31.9403 -31.8781 -31.8658 -31.7908
   -31.7616 -31.7434 -31.6670 -31.5948 -31.5716 -31.4853 -31.3999 -31.2878
   -16.9282 -16.8140 -16.5923 -16.4392 -16.2817 -16.1775 -16.0596 -16.0185
   -15.9793 -15.8881 -15.8228 -15.7678 -15.7308 -15.6578 -15.6003 -15.5910
   -15.5623 -15.5285 -15.5164 -15.5017 -15.5002 -15.4809 -15.4525 -15.3354
   -15.2929 -15.2546 -15.2244 -15.2118 -15.0857 -14.8391 -14.7851 -13.7641
   -13.6501  -8.2589  -4.6965  -4.2708  -4.2548  -4.1158  -3.9442  -3.8820
    -3.8436  -3.5984  -3.5538  -3.5435  -3.3520  -3.2892  -3.2029  -3.1516
    -3.1352  -3.0963  -3.0252  -3.0134  -2.9873  -2.8976  -2.8610  -2.8494
    -2.8232  -2.7753  -2.7682  -2.6754  -2.6451  -2.6266  -2.5556  -2.4954
    -2.4682  -2.4542  -2.4374  -2.4239  -2.3796  -2.3699  -2.3420  -2.1977
    -2.1909  -2.1645  -2.0838  -2.0120  -1.8437  -1.7607  -1.7598  -1.6567
    -1.5833  -1.5759  -1.5219  -1.4754  -1.3873  -1.3767  -1.3666  -1.3255
    -1.2370  -1.2223  -1.1786  -1.1274  -1.0455  -0.9589  -0.9475  -0.9052
    -0.8798  -0.8111  -0.7226  -0.6803  -0.6245  -0.5924  -0.5504  -0.4829
    -0.4305  -0.4042  -0.3750  -0.3679  -0.3044  -0.2483  -0.2035  -0.1775
    -0.1127  -0.0938  -0.0478   0.0103   0.0342   0.0439   0.1613   0.2072
     0.2206   0.2687   0.3761   0.4318   0.5249   0.5823   0.6543   0.7593
     0.7646   0.9732   1.0738   1.3136   1.3540   2.5942   2.7740   2.8955
     2.9633   3.1632   3.2116   3.2290   3.5190   3.5282   3.5365   3.6311

          k = 0.0000 0.0419 0.0000 ( 17933 PWs)   bands (ev):

   -56.4090 -56.3850 -56.1613 -56.1330 -56.1089 -55.9374 -55.8901 -55.8704
   -55.8650 -55.8440 -55.8186 -55.7336 -55.6695 -55.5326 -55.2616 -55.2376
   -32.8248 -32.7036 -32.6863 -32.5642 -32.5582 -32.5546 -32.4883 -32.4394
   -32.4183 -32.3797 -32.3710 -32.3459 -32.3431 -32.3359 -32.3141 -32.3063
   -32.2965 -32.2728 -32.2611 -32.1643 -32.1498 -32.1449 -32.1273 -32.1118
   -32.1056 -32.1035 -32.1029 -32.0962 -32.0928 -32.0624 -32.0472 -32.0300
   -32.0235 -32.0023 -31.9859 -31.9643 -31.9357 -31.9163 -31.8645 -31.8191
   -31.7846 -31.7430 -31.6132 -31.5912 -31.5747 -31.4729 -31.4123 -31.3448
   -16.9215 -16.6873 -16.4774 -16.3335 -16.1952 -16.1005 -16.0704 -16.0158
   -15.9789 -15.8646 -15.8284 -15.8120 -15.7526 -15.6853 -15.6437 -15.6130
   -15.5464 -15.5439 -15.5401 -15.5160 -15.5136 -15.4687 -15.4403 -15.3953
   -15.2990 -15.2786 -15.2391 -15.2288 -15.1465 -14.9452 -14.8428 -13.7694
   -13.6903  -8.2587  -4.6961  -4.2294  -4.0835  -3.9416  -3.8045  -3.7407
    -3.7116  -3.4987  -3.4643  -3.3936  -3.2339  -3.2225  -3.1886  -3.1491
    -3.1111  -3.0807  -3.0365  -3.0042  -2.9827  -2.9614  -2.9344  -2.9150
    -2.8914  -2.8413  -2.8107  -2.8002  -2.7812  -2.7334  -2.7113  -2.6507
    -2.6087  -2.5343  -2.5100  -2.4221  -2.3948  -2.3345  -2.3168  -2.2250
    -2.1359  -2.0622  -2.0122  -1.8715  -1.8320  -1.7835  -1.7180  -1.6283
    -1.4987  -1.4741  -1.4307  -1.3241  -1.3064  -1.2804  -1.2542  -1.1955
    -1.1361  -1.1145  -1.0835  -1.0528  -1.0416  -0.9955  -0.9498  -0.8948
    -0.8706  -0.8267  -0.7963  -0.7739  -0.7080  -0.6729  -0.6264  -0.5936
    -0.5431  -0.4384  -0.4259  -0.4210  -0.3836  -0.3567  -0.2928  -0.2396
    -0.1967  -0.1343  -0.1164  -0.0653  -0.0279   0.0121   0.0606   0.1182
     0.1571   0.1738   0.2342   0.3175   0.3681   0.4014   0.4789   0.5483
     0.9540   0.9610   1.0750   1.2679   1.2724   2.5916   2.9996   3.0358
     3.1320   3.2982   3.3758   3.3848   3.4741   3.4992   3.5863   3.5968

          k = 0.0000-0.0839 0.0000 ( 17884 PWs)   bands (ev):

   -56.3975 -56.3964 -56.1610 -56.1227 -56.1191 -55.9342 -55.8933 -55.8694
   -55.8652 -55.8352 -55.8273 -55.7346 -55.6685 -55.5335 -55.2501 -55.2490
   -32.6944 -32.6939 -32.6923 -32.6921 -32.5221 -32.5208 -32.4421 -32.4374
   -32.4346 -32.3868 -32.3807 -32.3267 -32.3241 -32.3149 -32.3083 -32.2943
   -32.2563 -32.2485 -32.2213 -32.1652 -32.1619 -32.1594 -32.1493 -32.1401
   -32.1288 -32.1106 -32.1102 -32.1069 -32.0695 -32.0662 -32.0587 -32.0521
   -32.0502 -32.0104 -31.9959 -31.9631 -31.9561 -31.9327 -31.8808 -31.8633
   -31.7935 -31.7425 -31.5832 -31.5823 -31.4815 -31.4802 -31.4431 -31.4422
   -16.9163 -16.3816 -16.3628 -16.2276 -16.1919 -16.1017 -16.0631 -16.0453
   -15.9383 -15.8898 -15.8537 -15.8258 -15.7377 -15.7232 -15.6845 -15.6844
   -15.6703 -15.5952 -15.5596 -15.4844 -15.4251 -15.4137 -15.4025 -15.3965
   -15.3142 -15.2998 -15.2872 -15.2191 -15.1592 -15.1455 -14.9270 -13.7533
   -13.7528  -8.2585  -4.6959  -4.2091  -3.6383  -3.6382  -3.5784  -3.5384
    -3.4879  -3.4706  -3.4390  -3.3650  -3.3381  -3.2828  -3.2343  -3.2336
    -3.2238  -3.2033  -3.1404  -3.1056  -3.0671  -3.0378  -3.0253  -3.0034
    -2.9355  -2.9223  -2.8915  -2.7810  -2.7554  -2.7242  -2.6722  -2.6554
    -2.6277  -2.5198  -2.4340  -2.3244  -2.2850  -2.1942  -2.1454  -2.0734
    -1.9894  -1.9026  -1.8962  -1.8622  -1.7921  -1.7715  -1.7027  -1.6086
    -1.6031  -1.5353  -1.5286  -1.5082  -1.4702  -1.4019  -1.3683  -1.3027
    -1.2897  -1.1793  -1.0932  -1.0354  -1.0030  -0.8908  -0.8554  -0.8350
    -0.8246  -0.7372  -0.7268  -0.6644  -0.6545  -0.6167  -0.6035  -0.5506
    -0.5389  -0.5360  -0.5160  -0.4678  -0.4481  -0.4067  -0.3826  -0.3530
    -0.3041  -0.2988  -0.2782  -0.1133  -0.1001  -0.0557  -0.0312   0.0378
     0.0444   0.0985   0.1180   0.1271   0.1954   0.3633   0.4407   0.7079
     0.7289   1.1054   1.1140   1.2050   1.2081   2.5869   3.2317   3.2343
     3.3695   3.3714   3.4601   3.5010   3.5026   3.5285   3.5423   3.5737

          k = 0.0380 0.0000 0.0000 ( 17913 PWs)   bands (ev):

   -56.4139 -56.3800 -56.1615 -56.1378 -56.1040 -55.9403 -55.8872 -55.8712
   -55.8650 -55.8487 -55.8138 -55.7326 -55.6705 -55.5316 -55.2666 -55.2326
   -32.8794 -32.7079 -32.6880 -32.6107 -32.5657 -32.5015 -32.4744 -32.4566
   -32.4338 -32.4305 -32.3811 -32.3693 -32.3555 -32.3518 -32.3417 -32.2877
   -32.2765 -32.2704 -32.2428 -32.1741 -32.1693 -32.1530 -32.1524 -32.1117
   -32.1012 -32.0979 -32.0887 -32.0739 -32.0621 -32.0498 -32.0471 -32.0118
   -31.9986 -31.9847 -31.9672 -31.9653 -31.9402 -31.8781 -31.8700 -31.7907
   -31.7615 -31.7446 -31.6666 -31.5977 -31.5697 -31.4851 -31.3997 -31.2876
   -16.9228 -16.7229 -16.5055 -16.3474 -16.2708 -16.1616 -16.0911 -16.0457
   -16.0172 -15.9847 -15.8155 -15.7866 -15.7683 -15.6921 -15.6572 -15.6394
   -15.6274 -15.5976 -15.5446 -15.5113 -15.4633 -15.3941 -15.3389 -15.3201
   -15.3181 -15.2906 -15.2084 -15.1924 -15.1275 -14.8383 -14.7833 -13.7610
   -13.6498  -8.2651  -4.6944  -4.2124  -4.0071  -3.9561  -3.7948  -3.7363
    -3.6636  -3.5643  -3.5173  -3.4956  -3.4876  -3.3881  -3.3493  -3.2903
    -3.2127  -3.1552  -3.1017  -3.0183  -2.9323  -2.9196  -2.8084  -2.7944
    -2.7499  -2.6973  -2.6683  -2.6492  -2.6361  -2.5736  -2.5375  -2.4849
    -2.4745  -2.4259  -2.3907  -2.3622  -2.3207  -2.2467  -2.1350  -2.1137
    -2.0959  -2.0242  -1.9445  -1.9092  -1.8784  -1.8380  -1.8059  -1.7765
    -1.7086  -1.6085  -1.5521  -1.5175  -1.4406  -1.4135  -1.4027  -1.3521
    -1.3416  -1.3114  -1.2540  -1.2239  -1.1409  -1.0782  -1.0007  -0.9523
    -0.8369  -0.8334  -0.7153  -0.6621  -0.6203  -0.5717  -0.5213  -0.5154
    -0.4902  -0.4625  -0.4289  -0.3813  -0.3334  -0.3032  -0.2637  -0.2398
    -0.1973  -0.1535  -0.1342  -0.0685  -0.0377   0.0243   0.0841   0.1389
     0.2162   0.2647   0.3298   0.3592   0.4057   0.4961   0.5492   0.7675
     0.7711   0.9388   0.9536   1.2052   1.2727   2.6148   2.8373   2.8649
     3.1488   3.2117   3.3124   3.3608   3.3838   3.4558   3.5410   3.5730

          k = 0.0380 0.0419 0.0000 ( 17878 PWs)   bands (ev):

   -56.4089 -56.3849 -56.1612 -56.1329 -56.1089 -55.9374 -55.8901 -55.8701
   -55.8652 -55.8439 -55.8186 -55.7336 -55.6695 -55.5325 -55.2616 -55.2375
   -32.8256 -32.7034 -32.6864 -32.5643 -32.5584 -32.5523 -32.4880 -32.4394
   -32.4188 -32.3851 -32.3787 -32.3431 -32.3359 -32.3353 -32.3141 -32.2982
   -32.2895 -32.2730 -32.2613 -32.1644 -32.1606 -32.1448 -32.1283 -32.1159
   -32.1018 -32.0984 -32.0979 -32.0942 -32.0911 -32.0624 -32.0525 -32.0265
   -32.0241 -32.0023 -31.9858 -31.9670 -31.9356 -31.9160 -31.8685 -31.8189
   -31.7845 -31.7447 -31.6129 -31.5935 -31.5738 -31.4727 -31.4123 -31.3447
   -16.9184 -16.6028 -16.3984 -16.2496 -16.1922 -16.0853 -16.0745 -16.0388
   -15.9908 -15.9669 -15.8135 -15.7723 -15.7447 -15.6920 -15.6824 -15.6731
   -15.6266 -15.5955 -15.5602 -15.5227 -15.4853 -15.4641 -15.4008 -15.3714
   -15.3353 -15.2976 -15.2833 -15.2070 -15.1603 -14.9443 -14.8414 -13.7673
   -13.6906  -8.2647  -4.6931  -4.1975  -3.8378  -3.7887  -3.6532  -3.6065
    -3.5408  -3.4223  -3.4041  -3.3618  -3.3357  -3.2209  -3.1541  -3.1317
    -3.1042  -3.0775  -3.0427  -3.0298  -2.9684  -2.9453  -2.9279  -2.9103
    -2.8325  -2.8105  -2.7773  -2.7604  -2.7224  -2.7107  -2.6793  -2.6542
    -2.5379  -2.5010  -2.4642  -2.3595  -2.3421  -2.2978  -2.2630  -2.1960
    -2.1194  -2.0815  -2.0132  -1.9000  -1.7948  -1.7556  -1.7082  -1.6329
    -1.6073  -1.5325  -1.5011  -1.4504  -1.3776  -1.3482  -1.2964  -1.2771
    -1.2394  -1.2117  -1.1617  -1.0991  -1.0660  -1.0404  -1.0214  -0.9952
    -0.9670  -0.9027  -0.8905  -0.8389  -0.8109  -0.7799  -0.6722  -0.6546
    -0.6153  -0.5534  -0.5301  -0.4875  -0.4482  -0.3874  -0.3271  -0.3172
    -0.2363  -0.2101  -0.1472  -0.0576  -0.0088   0.0013   0.0479   0.1378
     0.1799   0.2100   0.2614   0.3394   0.3644   0.3906   0.4354   0.5281
     0.8858   0.9709   1.0807   1.1917   1.2475   2.6107   2.9861   3.0514
     3.2833   3.3629   3.3712   3.4071   3.4612   3.5107   3.5569   3.6194

          k = 0.0380-0.0839 0.0000 ( 17916 PWs)   bands (ev):

   -56.3975 -56.3964 -56.1610 -56.1227 -56.1191 -55.9342 -55.8934 -55.8692
   -55.8655 -55.8352 -55.8274 -55.7346 -55.6685 -55.5335 -55.2502 -55.2490
   -32.6946 -32.6944 -32.6927 -32.6924 -32.5211 -32.5198 -32.4424 -32.4377
   -32.4339 -32.3884 -32.3797 -32.3280 -32.3266 -32.3149 -32.3083 -32.2940
   -32.2489 -32.2461 -32.2150 -32.1667 -32.1640 -32.1599 -32.1548 -32.1467
   -32.1291 -32.1128 -32.1107 -32.0979 -32.0685 -32.0631 -32.0588 -32.0551
   -32.0472 -32.0101 -31.9956 -31.9668 -31.9557 -31.9326 -31.8806 -31.8671
   -31.7936 -31.7448 -31.5840 -31.5832 -31.4815 -31.4801 -31.4431 -31.4422
   -16.9148 -16.3236 -16.3034 -16.1854 -16.1504 -16.0900 -16.0246 -16.0178
   -15.9623 -15.9012 -15.8099 -15.7906 -15.7527 -15.7390 -15.7160 -15.6963
   -15.6862 -15.5986 -15.5555 -15.4925 -15.4871 -15.4760 -15.4688 -15.4407
   -15.3832 -15.3484 -15.2654 -15.2099 -15.1484 -15.1364 -14.9227 -13.7532
   -13.7526  -8.2644  -4.6921  -4.1874  -3.5395  -3.4898  -3.4404  -3.4290
    -3.3872  -3.3383  -3.2609  -3.2484  -3.2270  -3.2042  -3.1366  -3.1264
    -3.1097  -3.0979  -3.0683  -3.0448  -3.0024  -2.9919  -2.9520  -2.9130
    -2.8961  -2.8556  -2.8451  -2.8311  -2.8150  -2.7541  -2.6997  -2.6607
    -2.5825  -2.4152  -2.3313  -2.2830  -2.2355  -2.1886  -2.1457  -2.1017
    -2.0829  -2.0271  -1.9624  -1.9142  -1.8671  -1.8274  -1.8128  -1.7935
    -1.7674  -1.7455  -1.6611  -1.6301  -1.6020  -1.5325  -1.3859  -1.3298
    -1.2506  -1.2293  -1.2145  -1.1154  -1.0887  -1.0201  -0.9683  -0.9319
    -0.9171  -0.8858  -0.8590  -0.8351  -0.7936  -0.7781  -0.7594  -0.7228
    -0.7016  -0.6616  -0.6075  -0.5003  -0.4871  -0.4380  -0.3770  -0.3050
    -0.2482  -0.1864  -0.1528  -0.1398  -0.0524  -0.0132   0.0128   0.0457
     0.0865   0.1642   0.2142   0.2257   0.2754   0.3823   0.4182   0.6827
     0.7020   1.1173   1.1250   1.1925   1.1950   2.6047   3.2311   3.2340
     3.3993   3.4030   3.4614   3.4893   3.5206   3.5306   3.5508   3.5956

          k = 0.0380-0.0419 0.0000 ( 17876 PWs)   bands (ev):

   -56.4089 -56.3849 -56.1612 -56.1329 -56.1089 -55.9374 -55.8901 -55.8701
   -55.8652 -55.8439 -55.8186 -55.7336 -55.6695 -55.5325 -55.2616 -55.2375
   -32.8255 -32.7034 -32.6864 -32.5643 -32.5583 -32.5524 -32.4880 -32.4390
   -32.4192 -32.3851 -32.3787 -32.3431 -32.3359 -32.3353 -32.3141 -32.2982
   -32.2894 -32.2730 -32.2613 -32.1645 -32.1606 -32.1449 -32.1281 -32.1132
   -32.1019 -32.0984 -32.0983 -32.0954 -32.0927 -32.0623 -32.0521 -32.0267
   -32.0240 -32.0024 -31.9859 -31.9665 -31.9356 -31.9162 -31.8685 -31.8188
   -31.7845 -31.7447 -31.6129 -31.5935 -31.5737 -31.4727 -31.4123 -31.3447
   -16.9184 -16.6027 -16.3984 -16.2497 -16.1919 -16.0859 -16.0749 -16.0406
   -15.9910 -15.9642 -15.8143 -15.7742 -15.7446 -15.6912 -15.6811 -15.6704
   -15.6273 -15.5948 -15.5607 -15.5240 -15.4874 -15.4643 -15.3994 -15.3725
   -15.3340 -15.2967 -15.2837 -15.2072 -15.1604 -14.9445 -14.8414 -13.7673
   -13.6906  -8.2647  -4.6931  -4.1974  -3.8380  -3.7885  -3.6493  -3.6189
    -3.5417  -3.4162  -3.4028  -3.3622  -3.3345  -3.2208  -3.1539  -3.1282
    -3.1034  -3.0798  -3.0464  -3.0334  -2.9664  -2.9425  -2.9316  -2.9118
    -2.8309  -2.8156  -2.7818  -2.7569  -2.7310  -2.7136  -2.6728  -2.6570
    -2.5527  -2.4953  -2.4600  -2.3562  -2.3412  -2.3164  -2.2480  -2.1750
    -2.1274  -2.0693  -2.0077  -1.8991  -1.7925  -1.7402  -1.7160  -1.6331
    -1.6139  -1.5399  -1.5011  -1.4485  -1.3832  -1.3414  -1.2874  -1.2758
    -1.2411  -1.2115  -1.1322  -1.1071  -1.0761  -1.0416  -1.0318  -0.9856
    -0.9621  -0.9046  -0.8919  -0.8399  -0.8061  -0.7582  -0.6911  -0.6582
    -0.6202  -0.5731  -0.5138  -0.5023  -0.4687  -0.3727  -0.3385  -0.2745
    -0.2570  -0.2096  -0.1648  -0.0513  -0.0347   0.0292   0.0456   0.1362
     0.1691   0.2100   0.2695   0.3318   0.3659   0.3979   0.4352   0.5244
     0.8857   0.9710   1.0807   1.1915   1.2481   2.6108   2.9864   3.0515
     3.2833   3.3642   3.3717   3.4091   3.4820   3.5121   3.5456   3.6154

          k =-0.0760-0.0000 0.0000 ( 17886 PWs)   bands (ev):

   -56.4138 -56.3800 -56.1615 -56.1377 -56.1040 -55.9403 -55.8872 -55.8709
   -55.8652 -55.8486 -55.8138 -55.7326 -55.6705 -55.5315 -55.2665 -55.2326
   -32.8802 -32.7078 -32.6879 -32.6109 -32.5632 -32.5015 -32.4747 -32.4583
   -32.4422 -32.4295 -32.3811 -32.3675 -32.3558 -32.3533 -32.3266 -32.2787
   -32.2763 -32.2705 -32.2427 -32.1845 -32.1744 -32.1531 -32.1525 -32.1030
   -32.0980 -32.0913 -32.0892 -32.0686 -32.0648 -32.0617 -32.0471 -32.0104
   -31.9985 -31.9847 -31.9681 -31.9654 -31.9401 -31.8781 -31.8753 -31.7906
   -31.7615 -31.7458 -31.6662 -31.6006 -31.5684 -31.4850 -31.3996 -31.2877
   -16.9183 -16.5816 -16.3930 -16.3197 -16.2093 -16.1976 -16.1288 -16.0427
   -16.0149 -16.0084 -15.9011 -15.8503 -15.8109 -15.7517 -15.7137 -15.6873
   -15.6579 -15.5502 -15.5306 -15.5098 -15.4921 -15.4235 -15.3730 -15.3397
   -15.3143 -15.2382 -15.1912 -15.1573 -15.1209 -14.8379 -14.7825 -13.7582
   -13.6495  -8.2713  -4.6920  -4.1772  -3.9602  -3.6893  -3.6448  -3.5989
    -3.5910  -3.5812  -3.4953  -3.4473  -3.4045  -3.3766  -3.3484  -3.3176
    -3.2169  -3.0772  -3.0500  -2.9910  -2.9377  -2.8337  -2.7564  -2.7059
    -2.6878  -2.6356  -2.6251  -2.5947  -2.5656  -2.5509  -2.5084  -2.4865
    -2.4381  -2.4111  -2.4018  -2.3510  -2.2998  -2.2710  -2.2300  -2.1812
    -2.1205  -1.9850  -1.9258  -1.8897  -1.8384  -1.8311  -1.8114  -1.8034
    -1.7586  -1.7125  -1.6885  -1.5653  -1.5118  -1.4468  -1.3844  -1.3829
    -1.3655  -1.3195  -1.3038  -1.2220  -1.2061  -1.1805  -1.0713  -1.0115
    -0.9344  -0.8066  -0.7883  -0.7620  -0.6717  -0.6531  -0.6290  -0.5568
    -0.5504  -0.4985  -0.4627  -0.4395  -0.4217  -0.3910  -0.3490  -0.2979
    -0.2041  -0.1073  -0.0749  -0.0438  -0.0204   0.0289   0.0758   0.1164
     0.1511   0.2069   0.2889   0.3109   0.4060   0.4432   0.6031   0.6765
     0.7914   0.7989   0.9217   1.0825   1.2159   2.6354   2.8345   2.8497
     3.0966   3.1902   3.2116   3.3083   3.4335   3.4922   3.4993   3.5741

          k =-0.0760 0.0419 0.0000 ( 17914 PWs)   bands (ev):

   -56.4089 -56.3850 -56.1612 -56.1329 -56.1089 -55.9374 -55.8901 -55.8699
   -55.8655 -55.8439 -55.8186 -55.7336 -55.6695 -55.5325 -55.2616 -55.2376
   -32.8265 -32.7034 -32.6865 -32.5646 -32.5585 -32.5507 -32.4879 -32.4394
   -32.4197 -32.3959 -32.3779 -32.3430 -32.3348 -32.3247 -32.3145 -32.3002
   -32.2765 -32.2731 -32.2616 -32.1729 -32.1644 -32.1449 -32.1293 -32.1172
   -32.1011 -32.1008 -32.0947 -32.0901 -32.0755 -32.0667 -32.0620 -32.0257
   -32.0231 -32.0024 -31.9859 -31.9691 -31.9356 -31.9161 -31.8730 -31.8189
   -31.7846 -31.7465 -31.6127 -31.5960 -31.5731 -31.4727 -31.4123 -31.3447
   -16.9156 -16.4722 -16.2930 -16.2374 -16.1369 -16.1172 -16.0882 -16.0408
   -16.0212 -15.9276 -15.8614 -15.8135 -15.7905 -15.7316 -15.6925 -15.6618
   -15.6522 -15.6165 -15.5619 -15.5595 -15.5147 -15.4747 -15.4388 -15.3916
   -15.3423 -15.3220 -15.2511 -15.1832 -15.1642 -14.9437 -14.8411 -13.7653
   -13.6909  -8.2708  -4.6900  -4.1706  -3.8074  -3.5699  -3.5527  -3.3880
    -3.3339  -3.3158  -3.2766  -3.2221  -3.2190  -3.1811  -3.1537  -3.1292
    -3.0901  -3.0814  -3.0543  -3.0367  -3.0045  -2.9423  -2.8911  -2.8611
    -2.8171  -2.7934  -2.6968  -2.6918  -2.6659  -2.6532  -2.6514  -2.6204
    -2.5560  -2.4761  -2.4063  -2.3602  -2.2798  -2.2089  -2.2026  -2.1811
    -2.1282  -2.0571  -2.0278  -1.9249  -1.8585  -1.7860  -1.7340  -1.6517
    -1.6313  -1.5940  -1.5701  -1.5622  -1.4744  -1.4618  -1.4387  -1.3984
    -1.3444  -1.2963  -1.2581  -1.2234  -1.2167  -1.1504  -1.1293  -1.0772
    -1.0516  -1.0122  -0.9746  -0.9297  -0.9116  -0.8792  -0.8552  -0.8107
    -0.7276  -0.6240  -0.5643  -0.5138  -0.4689  -0.4592  -0.3522  -0.2848
    -0.2320  -0.1946  -0.1250  -0.0565  -0.0308   0.1108   0.1301   0.1505
     0.1712   0.2468   0.2779   0.3073   0.3759   0.4472   0.4992   0.6130
     0.6673   0.9819   1.0838   1.1167   1.2363   2.6301   2.9812   3.0516
     3.1741   3.2963   3.2966   3.4128   3.5041   3.5394   3.5576   3.6213

          k =-0.0760-0.0839 0.0000 ( 17948 PWs)   bands (ev):

   -56.3975 -56.3964 -56.1610 -56.1227 -56.1192 -55.9342 -55.8934 -55.8689
   -55.8658 -55.8352 -55.8274 -55.7346 -55.6686 -55.5336 -55.2502 -55.2490
   -32.6951 -32.6948 -32.6931 -32.6926 -32.5201 -32.5188 -32.4427 -32.4380
   -32.4331 -32.3900 -32.3786 -32.3315 -32.3266 -32.3149 -32.3083 -32.2936
   -32.2487 -32.2364 -32.2072 -32.1683 -32.1660 -32.1619 -32.1582 -32.1549
   -32.1293 -32.1193 -32.1109 -32.0778 -32.0703 -32.0677 -32.0594 -32.0585
   -32.0419 -32.0099 -31.9954 -31.9702 -31.9556 -31.9323 -31.8800 -31.8714
   -31.7936 -31.7470 -31.5848 -31.5840 -31.4815 -31.4801 -31.4431 -31.4422
   -16.9132 -16.2340 -16.2075 -16.1280 -16.1031 -16.0986 -16.0627 -16.0403
   -15.8852 -15.8738 -15.8586 -15.7926 -15.7446 -15.7325 -15.7034 -15.6983
   -15.6371 -15.6199 -15.6131 -15.5607 -15.5481 -15.5203 -15.5057 -15.4761
   -15.4460 -15.4175 -15.2537 -15.2022 -15.1416 -15.1301 -14.9192 -13.7530
   -13.7524  -8.2703  -4.6882  -4.1658  -3.5232  -3.4843  -3.3583  -3.3551
    -3.2237  -3.2183  -3.1370  -3.0688  -3.0655  -2.9960  -2.9807  -2.9676
    -2.9343  -2.9109  -2.9052  -2.8998  -2.8665  -2.8537  -2.8299  -2.8194
    -2.8118  -2.8000  -2.7613  -2.7315  -2.7071  -2.6934  -2.6361  -2.6239
    -2.5121  -2.4430  -2.3991  -2.3981  -2.3934  -2.3546  -2.3108  -2.2974
    -2.2696  -2.2447  -2.1535  -2.0355  -2.0134  -1.8233  -1.7991  -1.7743
    -1.7539  -1.7022  -1.6988  -1.6350  -1.5813  -1.5686  -1.5508  -1.5302
    -1.4287  -1.3716  -1.3245  -1.3164  -1.2589  -1.2455  -1.2017  -1.0970
    -1.0497  -1.0188  -0.9878  -0.9790  -0.9427  -0.9143  -0.8576  -0.8227
    -0.8177  -0.7895  -0.7525  -0.5766  -0.4087  -0.3688  -0.3459  -0.2764
    -0.2617  -0.2114  -0.0697  -0.0311  -0.0226   0.0187   0.0639   0.0833
     0.1047   0.1626   0.3388   0.3642   0.4256   0.4797   0.4863   0.5694
     0.6685   1.1378   1.1455   1.1729   1.1737   2.6232   3.3188   3.3208
     3.3220   3.3384   3.3967   3.4776   3.4873   3.5163   3.6002   3.6323

     the Fermi energy is     2.7381 ev

!    total energy              =   -2951.37636505 Ry
     estimated scf accuracy    <       0.00000005 Ry
     smearing contrib. (-TS)   =      -0.01745297 Ry
     internal energy E=F+TS    =   -2951.35891208 Ry

     The total energy is F=E-TS. E is the sum of the following terms:
     one-electron contribution =  -24270.88628060 Ry
     hartree contribution      =   12221.51427918 Ry
     xc contribution           =    -487.05576591 Ry
     ewald contribution        =    9585.06878481 Ry
     electric field correction =       0.00007044 Ry

     convergence has been achieved in  73 iterations

     Forces acting on atoms (cartesian axes, Ry/au):

     atom    1 type  1   force =     0.00006054   -0.00028986    0.10071675
     atom    2 type  1   force =    -0.00005650    0.00024501   -0.16934907
     atom    3 type  2   force =     0.00000721   -0.00004932   -0.02981155
     atom    4 type  2   force =    -0.00000005   -0.00100048    0.04204880
     atom    5 type  2   force =    -0.00525252   -0.00241813   -0.00294885
     atom    6 type  2   force =     0.00640265   -0.00183745   -0.00455746
     atom    7 type  1   force =    -0.00066073   -0.00535788    0.02497702
     atom    8 type  1   force =     0.00077693    0.01605047    0.04100474
     atom    9 type  2   force =    -0.00021551    0.00026553    0.00049231
     atom   10 type  2   force =    -0.00258276    0.00081288   -0.03383801
     atom   11 type  2   force =     0.00014585    0.00003662    0.00021904
     atom   12 type  2   force =     0.00018734   -0.00034996    0.00019916
     atom   13 type  1   force =    -0.00069072   -0.00005705   -0.00102938
     atom   14 type  1   force =     0.00018669    0.00005608   -0.00021539
     atom   15 type  2   force =     0.00023837    0.00005943    0.00063317
     atom   16 type  2   force =     0.00005488   -0.00019409    0.00019947
     atom   17 type  2   force =     0.00023775    0.00026211    0.00046987
     atom   18 type  2   force =     0.00004180   -0.00004167    0.00027082
     atom   19 type  1   force =    -0.00007229    0.00017695   -0.00031092
     atom   20 type  1   force =     0.00002994    0.00004721   -0.00006768
     atom   21 type  2   force =     0.00007145    0.00015175    0.10151387
     atom   22 type  2   force =    -0.00005028    0.00011234    0.00052035
     atom   23 type  2   force =    -0.07482545   -0.00008810   -0.02881464
     atom   24 type  2   force =     0.07475636    0.00036444   -0.02884357
     atom   25 type  1   force =     0.00019617   -0.00035889    0.10057230
     atom   26 type  1   force =     0.00001092   -0.00113805   -0.16956176
     atom   27 type  2   force =     0.00004454   -0.00039988   -0.02829981
     atom   28 type  2   force =     0.00000913    0.00073804    0.03803474
     atom   29 type  2   force =    -0.00394392    0.00436098   -0.00517340
     atom   30 type  2   force =     0.00502186    0.00488535   -0.00684527
     atom   31 type  1   force =    -0.00064537    0.00468647    0.01081230
     atom   32 type  1   force =     0.00089000   -0.01904675    0.04037203
     atom   33 type  2   force =     0.00044116    0.00004414    0.00058455
     atom   34 type  2   force =    -0.00214526    0.00068591   -0.03909113
     atom   35 type  2   force =     0.00013552   -0.00052837    0.00001302
     atom   36 type  2   force =     0.00013540   -0.00026351    0.00025707
     atom   37 type  1   force =    -0.00003932   -0.00008058   -0.00072263
     atom   38 type  1   force =     0.00002194    0.00009406   -0.00030424
     atom   39 type  2   force =    -0.00005068    0.00041263    0.00068720
     atom   40 type  2   force =     0.00032332   -0.00006809    0.00072815
     atom   41 type  2   force =     0.00037907   -0.00004807    0.00061277
     atom   42 type  2   force =    -0.00024224    0.00007931    0.00046388
     atom   43 type  1   force =     0.00005832   -0.00004652    0.00021992
     atom   44 type  1   force =    -0.00017904    0.00049942   -0.00133396
     atom   45 type  2   force =     0.00006846   -0.00000469    0.10129759
     atom   46 type  2   force =    -0.07487536   -0.00001462   -0.02884652
     atom   47 type  2   force =     0.07478974    0.00041111   -0.02886897
     atom   48 type  3   force =    -0.00563899   -0.00108204   -0.01367835
     atom   49 type  4   force =     0.00841338    0.00060965    0.01106580
     atom   50 type  5   force =    -0.00070556   -0.00048024    0.00032319
     atom   51 type  5   force =    -0.00168790   -0.00035022    0.00237000
     atom   52 type  2   force =    -0.00015099   -0.00017723    0.00174261
     atom   53 type  5   force =     0.00057478   -0.00037613   -0.00090991

     Total force =     0.370122     Total SCF correction =     0.000857
  @ DRIVER MODE: Message from server: STATUS
  @ DRIVER MODE: Message from server: GETFORCE
  @ DRIVER MODE: Returning v,forces,stress,ensemble 

     Writing output data file ./calc.save/
  @ DRIVER MODE: Message from server: EXIT
  @ DRIVE MODE: Exiting  
 
     init_run     :     10.82s CPU     11.04s WALL (       1 calls)
     electrons    :   1081.50s CPU   1098.39s WALL (       1 calls)
     forces       :      2.43s CPU      2.52s WALL (       1 calls)

     Called by init_run:
     wfcinit      :      4.79s CPU      4.86s WALL (       1 calls)
     potinit      :      5.38s CPU      5.44s WALL (       1 calls)
     hinit0       :      0.29s CPU      0.30s WALL (       1 calls)

     Called by electrons:
     c_bands      :    905.03s CPU    911.80s WALL (      73 calls)
     sum_band     :    118.48s CPU    122.60s WALL (      73 calls)
     v_of_rho     :     43.07s CPU     45.18s WALL (      74 calls)
     newd         :     17.75s CPU     21.60s WALL (      74 calls)
     mix_rho      :      1.61s CPU      1.65s WALL (      73 calls)
     vdW_kernel   :      4.54s CPU      4.56s WALL (       1 calls)

     Called by c_bands:
     init_us_2    :      8.38s CPU      8.42s WALL (    1480 calls)
     cegterg      :    883.91s CPU    890.34s WALL (     742 calls)

     Called by *egterg:
     cdiaghg      :    122.55s CPU    123.21s WALL (    5757 calls)
     h_psi        :    490.00s CPU    494.54s WALL (    5767 calls)
     s_psi        :     63.90s CPU     64.09s WALL (    5767 calls)
     g_psi        :      1.91s CPU      1.93s WALL (    5015 calls)

     Called by h_psi:
     h_psi:calbec :     61.83s CPU     62.12s WALL (    5767 calls)
     vloc_psi     :    359.26s CPU    362.89s WALL (    5767 calls)
     add_vuspsi   :     64.89s CPU     65.30s WALL (    5767 calls)

     General routines
     calbec       :     82.85s CPU     83.20s WALL (    6537 calls)
     fft          :     22.65s CPU     22.79s WALL (    4662 calls)
     ffts         :      0.15s CPU      0.16s WALL (     147 calls)
     fftw         :    404.81s CPU    408.84s WALL (  967460 calls)
     interpolate  :      0.48s CPU      0.48s WALL (      74 calls)
     davcio       :      0.01s CPU      1.46s WALL (      10 calls)
 
     Parallel routines
 
     PWSCF        :  18m15.09s CPU  19m25.24s WALL

 
   This run was terminated on:  18: 9: 4  22Sep2021            

=------------------------------------------------------------------------------=
   JOB DONE.
=------------------------------------------------------------------------------=
