
     Program PWSCF v.6.7GPU starts on  9Sep2021 at  1:56:15 

     This program is part of the open-source Quantum ESPRESSO suite
     for quantum simulation of materials; please cite
         "P. Giannozzi et al., J. Phys.:Condens. Matter 21 395502 (2009);
         "P. Giannozzi et al., J. Phys.:Condens. Matter 29 465901 (2017);
         "P. Giannozzi et al., J. Chem. Phys. 152 154105 (2020);
          URL http://www.quantum-espresso.org", 
     in publications or presentations arising from this work. More details at
     http://www.quantum-espresso.org/quote

     Parallel version (MPI), running on    10 processors

     MPI processes distributed on     1 nodes
     R & G space division:  proc/nbgrp/npool/nimage =      10
     Reading input from /storage/home/hcoda1/3/ntian30/research/carbon/CxH_vib/CH3_calc/ads_slab/CH3N2_c/out_0013/pw.inp
Warning: card &CELL ignored
Warning: card   CELL_DYNAMICS='IPI', ignored
Warning: card / ignored

     Current dimensions of program PWSCF are:
     Max number of different atomic species (ntypx) = 10
     Max number of k-points (npk) =  40000
     Max angular momentum in pseudopotentials (lmaxx) =  3
     Presently no symmetry can be used with electric field

     Message from routine cell_base_init:
     DEPRECATED: use true lattice parameter, not A to a.u. conversion factor

     **************************************************************************
     Initializing libbeef V0.1.2 with the BEEF-vdW functional.
     Citation: Wellendorff et al., PRB 85, 235149 (2012).
     **************************************************************************


     IMPORTANT: XC functional enforced from input :
     Exchange-correlation= BEEF-VDW
                           (   1   4  43  14   2   0   0)
     Any further DFT definition will be discarded
     Please, verify this is what you really want


     Subspace diagonalization in iterative solution of the eigenvalue problem:
     one sub-group per band group will be used
     scalapack distributed-memory algorithm (size of sub-group:  3*  3 procs)

  @ DRIVER MODE: Connecting to 
 qe_1139763_2767397.sched-torque.pace.gatech.eduh_tu8ua5_scratch
  using UNIX socket
  @ DRIVER MODE: Message from server: STATUS
  @ DRIVER MODE: Message from server: INIT
  @ DRIVER MODE: Receiving replica           0          -1
  @ DRIVER MODE: Receiving encoded integer          25
  @ DRIVER MODE:  SCF:  T  FORCE:  T  STRESS:  F  VC:  F  ENSEMBLE:  F
  @ DRIVER MODE:  SCF:  T  FORCE:  T  STRESS:  F  VC:  F  ENSEMBLE:  F
 
     Parallelization info
     --------------------
     sticks:   dense  smooth     PW     G-vecs:    dense   smooth      PW
     Min         327     131     37                56683    14340    2191
     Max         328     133     38                56694    14346    2206
     Sum        3275    1317    379               566857   143421   21985
 
     Using Slab Decomposition
 


     bravais-lattice index     =            0
     lattice parameter (alat)  =       1.8897  a.u.
     unit-cell volume          =    6658.9804 (a.u.)^3
     number of atoms/cell      =           53
     number of atomic types    =            5
     number of electrons       =       395.00
     number of Kohn-Sham states=          207
     kinetic-energy cutoff     =      29.3995  Ry
     charge density cutoff     =     293.9946  Ry
     scf convergence threshold =      7.3E-08
     mixing beta               =       0.0500
     number of iterations used =            8  plain     mixing
     Exchange-correlation= BEEF-VDW
                           (   1   4  43  14   2   0   0)

     celldm(1)=   1.889726  celldm(2)=   0.000000  celldm(3)=   0.000000
     celldm(4)=   0.000000  celldm(5)=   0.000000  celldm(6)=   0.000000

     crystal axes: (cart. coord. in units of alat)
               a(1) = (   6.579727   0.000000   0.000000 )  
               a(2) = (  -0.000775   5.961596   0.000000 )  
               a(3) = (   0.000000   0.000000  25.155947 )  

     reciprocal axes: (cart. coord. in units 2 pi/alat)
               b(1) = (  0.151982  0.000020  0.000000 )  
               b(2) = (  0.000000  0.167740  0.000000 )  
               b(3) = (  0.000000  0.000000  0.039752 )  


     PseudoPot. # 1 for Ti read from file:
     /storage/coda1/p-amedford6/0/shared/rich_project_chbe-medford/medford-share/data/pseudos_module/espresso/nninc/pbe/van/Ti.UPF
     MD5 check sum: 8e4df49b7f0d34bbd5052bf3f5ea0213
     Pseudo is Ultrasoft, Zval = 12.0
     Generated by new atomic code, or converted to UPF format
     Using radial grid of  851 points,  6 beta functions with: 
                l(1) =   0
                l(2) =   0
                l(3) =   1
                l(4) =   1
                l(5) =   2
                l(6) =   2
     Q(r) pseudized with  8 coefficients,  rinner =    1.000   1.000   1.000
                                                       1.000   1.000

     PseudoPot. # 2 for O  read from file:
     /storage/coda1/p-amedford6/0/shared/rich_project_chbe-medford/medford-share/data/pseudos_module/espresso/nninc/pbe/van/O.UPF
     MD5 check sum: 78c19812648e8988a0fe644b0f25305e
     Pseudo is Ultrasoft, Zval =  6.0
     Generated by new atomic code, or converted to UPF format
     Using radial grid of  737 points,  4 beta functions with: 
                l(1) =   0
                l(2) =   0
                l(3) =   1
                l(4) =   1
     Q(r) pseudized with  8 coefficients,  rinner =    0.800   0.800   0.800


     PseudoPot. # 3 for N  read from file:
     /storage/coda1/p-amedford6/0/shared/rich_project_chbe-medford/medford-share/data/pseudos_module/espresso/nninc/pbe/van/N.UPF
     MD5 check sum: 90d10febe142ad51ac9d5be1deb811c4
     Pseudo is Ultrasoft, Zval =  5.0
     Generated by new atomic code, or converted to UPF format
     Using radial grid of  729 points,  4 beta functions with: 
                l(1) =   0
                l(2) =   0
                l(3) =   1
                l(4) =   1
     Q(r) pseudized with  8 coefficients,  rinner =    0.800   0.800   0.800


     PseudoPot. # 4 for C  read from file:
     /storage/coda1/p-amedford6/0/shared/rich_project_chbe-medford/medford-share/data/pseudos_module/espresso/nninc/pbe/van/C.UPF
     MD5 check sum: 1a69bf6b8db32088f5b2163dbdb77a27
     Pseudo is Ultrasoft, Zval =  4.0
     Generated by new atomic code, or converted to UPF format
     Using radial grid of  721 points,  4 beta functions with: 
                l(1) =   0
                l(2) =   0
                l(3) =   1
                l(4) =   1
     Q(r) pseudized with  8 coefficients,  rinner =    0.800   0.800   0.800


     PseudoPot. # 5 for H  read from file:
     /storage/coda1/p-amedford6/0/shared/rich_project_chbe-medford/medford-share/data/pseudos_module/espresso/nninc/pbe/van/H.UPF
     MD5 check sum: b5ee9d7bfd3a09ee7748110bda690ff7
     Pseudo is Ultrasoft, Zval =  1.0
     Generated by new atomic code, or converted to UPF format
     Using radial grid of  615 points,  1 beta functions with: 
                l(1) =   0
     Q(r) pseudized with  8 coefficients,  rinner =    0.800

     atomic species   valence    mass     pseudopotential
        Ti1           12.00    47.86700     Ti( 1.00)
        O1             6.00    15.99900     O ( 1.00)
        N1             5.00    14.00700     N ( 1.00)
        C1             4.00    12.01100     C ( 1.00)
        H1             1.00     1.00800     H ( 1.00)

     No symmetry found



   Cartesian axes

     site n.     atom                  positions (alat units)
         1           Ti1 tau(   1) = (   0.0004258   2.9801865   6.0000000  )
         2           Ti1 tau(   2) = (   3.2906075   1.4906267   6.0002472  )
         3           O1  tau(   3) = (   0.0006271   0.0005054   7.9858123  )
         4           O1  tau(   4) = (   3.2906025   0.0005020   7.3038282  )
         5           O1  tau(   5) = (   4.5942328   1.4918067   9.2879030  )
         6           O1  tau(   6) = (   1.9868534   1.4903216   9.2879459  )
         7           Ti1 tau(   7) = (   3.2907910   2.8959150   9.1758416  )
         8           Ti1 tau(   8) = (   0.0015273   1.4827037   9.2680791  )
         9           O1  tau(   9) = (   3.2868105   5.9447858  11.3346005  )
        10           O1  tau(  10) = (   0.0116148   5.9584955  10.6183126  )
        11           O1  tau(  11) = (   1.2897616   1.4699164  12.6258314  )
        12           O1  tau(  12) = (   5.2713851   1.4716199  12.6109895  )
        13           Ti1 tau(  13) = (   0.0629619   2.9460495  12.6207869  )
        14           Ti1 tau(  14) = (   3.3778125   1.4702366  12.4807322  )
        15           O1  tau(  15) = (   6.5741670   5.9392046  14.6271830  )
        16           O1  tau(  16) = (   3.2925211   5.9405975  13.9303826  )
        17           O1  tau(  17) = (   4.5331425   1.4971777  16.0590535  )
        18           O1  tau(  18) = (   2.0416154   1.4974824  16.0477615  )
        19           Ti1 tau(  19) = (   3.2901388   2.9722967  15.7036181  )
        20           Ti1 tau(  20) = (   6.5714728   1.5019933  15.8140906  )
        21           O1  tau(  21) = (   3.2904802   0.0005063   4.7018136  )
        22           O1  tau(  22) = (   6.5775371   0.0159386  17.1814867  )
        23           O1  tau(  23) = (   1.3043587   1.4918075   6.0039043  )
        24           O1  tau(  24) = (   5.2767064   1.4903225   6.0039473  )
        25           Ti1 tau(  25) = (   0.0000382   5.9609847   6.0000000  )
        26           Ti1 tau(  26) = (   3.2902200   4.4714249   6.0002472  )
        27           O1  tau(  27) = (   0.0002396   2.9813036   7.9858123  )
        28           O1  tau(  28) = (   3.2902150   2.9813002   7.3038282  )
        29           O1  tau(  29) = (   4.5938453   4.4726049   9.2879030  )
        30           O1  tau(  30) = (   1.9864658   4.4711199   9.2879459  )
        31           Ti1 tau(  31) = (   3.2891106   5.8743827   9.1763621  )
        32           Ti1 tau(  32) = (   0.0006254   4.4649316   9.2693709  )
        33           O1  tau(  33) = (   3.2909631   2.9655588  11.3316111  )
        34           O1  tau(  34) = (   0.0092240   2.9805883  10.6323155  )
        35           O1  tau(  35) = (   1.2884032   4.4536117  12.6269208  )
        36           O1  tau(  36) = (   5.2752684   4.4605011  12.6109535  )
        37           Ti1 tau(  37) = (   0.0626277   5.9200555  12.5524633  )
        38           Ti1 tau(  38) = (   3.3797810   4.4486816  12.4846537  )
        39           O1  tau(  39) = (   6.5720240   2.9440667  14.6479771  )
        40           O1  tau(  40) = (   3.2941106   2.9728877  13.9057494  )
        41           O1  tau(  41) = (   4.5311790   4.4530262  16.1020043  )
        42           O1  tau(  42) = (   2.0427069   4.4534008  16.0946336  )
        43           Ti1 tau(  43) = (   3.2818950   5.9508925  15.7274921  )
        44           Ti1 tau(  44) = (   6.5750914   4.6476268  16.0792144  )
        45           O1  tau(  45) = (   3.2900926   2.9813045   4.7018136  )
        46           O1  tau(  46) = (   1.3039711   4.4726057   6.0039043  )
        47           O1  tau(  47) = (   5.2763189   4.4711207   6.0039473  )
        48           N1  tau(  48) = (   0.0795740   2.6614725  18.6386781  )
        49           N1  tau(  49) = (   0.0132033   2.8794178  17.4383708  )
        50           C1  tau(  50) = (   0.1410961   3.8031638  19.5808395  )
        51           H1  tau(  51) = (   6.4701351   4.7592986  19.1328852  )
        52           H1  tau(  52) = (   6.0910372   3.5604803  20.4266230  )
        53           H1  tau(  53) = (   1.1812797   3.8285794  19.9476819  )

     number of k points=    10  Fermi-Dirac smearing, width (Ry)=  0.0073
                       cart. coord. in units 2pi/alat
        k(    1) = (   0.0000000   0.0000000   0.0000000), wk =   0.1250000
        k(    2) = (   0.0000000   0.0419351   0.0000000), wk =   0.2500000
        k(    3) = (   0.0000000  -0.0838702   0.0000000), wk =   0.1250000
        k(    4) = (   0.0379955   0.0000049   0.0000000), wk =   0.2500000
        k(    5) = (   0.0379955   0.0419400   0.0000000), wk =   0.2500000
        k(    6) = (   0.0379955  -0.0838652   0.0000000), wk =   0.2500000
        k(    7) = (   0.0379955  -0.0419301   0.0000000), wk =   0.2500000
        k(    8) = (  -0.0759910  -0.0000099   0.0000000), wk =   0.1250000
        k(    9) = (  -0.0759910   0.0419252   0.0000000), wk =   0.2500000
        k(   10) = (  -0.0759910  -0.0838800   0.0000000), wk =   0.1250000

     Dense  grid:   566857 G-vectors     FFT dimensions: (  72,  64, 270)

     Smooth grid:   143421 G-vectors     FFT dimensions: (  45,  40, 180)

     Estimated max dynamical RAM per process >     363.40 MB

     Estimated total dynamical RAM >       3.55 GB
     Cannot read rho : file not found

     Initial potential from superposition of free atoms

     starting charge  378.99916, renormalised to  395.00000

     negative rho (up, down):  1.506E-02 0.000E+00


     %%%%%%%%%%%%%%%%%%%%%%%%%%%%%%%%%%%%%%%%%%%%%%%%%%%%%%%%%%%%%%%%%%%%%%%%
     %                                                                      %
     % You are using vdW-DF, which was implemented by the Thonhauser group. %
     % Please cite the following two papers that made this development      %
     % possible and the two reviews that describe the various versions:     %
     %                                                                      %
     %   T. Thonhauser et al., PRL 115, 136402 (2015).                      %
     %   T. Thonhauser et al., PRB 76, 125112 (2007).                       %
     %   K. Berland et al., Rep. Prog. Phys. 78, 066501 (2015).             %
     %   D.C. Langreth et al., J. Phys.: Condens. Matter 21, 084203 (2009). %
     %                                                                      %
     %                                                                      %
     % If you are calculating the stress with vdW-DF, please also cite:     %
     %                                                                      %
     %   R. Sabatini et al., J. Phys.: Condens. Matter 24, 424209 (2012).   %
     %                                                                      %
     %%%%%%%%%%%%%%%%%%%%%%%%%%%%%%%%%%%%%%%%%%%%%%%%%%%%%%%%%%%%%%%%%%%%%%%%


 
     Adding external electric field

     Computed dipole along edir(3) : 
        Dipole               -8.8495 Ry au,        -22.4931 Debye
        Dipole field         -0.0167 Ry au, 
 
        Potential amp.        1.5481 Ry
        Total length         46.3494 bohr
 
     Starting wfcs are  299 atomic wfcs
  @ DRIVER MODE: Message from server: STATUS
  @ DRIVER MODE: Message from server: POSDATA
  @ DRIVER MODE: Reading and sharing cell 
  @ DRIVER MODE: Reading and sharing positions 
  @ DRIVER MODE: Received positions 

     total cpu time spent up to now is       11.1 secs

     Self-consistent Calculation

     iteration #  1     ecut=    29.40 Ry     beta= 0.05
     Davidson diagonalization with overlap
     c_bands:  1 eigenvalues not converged
     c_bands:  2 eigenvalues not converged
     c_bands:  1 eigenvalues not converged
     c_bands:  3 eigenvalues not converged
     c_bands:  3 eigenvalues not converged
     c_bands:  1 eigenvalues not converged
     ethr =  1.00E-05,  avg # of iterations = 19.0

     negative rho (up, down):  1.342E-02 0.000E+00
 
     Adding external electric field

     Computed dipole along edir(3) : 
        Dipole               38.9764 Ry au,         99.0681 Debye
        Dipole field          0.0736 Ry au, 
 
        Potential amp.       -6.8183 Ry
        Total length         46.3494 bohr
 

     total cpu time spent up to now is       50.2 secs

     total energy              =   -2605.55177530 Ry
     estimated scf accuracy    <    3700.40691926 Ry

     iteration #  2     ecut=    29.40 Ry     beta= 0.05
     Davidson diagonalization with overlap
     ethr =  1.00E-02,  avg # of iterations = 22.1

     negative rho (up, down):  4.209E-03 0.000E+00
 
     Adding external electric field

     Computed dipole along edir(3) : 
        Dipole               -3.1902 Ry au,         -8.1087 Debye
        Dipole field         -0.0060 Ry au, 
 
        Potential amp.        0.5581 Ry
        Total length         46.3494 bohr
 

     total cpu time spent up to now is      120.9 secs

     total energy              =   -2445.26756390 Ry
     estimated scf accuracy    <   66568.62040206 Ry

     iteration #  3     ecut=    29.40 Ry     beta= 0.05
     Davidson diagonalization with overlap
     ethr =  1.00E-02,  avg # of iterations = 14.4

     negative rho (up, down):  4.268E-03 0.000E+00
 
     Adding external electric field

     Computed dipole along edir(3) : 
        Dipole               -4.9591 Ry au,        -12.6047 Debye
        Dipole field         -0.0094 Ry au, 
 
        Potential amp.        0.8675 Ry
        Total length         46.3494 bohr
 

     total cpu time spent up to now is      165.5 secs

     total energy              =   -2917.43232682 Ry
     estimated scf accuracy    <    3912.57994291 Ry

     iteration #  4     ecut=    29.40 Ry     beta= 0.05
     Davidson diagonalization with overlap
     c_bands:  1 eigenvalues not converged
     c_bands:  5 eigenvalues not converged
     c_bands:  5 eigenvalues not converged
     c_bands:  5 eigenvalues not converged
     c_bands:  1 eigenvalues not converged
     c_bands:  1 eigenvalues not converged
     ethr =  1.00E-02,  avg # of iterations = 18.4

     negative rho (up, down):  4.291E-03 0.000E+00
 
     Adding external electric field

     Computed dipole along edir(3) : 
        Dipole               -5.7003 Ry au,        -14.4887 Debye
        Dipole field         -0.0108 Ry au, 
 
        Potential amp.        0.9972 Ry
        Total length         46.3494 bohr
 

     total cpu time spent up to now is      187.0 secs

     total energy              =   -2936.56564836 Ry
     estimated scf accuracy    <     320.63518714 Ry

     iteration #  5     ecut=    29.40 Ry     beta= 0.05
     Davidson diagonalization with overlap
     ethr =  1.00E-02,  avg # of iterations =  3.9

     negative rho (up, down):  4.295E-03 0.000E+00
 
     Adding external electric field

     Computed dipole along edir(3) : 
        Dipole               -6.1773 Ry au,        -15.7012 Debye
        Dipole field         -0.0117 Ry au, 
 
        Potential amp.        1.0806 Ry
        Total length         46.3494 bohr
 

     total cpu time spent up to now is      197.9 secs

     total energy              =   -2935.35661954 Ry
     estimated scf accuracy    <     233.52327688 Ry

     iteration #  6     ecut=    29.40 Ry     beta= 0.05
     Davidson diagonalization with overlap
     ethr =  1.00E-02,  avg # of iterations =  3.1

     negative rho (up, down):  4.504E-03 0.000E+00
 
     Adding external electric field

     Computed dipole along edir(3) : 
        Dipole               -7.9548 Ry au,        -20.2191 Debye
        Dipole field         -0.0150 Ry au, 
 
        Potential amp.        1.3916 Ry
        Total length         46.3494 bohr
 

     total cpu time spent up to now is      208.5 secs

     total energy              =   -2928.00298977 Ry
     estimated scf accuracy    <     198.43094465 Ry

     iteration #  7     ecut=    29.40 Ry     beta= 0.05
     Davidson diagonalization with overlap
     ethr =  1.00E-02,  avg # of iterations =  9.1

     negative rho (up, down):  3.885E-03 0.000E+00
 
     Adding external electric field

     Computed dipole along edir(3) : 
        Dipole               -7.4628 Ry au,        -18.9686 Debye
        Dipole field         -0.0141 Ry au, 
 
        Potential amp.        1.3055 Ry
        Total length         46.3494 bohr
 

     total cpu time spent up to now is      225.5 secs

     total energy              =   -2942.64622909 Ry
     estimated scf accuracy    <     268.36664701 Ry

     iteration #  8     ecut=    29.40 Ry     beta= 0.05
     Davidson diagonalization with overlap
     ethr =  1.00E-02,  avg # of iterations =  1.9

     negative rho (up, down):  3.537E-03 0.000E+00
 
     Adding external electric field

     Computed dipole along edir(3) : 
        Dipole               -7.6445 Ry au,        -19.4303 Debye
        Dipole field         -0.0144 Ry au, 
 
        Potential amp.        1.3373 Ry
        Total length         46.3494 bohr
 

     total cpu time spent up to now is      235.9 secs

     total energy              =   -2943.55321479 Ry
     estimated scf accuracy    <     133.56278228 Ry

     iteration #  9     ecut=    29.40 Ry     beta= 0.05
     Davidson diagonalization with overlap
     ethr =  1.00E-02,  avg # of iterations =  1.0

     negative rho (up, down):  3.256E-03 0.000E+00
 
     Adding external electric field

     Computed dipole along edir(3) : 
        Dipole               -7.6978 Ry au,        -19.5657 Debye
        Dipole field         -0.0145 Ry au, 
 
        Potential amp.        1.3466 Ry
        Total length         46.3494 bohr
 

     total cpu time spent up to now is      245.6 secs

     total energy              =   -2943.76175414 Ry
     estimated scf accuracy    <     159.70582666 Ry

     iteration # 10     ecut=    29.40 Ry     beta= 0.05
     Davidson diagonalization with overlap
     ethr =  1.00E-02,  avg # of iterations =  1.0

     negative rho (up, down):  2.135E-03 0.000E+00
 
     Adding external electric field

     Computed dipole along edir(3) : 
        Dipole               -7.2023 Ry au,        -18.3065 Debye
        Dipole field         -0.0136 Ry au, 
 
        Potential amp.        1.2599 Ry
        Total length         46.3494 bohr
 

     total cpu time spent up to now is      255.3 secs

     total energy              =   -2942.98484154 Ry
     estimated scf accuracy    <     166.47281332 Ry

     iteration # 11     ecut=    29.40 Ry     beta= 0.05
     Davidson diagonalization with overlap
     ethr =  1.00E-02,  avg # of iterations =  1.0

     negative rho (up, down):  4.296E-04 0.000E+00
 
     Adding external electric field

     Computed dipole along edir(3) : 
        Dipole               -4.4848 Ry au,        -11.3992 Debye
        Dipole field         -0.0085 Ry au, 
 
        Potential amp.        0.7845 Ry
        Total length         46.3494 bohr
 

     total cpu time spent up to now is      265.0 secs

     total energy              =   -2937.80897387 Ry
     estimated scf accuracy    <     176.16921720 Ry

     iteration # 12     ecut=    29.40 Ry     beta= 0.05
     Davidson diagonalization with overlap
     ethr =  1.00E-02,  avg # of iterations =  2.8

     negative rho (up, down):  2.121E-04 0.000E+00
 
     Adding external electric field

     Computed dipole along edir(3) : 
        Dipole               -3.7738 Ry au,         -9.5921 Debye
        Dipole field         -0.0071 Ry au, 
 
        Potential amp.        0.6602 Ry
        Total length         46.3494 bohr
 

     total cpu time spent up to now is      275.8 secs

     total energy              =   -2940.77531082 Ry
     estimated scf accuracy    <      19.63685019 Ry

     iteration # 13     ecut=    29.40 Ry     beta= 0.05
     Davidson diagonalization with overlap
     ethr =  4.97E-03,  avg # of iterations =  8.2

     negative rho (up, down):  2.564E-04 0.000E+00
 
     Adding external electric field

     Computed dipole along edir(3) : 
        Dipole               -4.1582 Ry au,        -10.5690 Debye
        Dipole field         -0.0078 Ry au, 
 
        Potential amp.        0.7274 Ry
        Total length         46.3494 bohr
 

     total cpu time spent up to now is      287.8 secs

     total energy              =   -2941.17819532 Ry
     estimated scf accuracy    <      10.26241552 Ry

     iteration # 14     ecut=    29.40 Ry     beta= 0.05
     Davidson diagonalization with overlap
     ethr =  2.60E-03,  avg # of iterations =  3.9

     negative rho (up, down):  2.678E-04 0.000E+00
 
     Adding external electric field

     Computed dipole along edir(3) : 
        Dipole               -4.3528 Ry au,        -11.0636 Debye
        Dipole field         -0.0082 Ry au, 
 
        Potential amp.        0.7615 Ry
        Total length         46.3494 bohr
 

     total cpu time spent up to now is      298.5 secs

     total energy              =   -2941.25095630 Ry
     estimated scf accuracy    <       9.88507218 Ry

     iteration # 15     ecut=    29.40 Ry     beta= 0.05
     Davidson diagonalization with overlap
     ethr =  2.50E-03,  avg # of iterations =  1.4

     negative rho (up, down):  7.190E-02 0.000E+00
 
     Adding external electric field

     Computed dipole along edir(3) : 
        Dipole               -4.6216 Ry au,        -11.7469 Debye
        Dipole field         -0.0087 Ry au, 
 
        Potential amp.        0.8085 Ry
        Total length         46.3494 bohr
 

     total cpu time spent up to now is      308.4 secs

     total energy              =   -2938.92054152 Ry
     estimated scf accuracy    <      10.14478779 Ry

     iteration # 16     ecut=    29.40 Ry     beta= 0.05
     Davidson diagonalization with overlap
     ethr =  2.50E-03,  avg # of iterations =  9.7

     negative rho (up, down):  6.591E-02 0.000E+00
 
     Adding external electric field

     Computed dipole along edir(3) : 
        Dipole               -4.4521 Ry au,        -11.3161 Debye
        Dipole field         -0.0084 Ry au, 
 
        Potential amp.        0.7788 Ry
        Total length         46.3494 bohr
 

     total cpu time spent up to now is      323.7 secs

     total energy              =   -2940.81828377 Ry
     estimated scf accuracy    <     109.58276866 Ry

     iteration # 17     ecut=    29.40 Ry     beta= 0.05
     Davidson diagonalization with overlap
     ethr =  2.50E-03,  avg # of iterations =  1.6

     negative rho (up, down):  2.814E-02 0.000E+00
 
     Adding external electric field

     Computed dipole along edir(3) : 
        Dipole               -3.6435 Ry au,         -9.2609 Debye
        Dipole field         -0.0069 Ry au, 
 
        Potential amp.        0.6374 Ry
        Total length         46.3494 bohr
 

     total cpu time spent up to now is      333.8 secs

     total energy              =   -2939.29878351 Ry
     estimated scf accuracy    <      74.97010700 Ry

     iteration # 18     ecut=    29.40 Ry     beta= 0.05
     Davidson diagonalization with overlap
     ethr =  2.50E-03,  avg # of iterations =  2.9

     negative rho (up, down):  8.832E-03 0.000E+00
 
     Adding external electric field

     Computed dipole along edir(3) : 
        Dipole               -3.1941 Ry au,         -8.1185 Debye
        Dipole field         -0.0060 Ry au, 
 
        Potential amp.        0.5588 Ry
        Total length         46.3494 bohr
 

     total cpu time spent up to now is      344.4 secs

     total energy              =   -2939.94319833 Ry
     estimated scf accuracy    <      11.77253120 Ry

     iteration # 19     ecut=    29.40 Ry     beta= 0.05
     Davidson diagonalization with overlap
     ethr =  2.50E-03,  avg # of iterations =  2.1

     negative rho (up, down):  4.689E-02 0.000E+00
 
     Adding external electric field

     Computed dipole along edir(3) : 
        Dipole               -5.4689 Ry au,        -13.9007 Debye
        Dipole field         -0.0103 Ry au, 
 
        Potential amp.        0.9567 Ry
        Total length         46.3494 bohr
 

     total cpu time spent up to now is      354.9 secs

     total energy              =   -2940.27410766 Ry
     estimated scf accuracy    <       8.54396481 Ry

     iteration # 20     ecut=    29.40 Ry     beta= 0.05
     Davidson diagonalization with overlap
     ethr =  2.16E-03,  avg # of iterations =  2.7

     negative rho (up, down):  4.542E-02 0.000E+00
 
     Adding external electric field

     Computed dipole along edir(3) : 
        Dipole               -5.7812 Ry au,        -14.6945 Debye
        Dipole field         -0.0109 Ry au, 
 
        Potential amp.        1.0113 Ry
        Total length         46.3494 bohr
 

     total cpu time spent up to now is      365.7 secs

     total energy              =   -2941.48751957 Ry
     estimated scf accuracy    <      98.50336507 Ry

     iteration # 21     ecut=    29.40 Ry     beta= 0.05
     Davidson diagonalization with overlap
     ethr =  2.16E-03,  avg # of iterations =  7.4

     negative rho (up, down):  3.837E-02 0.000E+00
 
     Adding external electric field

     Computed dipole along edir(3) : 
        Dipole               -5.7528 Ry au,        -14.6221 Debye
        Dipole field         -0.0109 Ry au, 
 
        Potential amp.        1.0064 Ry
        Total length         46.3494 bohr
 

     total cpu time spent up to now is      377.4 secs

     total energy              =   -2942.00707228 Ry
     estimated scf accuracy    <     150.41956098 Ry

     iteration # 22     ecut=    29.40 Ry     beta= 0.05
     Davidson diagonalization with overlap
     ethr =  2.16E-03,  avg # of iterations =  1.0

     negative rho (up, down):  5.465E-04 0.000E+00
 
     Adding external electric field

     Computed dipole along edir(3) : 
        Dipole               -2.3690 Ry au,         -6.0215 Debye
        Dipole field         -0.0045 Ry au, 
 
        Potential amp.        0.4144 Ry
        Total length         46.3494 bohr
 

     total cpu time spent up to now is      387.1 secs

     total energy              =   -2934.46266099 Ry
     estimated scf accuracy    <     131.95704151 Ry

     iteration # 23     ecut=    29.40 Ry     beta= 0.05
     Davidson diagonalization with overlap
     c_bands:  1 eigenvalues not converged
     ethr =  2.16E-03,  avg # of iterations = 15.1

     negative rho (up, down):  1.245E-03 0.000E+00
 
     Adding external electric field

     Computed dipole along edir(3) : 
        Dipole               -1.3923 Ry au,         -3.5389 Debye
        Dipole field         -0.0026 Ry au, 
 
        Potential amp.        0.2436 Ry
        Total length         46.3494 bohr
 

     total cpu time spent up to now is      405.5 secs

     total energy              =   -2939.53526370 Ry
     estimated scf accuracy    <       5.43314937 Ry

     iteration # 24     ecut=    29.40 Ry     beta= 0.05
     Davidson diagonalization with overlap
     c_bands:  1 eigenvalues not converged
     ethr =  1.38E-03,  avg # of iterations =  5.6

     negative rho (up, down):  6.818E-04 0.000E+00
 
     Adding external electric field

     Computed dipole along edir(3) : 
        Dipole               -2.4760 Ry au,         -6.2933 Debye
        Dipole field         -0.0047 Ry au, 
 
        Potential amp.        0.4331 Ry
        Total length         46.3494 bohr
 

     total cpu time spent up to now is      416.9 secs

     total energy              =   -2938.07558409 Ry
     estimated scf accuracy    <     126.40705835 Ry

     iteration # 25     ecut=    29.40 Ry     beta= 0.05
     Davidson diagonalization with overlap
     ethr =  1.38E-03,  avg # of iterations =  3.9

     negative rho (up, down):  6.972E-03 0.000E+00
 
     Adding external electric field

     Computed dipole along edir(3) : 
        Dipole               -2.9230 Ry au,         -7.4295 Debye
        Dipole field         -0.0055 Ry au, 
 
        Potential amp.        0.5113 Ry
        Total length         46.3494 bohr
 

     total cpu time spent up to now is      427.9 secs

     total energy              =   -2939.26955429 Ry
     estimated scf accuracy    <       3.73569832 Ry

     iteration # 26     ecut=    29.40 Ry     beta= 0.05
     Davidson diagonalization with overlap
     c_bands:  1 eigenvalues not converged
     c_bands:  1 eigenvalues not converged
     c_bands:  2 eigenvalues not converged
     c_bands:  1 eigenvalues not converged
     c_bands:  3 eigenvalues not converged
     ethr =  9.46E-04,  avg # of iterations = 18.1

     negative rho (up, down):  1.031E-02 0.000E+00
 
     Adding external electric field

     Computed dipole along edir(3) : 
        Dipole               -2.2957 Ry au,         -5.8352 Debye
        Dipole field         -0.0043 Ry au, 
 
        Potential amp.        0.4016 Ry
        Total length         46.3494 bohr
 

     total cpu time spent up to now is      444.3 secs

     total energy              =   -2939.25111004 Ry
     estimated scf accuracy    <      11.87766620 Ry

     iteration # 27     ecut=    29.40 Ry     beta= 0.05
     Davidson diagonalization with overlap
     ethr =  9.46E-04,  avg # of iterations =  2.0

     negative rho (up, down):  3.174E-02 0.000E+00
 
     Adding external electric field

     Computed dipole along edir(3) : 
        Dipole               -1.9282 Ry au,         -4.9010 Debye
        Dipole field         -0.0036 Ry au, 
 
        Potential amp.        0.3373 Ry
        Total length         46.3494 bohr
 

     total cpu time spent up to now is      454.6 secs

     total energy              =   -2939.16183926 Ry
     estimated scf accuracy    <       2.00497079 Ry

     iteration # 28     ecut=    29.40 Ry     beta= 0.05
     Davidson diagonalization with overlap
     ethr =  5.08E-04,  avg # of iterations =  7.6

     negative rho (up, down):  2.429E-02 0.000E+00
 
     Adding external electric field

     Computed dipole along edir(3) : 
        Dipole               -1.1977 Ry au,         -3.0443 Debye
        Dipole field         -0.0023 Ry au, 
 
        Potential amp.        0.2095 Ry
        Total length         46.3494 bohr
 

     total cpu time spent up to now is      466.9 secs

     total energy              =   -2939.04824133 Ry
     estimated scf accuracy    <       5.05482667 Ry

     iteration # 29     ecut=    29.40 Ry     beta= 0.05
     Davidson diagonalization with overlap
     ethr =  5.08E-04,  avg # of iterations = 11.3

     negative rho (up, down):  2.419E-02 0.000E+00
 
     Adding external electric field

     Computed dipole along edir(3) : 
        Dipole               -1.0963 Ry au,         -2.7864 Debye
        Dipole field         -0.0021 Ry au, 
 
        Potential amp.        0.1918 Ry
        Total length         46.3494 bohr
 

     total cpu time spent up to now is      481.2 secs

     total energy              =   -2939.17005944 Ry
     estimated scf accuracy    <       0.85214793 Ry

     iteration # 30     ecut=    29.40 Ry     beta= 0.05
     Davidson diagonalization with overlap
     c_bands:  5 eigenvalues not converged
     c_bands:  5 eigenvalues not converged
     c_bands:  1 eigenvalues not converged
     ethr =  2.16E-04,  avg # of iterations =  8.8

     negative rho (up, down):  3.235E-02 0.000E+00
 
     Adding external electric field

     Computed dipole along edir(3) : 
        Dipole               -1.0346 Ry au,         -2.6297 Debye
        Dipole field         -0.0020 Ry au, 
 
        Potential amp.        0.1810 Ry
        Total length         46.3494 bohr
 

     total cpu time spent up to now is      493.7 secs

     total energy              =   -2939.13336507 Ry
     estimated scf accuracy    <       0.58702610 Ry

     iteration # 31     ecut=    29.40 Ry     beta= 0.05
     Davidson diagonalization with overlap
     c_bands:  1 eigenvalues not converged
     ethr =  1.49E-04,  avg # of iterations = 12.8

     negative rho (up, down):  3.327E-02 0.000E+00
 
     Adding external electric field

     Computed dipole along edir(3) : 
        Dipole               -0.9892 Ry au,         -2.5142 Debye
        Dipole field         -0.0019 Ry au, 
 
        Potential amp.        0.1730 Ry
        Total length         46.3494 bohr
 

     total cpu time spent up to now is      508.8 secs

     total energy              =   -2939.14867053 Ry
     estimated scf accuracy    <       0.31350603 Ry

     iteration # 32     ecut=    29.40 Ry     beta= 0.05
     Davidson diagonalization with overlap
     c_bands:  2 eigenvalues not converged
     c_bands:  1 eigenvalues not converged
     c_bands:  1 eigenvalues not converged
     c_bands:  3 eigenvalues not converged
     ethr =  7.94E-05,  avg # of iterations = 14.9

     negative rho (up, down):  2.486E-02 0.000E+00
 
     Adding external electric field

     Computed dipole along edir(3) : 
        Dipole               -0.6288 Ry au,         -1.5981 Debye
        Dipole field         -0.0012 Ry au, 
 
        Potential amp.        0.1100 Ry
        Total length         46.3494 bohr
 

     total cpu time spent up to now is      524.0 secs

     total energy              =   -2939.14149901 Ry
     estimated scf accuracy    <       0.37680405 Ry

     iteration # 33     ecut=    29.40 Ry     beta= 0.05
     Davidson diagonalization with overlap
     ethr =  7.94E-05,  avg # of iterations =  6.1

     negative rho (up, down):  2.285E-02 0.000E+00
 
     Adding external electric field

     Computed dipole along edir(3) : 
        Dipole               -0.2595 Ry au,         -0.6595 Debye
        Dipole field         -0.0005 Ry au, 
 
        Potential amp.        0.0454 Ry
        Total length         46.3494 bohr
 

     total cpu time spent up to now is      535.6 secs

     total energy              =   -2939.13953528 Ry
     estimated scf accuracy    <       0.13292288 Ry

     iteration # 34     ecut=    29.40 Ry     beta= 0.05
     Davidson diagonalization with overlap
     c_bands:  2 eigenvalues not converged
     c_bands:  1 eigenvalues not converged
     c_bands:  4 eigenvalues not converged
     c_bands:  1 eigenvalues not converged
     c_bands:  1 eigenvalues not converged
     ethr =  3.37E-05,  avg # of iterations = 17.1

     negative rho (up, down):  1.914E-02 0.000E+00
 
     Adding external electric field

     Computed dipole along edir(3) : 
        Dipole               -0.1259 Ry au,         -0.3201 Debye
        Dipole field         -0.0002 Ry au, 
 
        Potential amp.        0.0220 Ry
        Total length         46.3494 bohr
 

     total cpu time spent up to now is      554.0 secs

     total energy              =   -2939.12888697 Ry
     estimated scf accuracy    <       0.59424926 Ry

     iteration # 35     ecut=    29.40 Ry     beta= 0.05
     Davidson diagonalization with overlap
     c_bands:  1 eigenvalues not converged
     c_bands:  2 eigenvalues not converged
     c_bands:  1 eigenvalues not converged
     ethr =  3.37E-05,  avg # of iterations = 17.5

     negative rho (up, down):  1.732E-02 0.000E+00
 
     Adding external electric field

     Computed dipole along edir(3) : 
        Dipole                0.3150 Ry au,          0.8006 Debye
        Dipole field          0.0006 Ry au, 
 
        Potential amp.       -0.0551 Ry
        Total length         46.3494 bohr
 

     total cpu time spent up to now is      570.9 secs

     total energy              =   -2939.14266275 Ry
     estimated scf accuracy    <       0.25922495 Ry

     iteration # 36     ecut=    29.40 Ry     beta= 0.05
     Davidson diagonalization with overlap
     ethr =  3.37E-05,  avg # of iterations = 11.4

     negative rho (up, down):  1.643E-02 0.000E+00
 
     Adding external electric field

     Computed dipole along edir(3) : 
        Dipole                0.5986 Ry au,          1.5215 Debye
        Dipole field          0.0011 Ry au, 
 
        Potential amp.       -0.1047 Ry
        Total length         46.3494 bohr
 

     total cpu time spent up to now is      584.2 secs

     total energy              =   -2939.14878896 Ry
     estimated scf accuracy    <       0.05328833 Ry

     iteration # 37     ecut=    29.40 Ry     beta= 0.05
     Davidson diagonalization with overlap
     c_bands:  3 eigenvalues not converged
     c_bands:  2 eigenvalues not converged
     c_bands:  3 eigenvalues not converged
     c_bands:  1 eigenvalues not converged
     c_bands:  3 eigenvalues not converged
     ethr =  1.35E-05,  avg # of iterations = 18.3

     negative rho (up, down):  1.708E-02 0.000E+00
 
     Adding external electric field

     Computed dipole along edir(3) : 
        Dipole                0.5482 Ry au,          1.3933 Debye
        Dipole field          0.0010 Ry au, 
 
        Potential amp.       -0.0959 Ry
        Total length         46.3494 bohr
 

     total cpu time spent up to now is      604.5 secs

     total energy              =   -2939.15549338 Ry
     estimated scf accuracy    <       0.08440858 Ry

     iteration # 38     ecut=    29.40 Ry     beta= 0.05
     Davidson diagonalization with overlap
     ethr =  1.35E-05,  avg # of iterations =  4.9

     negative rho (up, down):  1.707E-02 0.000E+00
 
     Adding external electric field

     Computed dipole along edir(3) : 
        Dipole                0.5271 Ry au,          1.3397 Debye
        Dipole field          0.0010 Ry au, 
 
        Potential amp.       -0.0922 Ry
        Total length         46.3494 bohr
 

     total cpu time spent up to now is      615.7 secs

     total energy              =   -2939.15584982 Ry
     estimated scf accuracy    <       0.06552326 Ry

     iteration # 39     ecut=    29.40 Ry     beta= 0.05
     Davidson diagonalization with overlap
     ethr =  1.35E-05,  avg # of iterations =  1.1

     negative rho (up, down):  1.692E-02 0.000E+00
 
     Adding external electric field

     Computed dipole along edir(3) : 
        Dipole                0.4928 Ry au,          1.2526 Debye
        Dipole field          0.0009 Ry au, 
 
        Potential amp.       -0.0862 Ry
        Total length         46.3494 bohr
 

     total cpu time spent up to now is      626.2 secs

     total energy              =   -2939.15487635 Ry
     estimated scf accuracy    <       0.05714994 Ry

     iteration # 40     ecut=    29.40 Ry     beta= 0.05
     Davidson diagonalization with overlap
     ethr =  1.35E-05,  avg # of iterations =  2.3

     negative rho (up, down):  1.353E-02 0.000E+00
 
     Adding external electric field

     Computed dipole along edir(3) : 
        Dipole                0.5549 Ry au,          1.4105 Debye
        Dipole field          0.0010 Ry au, 
 
        Potential amp.       -0.0971 Ry
        Total length         46.3494 bohr
 

     total cpu time spent up to now is      636.4 secs

     total energy              =   -2939.15314537 Ry
     estimated scf accuracy    <       0.04411942 Ry

     iteration # 41     ecut=    29.40 Ry     beta= 0.05
     Davidson diagonalization with overlap
     c_bands:  1 eigenvalues not converged
     c_bands:  1 eigenvalues not converged
     ethr =  1.12E-05,  avg # of iterations = 12.7

     negative rho (up, down):  1.143E-02 0.000E+00
 
     Adding external electric field

     Computed dipole along edir(3) : 
        Dipole                0.5264 Ry au,          1.3380 Debye
        Dipole field          0.0010 Ry au, 
 
        Potential amp.       -0.0921 Ry
        Total length         46.3494 bohr
 

     total cpu time spent up to now is      649.8 secs

     total energy              =   -2939.15277588 Ry
     estimated scf accuracy    <       0.03012237 Ry

     iteration # 42     ecut=    29.40 Ry     beta= 0.05
     Davidson diagonalization with overlap
     c_bands:  1 eigenvalues not converged
     ethr =  7.63E-06,  avg # of iterations =  8.0

     negative rho (up, down):  1.111E-02 0.000E+00
 
     Adding external electric field

     Computed dipole along edir(3) : 
        Dipole                0.5122 Ry au,          1.3019 Debye
        Dipole field          0.0010 Ry au, 
 
        Potential amp.       -0.0896 Ry
        Total length         46.3494 bohr
 

     total cpu time spent up to now is      662.5 secs

     total energy              =   -2939.15356941 Ry
     estimated scf accuracy    <       0.02170369 Ry

     iteration # 43     ecut=    29.40 Ry     beta= 0.05
     Davidson diagonalization with overlap
     ethr =  5.49E-06,  avg # of iterations =  2.1

     negative rho (up, down):  1.165E-02 0.000E+00
 
     Adding external electric field

     Computed dipole along edir(3) : 
        Dipole                0.5053 Ry au,          1.2845 Debye
        Dipole field          0.0010 Ry au, 
 
        Potential amp.       -0.0884 Ry
        Total length         46.3494 bohr
 

     total cpu time spent up to now is      672.8 secs

     total energy              =   -2939.15297943 Ry
     estimated scf accuracy    <       0.01691660 Ry

     iteration # 44     ecut=    29.40 Ry     beta= 0.05
     Davidson diagonalization with overlap
     c_bands:  1 eigenvalues not converged
     ethr =  4.28E-06,  avg # of iterations =  6.7

     negative rho (up, down):  1.197E-02 0.000E+00
 
     Adding external electric field

     Computed dipole along edir(3) : 
        Dipole                0.5097 Ry au,          1.2955 Debye
        Dipole field          0.0010 Ry au, 
 
        Potential amp.       -0.0892 Ry
        Total length         46.3494 bohr
 

     total cpu time spent up to now is      684.3 secs

     total energy              =   -2939.15305048 Ry
     estimated scf accuracy    <       0.01396084 Ry

     iteration # 45     ecut=    29.40 Ry     beta= 0.05
     Davidson diagonalization with overlap
     c_bands:  1 eigenvalues not converged
     ethr =  3.53E-06,  avg # of iterations =  3.1

     negative rho (up, down):  1.296E-02 0.000E+00
 
     Adding external electric field

     Computed dipole along edir(3) : 
        Dipole                0.5766 Ry au,          1.4655 Debye
        Dipole field          0.0011 Ry au, 
 
        Potential amp.       -0.1009 Ry
        Total length         46.3494 bohr
 

     total cpu time spent up to now is      694.7 secs

     total energy              =   -2939.15216464 Ry
     estimated scf accuracy    <       0.01344198 Ry

     iteration # 46     ecut=    29.40 Ry     beta= 0.05
     Davidson diagonalization with overlap
     ethr =  3.40E-06,  avg # of iterations = 14.4

     negative rho (up, down):  1.114E-02 0.000E+00
 
     Adding external electric field

     Computed dipole along edir(3) : 
        Dipole                0.6042 Ry au,          1.5358 Debye
        Dipole field          0.0011 Ry au, 
 
        Potential amp.       -0.1057 Ry
        Total length         46.3494 bohr
 

     total cpu time spent up to now is      710.2 secs

     total energy              =   -2939.15253997 Ry
     estimated scf accuracy    <       0.00680706 Ry

     iteration # 47     ecut=    29.40 Ry     beta= 0.05
     Davidson diagonalization with overlap
     c_bands:  1 eigenvalues not converged
     c_bands:  2 eigenvalues not converged
     c_bands:  2 eigenvalues not converged
     c_bands:  1 eigenvalues not converged
     ethr =  1.72E-06,  avg # of iterations = 17.1

     negative rho (up, down):  1.210E-02 0.000E+00
 
     Adding external electric field

     Computed dipole along edir(3) : 
        Dipole                0.6422 Ry au,          1.6323 Debye
        Dipole field          0.0012 Ry au, 
 
        Potential amp.       -0.1123 Ry
        Total length         46.3494 bohr
 

     total cpu time spent up to now is      731.8 secs

     total energy              =   -2939.15425035 Ry
     estimated scf accuracy    <       0.00974041 Ry

     iteration # 48     ecut=    29.40 Ry     beta= 0.05
     Davidson diagonalization with overlap
     ethr =  1.72E-06,  avg # of iterations =  6.6

     negative rho (up, down):  1.452E-02 0.000E+00
 
     Adding external electric field

     Computed dipole along edir(3) : 
        Dipole                0.7060 Ry au,          1.7944 Debye
        Dipole field          0.0013 Ry au, 
 
        Potential amp.       -0.1235 Ry
        Total length         46.3494 bohr
 

     total cpu time spent up to now is      743.4 secs

     total energy              =   -2939.15365855 Ry
     estimated scf accuracy    <       0.00626898 Ry

     iteration # 49     ecut=    29.40 Ry     beta= 0.05
     Davidson diagonalization with overlap
     ethr =  1.59E-06,  avg # of iterations =  7.0

     negative rho (up, down):  1.565E-02 0.000E+00
 
     Adding external electric field

     Computed dipole along edir(3) : 
        Dipole                0.7338 Ry au,          1.8652 Debye
        Dipole field          0.0014 Ry au, 
 
        Potential amp.       -0.1284 Ry
        Total length         46.3494 bohr
 

     total cpu time spent up to now is      756.1 secs

     total energy              =   -2939.15413207 Ry
     estimated scf accuracy    <       0.00171863 Ry

     iteration # 50     ecut=    29.40 Ry     beta= 0.05
     Davidson diagonalization with overlap
     c_bands:  1 eigenvalues not converged
     c_bands:  1 eigenvalues not converged
     ethr =  4.35E-07,  avg # of iterations = 12.6

     negative rho (up, down):  1.516E-02 0.000E+00
 
     Adding external electric field

     Computed dipole along edir(3) : 
        Dipole                0.7116 Ry au,          1.8086 Debye
        Dipole field          0.0013 Ry au, 
 
        Potential amp.       -0.1245 Ry
        Total length         46.3494 bohr
 

     total cpu time spent up to now is      773.5 secs

     total energy              =   -2939.15430094 Ry
     estimated scf accuracy    <       0.00081484 Ry

     iteration # 51     ecut=    29.40 Ry     beta= 0.05
     Davidson diagonalization with overlap
     ethr =  2.06E-07,  avg # of iterations = 10.7

     negative rho (up, down):  1.549E-02 0.000E+00
 
     Adding external electric field

     Computed dipole along edir(3) : 
        Dipole                0.7153 Ry au,          1.8182 Debye
        Dipole field          0.0013 Ry au, 
 
        Potential amp.       -0.1251 Ry
        Total length         46.3494 bohr
 

     total cpu time spent up to now is      789.0 secs

     total energy              =   -2939.15434784 Ry
     estimated scf accuracy    <       0.00064306 Ry

     iteration # 52     ecut=    29.40 Ry     beta= 0.05
     Davidson diagonalization with overlap
     ethr =  1.63E-07,  avg # of iterations = 13.7

     negative rho (up, down):  1.537E-02 0.000E+00
 
     Adding external electric field

     Computed dipole along edir(3) : 
        Dipole                0.7106 Ry au,          1.8063 Debye
        Dipole field          0.0013 Ry au, 
 
        Potential amp.       -0.1243 Ry
        Total length         46.3494 bohr
 

     total cpu time spent up to now is      806.8 secs

     total energy              =   -2939.15444932 Ry
     estimated scf accuracy    <       0.00044116 Ry

     iteration # 53     ecut=    29.40 Ry     beta= 0.05
     Davidson diagonalization with overlap
     ethr =  1.12E-07,  avg # of iterations =  1.9

     negative rho (up, down):  1.547E-02 0.000E+00
 
     Adding external electric field

     Computed dipole along edir(3) : 
        Dipole                0.7067 Ry au,          1.7963 Debye
        Dipole field          0.0013 Ry au, 
 
        Potential amp.       -0.1236 Ry
        Total length         46.3494 bohr
 

     total cpu time spent up to now is      817.3 secs

     total energy              =   -2939.15442683 Ry
     estimated scf accuracy    <       0.00031801 Ry

     iteration # 54     ecut=    29.40 Ry     beta= 0.05
     Davidson diagonalization with overlap
     ethr =  8.05E-08,  avg # of iterations = 12.8

     negative rho (up, down):  1.554E-02 0.000E+00
 
     Adding external electric field

     Computed dipole along edir(3) : 
        Dipole                0.7084 Ry au,          1.8005 Debye
        Dipole field          0.0013 Ry au, 
 
        Potential amp.       -0.1239 Ry
        Total length         46.3494 bohr
 

     total cpu time spent up to now is      835.0 secs

     total energy              =   -2939.15448704 Ry
     estimated scf accuracy    <       0.00013633 Ry

     iteration # 55     ecut=    29.40 Ry     beta= 0.05
     Davidson diagonalization with overlap
     ethr =  3.45E-08,  avg # of iterations =  7.4

     negative rho (up, down):  1.596E-02 0.000E+00
 
     Adding external electric field

     Computed dipole along edir(3) : 
        Dipole                0.7161 Ry au,          1.8200 Debye
        Dipole field          0.0014 Ry au, 
 
        Potential amp.       -0.1253 Ry
        Total length         46.3494 bohr
 

     total cpu time spent up to now is      846.7 secs

     total energy              =   -2939.15449393 Ry
     estimated scf accuracy    <       0.00010374 Ry

     iteration # 56     ecut=    29.40 Ry     beta= 0.05
     Davidson diagonalization with overlap
     ethr =  2.63E-08,  avg # of iterations = 13.3

     negative rho (up, down):  1.574E-02 0.000E+00
 
     Adding external electric field

     Computed dipole along edir(3) : 
        Dipole                0.7125 Ry au,          1.8110 Debye
        Dipole field          0.0013 Ry au, 
 
        Potential amp.       -0.1246 Ry
        Total length         46.3494 bohr
 

     total cpu time spent up to now is      864.8 secs

     total energy              =   -2939.15451223 Ry
     estimated scf accuracy    <       0.00008755 Ry

     iteration # 57     ecut=    29.40 Ry     beta= 0.05
     Davidson diagonalization with overlap
     ethr =  2.22E-08,  avg # of iterations =  6.6

     negative rho (up, down):  1.542E-02 0.000E+00
 
     Adding external electric field

     Computed dipole along edir(3) : 
        Dipole                0.7076 Ry au,          1.7985 Debye
        Dipole field          0.0013 Ry au, 
 
        Potential amp.       -0.1238 Ry
        Total length         46.3494 bohr
 

     total cpu time spent up to now is      876.4 secs

     total energy              =   -2939.15451172 Ry
     estimated scf accuracy    <       0.00005913 Ry

     iteration # 58     ecut=    29.40 Ry     beta= 0.05
     Davidson diagonalization with overlap
     ethr =  1.50E-08,  avg # of iterations = 11.6

     negative rho (up, down):  1.541E-02 0.000E+00
 
     Adding external electric field

     Computed dipole along edir(3) : 
        Dipole                0.7063 Ry au,          1.7953 Debye
        Dipole field          0.0013 Ry au, 
 
        Potential amp.       -0.1236 Ry
        Total length         46.3494 bohr
 

     total cpu time spent up to now is      893.9 secs

     total energy              =   -2939.15452634 Ry
     estimated scf accuracy    <       0.00003673 Ry

     iteration # 59     ecut=    29.40 Ry     beta= 0.05
     Davidson diagonalization with overlap
     ethr =  9.30E-09,  avg # of iterations =  5.6

     negative rho (up, down):  1.550E-02 0.000E+00
 
     Adding external electric field

     Computed dipole along edir(3) : 
        Dipole                0.7066 Ry au,          1.7959 Debye
        Dipole field          0.0013 Ry au, 
 
        Potential amp.       -0.1236 Ry
        Total length         46.3494 bohr
 

     total cpu time spent up to now is      905.7 secs

     total energy              =   -2939.15453154 Ry
     estimated scf accuracy    <       0.00003262 Ry

     iteration # 60     ecut=    29.40 Ry     beta= 0.05
     Davidson diagonalization with overlap
     ethr =  8.26E-09,  avg # of iterations =  5.4

     negative rho (up, down):  1.568E-02 0.000E+00
 
     Adding external electric field

     Computed dipole along edir(3) : 
        Dipole                0.7084 Ry au,          1.8005 Debye
        Dipole field          0.0013 Ry au, 
 
        Potential amp.       -0.1239 Ry
        Total length         46.3494 bohr
 

     total cpu time spent up to now is      917.3 secs

     total energy              =   -2939.15453954 Ry
     estimated scf accuracy    <       0.00001952 Ry

     iteration # 61     ecut=    29.40 Ry     beta= 0.05
     Davidson diagonalization with overlap
     c_bands:  1 eigenvalues not converged
     ethr =  4.94E-09,  avg # of iterations = 14.1

     negative rho (up, down):  1.565E-02 0.000E+00
 
     Adding external electric field

     Computed dipole along edir(3) : 
        Dipole                0.7081 Ry au,          1.7999 Debye
        Dipole field          0.0013 Ry au, 
 
        Potential amp.       -0.1239 Ry
        Total length         46.3494 bohr
 

     total cpu time spent up to now is      938.2 secs

     total energy              =   -2939.15455088 Ry
     estimated scf accuracy    <       0.00002157 Ry

     iteration # 62     ecut=    29.40 Ry     beta= 0.05
     Davidson diagonalization with overlap
     ethr =  4.94E-09,  avg # of iterations =  1.0

     negative rho (up, down):  1.564E-02 0.000E+00
 
     Adding external electric field

     Computed dipole along edir(3) : 
        Dipole                0.7084 Ry au,          1.8006 Debye
        Dipole field          0.0013 Ry au, 
 
        Potential amp.       -0.1239 Ry
        Total length         46.3494 bohr
 

     total cpu time spent up to now is      947.9 secs

     total energy              =   -2939.15455407 Ry
     estimated scf accuracy    <       0.00001648 Ry

     iteration # 63     ecut=    29.40 Ry     beta= 0.05
     Davidson diagonalization with overlap
     ethr =  4.17E-09,  avg # of iterations =  2.6

     negative rho (up, down):  1.569E-02 0.000E+00
 
     Adding external electric field

     Computed dipole along edir(3) : 
        Dipole                0.7098 Ry au,          1.8041 Debye
        Dipole field          0.0013 Ry au, 
 
        Potential amp.       -0.1242 Ry
        Total length         46.3494 bohr
 

     total cpu time spent up to now is      958.5 secs

     total energy              =   -2939.15455863 Ry
     estimated scf accuracy    <       0.00001012 Ry

     iteration # 64     ecut=    29.40 Ry     beta= 0.05
     Davidson diagonalization with overlap
     ethr =  2.56E-09,  avg # of iterations =  8.5

     negative rho (up, down):  1.566E-02 0.000E+00
 
     Adding external electric field

     Computed dipole along edir(3) : 
        Dipole                0.7102 Ry au,          1.8051 Debye
        Dipole field          0.0013 Ry au, 
 
        Potential amp.       -0.1242 Ry
        Total length         46.3494 bohr
 

     total cpu time spent up to now is      971.0 secs

     total energy              =   -2939.15456057 Ry
     estimated scf accuracy    <       0.00000746 Ry

     iteration # 65     ecut=    29.40 Ry     beta= 0.05
     Davidson diagonalization with overlap
     ethr =  1.89E-09,  avg # of iterations = 10.5

     negative rho (up, down):  1.568E-02 0.000E+00
 
     Adding external electric field

     Computed dipole along edir(3) : 
        Dipole                0.7103 Ry au,          1.8055 Debye
        Dipole field          0.0013 Ry au, 
 
        Potential amp.       -0.1243 Ry
        Total length         46.3494 bohr
 

     total cpu time spent up to now is      988.1 secs

     total energy              =   -2939.15456480 Ry
     estimated scf accuracy    <       0.00000432 Ry

     iteration # 66     ecut=    29.40 Ry     beta= 0.05
     Davidson diagonalization with overlap
     ethr =  1.09E-09,  avg # of iterations =  8.6

     negative rho (up, down):  1.569E-02 0.000E+00
 
     Adding external electric field

     Computed dipole along edir(3) : 
        Dipole                0.7105 Ry au,          1.8059 Debye
        Dipole field          0.0013 Ry au, 
 
        Potential amp.       -0.1243 Ry
        Total length         46.3494 bohr
 

     total cpu time spent up to now is     1000.4 secs

     total energy              =   -2939.15456760 Ry
     estimated scf accuracy    <       0.00000251 Ry

     iteration # 67     ecut=    29.40 Ry     beta= 0.05
     Davidson diagonalization with overlap
     ethr =  6.34E-10,  avg # of iterations =  6.8

     negative rho (up, down):  1.572E-02 0.000E+00
 
     Adding external electric field

     Computed dipole along edir(3) : 
        Dipole                0.7111 Ry au,          1.8076 Debye
        Dipole field          0.0013 Ry au, 
 
        Potential amp.       -0.1244 Ry
        Total length         46.3494 bohr
 

     total cpu time spent up to now is     1012.7 secs

     total energy              =   -2939.15456999 Ry
     estimated scf accuracy    <       0.00000141 Ry

     iteration # 68     ecut=    29.40 Ry     beta= 0.05
     Davidson diagonalization with overlap
     c_bands:  1 eigenvalues not converged
     ethr =  3.57E-10,  avg # of iterations = 14.1

     negative rho (up, down):  1.572E-02 0.000E+00
 
     Adding external electric field

     Computed dipole along edir(3) : 
        Dipole                0.7111 Ry au,          1.8075 Debye
        Dipole field          0.0013 Ry au, 
 
        Potential amp.       -0.1244 Ry
        Total length         46.3494 bohr
 

     total cpu time spent up to now is     1031.8 secs

     total energy              =   -2939.15457246 Ry
     estimated scf accuracy    <       0.00000253 Ry

     iteration # 69     ecut=    29.40 Ry     beta= 0.05
     Davidson diagonalization with overlap
     ethr =  3.57E-10,  avg # of iterations = 10.2

     negative rho (up, down):  1.569E-02 0.000E+00
 
     Adding external electric field

     Computed dipole along edir(3) : 
        Dipole                0.7111 Ry au,          1.8075 Debye
        Dipole field          0.0013 Ry au, 
 
        Potential amp.       -0.1244 Ry
        Total length         46.3494 bohr
 

     total cpu time spent up to now is     1044.6 secs

     total energy              =   -2939.15457422 Ry
     estimated scf accuracy    <       0.00000147 Ry

     iteration # 70     ecut=    29.40 Ry     beta= 0.05
     Davidson diagonalization with overlap
     ethr =  3.57E-10,  avg # of iterations =  6.9

     negative rho (up, down):  1.567E-02 0.000E+00
 
     Adding external electric field

     Computed dipole along edir(3) : 
        Dipole                0.7110 Ry au,          1.8073 Debye
        Dipole field          0.0013 Ry au, 
 
        Potential amp.       -0.1244 Ry
        Total length         46.3494 bohr
 

     total cpu time spent up to now is     1059.3 secs

     total energy              =   -2939.15457640 Ry
     estimated scf accuracy    <       0.00000051 Ry

     iteration # 71     ecut=    29.40 Ry     beta= 0.05
     Davidson diagonalization with overlap
     ethr =  1.28E-10,  avg # of iterations = 11.2

     negative rho (up, down):  1.566E-02 0.000E+00
 
     Adding external electric field

     Computed dipole along edir(3) : 
        Dipole                0.7107 Ry au,          1.8065 Debye
        Dipole field          0.0013 Ry au, 
 
        Potential amp.       -0.1243 Ry
        Total length         46.3494 bohr
 

     total cpu time spent up to now is     1074.9 secs

     total energy              =   -2939.15457806 Ry
     estimated scf accuracy    <       0.00000049 Ry

     iteration # 72     ecut=    29.40 Ry     beta= 0.05
     Davidson diagonalization with overlap
     ethr =  1.25E-10,  avg # of iterations =  7.0

     negative rho (up, down):  1.565E-02 0.000E+00
 
     Adding external electric field

     Computed dipole along edir(3) : 
        Dipole                0.7104 Ry au,          1.8055 Debye
        Dipole field          0.0013 Ry au, 
 
        Potential amp.       -0.1243 Ry
        Total length         46.3494 bohr
 

     total cpu time spent up to now is     1086.9 secs

     total energy              =   -2939.15457954 Ry
     estimated scf accuracy    <       0.00000020 Ry

     iteration # 73     ecut=    29.40 Ry     beta= 0.05
     Davidson diagonalization with overlap
     c_bands:  1 eigenvalues not converged
     c_bands:  1 eigenvalues not converged
     ethr =  5.11E-11,  avg # of iterations = 12.8

     negative rho (up, down):  1.564E-02 0.000E+00
 
     Adding external electric field

     Computed dipole along edir(3) : 
        Dipole                0.7103 Ry au,          1.8054 Debye
        Dipole field          0.0013 Ry au, 
 
        Potential amp.       -0.1243 Ry
        Total length         46.3494 bohr
 

     total cpu time spent up to now is     1105.8 secs

     total energy              =   -2939.15458099 Ry
     estimated scf accuracy    <       0.00000018 Ry

     iteration # 74     ecut=    29.40 Ry     beta= 0.05
     Davidson diagonalization with overlap
     ethr =  4.50E-11,  avg # of iterations =  8.9

     negative rho (up, down):  1.563E-02 0.000E+00
 
     Adding external electric field

     Computed dipole along edir(3) : 
        Dipole                0.7099 Ry au,          1.8044 Debye
        Dipole field          0.0013 Ry au, 
 
        Potential amp.       -0.1242 Ry
        Total length         46.3494 bohr
 

     total cpu time spent up to now is     1120.1 secs

     total energy              =   -2939.15458226 Ry
     estimated scf accuracy    <       0.00000008 Ry

     iteration # 75     ecut=    29.40 Ry     beta= 0.05
     Davidson diagonalization with overlap
     ethr =  1.94E-11,  avg # of iterations = 11.9

     negative rho (up, down):  1.565E-02 0.000E+00
 
     Adding external electric field

     Computed dipole along edir(3) : 
        Dipole                0.7090 Ry au,          1.8022 Debye
        Dipole field          0.0013 Ry au, 
 
        Potential amp.       -0.1240 Ry
        Total length         46.3494 bohr
 

     total cpu time spent up to now is     1135.0 secs

     End of self-consistent calculation

          k = 0.0000 0.0000 0.0000 ( 18029 PWs)   bands (ev):

   -55.8943 -55.8793 -55.8602 -55.8433 -55.7946 -55.7292 -55.7032 -55.7025
   -55.6926 -55.6685 -55.6677 -55.6341 -55.2850 -55.0945 -54.8713 -54.8372
   -32.4335 -32.3765 -32.2292 -32.2267 -32.2013 -32.1981 -32.1873 -32.1583
   -32.1367 -32.1233 -32.1016 -32.0657 -32.0599 -32.0464 -32.0326 -32.0190
   -32.0167 -31.9984 -31.9840 -31.9514 -31.9432 -31.9388 -31.8978 -31.8928
   -31.8904 -31.8871 -31.8789 -31.8742 -31.8698 -31.8431 -31.8424 -31.8334
   -31.8322 -31.8206 -31.8090 -31.7799 -31.7769 -31.5652 -31.4585 -31.3566
   -31.3547 -31.3102 -31.2784 -31.1901 -31.1676 -31.0951 -31.0086 -30.8976
   -18.4508 -16.6319 -16.3671 -16.1383 -16.0445 -16.0123 -15.8942 -15.7318
   -15.6143 -15.5594 -15.4620 -15.4425 -15.4295 -15.3976 -15.3794 -15.3740
   -15.3400 -15.3359 -15.3173 -15.3022 -15.2538 -15.2301 -15.2085 -15.1091
   -15.0629 -15.0290 -15.0138 -14.9507 -14.9456 -14.4414 -13.3740 -13.2576
   -11.3633  -6.9305  -4.3508  -4.0018  -3.8907  -3.8638  -3.8461  -3.7996
    -3.7429  -3.6244  -3.4982  -3.4359  -3.1254  -3.0771  -3.0613  -3.0441
    -3.0064  -2.7989  -2.7483  -2.7074  -2.6823  -2.6757  -2.6646  -2.6571
    -2.6453  -2.6067  -2.5047  -2.4358  -2.4255  -2.3429  -2.2927  -2.2692
    -2.2061  -2.1867  -2.1649  -2.1408  -2.1300  -2.1091  -2.0889  -2.0782
    -1.9717  -1.8823  -1.7550  -1.6937  -1.6722  -1.6622  -1.6313  -1.5016
    -1.3690  -1.3369  -1.3296  -1.3192  -1.2856  -1.2733  -1.1908  -1.0625
    -1.0512  -1.0122  -0.9586  -0.9008  -0.8760  -0.7740  -0.7373  -0.6605
    -0.6553  -0.6385  -0.5861  -0.5317  -0.3754  -0.3335  -0.3078  -0.2856
    -0.2609  -0.1901  -0.1686  -0.0527  -0.0346  -0.0172   0.0430   0.0660
     0.0791   0.0890   0.1068   0.1249   0.1423   0.3095   0.3820   0.4337
     0.4576   0.5154   0.6407   0.7095   0.7646   0.8649   1.0762   1.1505
     1.2431   1.3426   1.7217   1.7673   2.6482   3.2452   3.3259   3.3750
     3.3897   3.4867   3.5205   3.6968   3.6983   3.7267   3.7966

          k = 0.0000 0.0419 0.0000 ( 17933 PWs)   bands (ev):

   -55.8892 -55.8739 -55.8651 -55.8485 -55.7929 -55.7245 -55.7048 -55.6979
   -55.6968 -55.6734 -55.6627 -55.6389 -55.2843 -55.0951 -54.8662 -54.8422
   -32.3761 -32.3226 -32.1870 -32.1827 -32.1755 -32.1739 -32.1729 -32.1295
   -32.1154 -32.1061 -32.0947 -32.0895 -32.0655 -32.0551 -32.0498 -32.0416
   -32.0326 -32.0072 -31.9706 -31.9653 -31.9352 -31.9321 -31.9046 -31.9025
   -31.9005 -31.8941 -31.8933 -31.8882 -31.8830 -31.8759 -31.8732 -31.8602
   -31.8388 -31.8385 -31.8350 -31.8231 -31.7414 -31.5646 -31.4560 -31.3845
   -31.3548 -31.3244 -31.2243 -31.1866 -31.1707 -31.0825 -31.0212 -30.9547
   -18.4488 -16.4963 -16.2471 -16.0303 -15.9357 -15.9119 -15.8596 -15.7549
   -15.6704 -15.6492 -15.4873 -15.4559 -15.4276 -15.4126 -15.3865 -15.3705
   -15.3555 -15.3506 -15.3264 -15.3193 -15.2793 -15.2379 -15.1795 -15.1184
   -15.1130 -15.0867 -15.0669 -15.0058 -14.9621 -14.5197 -13.3781 -13.2971
   -11.3624  -6.9372  -4.3065  -3.8848  -3.8582  -3.8112  -3.6812  -3.6234
    -3.5865  -3.4730  -3.3425  -3.2059  -3.1153  -3.0618  -2.9690  -2.9459
    -2.9308  -2.8716  -2.8467  -2.8370  -2.7791  -2.7542  -2.7335  -2.6694
    -2.6434  -2.6282  -2.5876  -2.5665  -2.5573  -2.5521  -2.3998  -2.3922
    -2.3762  -2.3550  -2.3127  -2.2231  -2.1488  -2.1339  -2.0394  -1.9744
    -1.8706  -1.7991  -1.6687  -1.6611  -1.5996  -1.5613  -1.5098  -1.4418
    -1.4056  -1.2878  -1.2431  -1.1804  -1.1505  -1.0989  -1.0916  -0.9600
    -0.9037  -0.8876  -0.8454  -0.8059  -0.7971  -0.7852  -0.7695  -0.7150
    -0.7006  -0.6453  -0.5668  -0.5169  -0.4554  -0.4254  -0.3990  -0.3755
    -0.3359  -0.3282  -0.1803  -0.1644  -0.1207  -0.0922  -0.0602  -0.0530
    -0.0331  -0.0086   0.1028   0.1358   0.1608   0.2293   0.3194   0.3669
     0.3809   0.4406   0.4529   0.5021   0.6383   0.7693   0.7927   1.1164
     1.3396   1.4234   1.6757   1.6793   2.6475   3.4338   3.4781   3.4953
     3.5541   3.5957   3.6420   3.6663   3.7302   3.7670   3.8089

          k = 0.0000-0.0839 0.0000 ( 17884 PWs)   bands (ev):

   -55.8778 -55.8766 -55.8614 -55.8610 -55.7911 -55.7171 -55.7065 -55.7046
   -55.6865 -55.6843 -55.6514 -55.6501 -55.2835 -55.0958 -54.8543 -54.8540
   -32.2375 -32.2357 -32.1907 -32.1898 -32.1732 -32.1720 -32.1683 -32.1329
   -32.0861 -32.0771 -32.0678 -32.0635 -32.0472 -32.0407 -32.0334 -32.0034
   -31.9996 -31.9984 -31.9971 -31.9956 -31.9942 -31.9728 -31.9698 -31.9381
   -31.9379 -31.9195 -31.9143 -31.9101 -31.9063 -31.8988 -31.8833 -31.8822
   -31.8560 -31.8535 -31.8304 -31.8302 -31.6941 -31.5641 -31.4671 -31.4136
   -31.3547 -31.3357 -31.1785 -31.1783 -31.0914 -31.0912 -31.0519 -31.0518
   -18.4468 -16.1549 -16.1477 -15.9627 -15.9623 -15.8027 -15.7920 -15.6935
   -15.6784 -15.6701 -15.6451 -15.6094 -15.6068 -15.4548 -15.4502 -15.3199
   -15.2761 -15.2725 -15.2617 -15.2450 -15.2290 -15.2283 -15.2083 -15.2044
   -15.1799 -15.1488 -15.1366 -15.1034 -14.9431 -14.6255 -13.3599 -13.3597
   -11.3615  -6.9437  -4.2642  -3.8854  -3.8555  -3.3624  -3.3407  -3.2895
    -3.2790  -3.2649  -3.2585  -3.1849  -3.1845  -3.1119  -3.0636  -3.0306
    -3.0018  -2.9961  -2.9687  -2.9419  -2.8873  -2.8452  -2.8380  -2.7548
    -2.7038  -2.6806  -2.6394  -2.6117  -2.5885  -2.5544  -2.4965  -2.4809
    -2.4523  -2.3362  -2.2681  -2.2599  -2.2366  -1.9743  -1.8942  -1.7968
    -1.7649  -1.7102  -1.6506  -1.5909  -1.5430  -1.4960  -1.4006  -1.3698
    -1.3538  -1.3167  -1.3122  -1.2786  -1.2632  -1.2128  -1.1111  -1.0789
    -1.0441  -1.0097  -0.9227  -0.8194  -0.7639  -0.6156  -0.6121  -0.5345
    -0.5297  -0.5105  -0.5012  -0.4643  -0.4358  -0.4163  -0.3697  -0.3400
    -0.3184  -0.2990  -0.2797  -0.2264  -0.2117  -0.1767  -0.1631  -0.1408
    -0.1036  -0.0819  -0.0661  -0.0283  -0.0030   0.0181   0.1124   0.2557
     0.3469   0.3504   0.3610   0.3874   0.7045   0.7325   0.8034   0.8474
     1.4828   1.4831   1.6126   1.6135   2.6704   3.5527   3.5758   3.5877
     3.6077   3.6224   3.6848   3.6941   3.7938   3.8165   3.8342

          k = 0.0380 0.0000 0.0000 ( 17913 PWs)   bands (ev):

   -55.8942 -55.8791 -55.8601 -55.8432 -55.7945 -55.7292 -55.7031 -55.7023
   -55.6925 -55.6684 -55.6677 -55.6340 -55.2849 -55.0944 -54.8712 -54.8371
   -32.4336 -32.3774 -32.2354 -32.2279 -32.2015 -32.1979 -32.1871 -32.1629
   -32.1367 -32.1230 -32.0859 -32.0654 -32.0598 -32.0435 -32.0253 -32.0186
   -32.0133 -31.9981 -31.9636 -31.9555 -31.9512 -31.9423 -31.8975 -31.8935
   -31.8865 -31.8835 -31.8786 -31.8739 -31.8696 -31.8634 -31.8429 -31.8332
   -31.8320 -31.8208 -31.8080 -31.7802 -31.7756 -31.5668 -31.4584 -31.3565
   -31.3548 -31.3101 -31.2779 -31.1934 -31.1656 -31.0949 -31.0085 -30.8974
   -18.4505 -16.5594 -16.2828 -16.0592 -16.0289 -15.9418 -15.8936 -15.7758
   -15.6122 -15.5894 -15.5855 -15.5561 -15.5123 -15.4999 -15.4554 -15.4433
   -15.4153 -15.2557 -15.2400 -15.2117 -15.1520 -15.1445 -15.1389 -15.1123
   -15.0845 -15.0727 -15.0574 -15.0376 -14.9298 -14.4390 -13.3708 -13.2573
   -11.3628  -6.9262  -4.3217  -3.9244  -3.9092  -3.8753  -3.6233  -3.5827
    -3.5213  -3.4327  -3.4222  -3.4133  -3.3523  -3.1352  -3.1245  -3.0024
    -2.9740  -2.9573  -2.8992  -2.7571  -2.6949  -2.6583  -2.6115  -2.6030
    -2.5665  -2.4979  -2.4661  -2.4382  -2.3528  -2.3468  -2.2864  -2.2339
    -2.2265  -2.1663  -2.1096  -2.0800  -2.0724  -1.9354  -1.9034  -1.8801
    -1.8558  -1.8270  -1.7848  -1.7484  -1.7005  -1.6183  -1.5743  -1.4999
    -1.4827  -1.4356  -1.3847  -1.3279  -1.3184  -1.2778  -1.1788  -1.1719
    -1.1621  -1.1254  -1.0200  -0.9816  -0.8888  -0.7629  -0.7308  -0.7074
    -0.6908  -0.6531  -0.5961  -0.5667  -0.4440  -0.3900  -0.3291  -0.3109
    -0.2342  -0.2305  -0.1800  -0.1483  -0.0954  -0.0839  -0.0738  -0.0440
    -0.0214  -0.0069   0.0113   0.0684   0.1841   0.2447   0.2917   0.3066
     0.4137   0.5010   0.5318   0.5556   0.7422   0.7975   1.0794   1.1079
     1.1623   1.3121   1.6102   1.6845   2.6586   3.2814   3.2984   3.5800
     3.5959   3.6268   3.6375   3.6699   3.6960   3.7231   3.7611

          k = 0.0380 0.0419 0.0000 ( 17878 PWs)   bands (ev):

   -55.8892 -55.8738 -55.8651 -55.8485 -55.7928 -55.7245 -55.7047 -55.6978
   -55.6967 -55.6733 -55.6628 -55.6389 -55.2842 -55.0951 -54.8662 -54.8421
   -32.3763 -32.3234 -32.1869 -32.1825 -32.1823 -32.1747 -32.1743 -32.1294
   -32.1157 -32.1107 -32.0943 -32.0779 -32.0654 -32.0552 -32.0496 -32.0312
   -32.0301 -32.0045 -31.9649 -31.9534 -31.9487 -31.9321 -31.9021 -31.8994
   -31.8962 -31.8933 -31.8932 -31.8884 -31.8829 -31.8759 -31.8733 -31.8627
   -31.8584 -31.8376 -31.8312 -31.8278 -31.7406 -31.5661 -31.4560 -31.3844
   -31.3553 -31.3243 -31.2239 -31.1892 -31.1697 -31.0824 -31.0212 -30.9546
   -18.4486 -16.4303 -16.1695 -15.9592 -15.9226 -15.8581 -15.8375 -15.7563
   -15.7069 -15.6508 -15.5497 -15.5069 -15.4941 -15.4816 -15.4772 -15.3927
   -15.3789 -15.3050 -15.2876 -15.2782 -15.2199 -15.2055 -15.1810 -15.1470
   -15.1410 -15.1279 -15.0945 -15.0623 -14.9475 -14.5176 -13.3759 -13.2974
   -11.3620  -6.9346  -4.2907  -3.9007  -3.8555  -3.7465  -3.4560  -3.4172
    -3.3481  -3.2793  -3.2596  -3.2046  -3.1862  -3.0425  -2.9915  -2.9216
    -2.8868  -2.8756  -2.8008  -2.7836  -2.7602  -2.7206  -2.6921  -2.6750
    -2.6265  -2.6028  -2.5945  -2.5436  -2.5246  -2.4988  -2.4451  -2.3805
    -2.3551  -2.3069  -2.2291  -2.1755  -2.0973  -2.0403  -1.9747  -1.8909
    -1.8669  -1.8335  -1.7373  -1.6384  -1.6199  -1.4982  -1.4713  -1.4445
    -1.3944  -1.3444  -1.3053  -1.2827  -1.2124  -1.1581  -1.1408  -1.1085
    -1.0311  -0.9978  -0.9615  -0.9099  -0.8803  -0.8227  -0.7969  -0.7476
    -0.7050  -0.6865  -0.6267  -0.6029  -0.5422  -0.5299  -0.5120  -0.4752
    -0.4272  -0.3643  -0.3373  -0.3031  -0.2339  -0.2046  -0.1888  -0.1320
    -0.0984   0.0116   0.0581   0.1062   0.1893   0.2537   0.3101   0.3697
     0.4327   0.4538   0.5027   0.5431   0.5573   0.6981   0.7630   1.0525
     1.3504   1.4277   1.5982   1.6601   2.6621   3.4229   3.4890   3.5300
     3.6192   3.6371   3.6853   3.7206   3.7763   3.8096   3.8281

          k = 0.0380-0.0839 0.0000 ( 17916 PWs)   bands (ev):

   -55.8778 -55.8766 -55.8614 -55.8610 -55.7911 -55.7171 -55.7065 -55.7047
   -55.6865 -55.6842 -55.6515 -55.6502 -55.2836 -55.0958 -54.8543 -54.8541
   -32.2377 -32.2359 -32.1915 -32.1906 -32.1732 -32.1721 -32.1684 -32.1330
   -32.0865 -32.0794 -32.0773 -32.0728 -32.0411 -32.0272 -32.0181 -32.0040
   -31.9984 -31.9978 -31.9972 -31.9964 -31.9928 -31.9833 -31.9806 -31.9272
   -31.9159 -31.9149 -31.9138 -31.9127 -31.9096 -31.8988 -31.8833 -31.8822
   -31.8561 -31.8535 -31.8423 -31.8421 -31.6939 -31.5655 -31.4669 -31.4136
   -31.3556 -31.3357 -31.1795 -31.1793 -31.0913 -31.0911 -31.0519 -31.0518
   -18.4467 -16.1137 -16.1028 -15.9122 -15.9111 -15.7736 -15.7642 -15.6992
   -15.6474 -15.6299 -15.6140 -15.5926 -15.5811 -15.4683 -15.4628 -15.3610
   -15.3309 -15.3129 -15.3069 -15.2914 -15.2688 -15.2608 -15.2487 -15.2328
   -15.1997 -15.1911 -15.1735 -15.0775 -14.9362 -14.6214 -13.3597 -13.3595
   -11.3613  -6.9430  -4.2621  -3.8867  -3.8529  -3.3565  -3.3280  -3.1418
    -3.1182  -3.0791  -3.0665  -3.0348  -2.9972  -2.9758  -2.9607  -2.9114
    -2.8925  -2.8831  -2.8635  -2.8406  -2.8284  -2.7386  -2.7359  -2.7266
    -2.7013  -2.6710  -2.6128  -2.5984  -2.5724  -2.5368  -2.5206  -2.4754
    -2.4302  -2.4081  -2.3560  -2.0334  -2.0110  -1.9797  -1.8637  -1.7965
    -1.7812  -1.7412  -1.7182  -1.6744  -1.6638  -1.6219  -1.5978  -1.5684
    -1.5304  -1.5179  -1.4759  -1.4041  -1.3597  -1.3209  -1.1493  -1.1128
    -1.0084  -0.9898  -0.9384  -0.9241  -0.8475  -0.7739  -0.7179  -0.6927
    -0.6811  -0.6545  -0.6427  -0.6092  -0.5826  -0.5486  -0.5050  -0.4790
    -0.4662  -0.4440  -0.4352  -0.4322  -0.3057  -0.2856  -0.2488  -0.1246
    -0.0691  -0.0194   0.0239   0.1344   0.1907   0.2107   0.2343   0.2642
     0.2982   0.3707   0.4562   0.4845   0.6492   0.6679   0.7817   0.8467
     1.4960   1.4965   1.6017   1.6027   2.6874   3.5021   3.5314   3.6064
     3.6304   3.6468   3.6714   3.7206   3.8430   3.8651   3.8711

          k = 0.0380-0.0419 0.0000 ( 17876 PWs)   bands (ev):

   -55.8892 -55.8738 -55.8651 -55.8485 -55.7928 -55.7245 -55.7047 -55.6978
   -55.6967 -55.6733 -55.6628 -55.6389 -55.2842 -55.0951 -54.8662 -54.8421
   -32.3763 -32.3234 -32.1869 -32.1825 -32.1823 -32.1747 -32.1742 -32.1294
   -32.1157 -32.1107 -32.0943 -32.0778 -32.0655 -32.0551 -32.0496 -32.0311
   -32.0301 -32.0045 -31.9649 -31.9533 -31.9488 -31.9321 -31.9020 -31.8995
   -31.8961 -31.8932 -31.8931 -31.8884 -31.8829 -31.8760 -31.8732 -31.8627
   -31.8587 -31.8376 -31.8310 -31.8278 -31.7406 -31.5661 -31.4560 -31.3844
   -31.3553 -31.3243 -31.2239 -31.1892 -31.1697 -31.0824 -31.0212 -30.9546
   -18.4486 -16.4304 -16.1694 -15.9591 -15.9227 -15.8581 -15.8375 -15.7557
   -15.7069 -15.6511 -15.5502 -15.5072 -15.4941 -15.4821 -15.4776 -15.3921
   -15.3771 -15.3077 -15.2870 -15.2776 -15.2194 -15.2052 -15.1810 -15.1478
   -15.1407 -15.1279 -15.0950 -15.0617 -14.9475 -14.5176 -13.3759 -13.2974
   -11.3620  -6.9347  -4.2910  -3.8938  -3.8636  -3.7461  -3.4579  -3.4184
    -3.3475  -3.2789  -3.2582  -3.2098  -3.1802  -3.0420  -2.9883  -2.9205
    -2.8853  -2.8736  -2.7991  -2.7856  -2.7629  -2.7226  -2.6954  -2.6729
    -2.6278  -2.6068  -2.5899  -2.5437  -2.5259  -2.4998  -2.4457  -2.3803
    -2.3547  -2.3095  -2.2336  -2.1772  -2.0987  -2.0367  -1.9786  -1.8871
    -1.8649  -1.8405  -1.7364  -1.6327  -1.6157  -1.5122  -1.4760  -1.4289
    -1.3838  -1.3438  -1.3067  -1.2816  -1.2136  -1.1609  -1.1388  -1.1142
    -1.0296  -0.9943  -0.9581  -0.9100  -0.8642  -0.8256  -0.7937  -0.7532
    -0.7025  -0.6777  -0.6191  -0.5921  -0.5602  -0.5320  -0.5136  -0.4668
    -0.4343  -0.3686  -0.3457  -0.3094  -0.2371  -0.1970  -0.1798  -0.1414
    -0.0947   0.0064   0.0508   0.1060   0.1832   0.2505   0.3145   0.3603
     0.4320   0.4604   0.5033   0.5472   0.5524   0.6983   0.7632   1.0525
     1.3505   1.4279   1.5980   1.6607   2.6616   3.4224   3.4904   3.5281
     3.6048   3.6638   3.6908   3.7173   3.7798   3.8166   3.8288

          k =-0.0760-0.0000 0.0000 ( 17886 PWs)   bands (ev):

   -55.8941 -55.8790 -55.8601 -55.8432 -55.7944 -55.7292 -55.7031 -55.7020
   -55.6925 -55.6684 -55.6679 -55.6340 -55.2849 -55.0944 -54.8711 -54.8371
   -32.4337 -32.3783 -32.2413 -32.2291 -32.2016 -32.1977 -32.1870 -32.1674
   -32.1368 -32.1229 -32.0678 -32.0621 -32.0597 -32.0406 -32.0192 -32.0184
   -32.0100 -31.9981 -31.9773 -31.9516 -31.9422 -31.9175 -31.9108 -31.8966
   -31.8944 -31.8864 -31.8785 -31.8773 -31.8735 -31.8694 -31.8430 -31.8331
   -31.8319 -31.8217 -31.8072 -31.7809 -31.7745 -31.5689 -31.4583 -31.3565
   -31.3553 -31.3100 -31.2776 -31.1967 -31.1643 -31.0949 -31.0084 -30.8974
   -18.4503 -16.4643 -16.1997 -15.9978 -15.9836 -15.8936 -15.8598 -15.7506
   -15.6703 -15.6685 -15.6087 -15.5948 -15.5733 -15.5595 -15.5527 -15.5094
   -15.4343 -15.2626 -15.2578 -15.2257 -15.1761 -15.1541 -15.1414 -15.0956
   -15.0654 -15.0582 -15.0494 -14.9843 -14.9260 -14.4370 -13.3678 -13.2570
   -11.3623  -6.9220  -4.2976  -3.9332  -3.9015  -3.8770  -3.5580  -3.4806
    -3.4044  -3.2952  -3.2668  -3.1642  -3.1549  -3.1415  -3.1292  -3.1156
    -3.0930  -2.9148  -2.7507  -2.6934  -2.6880  -2.6540  -2.6135  -2.5244
    -2.4649  -2.4413  -2.3941  -2.3840  -2.3028  -2.2957  -2.2251  -2.1866
    -2.1687  -2.1299  -2.1237  -2.1127  -2.0972  -2.0777  -2.0057  -1.9773
    -1.9045  -1.7346  -1.7065  -1.6764  -1.5447  -1.5336  -1.5137  -1.5029
    -1.4875  -1.4798  -1.4697  -1.4488  -1.3581  -1.3517  -1.2510  -1.1888
    -1.1650  -1.1359  -1.0941  -1.0573  -1.0461  -1.0416  -0.9060  -0.7312
    -0.6725  -0.6647  -0.6042  -0.5646  -0.5389  -0.4994  -0.4163  -0.3837
    -0.3598  -0.3207  -0.2964  -0.2283  -0.1763  -0.1524  -0.0877  -0.0779
    -0.0366  -0.0110   0.0070   0.1077   0.1533   0.1845   0.2343   0.3478
     0.3703   0.4746   0.5855   0.5913   0.7154   0.7984   0.8389   1.0908
     1.1835   1.2876   1.4808   1.6288   2.6661   3.2788   3.2872   3.4209
     3.5242   3.5794   3.6115   3.6955   3.6980   3.7688   3.7796

          k =-0.0760 0.0419 0.0000 ( 17914 PWs)   bands (ev):

   -55.8892 -55.8738 -55.8651 -55.8485 -55.7928 -55.7245 -55.7048 -55.6977
   -55.6966 -55.6733 -55.6629 -55.6390 -55.2843 -55.0951 -54.8662 -54.8422
   -32.3766 -32.3244 -32.1895 -32.1870 -32.1825 -32.1755 -32.1749 -32.1294
   -32.1159 -32.1157 -32.0943 -32.0659 -32.0621 -32.0554 -32.0496 -32.0280
   -32.0213 -32.0020 -31.9659 -31.9648 -31.9321 -31.9192 -31.9019 -31.9010
   -31.8994 -31.8971 -31.8925 -31.8889 -31.8825 -31.8808 -31.8746 -31.8731
   -31.8585 -31.8374 -31.8347 -31.8314 -31.7400 -31.5679 -31.4561 -31.3844
   -31.3561 -31.3243 -31.2237 -31.1920 -31.1690 -31.0824 -31.0213 -30.9546
   -18.4484 -16.3453 -16.0866 -15.9117 -15.8788 -15.8545 -15.7650 -15.7570
   -15.6533 -15.6455 -15.6301 -15.5462 -15.5432 -15.5336 -15.5203 -15.4569
   -15.4427 -15.3302 -15.2796 -15.2772 -15.2611 -15.2271 -15.1790 -15.1608
   -15.1559 -15.1310 -15.0753 -15.0510 -14.9430 -14.5159 -13.3738 -13.2978
   -11.3616  -6.9323  -4.2787  -3.9079  -3.8587  -3.7317  -3.3979  -3.2228
    -3.1926  -3.0872  -3.0132  -3.0049  -2.9885  -2.9709  -2.9405  -2.9102
    -2.9028  -2.8422  -2.8399  -2.7745  -2.7569  -2.7436  -2.6751  -2.6295
    -2.6030  -2.5832  -2.5686  -2.4871  -2.4700  -2.3958  -2.3778  -2.3712
    -2.3279  -2.2553  -2.1567  -2.1409  -2.0168  -2.0082  -1.9687  -1.8956
    -1.8814  -1.8291  -1.6814  -1.6609  -1.5514  -1.5349  -1.4881  -1.4623
    -1.4498  -1.4263  -1.3609  -1.3207  -1.2953  -1.2350  -1.1958  -1.1744
    -1.1472  -1.1170  -1.1025  -1.0820  -1.0544  -0.9662  -0.9433  -0.9010
    -0.8794  -0.8525  -0.7897  -0.7022  -0.6417  -0.6301  -0.6056  -0.5466
    -0.5250  -0.4916  -0.4802  -0.4235  -0.2865  -0.2363  -0.2042  -0.1908
    -0.0632   0.0102   0.1054   0.1267   0.2535   0.3162   0.3926   0.4115
     0.4659   0.5035   0.5585   0.5629   0.6249   0.6776   0.7033   0.8944
     1.3654   1.4311   1.5216   1.6494   2.6757   3.4095   3.4787   3.4871
     3.5568   3.5888   3.6047   3.6815   3.7423   3.8212   3.8662

          k =-0.0760-0.0839 0.0000 ( 17948 PWs)   bands (ev):

   -55.8778 -55.8766 -55.8614 -55.8610 -55.7912 -55.7172 -55.7065 -55.7047
   -55.6864 -55.6841 -55.6516 -55.6503 -55.2836 -55.0958 -54.8543 -54.8541
   -32.2380 -32.2362 -32.1923 -32.1913 -32.1733 -32.1721 -32.1686 -32.1332
   -32.0876 -32.0846 -32.0786 -32.0781 -32.0413 -32.0119 -32.0042 -32.0035
   -31.9972 -31.9971 -31.9965 -31.9960 -31.9921 -31.9904 -31.9879 -31.9369
   -31.9231 -31.9111 -31.9100 -31.8987 -31.8856 -31.8851 -31.8826 -31.8816
   -31.8661 -31.8654 -31.8562 -31.8535 -31.6937 -31.5669 -31.4669 -31.4136
   -31.3565 -31.3358 -31.1804 -31.1802 -31.0913 -31.0910 -31.0520 -31.0519
   -18.4466 -16.0677 -16.0417 -15.8417 -15.8086 -15.8045 -15.7901 -15.6814
   -15.5965 -15.5893 -15.5866 -15.5202 -15.4902 -15.4743 -15.4336 -15.4211
   -15.4137 -15.4021 -15.3918 -15.3547 -15.3473 -15.3301 -15.3227 -15.2386
   -15.2107 -15.2065 -15.1809 -15.0629 -14.9317 -14.6178 -13.3595 -13.3593
   -11.3610  -6.9423  -4.2608  -3.8882  -3.8501  -3.3571  -3.3283  -3.0882
    -3.0493  -3.0356  -2.9824  -2.8209  -2.7905  -2.7647  -2.7531  -2.7215
    -2.7161  -2.7043  -2.6990  -2.6790  -2.6376  -2.6148  -2.5974  -2.5810
    -2.5616  -2.5476  -2.5312  -2.5149  -2.5055  -2.4661  -2.4427  -2.4310
    -2.4123  -2.4007  -2.2446  -2.1213  -2.0868  -2.0322  -2.0220  -2.0008
    -1.9604  -1.9566  -1.9449  -1.8806  -1.8062  -1.6528  -1.6181  -1.5934
    -1.5721  -1.5545  -1.4996  -1.4585  -1.3723  -1.2971  -1.2741  -1.2697
    -1.2015  -1.1139  -1.1056  -1.0597  -1.0158  -1.0057  -0.9521  -0.8873
    -0.8566  -0.8523  -0.8008  -0.7329  -0.7130  -0.6625  -0.6556  -0.6112
    -0.5564  -0.5459  -0.5273  -0.4861  -0.4041  -0.3805  -0.2422  -0.1623
    -0.0401   0.0747   0.1687   0.1832   0.2631   0.3152   0.3989   0.4165
     0.4270   0.4360   0.4793   0.5623   0.6381   0.6528   0.6987   0.8196
     1.5142   1.5149   1.5870   1.5873   2.7047   3.4926   3.5370   3.5792
     3.6114   3.7180   3.7502   3.7736   3.7749   3.8033   3.9186

     the Fermi energy is     3.2405 ev

!    total energy              =   -2939.15459339 Ry
     estimated scf accuracy    <       0.00000006 Ry
     smearing contrib. (-TS)   =      -0.02243940 Ry
     internal energy E=F+TS    =   -2939.13215400 Ry

     The total energy is F=E-TS. E is the sum of the following terms:
     one-electron contribution =  -24176.18640196 Ry
     hartree contribution      =   12175.34104636 Ry
     xc contribution           =    -485.18393020 Ry
     ewald contribution        =    9546.89618312 Ry
     electric field correction =       0.00094868 Ry

     convergence has been achieved in  75 iterations

     Forces acting on atoms (cartesian axes, Ry/au):

     atom    1 type  1   force =     0.00012000   -0.00024883    0.09665886
     atom    2 type  1   force =    -0.00012423   -0.00049861   -0.17523495
     atom    3 type  2   force =     0.00000062   -0.00010351   -0.02498481
     atom    4 type  2   force =     0.00005187   -0.00150318    0.05301072
     atom    5 type  2   force =    -0.01215938   -0.00108789    0.00360917
     atom    6 type  2   force =     0.01370892   -0.00027920    0.00228367
     atom    7 type  1   force =    -0.00117315    0.00036430   -0.01149656
     atom    8 type  1   force =     0.00055983    0.00941523    0.02853016
     atom    9 type  2   force =     0.00019654    0.00053425   -0.00016462
     atom   10 type  2   force =    -0.00114850    0.00027911   -0.01823345
     atom   11 type  2   force =    -0.00012906   -0.00000370   -0.00012859
     atom   12 type  2   force =     0.00013486    0.00021822    0.00017925
     atom   13 type  1   force =     0.00008802   -0.00028884    0.00013383
     atom   14 type  1   force =     0.00022120    0.00017127    0.00020025
     atom   15 type  2   force =     0.00022420   -0.00008388   -0.00009195
     atom   16 type  2   force =    -0.00032937    0.00033944    0.00039303
     atom   17 type  2   force =    -0.00008427    0.00042393   -0.00011373
     atom   18 type  2   force =     0.00020626    0.00013669    0.00016446
     atom   19 type  1   force =    -0.00010397    0.00013788    0.00007099
     atom   20 type  1   force =    -0.00053920   -0.00014844    0.00024411
     atom   21 type  2   force =     0.00008661    0.00001237    0.10323955
     atom   22 type  2   force =    -0.00015781    0.00023644    0.00085501
     atom   23 type  2   force =    -0.07145469   -0.00007331   -0.02770629
     atom   24 type  2   force =     0.07142019    0.00034706   -0.02771426
     atom   25 type  1   force =     0.00007579   -0.00021779    0.09638578
     atom   26 type  1   force =    -0.00022333   -0.00026343   -0.17563435
     atom   27 type  2   force =     0.00007064   -0.00024829   -0.02398575
     atom   28 type  2   force =     0.00009588   -0.00126033    0.05288178
     atom   29 type  2   force =    -0.01240096    0.00003887    0.00352299
     atom   30 type  2   force =     0.01386551    0.00033213    0.00216700
     atom   31 type  1   force =    -0.00114013    0.00332730   -0.01190384
     atom   32 type  1   force =     0.00065293   -0.01117508    0.02913174
     atom   33 type  2   force =     0.00010963   -0.00020209   -0.00042048
     atom   34 type  2   force =    -0.00089629   -0.00093104   -0.02482988
     atom   35 type  2   force =    -0.00039610    0.00026905    0.00001817
     atom   36 type  2   force =     0.00073234    0.00029484    0.00034472
     atom   37 type  1   force =    -0.00000816   -0.00022721    0.00003825
     atom   38 type  1   force =    -0.00001904    0.00010322   -0.00000309
     atom   39 type  2   force =     0.00035508    0.00033941   -0.00042921
     atom   40 type  2   force =    -0.00030512    0.00010309    0.00018075
     atom   41 type  2   force =    -0.00047143    0.00054588    0.00008519
     atom   42 type  2   force =    -0.00003594    0.00044188    0.00045457
     atom   43 type  1   force =    -0.00006724    0.00039024    0.00040649
     atom   44 type  1   force =    -0.00046377    0.00016292    0.00071284
     atom   45 type  2   force =     0.00008301   -0.00002711    0.10324563
     atom   46 type  2   force =    -0.07148264   -0.00003402   -0.02771886
     atom   47 type  2   force =     0.07145098    0.00039015   -0.02774522
     atom   48 type  3   force =    -0.00155585   -0.00077444    0.00003042
     atom   49 type  3   force =     0.00078058    0.00020005   -0.00062811
     atom   50 type  4   force =     0.02078307   -0.00022048   -0.00136693
     atom   51 type  5   force =    -0.00229669    0.00287472   -0.00146314
     atom   52 type  5   force =    -0.00631687   -0.00229882    0.00572278
     atom   53 type  5   force =    -0.01059135   -0.00023039   -0.00290409

     Total force =     0.369197     Total SCF correction =     0.000458
  @ DRIVER MODE: Message from server: STATUS
  @ DRIVER MODE: Message from server: GETFORCE
  @ DRIVER MODE: Returning v,forces,stress,ensemble 

     Writing output data file ./calc.save/
  @ DRIVER MODE: Message from server: EXIT
  @ DRIVE MODE: Exiting  
 
     init_run     :     10.71s CPU     10.92s WALL (       1 calls)
     electrons    :   1107.42s CPU   1123.85s WALL (       1 calls)
     forces       :      2.35s CPU      2.43s WALL (       1 calls)

     Called by init_run:
     wfcinit      :      4.74s CPU      4.79s WALL (       1 calls)
     potinit      :      5.31s CPU      5.38s WALL (       1 calls)
     hinit0       :      0.30s CPU      0.31s WALL (       1 calls)

     Called by electrons:
     c_bands      :    930.68s CPU    937.25s WALL (      75 calls)
     sum_band     :    119.50s CPU    123.42s WALL (      75 calls)
     v_of_rho     :     42.32s CPU     44.45s WALL (      76 calls)
     newd         :     17.22s CPU     21.02s WALL (      76 calls)
     mix_rho      :      2.21s CPU      2.25s WALL (      75 calls)
     vdW_kernel   :      4.55s CPU      4.56s WALL (       1 calls)

     Called by c_bands:
     init_us_2    :      6.84s CPU      6.87s WALL (    1520 calls)
     cegterg      :    910.52s CPU    916.78s WALL (     760 calls)

     Called by *egterg:
     cdiaghg      :    145.53s CPU    146.18s WALL (    7078 calls)
     h_psi        :    494.86s CPU    499.25s WALL (    7088 calls)
     s_psi        :     64.69s CPU     64.89s WALL (    7088 calls)
     g_psi        :      1.75s CPU      1.76s WALL (    6318 calls)

     Called by h_psi:
     h_psi:calbec :     61.57s CPU     61.86s WALL (    7088 calls)
     vloc_psi     :    365.29s CPU    368.77s WALL (    7088 calls)
     add_vuspsi   :     64.82s CPU     65.23s WALL (    7088 calls)

     General routines
     calbec       :     82.47s CPU     82.83s WALL (    7878 calls)
     fft          :     22.57s CPU     22.73s WALL (    4788 calls)
     ffts         :      0.14s CPU      0.14s WALL (     151 calls)
     fftw         :    413.36s CPU    417.28s WALL (  977526 calls)
     interpolate  :      0.44s CPU      0.44s WALL (      76 calls)
     davcio       :      0.00s CPU      0.17s WALL (      10 calls)
 
     Parallel routines
 
     PWSCF        :  18m40.75s CPU  18m57.82s WALL

 
   This run was terminated on:   2:15:13   9Sep2021            

=------------------------------------------------------------------------------=
   JOB DONE.
=------------------------------------------------------------------------------=
