
     Program PWSCF v.6.7GPU starts on 15Sep2021 at 21: 0: 9 

     This program is part of the open-source Quantum ESPRESSO suite
     for quantum simulation of materials; please cite
         "P. Giannozzi et al., J. Phys.:Condens. Matter 21 395502 (2009);
         "P. Giannozzi et al., J. Phys.:Condens. Matter 29 465901 (2017);
         "P. Giannozzi et al., J. Chem. Phys. 152 154105 (2020);
          URL http://www.quantum-espresso.org", 
     in publications or presentations arising from this work. More details at
     http://www.quantum-espresso.org/quote

     Parallel version (MPI), running on    10 processors

     MPI processes distributed on     1 nodes
     R & G space division:  proc/nbgrp/npool/nimage =      10
     Reading input from /storage/home/hcoda1/3/ntian30/research/carbon/CxH_vib/H2O_calc/ads_slab/CH3OHH2O_e/out_0017/pw.inp
Warning: card &CELL ignored
Warning: card   CELL_DYNAMICS='IPI', ignored
Warning: card / ignored

     Current dimensions of program PWSCF are:
     Max number of different atomic species (ntypx) = 10
     Max number of k-points (npk) =  40000
     Max angular momentum in pseudopotentials (lmaxx) =  3
     Presently no symmetry can be used with electric field

     Message from routine cell_base_init:
     DEPRECATED: use true lattice parameter, not A to a.u. conversion factor

     **************************************************************************
     Initializing libbeef V0.1.2 with the BEEF-vdW functional.
     Citation: Wellendorff et al., PRB 85, 235149 (2012).
     **************************************************************************


     IMPORTANT: XC functional enforced from input :
     Exchange-correlation= BEEF-VDW
                           (   1   4  43  14   2   0   0)
     Any further DFT definition will be discarded
     Please, verify this is what you really want


     Subspace diagonalization in iterative solution of the eigenvalue problem:
     one sub-group per band group will be used
     scalapack distributed-memory algorithm (size of sub-group:  3*  3 procs)

  @ DRIVER MODE: Connecting to 
 qe_1139763_2852623.sched-torque.pace.gatech.edutokqnkbl_scratch
  using UNIX socket
  @ DRIVER MODE: Message from server: STATUS
  @ DRIVER MODE: Message from server: INIT
  @ DRIVER MODE: Receiving replica           0          -1
  @ DRIVER MODE: Receiving encoded integer          25
  @ DRIVER MODE:  SCF:  T  FORCE:  T  STRESS:  F  VC:  F  ENSEMBLE:  F
  @ DRIVER MODE:  SCF:  T  FORCE:  T  STRESS:  F  VC:  F  ENSEMBLE:  F
 
     Parallelization info
     --------------------
     sticks:   dense  smooth     PW     G-vecs:    dense   smooth      PW
     Min         327     131     37                56683    14340    2191
     Max         328     133     38                56694    14346    2206
     Sum        3275    1317    379               566857   143421   21985
 
     Using Slab Decomposition
 


     bravais-lattice index     =            0
     lattice parameter (alat)  =       1.8897  a.u.
     unit-cell volume          =    6658.9804 (a.u.)^3
     number of atoms/cell      =           56
     number of atomic types    =            4
     number of electrons       =       400.00
     number of Kohn-Sham states=          210
     kinetic-energy cutoff     =      29.3995  Ry
     charge density cutoff     =     293.9946  Ry
     scf convergence threshold =      7.3E-08
     mixing beta               =       0.0500
     number of iterations used =            8  plain     mixing
     Exchange-correlation= BEEF-VDW
                           (   1   4  43  14   2   0   0)

     celldm(1)=   1.889726  celldm(2)=   0.000000  celldm(3)=   0.000000
     celldm(4)=   0.000000  celldm(5)=   0.000000  celldm(6)=   0.000000

     crystal axes: (cart. coord. in units of alat)
               a(1) = (   6.579727   0.000000   0.000000 )  
               a(2) = (  -0.000775   5.961596   0.000000 )  
               a(3) = (   0.000000   0.000000  25.155947 )  

     reciprocal axes: (cart. coord. in units 2 pi/alat)
               b(1) = (  0.151982  0.000020  0.000000 )  
               b(2) = (  0.000000  0.167740  0.000000 )  
               b(3) = (  0.000000  0.000000  0.039752 )  


     PseudoPot. # 1 for Ti read from file:
     /storage/coda1/p-amedford6/0/shared/rich_project_chbe-medford/medford-share/data/pseudos_module/espresso/nninc/pbe/van/Ti.UPF
     MD5 check sum: 8e4df49b7f0d34bbd5052bf3f5ea0213
     Pseudo is Ultrasoft, Zval = 12.0
     Generated by new atomic code, or converted to UPF format
     Using radial grid of  851 points,  6 beta functions with: 
                l(1) =   0
                l(2) =   0
                l(3) =   1
                l(4) =   1
                l(5) =   2
                l(6) =   2
     Q(r) pseudized with  8 coefficients,  rinner =    1.000   1.000   1.000
                                                       1.000   1.000

     PseudoPot. # 2 for O  read from file:
     /storage/coda1/p-amedford6/0/shared/rich_project_chbe-medford/medford-share/data/pseudos_module/espresso/nninc/pbe/van/O.UPF
     MD5 check sum: 78c19812648e8988a0fe644b0f25305e
     Pseudo is Ultrasoft, Zval =  6.0
     Generated by new atomic code, or converted to UPF format
     Using radial grid of  737 points,  4 beta functions with: 
                l(1) =   0
                l(2) =   0
                l(3) =   1
                l(4) =   1
     Q(r) pseudized with  8 coefficients,  rinner =    0.800   0.800   0.800


     PseudoPot. # 3 for C  read from file:
     /storage/coda1/p-amedford6/0/shared/rich_project_chbe-medford/medford-share/data/pseudos_module/espresso/nninc/pbe/van/C.UPF
     MD5 check sum: 1a69bf6b8db32088f5b2163dbdb77a27
     Pseudo is Ultrasoft, Zval =  4.0
     Generated by new atomic code, or converted to UPF format
     Using radial grid of  721 points,  4 beta functions with: 
                l(1) =   0
                l(2) =   0
                l(3) =   1
                l(4) =   1
     Q(r) pseudized with  8 coefficients,  rinner =    0.800   0.800   0.800


     PseudoPot. # 4 for H  read from file:
     /storage/coda1/p-amedford6/0/shared/rich_project_chbe-medford/medford-share/data/pseudos_module/espresso/nninc/pbe/van/H.UPF
     MD5 check sum: b5ee9d7bfd3a09ee7748110bda690ff7
     Pseudo is Ultrasoft, Zval =  1.0
     Generated by new atomic code, or converted to UPF format
     Using radial grid of  615 points,  1 beta functions with: 
                l(1) =   0
     Q(r) pseudized with  8 coefficients,  rinner =    0.800

     atomic species   valence    mass     pseudopotential
        Ti1           12.00    47.86700     Ti( 1.00)
        O1             6.00    15.99900     O ( 1.00)
        C1             4.00    12.01100     C ( 1.00)
        H1             1.00     1.00800     H ( 1.00)

     No symmetry found



   Cartesian axes

     site n.     atom                  positions (alat units)
         1           Ti1 tau(   1) = (   0.0004258   2.9801865   6.0000000  )
         2           Ti1 tau(   2) = (   3.2906075   1.4906267   6.0002472  )
         3           O1  tau(   3) = (   0.0006271   0.0005054   7.9858123  )
         4           O1  tau(   4) = (   3.2906025   0.0005020   7.3038282  )
         5           O1  tau(   5) = (   4.5942328   1.4918067   9.2879030  )
         6           O1  tau(   6) = (   1.9868534   1.4903216   9.2879459  )
         7           Ti1 tau(   7) = (   3.3179988   2.9667087   9.1587561  )
         8           Ti1 tau(   8) = (   0.0368451   1.4888401   9.2646154  )
         9           O1  tau(   9) = (   3.2981896   5.9413050  11.3756853  )
        10           O1  tau(  10) = (   0.0022081   5.9550161  10.6068466  )
        11           O1  tau(  11) = (   1.2930414   1.4711740  12.6526869  )
        12           O1  tau(  12) = (   5.2963464   1.4745835  12.6500758  )
        13           Ti1 tau(  13) = (   0.0229324   2.9590759  12.5385950  )
        14           Ti1 tau(  14) = (   3.3157970   1.4644123  12.5194148  )
        15           O1  tau(  15) = (   6.5691168   5.9481840  14.6869282  )
        16           O1  tau(  16) = (   3.2964787   5.9455965  14.0277316  )
        17           O1  tau(  17) = (   4.5665908   1.5027878  16.2081754  )
        18           O1  tau(  18) = (   2.0283028   1.5092035  16.1774433  )
        19           Ti1 tau(  19) = (   3.2999954   2.9453206  15.7178785  )
        20           Ti1 tau(  20) = (   6.5724188   1.3235339  15.9896992  )
        21           O1  tau(  21) = (   3.2904802   0.0005063   4.7018136  )
        22           O1  tau(  22) = (   0.0286320   5.9425150  17.2304330  )
        23           O1  tau(  23) = (   1.3043587   1.4918075   6.0039043  )
        24           O1  tau(  24) = (   5.2767064   1.4903225   6.0039473  )
        25           Ti1 tau(  25) = (   0.0000382   5.9609847   6.0000000  )
        26           Ti1 tau(  26) = (   3.2902200   4.4714249   6.0002472  )
        27           O1  tau(  27) = (   0.0002396   2.9813036   7.9858123  )
        28           O1  tau(  28) = (   3.2902150   2.9813002   7.3038282  )
        29           O1  tau(  29) = (   4.5938453   4.4726049   9.2879030  )
        30           O1  tau(  30) = (   1.9864658   4.4711199   9.2879459  )
        31           Ti1 tau(  31) = (   3.3176359   5.9492212   9.1540102  )
        32           Ti1 tau(  32) = (   0.0367062   4.4560090   9.2708352  )
        33           O1  tau(  33) = (   3.2951800   2.9650663  11.3684769  )
        34           O1  tau(  34) = (   0.0080098   2.9764013  10.6279654  )
        35           O1  tau(  35) = (   1.2931912   4.4560454  12.6592269  )
        36           O1  tau(  36) = (   5.2946864   4.4524020  12.6579832  )
        37           Ti1 tau(  37) = (   0.0159028   5.9413441  12.4831893  )
        38           Ti1 tau(  38) = (   3.3151975   4.4500431  12.5204281  )
        39           O1  tau(  39) = (   0.0034497   2.9621527  14.8596962  )
        40           O1  tau(  40) = (   3.2989893   2.9535984  13.9376031  )
        41           O1  tau(  41) = (   4.5724332   4.4114593  16.1445292  )
        42           O1  tau(  42) = (   2.0255208   4.3883007  16.1585022  )
        43           Ti1 tau(  43) = (   3.2821299   5.9114753  15.8432964  )
        44           Ti1 tau(  44) = (   6.5414858   4.5242847  15.8739915  )
        45           O1  tau(  45) = (   3.2900926   2.9813045   4.7018136  )
        46           O1  tau(  46) = (   1.3039711   4.4726057   6.0039043  )
        47           O1  tau(  47) = (   5.2763189   4.4711207   6.0039473  )
        48           C1  tau(  48) = (   5.9754720   3.1749164  18.9278073  )
        49           O1  tau(  49) = (   0.1533887   3.0270296  17.7012840  )
        50           H1  tau(  50) = (   4.9293134   3.0706859  18.6484277  )
        51           H1  tau(  51) = (   1.0910173   3.2466920  17.8500278  )
        52           H1  tau(  52) = (   6.2690755   2.3937635  19.6305738  )
        53           H1  tau(  53) = (   6.1431946   4.1694627  19.3379575  )
        54           O1  tau(  54) = (   3.1723115   5.9428592  18.3689464  )
        55           H1  tau(  55) = (   3.8852673   0.6353712  18.4582360  )
        56           H1  tau(  56) = (   2.3406934   0.4831942  18.3201771  )

     number of k points=    10  Fermi-Dirac smearing, width (Ry)=  0.0073
                       cart. coord. in units 2pi/alat
        k(    1) = (   0.0000000   0.0000000   0.0000000), wk =   0.1250000
        k(    2) = (   0.0000000   0.0419351   0.0000000), wk =   0.2500000
        k(    3) = (   0.0000000  -0.0838702   0.0000000), wk =   0.1250000
        k(    4) = (   0.0379955   0.0000049   0.0000000), wk =   0.2500000
        k(    5) = (   0.0379955   0.0419400   0.0000000), wk =   0.2500000
        k(    6) = (   0.0379955  -0.0838652   0.0000000), wk =   0.2500000
        k(    7) = (   0.0379955  -0.0419301   0.0000000), wk =   0.2500000
        k(    8) = (  -0.0759910  -0.0000099   0.0000000), wk =   0.1250000
        k(    9) = (  -0.0759910   0.0419252   0.0000000), wk =   0.2500000
        k(   10) = (  -0.0759910  -0.0838800   0.0000000), wk =   0.1250000

     Dense  grid:   566857 G-vectors     FFT dimensions: (  72,  64, 270)

     Smooth grid:   143421 G-vectors     FFT dimensions: (  45,  40, 180)

     Estimated max dynamical RAM per process >     366.48 MB

     Estimated total dynamical RAM >       3.58 GB
     Cannot read rho : file not found

     Initial potential from superposition of free atoms

     starting charge  383.99915, renormalised to  400.00000

     negative rho (up, down):  1.599E-02 0.000E+00


     %%%%%%%%%%%%%%%%%%%%%%%%%%%%%%%%%%%%%%%%%%%%%%%%%%%%%%%%%%%%%%%%%%%%%%%%
     %                                                                      %
     % You are using vdW-DF, which was implemented by the Thonhauser group. %
     % Please cite the following two papers that made this development      %
     % possible and the two reviews that describe the various versions:     %
     %                                                                      %
     %   T. Thonhauser et al., PRL 115, 136402 (2015).                      %
     %   T. Thonhauser et al., PRB 76, 125112 (2007).                       %
     %   K. Berland et al., Rep. Prog. Phys. 78, 066501 (2015).             %
     %   D.C. Langreth et al., J. Phys.: Condens. Matter 21, 084203 (2009). %
     %                                                                      %
     %                                                                      %
     % If you are calculating the stress with vdW-DF, please also cite:     %
     %                                                                      %
     %   R. Sabatini et al., J. Phys.: Condens. Matter 24, 424209 (2012).   %
     %                                                                      %
     %%%%%%%%%%%%%%%%%%%%%%%%%%%%%%%%%%%%%%%%%%%%%%%%%%%%%%%%%%%%%%%%%%%%%%%%


 
     Adding external electric field

     Computed dipole along edir(3) : 
        Dipole              -11.7393 Ry au,        -29.8382 Debye
        Dipole field         -0.0222 Ry au, 
 
        Potential amp.        2.0536 Ry
        Total length         46.3494 bohr
 
     Starting wfcs are  302 atomic wfcs
  @ DRIVER MODE: Message from server: STATUS
  @ DRIVER MODE: Message from server: POSDATA
  @ DRIVER MODE: Reading and sharing cell 
  @ DRIVER MODE: Reading and sharing positions 
  @ DRIVER MODE: Received positions 

     total cpu time spent up to now is       11.1 secs

     Self-consistent Calculation

     iteration #  1     ecut=    29.40 Ry     beta= 0.05
     Davidson diagonalization with overlap
     c_bands:  2 eigenvalues not converged
     c_bands:  2 eigenvalues not converged
     c_bands:  4 eigenvalues not converged
     c_bands:  3 eigenvalues not converged
     c_bands:  4 eigenvalues not converged
     c_bands:  4 eigenvalues not converged
     c_bands:  3 eigenvalues not converged
     c_bands:  2 eigenvalues not converged
     ethr =  1.00E-05,  avg # of iterations = 21.3

     negative rho (up, down):  1.000E-02 0.000E+00
 
     Adding external electric field

     Computed dipole along edir(3) : 
        Dipole               50.0827 Ry au,        127.2976 Debye
        Dipole field          0.0945 Ry au, 
 
        Potential amp.       -8.7612 Ry
        Total length         46.3494 bohr
 

     total cpu time spent up to now is       53.5 secs

     total energy              =   -2420.23235676 Ry
     estimated scf accuracy    <    6189.08853736 Ry

     iteration #  2     ecut=    29.40 Ry     beta= 0.05
     Davidson diagonalization with overlap
     ethr =  1.00E-02,  avg # of iterations = 28.9

     negative rho (up, down):  1.170E-03 0.000E+00
 
     Adding external electric field

     Computed dipole along edir(3) : 
        Dipole               -1.2094 Ry au,         -3.0741 Debye
        Dipole field         -0.0023 Ry au, 
 
        Potential amp.        0.2116 Ry
        Total length         46.3494 bohr
 

     total cpu time spent up to now is      131.8 secs

     total energy              =   -2452.44043885 Ry
     estimated scf accuracy    <   70420.33684087 Ry

     iteration #  3     ecut=    29.40 Ry     beta= 0.05
     Davidson diagonalization with overlap
     ethr =  1.00E-02,  avg # of iterations = 15.5

     negative rho (up, down):  1.240E-03 0.000E+00
 
     Adding external electric field

     Computed dipole along edir(3) : 
        Dipole               -4.0669 Ry au,        -10.3370 Debye
        Dipole field         -0.0077 Ry au, 
 
        Potential amp.        0.7114 Ry
        Total length         46.3494 bohr
 

     total cpu time spent up to now is      179.7 secs

     total energy              =   -2954.19886869 Ry
     estimated scf accuracy    <    5255.46644492 Ry

     iteration #  4     ecut=    29.40 Ry     beta= 0.05
     Davidson diagonalization with overlap
     ethr =  1.00E-02,  avg # of iterations = 10.1

     negative rho (up, down):  1.286E-03 0.000E+00
 
     Adding external electric field

     Computed dipole along edir(3) : 
        Dipole               -6.0551 Ry au,        -15.3905 Debye
        Dipole field         -0.0114 Ry au, 
 
        Potential amp.        1.0592 Ry
        Total length         46.3494 bohr
 

     total cpu time spent up to now is      198.2 secs

     total energy              =   -2950.62742090 Ry
     estimated scf accuracy    <    2179.40232652 Ry

     iteration #  5     ecut=    29.40 Ry     beta= 0.05
     Davidson diagonalization with overlap
     c_bands:  5 eigenvalues not converged
     ethr =  1.00E-02,  avg # of iterations = 14.8

     negative rho (up, down):  1.313E-03 0.000E+00
 
     Adding external electric field

     Computed dipole along edir(3) : 
        Dipole               -5.9116 Ry au,        -15.0258 Debye
        Dipole field         -0.0112 Ry au, 
 
        Potential amp.        1.0341 Ry
        Total length         46.3494 bohr
 

     total cpu time spent up to now is      216.5 secs

     total energy              =   -2966.77590452 Ry
     estimated scf accuracy    <     192.20889875 Ry

     iteration #  6     ecut=    29.40 Ry     beta= 0.05
     Davidson diagonalization with overlap
     ethr =  1.00E-02,  avg # of iterations =  3.4

     negative rho (up, down):  1.313E-03 0.000E+00
 
     Adding external electric field

     Computed dipole along edir(3) : 
        Dipole               -5.8342 Ry au,        -14.8289 Debye
        Dipole field         -0.0110 Ry au, 
 
        Potential amp.        1.0206 Ry
        Total length         46.3494 bohr
 

     total cpu time spent up to now is      227.4 secs

     total energy              =   -2967.91070231 Ry
     estimated scf accuracy    <     122.56117426 Ry

     iteration #  7     ecut=    29.40 Ry     beta= 0.05
     Davidson diagonalization with overlap
     ethr =  1.00E-02,  avg # of iterations =  1.0

     negative rho (up, down):  1.454E-03 0.000E+00
 
     Adding external electric field

     Computed dipole along edir(3) : 
        Dipole               -5.0422 Ry au,        -12.8160 Debye
        Dipole field         -0.0095 Ry au, 
 
        Potential amp.        0.8821 Ry
        Total length         46.3494 bohr
 

     total cpu time spent up to now is      237.1 secs

     total energy              =   -2966.16148514 Ry
     estimated scf accuracy    <     124.08797651 Ry

     iteration #  8     ecut=    29.40 Ry     beta= 0.05
     Davidson diagonalization with overlap
     ethr =  1.00E-02,  avg # of iterations =  1.0

     negative rho (up, down):  1.825E-03 0.000E+00
 
     Adding external electric field

     Computed dipole along edir(3) : 
        Dipole               -4.0962 Ry au,        -10.4116 Debye
        Dipole field         -0.0077 Ry au, 
 
        Potential amp.        0.7166 Ry
        Total length         46.3494 bohr
 

     total cpu time spent up to now is      246.8 secs

     total energy              =   -2964.37806111 Ry
     estimated scf accuracy    <     116.94586135 Ry

     iteration #  9     ecut=    29.40 Ry     beta= 0.05
     Davidson diagonalization with overlap
     ethr =  1.00E-02,  avg # of iterations =  2.1

     negative rho (up, down):  1.776E-03 0.000E+00
 
     Adding external electric field

     Computed dipole along edir(3) : 
        Dipole               -4.5980 Ry au,        -11.6869 Debye
        Dipole field         -0.0087 Ry au, 
 
        Potential amp.        0.8043 Ry
        Total length         46.3494 bohr
 

     total cpu time spent up to now is      257.7 secs

     total energy              =   -2964.51877016 Ry
     estimated scf accuracy    <     138.66494048 Ry

     iteration # 10     ecut=    29.40 Ry     beta= 0.05
     Davidson diagonalization with overlap
     ethr =  1.00E-02,  avg # of iterations =  2.9

     negative rho (up, down):  1.977E-03 0.000E+00
 
     Adding external electric field

     Computed dipole along edir(3) : 
        Dipole               -4.4301 Ry au,        -11.2603 Debye
        Dipole field         -0.0084 Ry au, 
 
        Potential amp.        0.7750 Ry
        Total length         46.3494 bohr
 

     total cpu time spent up to now is      268.2 secs

     total energy              =   -2965.22221757 Ry
     estimated scf accuracy    <      76.12626825 Ry

     iteration # 11     ecut=    29.40 Ry     beta= 0.05
     Davidson diagonalization with overlap
     ethr =  1.00E-02,  avg # of iterations =  2.4

     negative rho (up, down):  1.959E-03 0.000E+00
 
     Adding external electric field

     Computed dipole along edir(3) : 
        Dipole               -4.4742 Ry au,        -11.3724 Debye
        Dipole field         -0.0084 Ry au, 
 
        Potential amp.        0.7827 Ry
        Total length         46.3494 bohr
 

     total cpu time spent up to now is      278.7 secs

     total energy              =   -2966.72705319 Ry
     estimated scf accuracy    <      28.43850367 Ry

     iteration # 12     ecut=    29.40 Ry     beta= 0.05
     Davidson diagonalization with overlap
     ethr =  7.11E-03,  avg # of iterations =  2.2

     negative rho (up, down):  1.910E-03 0.000E+00
 
     Adding external electric field

     Computed dipole along edir(3) : 
        Dipole               -4.5104 Ry au,        -11.4643 Debye
        Dipole field         -0.0085 Ry au, 
 
        Potential amp.        0.7890 Ry
        Total length         46.3494 bohr
 

     total cpu time spent up to now is      289.1 secs

     total energy              =   -2967.17939898 Ry
     estimated scf accuracy    <      21.85679085 Ry

     iteration # 13     ecut=    29.40 Ry     beta= 0.05
     Davidson diagonalization with overlap
     ethr =  5.46E-03,  avg # of iterations =  4.1

     negative rho (up, down):  2.087E-03 0.000E+00
 
     Adding external electric field

     Computed dipole along edir(3) : 
        Dipole               -4.4447 Ry au,        -11.2973 Debye
        Dipole field         -0.0084 Ry au, 
 
        Potential amp.        0.7775 Ry
        Total length         46.3494 bohr
 

     total cpu time spent up to now is      300.0 secs

     total energy              =   -2967.59865344 Ry
     estimated scf accuracy    <      11.32484730 Ry

     iteration # 14     ecut=    29.40 Ry     beta= 0.05
     Davidson diagonalization with overlap
     c_bands:  4 eigenvalues not converged
     c_bands:  1 eigenvalues not converged
     ethr =  2.83E-03,  avg # of iterations = 14.5

     negative rho (up, down):  1.849E-03 0.000E+00
 
     Adding external electric field

     Computed dipole along edir(3) : 
        Dipole               -4.8966 Ry au,        -12.4458 Debye
        Dipole field         -0.0092 Ry au, 
 
        Potential amp.        0.8566 Ry
        Total length         46.3494 bohr
 

     total cpu time spent up to now is      318.2 secs

     total energy              =   -2967.24092298 Ry
     estimated scf accuracy    <     146.54220847 Ry

     iteration # 15     ecut=    29.40 Ry     beta= 0.05
     Davidson diagonalization with overlap
     ethr =  2.83E-03,  avg # of iterations =  1.9

     negative rho (up, down):  1.826E-03 0.000E+00
 
     Adding external electric field

     Computed dipole along edir(3) : 
        Dipole               -4.8427 Ry au,        -12.3090 Debye
        Dipole field         -0.0091 Ry au, 
 
        Potential amp.        0.8472 Ry
        Total length         46.3494 bohr
 

     total cpu time spent up to now is      328.6 secs

     total energy              =   -2968.06979713 Ry
     estimated scf accuracy    <      23.02750217 Ry

     iteration # 16     ecut=    29.40 Ry     beta= 0.05
     Davidson diagonalization with overlap
     ethr =  2.83E-03,  avg # of iterations =  2.2

     negative rho (up, down):  1.763E-03 0.000E+00
 
     Adding external electric field

     Computed dipole along edir(3) : 
        Dipole               -5.0946 Ry au,        -12.9491 Debye
        Dipole field         -0.0096 Ry au, 
 
        Potential amp.        0.8912 Ry
        Total length         46.3494 bohr
 

     total cpu time spent up to now is      338.8 secs

     total energy              =   -2967.71787115 Ry
     estimated scf accuracy    <       9.74064085 Ry

     iteration # 17     ecut=    29.40 Ry     beta= 0.05
     Davidson diagonalization with overlap
     ethr =  2.44E-03,  avg # of iterations =  2.8

     negative rho (up, down):  1.787E-03 0.000E+00
 
     Adding external electric field

     Computed dipole along edir(3) : 
        Dipole               -4.8739 Ry au,        -12.3882 Debye
        Dipole field         -0.0092 Ry au, 
 
        Potential amp.        0.8526 Ry
        Total length         46.3494 bohr
 

     total cpu time spent up to now is      349.6 secs

     total energy              =   -2967.83634230 Ry
     estimated scf accuracy    <       6.38679204 Ry

     iteration # 18     ecut=    29.40 Ry     beta= 0.05
     Davidson diagonalization with overlap
     c_bands:  1 eigenvalues not converged
     c_bands:  2 eigenvalues not converged
     c_bands:  2 eigenvalues not converged
     c_bands:  1 eigenvalues not converged
     c_bands:  1 eigenvalues not converged
     c_bands:  1 eigenvalues not converged
     ethr =  1.60E-03,  avg # of iterations = 17.0

     negative rho (up, down):  1.814E-03 0.000E+00
 
     Adding external electric field

     Computed dipole along edir(3) : 
        Dipole               -4.6398 Ry au,        -11.7932 Debye
        Dipole field         -0.0088 Ry au, 
 
        Potential amp.        0.8117 Ry
        Total length         46.3494 bohr
 

     total cpu time spent up to now is      366.3 secs

     total energy              =   -2968.51406149 Ry
     estimated scf accuracy    <      13.34196036 Ry

     iteration # 19     ecut=    29.40 Ry     beta= 0.05
     Davidson diagonalization with overlap
     ethr =  1.60E-03,  avg # of iterations =  1.6

     negative rho (up, down):  1.932E-03 0.000E+00
 
     Adding external electric field

     Computed dipole along edir(3) : 
        Dipole               -4.0414 Ry au,        -10.2721 Debye
        Dipole field         -0.0076 Ry au, 
 
        Potential amp.        0.7070 Ry
        Total length         46.3494 bohr
 

     total cpu time spent up to now is      376.5 secs

     total energy              =   -2968.42594939 Ry
     estimated scf accuracy    <      15.28920341 Ry

     iteration # 20     ecut=    29.40 Ry     beta= 0.05
     Davidson diagonalization with overlap
     ethr =  1.60E-03,  avg # of iterations =  1.5

     negative rho (up, down):  2.188E-03 0.000E+00
 
     Adding external electric field

     Computed dipole along edir(3) : 
        Dipole               -3.0637 Ry au,         -7.7870 Debye
        Dipole field         -0.0058 Ry au, 
 
        Potential amp.        0.5359 Ry
        Total length         46.3494 bohr
 

     total cpu time spent up to now is      386.4 secs

     total energy              =   -2968.51937578 Ry
     estimated scf accuracy    <      15.29060753 Ry

     iteration # 21     ecut=    29.40 Ry     beta= 0.05
     Davidson diagonalization with overlap
     ethr =  1.60E-03,  avg # of iterations =  3.0

     negative rho (up, down):  2.145E-03 0.000E+00
 
     Adding external electric field

     Computed dipole along edir(3) : 
        Dipole               -3.1910 Ry au,         -8.1106 Debye
        Dipole field         -0.0060 Ry au, 
 
        Potential amp.        0.5582 Ry
        Total length         46.3494 bohr
 

     total cpu time spent up to now is      397.2 secs

     total energy              =   -2968.86294184 Ry
     estimated scf accuracy    <      32.02665352 Ry

     iteration # 22     ecut=    29.40 Ry     beta= 0.05
     Davidson diagonalization with overlap
     ethr =  1.60E-03,  avg # of iterations =  1.6

     negative rho (up, down):  2.264E-03 0.000E+00
 
     Adding external electric field

     Computed dipole along edir(3) : 
        Dipole               -2.5663 Ry au,         -6.5230 Debye
        Dipole field         -0.0048 Ry au, 
 
        Potential amp.        0.4489 Ry
        Total length         46.3494 bohr
 

     total cpu time spent up to now is      407.4 secs

     total energy              =   -2969.37405784 Ry
     estimated scf accuracy    <      43.69982628 Ry

     iteration # 23     ecut=    29.40 Ry     beta= 0.05
     Davidson diagonalization with overlap
     c_bands:  3 eigenvalues not converged
     c_bands:  2 eigenvalues not converged
     ethr =  1.60E-03,  avg # of iterations = 14.2

     negative rho (up, down):  2.069E-03 0.000E+00
 
     Adding external electric field

     Computed dipole along edir(3) : 
        Dipole               -3.5928 Ry au,         -9.1319 Debye
        Dipole field         -0.0068 Ry au, 
 
        Potential amp.        0.6285 Ry
        Total length         46.3494 bohr
 

     total cpu time spent up to now is      422.0 secs

     total energy              =   -2965.28482748 Ry
     estimated scf accuracy    <     171.63511786 Ry

     iteration # 24     ecut=    29.40 Ry     beta= 0.05
     Davidson diagonalization with overlap
     ethr =  1.60E-03,  avg # of iterations =  6.8

     negative rho (up, down):  2.119E-03 0.000E+00
 
     Adding external electric field

     Computed dipole along edir(3) : 
        Dipole               -3.4684 Ry au,         -8.8159 Debye
        Dipole field         -0.0065 Ry au, 
 
        Potential amp.        0.6067 Ry
        Total length         46.3494 bohr
 

     total cpu time spent up to now is      434.0 secs

     total energy              =   -2967.60032045 Ry
     estimated scf accuracy    <      11.67801819 Ry

     iteration # 25     ecut=    29.40 Ry     beta= 0.05
     Davidson diagonalization with overlap
     ethr =  1.60E-03,  avg # of iterations =  6.0

     negative rho (up, down):  2.564E-03 0.000E+00
 
     Adding external electric field

     Computed dipole along edir(3) : 
        Dipole               -2.0174 Ry au,         -5.1277 Debye
        Dipole field         -0.0038 Ry au, 
 
        Potential amp.        0.3529 Ry
        Total length         46.3494 bohr
 

     total cpu time spent up to now is      445.4 secs

     total energy              =   -2967.44113458 Ry
     estimated scf accuracy    <       3.07142707 Ry

     iteration # 26     ecut=    29.40 Ry     beta= 0.05
     Davidson diagonalization with overlap
     ethr =  7.68E-04,  avg # of iterations =  5.1

     negative rho (up, down):  3.319E-03 0.000E+00
 
     Adding external electric field

     Computed dipole along edir(3) : 
        Dipole               -0.3524 Ry au,         -0.8957 Debye
        Dipole field         -0.0007 Ry au, 
 
        Potential amp.        0.0616 Ry
        Total length         46.3494 bohr
 

     total cpu time spent up to now is      456.8 secs

     total energy              =   -2967.54260597 Ry
     estimated scf accuracy    <       1.34466856 Ry

     iteration # 27     ecut=    29.40 Ry     beta= 0.05
     Davidson diagonalization with overlap
     ethr =  3.36E-04,  avg # of iterations = 12.0

     negative rho (up, down):  2.798E-03 0.000E+00
 
     Adding external electric field

     Computed dipole along edir(3) : 
        Dipole               -1.5189 Ry au,         -3.8607 Debye
        Dipole field         -0.0029 Ry au, 
 
        Potential amp.        0.2657 Ry
        Total length         46.3494 bohr
 

     total cpu time spent up to now is      474.5 secs

     total energy              =   -2967.56016007 Ry
     estimated scf accuracy    <       2.77823972 Ry

     iteration # 28     ecut=    29.40 Ry     beta= 0.05
     Davidson diagonalization with overlap
     ethr =  3.36E-04,  avg # of iterations =  8.9

     negative rho (up, down):  3.017E-03 0.000E+00
 
     Adding external electric field

     Computed dipole along edir(3) : 
        Dipole               -0.9492 Ry au,         -2.4127 Debye
        Dipole field         -0.0018 Ry au, 
 
        Potential amp.        0.1661 Ry
        Total length         46.3494 bohr
 

     total cpu time spent up to now is      487.3 secs

     total energy              =   -2967.62398561 Ry
     estimated scf accuracy    <       1.18438033 Ry

     iteration # 29     ecut=    29.40 Ry     beta= 0.05
     Davidson diagonalization with overlap
     ethr =  2.96E-04,  avg # of iterations =  1.4

     negative rho (up, down):  3.356E-03 0.000E+00
 
     Adding external electric field

     Computed dipole along edir(3) : 
        Dipole               -0.0789 Ry au,         -0.2004 Debye
        Dipole field         -0.0001 Ry au, 
 
        Potential amp.        0.0138 Ry
        Total length         46.3494 bohr
 

     total cpu time spent up to now is      497.4 secs

     total energy              =   -2967.50816682 Ry
     estimated scf accuracy    <       1.08193492 Ry

     iteration # 30     ecut=    29.40 Ry     beta= 0.05
     Davidson diagonalization with overlap
     ethr =  2.70E-04,  avg # of iterations =  6.8

     negative rho (up, down):  3.256E-03 0.000E+00
 
     Adding external electric field

     Computed dipole along edir(3) : 
        Dipole               -0.3411 Ry au,         -0.8669 Debye
        Dipole field         -0.0006 Ry au, 
 
        Potential amp.        0.0597 Ry
        Total length         46.3494 bohr
 

     total cpu time spent up to now is      509.5 secs

     total energy              =   -2967.53359614 Ry
     estimated scf accuracy    <       0.92019621 Ry

     iteration # 31     ecut=    29.40 Ry     beta= 0.05
     Davidson diagonalization with overlap
     ethr =  2.30E-04,  avg # of iterations =  2.1

     negative rho (up, down):  3.218E-03 0.000E+00
 
     Adding external electric field

     Computed dipole along edir(3) : 
        Dipole               -1.0473 Ry au,         -2.6620 Debye
        Dipole field         -0.0020 Ry au, 
 
        Potential amp.        0.1832 Ry
        Total length         46.3494 bohr
 

     total cpu time spent up to now is      519.8 secs

     total energy              =   -2967.44079036 Ry
     estimated scf accuracy    <       0.72921502 Ry

     iteration # 32     ecut=    29.40 Ry     beta= 0.05
     Davidson diagonalization with overlap
     c_bands:  2 eigenvalues not converged
     c_bands:  3 eigenvalues not converged
     ethr =  1.82E-04,  avg # of iterations = 17.6

     negative rho (up, down):  3.729E-03 0.000E+00
 
     Adding external electric field

     Computed dipole along edir(3) : 
        Dipole                0.1565 Ry au,          0.3977 Debye
        Dipole field          0.0003 Ry au, 
 
        Potential amp.       -0.0274 Ry
        Total length         46.3494 bohr
 

     total cpu time spent up to now is      540.1 secs

     total energy              =   -2967.45046621 Ry
     estimated scf accuracy    <       3.20587602 Ry

     iteration # 33     ecut=    29.40 Ry     beta= 0.05
     Davidson diagonalization with overlap
     c_bands:  2 eigenvalues not converged
     ethr =  1.82E-04,  avg # of iterations =  8.4

     negative rho (up, down):  3.712E-03 0.000E+00
 
     Adding external electric field

     Computed dipole along edir(3) : 
        Dipole               -0.0179 Ry au,         -0.0456 Debye
        Dipole field         -0.0000 Ry au, 
 
        Potential amp.        0.0031 Ry
        Total length         46.3494 bohr
 

     total cpu time spent up to now is      553.4 secs

     total energy              =   -2967.56152964 Ry
     estimated scf accuracy    <       0.50115330 Ry

     iteration # 34     ecut=    29.40 Ry     beta= 0.05
     Davidson diagonalization with overlap
     ethr =  1.25E-04,  avg # of iterations =  3.4

     negative rho (up, down):  3.836E-03 0.000E+00
 
     Adding external electric field

     Computed dipole along edir(3) : 
        Dipole                0.3322 Ry au,          0.8443 Debye
        Dipole field          0.0006 Ry au, 
 
        Potential amp.       -0.0581 Ry
        Total length         46.3494 bohr
 

     total cpu time spent up to now is      564.3 secs

     total energy              =   -2967.50099597 Ry
     estimated scf accuracy    <       0.69628771 Ry

     iteration # 35     ecut=    29.40 Ry     beta= 0.05
     Davidson diagonalization with overlap
     c_bands:  3 eigenvalues not converged
     c_bands:  2 eigenvalues not converged
     c_bands:  1 eigenvalues not converged
     ethr =  1.25E-04,  avg # of iterations =  9.6

     negative rho (up, down):  4.067E-03 0.000E+00
 
     Adding external electric field

     Computed dipole along edir(3) : 
        Dipole                0.3930 Ry au,          0.9988 Debye
        Dipole field          0.0007 Ry au, 
 
        Potential amp.       -0.0687 Ry
        Total length         46.3494 bohr
 

     total cpu time spent up to now is      577.3 secs

     total energy              =   -2967.43354177 Ry
     estimated scf accuracy    <       0.41320144 Ry

     iteration # 36     ecut=    29.40 Ry     beta= 0.05
     Davidson diagonalization with overlap
     c_bands:  5 eigenvalues not converged
     c_bands:  2 eigenvalues not converged
     c_bands:  2 eigenvalues not converged
     c_bands:  2 eigenvalues not converged
     c_bands:  1 eigenvalues not converged
     c_bands:  3 eigenvalues not converged
     c_bands:  2 eigenvalues not converged
     c_bands:  1 eigenvalues not converged
     c_bands:  1 eigenvalues not converged
     ethr =  1.03E-04,  avg # of iterations = 19.8

     negative rho (up, down):  5.117E-03 0.000E+00
 
     Adding external electric field

     Computed dipole along edir(3) : 
        Dipole                1.5435 Ry au,          3.9233 Debye
        Dipole field          0.0029 Ry au, 
 
        Potential amp.       -0.2700 Ry
        Total length         46.3494 bohr
 

     total cpu time spent up to now is      599.2 secs

     total energy              =   -2967.52694379 Ry
     estimated scf accuracy    <       0.56566722 Ry

     iteration # 37     ecut=    29.40 Ry     beta= 0.05
     Davidson diagonalization with overlap
     c_bands:  1 eigenvalues not converged
     ethr =  1.03E-04,  avg # of iterations =  9.7

     negative rho (up, down):  4.840E-03 0.000E+00
 
     Adding external electric field

     Computed dipole along edir(3) : 
        Dipole                0.8890 Ry au,          2.2597 Debye
        Dipole field          0.0017 Ry au, 
 
        Potential amp.       -0.1555 Ry
        Total length         46.3494 bohr
 

     total cpu time spent up to now is      613.4 secs

     total energy              =   -2967.41172356 Ry
     estimated scf accuracy    <       1.40037642 Ry

     iteration # 38     ecut=    29.40 Ry     beta= 0.05
     Davidson diagonalization with overlap
     ethr =  1.03E-04,  avg # of iterations =  6.1

     negative rho (up, down):  5.434E-03 0.000E+00
 
     Adding external electric field

     Computed dipole along edir(3) : 
        Dipole                1.0629 Ry au,          2.7017 Debye
        Dipole field          0.0020 Ry au, 
 
        Potential amp.       -0.1859 Ry
        Total length         46.3494 bohr
 

     total cpu time spent up to now is      625.7 secs

     total energy              =   -2967.47685286 Ry
     estimated scf accuracy    <       0.34635677 Ry

     iteration # 39     ecut=    29.40 Ry     beta= 0.05
     Davidson diagonalization with overlap
     ethr =  8.66E-05,  avg # of iterations =  2.4

     negative rho (up, down):  5.857E-03 0.000E+00
 
     Adding external electric field

     Computed dipole along edir(3) : 
        Dipole                1.0055 Ry au,          2.5558 Debye
        Dipole field          0.0019 Ry au, 
 
        Potential amp.       -0.1759 Ry
        Total length         46.3494 bohr
 

     total cpu time spent up to now is      636.3 secs

     total energy              =   -2967.45782908 Ry
     estimated scf accuracy    <       0.25923590 Ry

     iteration # 40     ecut=    29.40 Ry     beta= 0.05
     Davidson diagonalization with overlap
     ethr =  6.48E-05,  avg # of iterations = 12.7

     negative rho (up, down):  6.575E-03 0.000E+00
 
     Adding external electric field

     Computed dipole along edir(3) : 
        Dipole                1.1251 Ry au,          2.8597 Debye
        Dipole field          0.0021 Ry au, 
 
        Potential amp.       -0.1968 Ry
        Total length         46.3494 bohr
 

     total cpu time spent up to now is      650.3 secs

     total energy              =   -2967.46801533 Ry
     estimated scf accuracy    <       0.06340137 Ry

     iteration # 41     ecut=    29.40 Ry     beta= 0.05
     Davidson diagonalization with overlap
     c_bands:  2 eigenvalues not converged
     c_bands:  2 eigenvalues not converged
     c_bands:  1 eigenvalues not converged
     c_bands:  2 eigenvalues not converged
     c_bands:  1 eigenvalues not converged
     c_bands:  3 eigenvalues not converged
     c_bands:  2 eigenvalues not converged
     ethr =  1.59E-05,  avg # of iterations = 19.1

     negative rho (up, down):  6.640E-03 0.000E+00
 
     Adding external electric field

     Computed dipole along edir(3) : 
        Dipole                1.1582 Ry au,          2.9438 Debye
        Dipole field          0.0022 Ry au, 
 
        Potential amp.       -0.2026 Ry
        Total length         46.3494 bohr
 

     total cpu time spent up to now is      671.7 secs

     total energy              =   -2967.47598835 Ry
     estimated scf accuracy    <       0.07139421 Ry

     iteration # 42     ecut=    29.40 Ry     beta= 0.05
     Davidson diagonalization with overlap
     ethr =  1.59E-05,  avg # of iterations =  5.7

     negative rho (up, down):  6.924E-03 0.000E+00
 
     Adding external electric field

     Computed dipole along edir(3) : 
        Dipole                1.2233 Ry au,          3.1092 Debye
        Dipole field          0.0023 Ry au, 
 
        Potential amp.       -0.2140 Ry
        Total length         46.3494 bohr
 

     total cpu time spent up to now is      682.8 secs

     total energy              =   -2967.47377078 Ry
     estimated scf accuracy    <       0.04085880 Ry

     iteration # 43     ecut=    29.40 Ry     beta= 0.05
     Davidson diagonalization with overlap
     ethr =  1.02E-05,  avg # of iterations =  2.6

     negative rho (up, down):  8.202E-03 0.000E+00
 
     Adding external electric field

     Computed dipole along edir(3) : 
        Dipole                1.3477 Ry au,          3.4254 Debye
        Dipole field          0.0025 Ry au, 
 
        Potential amp.       -0.2358 Ry
        Total length         46.3494 bohr
 

     total cpu time spent up to now is      693.6 secs

     total energy              =   -2967.47271003 Ry
     estimated scf accuracy    <       0.02376364 Ry

     iteration # 44     ecut=    29.40 Ry     beta= 0.05
     Davidson diagonalization with overlap
     c_bands:  1 eigenvalues not converged
     c_bands:  1 eigenvalues not converged
     c_bands:  1 eigenvalues not converged
     c_bands:  3 eigenvalues not converged
     c_bands:  2 eigenvalues not converged
     c_bands:  1 eigenvalues not converged
     c_bands:  1 eigenvalues not converged
     ethr =  5.94E-06,  avg # of iterations = 18.2

     negative rho (up, down):  9.462E-03 0.000E+00
 
     Adding external electric field

     Computed dipole along edir(3) : 
        Dipole                1.3448 Ry au,          3.4182 Debye
        Dipole field          0.0025 Ry au, 
 
        Potential amp.       -0.2353 Ry
        Total length         46.3494 bohr
 

     total cpu time spent up to now is      713.0 secs

     total energy              =   -2967.47464148 Ry
     estimated scf accuracy    <       0.02803820 Ry

     iteration # 45     ecut=    29.40 Ry     beta= 0.05
     Davidson diagonalization with overlap
     c_bands:  2 eigenvalues not converged
     ethr =  5.94E-06,  avg # of iterations =  5.1

     negative rho (up, down):  1.075E-02 0.000E+00
 
     Adding external electric field

     Computed dipole along edir(3) : 
        Dipole                1.2590 Ry au,          3.2000 Debye
        Dipole field          0.0024 Ry au, 
 
        Potential amp.       -0.2202 Ry
        Total length         46.3494 bohr
 

     total cpu time spent up to now is      724.3 secs

     total energy              =   -2967.47420672 Ry
     estimated scf accuracy    <       0.00628326 Ry

     iteration # 46     ecut=    29.40 Ry     beta= 0.05
     Davidson diagonalization with overlap
     c_bands:  3 eigenvalues not converged
     c_bands:  3 eigenvalues not converged
     c_bands:  2 eigenvalues not converged
     c_bands:  1 eigenvalues not converged
     c_bands:  1 eigenvalues not converged
     ethr =  1.57E-06,  avg # of iterations = 18.4

     negative rho (up, down):  1.125E-02 0.000E+00
 
     Adding external electric field

     Computed dipole along edir(3) : 
        Dipole                1.3028 Ry au,          3.3114 Debye
        Dipole field          0.0025 Ry au, 
 
        Potential amp.       -0.2279 Ry
        Total length         46.3494 bohr
 

     total cpu time spent up to now is      745.8 secs

     total energy              =   -2967.47514650 Ry
     estimated scf accuracy    <       0.01745904 Ry

     iteration # 47     ecut=    29.40 Ry     beta= 0.05
     Davidson diagonalization with overlap
     c_bands:  2 eigenvalues not converged
     ethr =  1.57E-06,  avg # of iterations = 12.2

     negative rho (up, down):  1.259E-02 0.000E+00
 
     Adding external electric field

     Computed dipole along edir(3) : 
        Dipole                1.3675 Ry au,          3.4759 Debye
        Dipole field          0.0026 Ry au, 
 
        Potential amp.       -0.2392 Ry
        Total length         46.3494 bohr
 

     total cpu time spent up to now is      759.6 secs

     total energy              =   -2967.47517025 Ry
     estimated scf accuracy    <       0.00258737 Ry

     iteration # 48     ecut=    29.40 Ry     beta= 0.05
     Davidson diagonalization with overlap
     c_bands:  1 eigenvalues not converged
     c_bands:  1 eigenvalues not converged
     ethr =  6.47E-07,  avg # of iterations = 16.0

     negative rho (up, down):  1.281E-02 0.000E+00
 
     Adding external electric field

     Computed dipole along edir(3) : 
        Dipole                1.3484 Ry au,          3.4272 Debye
        Dipole field          0.0025 Ry au, 
 
        Potential amp.       -0.2359 Ry
        Total length         46.3494 bohr
 

     total cpu time spent up to now is      780.0 secs

     total energy              =   -2967.47569122 Ry
     estimated scf accuracy    <       0.00614421 Ry

     iteration # 49     ecut=    29.40 Ry     beta= 0.05
     Davidson diagonalization with overlap
     ethr =  6.47E-07,  avg # of iterations =  2.0

     negative rho (up, down):  1.322E-02 0.000E+00
 
     Adding external electric field

     Computed dipole along edir(3) : 
        Dipole                1.2987 Ry au,          3.3010 Debye
        Dipole field          0.0025 Ry au, 
 
        Potential amp.       -0.2272 Ry
        Total length         46.3494 bohr
 

     total cpu time spent up to now is      790.6 secs

     total energy              =   -2967.47524605 Ry
     estimated scf accuracy    <       0.00346556 Ry

     iteration # 50     ecut=    29.40 Ry     beta= 0.05
     Davidson diagonalization with overlap
     c_bands:  2 eigenvalues not converged
     ethr =  6.47E-07,  avg # of iterations = 15.0

     negative rho (up, down):  1.369E-02 0.000E+00
 
     Adding external electric field

     Computed dipole along edir(3) : 
        Dipole                1.3434 Ry au,          3.4145 Debye
        Dipole field          0.0025 Ry au, 
 
        Potential amp.       -0.2350 Ry
        Total length         46.3494 bohr
 

     total cpu time spent up to now is      810.4 secs

     total energy              =   -2967.47531715 Ry
     estimated scf accuracy    <       0.00380037 Ry

     iteration # 51     ecut=    29.40 Ry     beta= 0.05
     Davidson diagonalization with overlap
     ethr =  6.47E-07,  avg # of iterations = 10.8

     negative rho (up, down):  1.424E-02 0.000E+00
 
     Adding external electric field

     Computed dipole along edir(3) : 
        Dipole                1.3497 Ry au,          3.4306 Debye
        Dipole field          0.0025 Ry au, 
 
        Potential amp.       -0.2361 Ry
        Total length         46.3494 bohr
 

     total cpu time spent up to now is      825.8 secs

     total energy              =   -2967.47573870 Ry
     estimated scf accuracy    <       0.00033635 Ry

     iteration # 52     ecut=    29.40 Ry     beta= 0.05
     Davidson diagonalization with overlap
     ethr =  8.41E-08,  avg # of iterations = 12.0

     negative rho (up, down):  1.442E-02 0.000E+00
 
     Adding external electric field

     Computed dipole along edir(3) : 
        Dipole                1.3483 Ry au,          3.4271 Debye
        Dipole field          0.0025 Ry au, 
 
        Potential amp.       -0.2359 Ry
        Total length         46.3494 bohr
 

     total cpu time spent up to now is      845.7 secs

     total energy              =   -2967.47578105 Ry
     estimated scf accuracy    <       0.00041806 Ry

     iteration # 53     ecut=    29.40 Ry     beta= 0.05
     Davidson diagonalization with overlap
     ethr =  8.41E-08,  avg # of iterations =  6.9

     negative rho (up, down):  1.482E-02 0.000E+00
 
     Adding external electric field

     Computed dipole along edir(3) : 
        Dipole                1.3612 Ry au,          3.4599 Debye
        Dipole field          0.0026 Ry au, 
 
        Potential amp.       -0.2381 Ry
        Total length         46.3494 bohr
 

     total cpu time spent up to now is      859.6 secs

     total energy              =   -2967.47583425 Ry
     estimated scf accuracy    <       0.00017030 Ry

     iteration # 54     ecut=    29.40 Ry     beta= 0.05
     Davidson diagonalization with overlap
     ethr =  4.26E-08,  avg # of iterations =  9.3

     negative rho (up, down):  1.506E-02 0.000E+00
 
     Adding external electric field

     Computed dipole along edir(3) : 
        Dipole                1.3735 Ry au,          3.4911 Debye
        Dipole field          0.0026 Ry au, 
 
        Potential amp.       -0.2403 Ry
        Total length         46.3494 bohr
 

     total cpu time spent up to now is      876.2 secs

     total energy              =   -2967.47585918 Ry
     estimated scf accuracy    <       0.00010164 Ry

     iteration # 55     ecut=    29.40 Ry     beta= 0.05
     Davidson diagonalization with overlap
     c_bands:  1 eigenvalues not converged
     ethr =  2.54E-08,  avg # of iterations = 11.3

     negative rho (up, down):  1.551E-02 0.000E+00
 
     Adding external electric field

     Computed dipole along edir(3) : 
        Dipole                1.3782 Ry au,          3.5031 Debye
        Dipole field          0.0026 Ry au, 
 
        Potential amp.       -0.2411 Ry
        Total length         46.3494 bohr
 

     total cpu time spent up to now is      891.8 secs

     total energy              =   -2967.47588648 Ry
     estimated scf accuracy    <       0.00007411 Ry

     iteration # 56     ecut=    29.40 Ry     beta= 0.05
     Davidson diagonalization with overlap
     ethr =  1.85E-08,  avg # of iterations =  8.8

     negative rho (up, down):  1.555E-02 0.000E+00
 
     Adding external electric field

     Computed dipole along edir(3) : 
        Dipole                1.3776 Ry au,          3.5014 Debye
        Dipole field          0.0026 Ry au, 
 
        Potential amp.       -0.2410 Ry
        Total length         46.3494 bohr
 

     total cpu time spent up to now is      909.3 secs

     total energy              =   -2967.47590533 Ry
     estimated scf accuracy    <       0.00009376 Ry

     iteration # 57     ecut=    29.40 Ry     beta= 0.05
     Davidson diagonalization with overlap
     ethr =  1.85E-08,  avg # of iterations =  1.2

     negative rho (up, down):  1.568E-02 0.000E+00
 
     Adding external electric field

     Computed dipole along edir(3) : 
        Dipole                1.3776 Ry au,          3.5015 Debye
        Dipole field          0.0026 Ry au, 
 
        Potential amp.       -0.2410 Ry
        Total length         46.3494 bohr
 

     total cpu time spent up to now is      919.1 secs

     total energy              =   -2967.47590336 Ry
     estimated scf accuracy    <       0.00005208 Ry

     iteration # 58     ecut=    29.40 Ry     beta= 0.05
     Davidson diagonalization with overlap
     ethr =  1.30E-08,  avg # of iterations =  8.3

     negative rho (up, down):  1.576E-02 0.000E+00
 
     Adding external electric field

     Computed dipole along edir(3) : 
        Dipole                1.3785 Ry au,          3.5037 Debye
        Dipole field          0.0026 Ry au, 
 
        Potential amp.       -0.2411 Ry
        Total length         46.3494 bohr
 

     total cpu time spent up to now is      934.7 secs

     total energy              =   -2967.47592133 Ry
     estimated scf accuracy    <       0.00000906 Ry

     iteration # 59     ecut=    29.40 Ry     beta= 0.05
     Davidson diagonalization with overlap
     ethr =  2.26E-09,  avg # of iterations = 13.2

     negative rho (up, down):  1.583E-02 0.000E+00
 
     Adding external electric field

     Computed dipole along edir(3) : 
        Dipole                1.3799 Ry au,          3.5075 Debye
        Dipole field          0.0026 Ry au, 
 
        Potential amp.       -0.2414 Ry
        Total length         46.3494 bohr
 

     total cpu time spent up to now is      951.3 secs

     total energy              =   -2967.47592860 Ry
     estimated scf accuracy    <       0.00000631 Ry

     iteration # 60     ecut=    29.40 Ry     beta= 0.05
     Davidson diagonalization with overlap
     ethr =  1.58E-09,  avg # of iterations =  8.3

     negative rho (up, down):  1.588E-02 0.000E+00
 
     Adding external electric field

     Computed dipole along edir(3) : 
        Dipole                1.3798 Ry au,          3.5072 Debye
        Dipole field          0.0026 Ry au, 
 
        Potential amp.       -0.2414 Ry
        Total length         46.3494 bohr
 

     total cpu time spent up to now is      964.8 secs

     total energy              =   -2967.47593456 Ry
     estimated scf accuracy    <       0.00000435 Ry

     iteration # 61     ecut=    29.40 Ry     beta= 0.05
     Davidson diagonalization with overlap
     ethr =  1.09E-09,  avg # of iterations = 10.7

     negative rho (up, down):  1.590E-02 0.000E+00
 
     Adding external electric field

     Computed dipole along edir(3) : 
        Dipole                1.3792 Ry au,          3.5055 Debye
        Dipole field          0.0026 Ry au, 
 
        Potential amp.       -0.2413 Ry
        Total length         46.3494 bohr
 

     total cpu time spent up to now is      978.3 secs

     total energy              =   -2967.47593973 Ry
     estimated scf accuracy    <       0.00000243 Ry

     iteration # 62     ecut=    29.40 Ry     beta= 0.05
     Davidson diagonalization with overlap
     ethr =  6.09E-10,  avg # of iterations =  6.6

     negative rho (up, down):  1.589E-02 0.000E+00
 
     Adding external electric field

     Computed dipole along edir(3) : 
        Dipole                1.3785 Ry au,          3.5039 Debye
        Dipole field          0.0026 Ry au, 
 
        Potential amp.       -0.2412 Ry
        Total length         46.3494 bohr
 

     total cpu time spent up to now is      990.2 secs

     total energy              =   -2967.47594398 Ry
     estimated scf accuracy    <       0.00000172 Ry

     iteration # 63     ecut=    29.40 Ry     beta= 0.05
     Davidson diagonalization with overlap
     ethr =  4.31E-10,  avg # of iterations = 12.1

     negative rho (up, down):  1.589E-02 0.000E+00
 
     Adding external electric field

     Computed dipole along edir(3) : 
        Dipole                1.3788 Ry au,          3.5045 Debye
        Dipole field          0.0026 Ry au, 
 
        Potential amp.       -0.2412 Ry
        Total length         46.3494 bohr
 

     total cpu time spent up to now is     1007.7 secs

     total energy              =   -2967.47594821 Ry
     estimated scf accuracy    <       0.00000113 Ry

     iteration # 64     ecut=    29.40 Ry     beta= 0.05
     Davidson diagonalization with overlap
     ethr =  2.82E-10,  avg # of iterations =  9.9

     negative rho (up, down):  1.585E-02 0.000E+00
 
     Adding external electric field

     Computed dipole along edir(3) : 
        Dipole                1.3781 Ry au,          3.5028 Debye
        Dipole field          0.0026 Ry au, 
 
        Potential amp.       -0.2411 Ry
        Total length         46.3494 bohr
 

     total cpu time spent up to now is     1021.1 secs

     total energy              =   -2967.47595135 Ry
     estimated scf accuracy    <       0.00000131 Ry

     iteration # 65     ecut=    29.40 Ry     beta= 0.05
     Davidson diagonalization with overlap
     ethr =  2.82E-10,  avg # of iterations =  7.4

     negative rho (up, down):  1.584E-02 0.000E+00
 
     Adding external electric field

     Computed dipole along edir(3) : 
        Dipole                1.3777 Ry au,          3.5017 Debye
        Dipole field          0.0026 Ry au, 
 
        Potential amp.       -0.2410 Ry
        Total length         46.3494 bohr
 

     total cpu time spent up to now is     1037.6 secs

     total energy              =   -2967.47595480 Ry
     estimated scf accuracy    <       0.00000032 Ry

     iteration # 66     ecut=    29.40 Ry     beta= 0.05
     Davidson diagonalization with overlap
     ethr =  7.90E-11,  avg # of iterations =  6.7

     negative rho (up, down):  1.583E-02 0.000E+00
 
     Adding external electric field

     Computed dipole along edir(3) : 
        Dipole                1.3775 Ry au,          3.5012 Debye
        Dipole field          0.0026 Ry au, 
 
        Potential amp.       -0.2410 Ry
        Total length         46.3494 bohr
 

     total cpu time spent up to now is     1050.5 secs

     total energy              =   -2967.47595761 Ry
     estimated scf accuracy    <       0.00000030 Ry

     iteration # 67     ecut=    29.40 Ry     beta= 0.05
     Davidson diagonalization with overlap
     c_bands:  1 eigenvalues not converged
     ethr =  7.52E-11,  avg # of iterations =  9.9

     negative rho (up, down):  1.583E-02 0.000E+00
 
     Adding external electric field

     Computed dipole along edir(3) : 
        Dipole                1.3774 Ry au,          3.5009 Debye
        Dipole field          0.0026 Ry au, 
 
        Potential amp.       -0.2410 Ry
        Total length         46.3494 bohr
 

     total cpu time spent up to now is     1068.2 secs

     total energy              =   -2967.47596027 Ry
     estimated scf accuracy    <       0.00000015 Ry

     iteration # 68     ecut=    29.40 Ry     beta= 0.05
     Davidson diagonalization with overlap
     ethr =  3.79E-11,  avg # of iterations =  7.8

     negative rho (up, down):  1.582E-02 0.000E+00
 
     Adding external electric field

     Computed dipole along edir(3) : 
        Dipole                1.3773 Ry au,          3.5009 Debye
        Dipole field          0.0026 Ry au, 
 
        Potential amp.       -0.2409 Ry
        Total length         46.3494 bohr
 

     total cpu time spent up to now is     1080.2 secs

     total energy              =   -2967.47596260 Ry
     estimated scf accuracy    <       0.00000008 Ry

     iteration # 69     ecut=    29.40 Ry     beta= 0.05
     Davidson diagonalization with overlap
     ethr =  2.04E-11,  avg # of iterations =  9.7

     negative rho (up, down):  1.588E-02 0.000E+00
 
     Adding external electric field

     Computed dipole along edir(3) : 
        Dipole                1.3774 Ry au,          3.5011 Debye
        Dipole field          0.0026 Ry au, 
 
        Potential amp.       -0.2410 Ry
        Total length         46.3494 bohr
 

     total cpu time spent up to now is     1096.2 secs

     End of self-consistent calculation

          k = 0.0000 0.0000 0.0000 ( 18029 PWs)   bands (ev):

   -55.2505 -55.2230 -55.2145 -55.1887 -55.1569 -55.1488 -55.1434 -55.0966
   -55.0960 -55.0901 -55.0559 -55.0380 -55.0083 -55.0040 -54.3126 -54.2785
   -31.8171 -31.7664 -31.7181 -31.6278 -31.5655 -31.5553 -31.5507 -31.5482
   -31.5118 -31.4823 -31.4662 -31.4639 -31.4525 -31.4428 -31.4286 -31.4142
   -31.3969 -31.3906 -31.3876 -31.3831 -31.3770 -31.3682 -31.3455 -31.3407
   -31.3390 -31.3190 -31.3164 -31.3144 -31.2937 -31.2802 -31.2644 -31.2439
   -31.2424 -31.2416 -31.2304 -31.2213 -31.2026 -31.1894 -31.1775 -31.1728
   -31.1598 -31.1492 -30.7246 -30.6221 -30.6005 -30.5409 -30.4545 -30.3434
   -20.1679 -19.0850 -16.0799 -15.8328 -15.6929 -15.5945 -15.4736 -15.3401
   -15.2799 -15.1651 -15.0741 -14.9843 -14.9692 -14.9503 -14.9212 -14.8987
   -14.8738 -14.8356 -14.8095 -14.7657 -14.7568 -14.7404 -14.7336 -14.6969
   -14.6938 -14.6488 -14.6404 -14.4834 -14.4133 -14.3531 -14.1308 -12.8132
   -12.6938 -11.1804  -6.9265  -6.8516  -5.1242  -5.0147  -3.4194  -3.2628
    -3.2256  -3.2020  -3.1835  -3.1430  -3.0597  -2.9614  -2.7892  -2.6793
    -2.5420  -2.5348  -2.4884  -2.4615  -2.4044  -2.3223  -2.2343  -2.2076
    -2.1725  -2.1394  -2.1360  -2.1201  -2.1098  -2.0539  -2.0182  -1.9603
    -1.8639  -1.8138  -1.7735  -1.7553  -1.6953  -1.6515  -1.6167  -1.5891
    -1.5825  -1.5761  -1.5176  -1.5154  -1.5074  -1.4961  -1.4783  -1.2897
    -1.2497  -1.1176  -1.0267  -0.9857  -0.9721  -0.8179  -0.8111  -0.7668
    -0.7334  -0.6994  -0.6589  -0.6013  -0.5039  -0.4725  -0.4217  -0.3836
    -0.2755  -0.2434  -0.2122  -0.1576  -0.0503  -0.0420  -0.0162   0.0033
     0.0772   0.1729   0.2021   0.2235   0.3003   0.3054   0.3667   0.4074
     0.4411   0.5160   0.5613   0.5724   0.6641   0.6810   0.6947   0.7212
     0.7247   0.8232   0.8594   0.9039   0.9224   1.0740   1.1685   1.3076
     1.3365   1.6028   1.6984   1.7135   1.8738   2.2995   2.3542   3.8406
     3.9090   3.9473   3.9551   3.9684   4.0480   4.3316   4.3470   4.3589
     4.3685   4.3866

          k = 0.0000 0.0419 0.0000 ( 17933 PWs)   bands (ev):

   -55.2452 -55.2197 -55.2180 -55.1936 -55.1557 -55.1458 -55.1400 -55.0999
   -55.0991 -55.0851 -55.0608 -55.0330 -55.0091 -55.0089 -54.3075 -54.2834
   -31.7599 -31.7285 -31.6640 -31.5733 -31.5429 -31.5130 -31.5111 -31.5044
   -31.5035 -31.4903 -31.4784 -31.4572 -31.4522 -31.4399 -31.4313 -31.4210
   -31.4059 -31.4011 -31.3979 -31.3958 -31.3775 -31.3629 -31.3535 -31.3454
   -31.3414 -31.3211 -31.3195 -31.3146 -31.2994 -31.2943 -31.2941 -31.2725
   -31.2697 -31.2457 -31.2451 -31.2327 -31.2197 -31.2177 -31.2120 -31.2062
   -31.1806 -31.1781 -30.6705 -30.6187 -30.6034 -30.5283 -30.4671 -30.4006
   -20.1663 -19.0848 -15.9527 -15.7194 -15.6067 -15.5313 -15.3691 -15.2795
   -15.2423 -15.1586 -15.1154 -15.0591 -15.0302 -14.9282 -14.9212 -14.8895
   -14.8494 -14.8404 -14.8166 -14.8004 -14.7789 -14.7509 -14.7344 -14.7299
   -14.7218 -14.6840 -14.6554 -14.5402 -14.4706 -14.4102 -14.2452 -12.8158
   -12.7325 -11.1803  -6.9235  -6.8548  -5.1225  -5.0079  -3.2696  -3.2023
    -3.0938  -3.0649  -3.0176  -3.0085  -2.9538  -2.8389  -2.6000  -2.5674
    -2.5072  -2.4829  -2.4184  -2.4135  -2.3708  -2.3321  -2.2872  -2.2727
    -2.2534  -2.2159  -2.2015  -2.1490  -2.1362  -2.0831  -2.0485  -2.0322
    -2.0185  -1.9111  -1.8695  -1.8498  -1.8340  -1.8174  -1.7605  -1.6958
    -1.6749  -1.6017  -1.5881  -1.5318  -1.5226  -1.4081  -1.2484  -1.1955
    -1.1285  -1.0702  -1.0491  -1.0126  -0.8625  -0.8350  -0.6736  -0.6279
    -0.5973  -0.5647  -0.5517  -0.5312  -0.4405  -0.4140  -0.3470  -0.2572
    -0.2401  -0.2204  -0.2041  -0.1684  -0.1327  -0.0916  -0.0631  -0.0494
     0.0682   0.1096   0.1350   0.1702   0.1985   0.2322   0.3011   0.3469
     0.3907   0.4499   0.4894   0.4995   0.5051   0.5406   0.5766   0.7167
     0.7207   0.7650   0.7968   0.8410   0.9565   0.9869   1.0077   1.0312
     1.2077   1.3099   1.5737   1.8959   1.9646   2.2523   2.2650   4.0252
     4.0591   4.0629   4.1318   4.1650   4.2295   4.2440   4.2947   4.3059
     4.3544   4.4031

          k = 0.0000-0.0839 0.0000 ( 17884 PWs)   bands (ev):

   -55.2335 -55.2313 -55.2076 -55.2040 -55.1545 -55.1423 -55.1360 -55.1039
   -55.1027 -55.0742 -55.0716 -55.0227 -55.0191 -55.0100 -54.2955 -54.2953
   -31.6830 -31.6237 -31.6166 -31.5331 -31.5297 -31.5172 -31.5053 -31.5006
   -31.4935 -31.4521 -31.4459 -31.4418 -31.4329 -31.4275 -31.4232 -31.4213
   -31.4028 -31.4002 -31.3932 -31.3828 -31.3800 -31.3781 -31.3754 -31.3374
   -31.3345 -31.3302 -31.3298 -31.3275 -31.3251 -31.3206 -31.3170 -31.3146
   -31.3085 -31.2994 -31.2970 -31.2930 -31.2766 -31.2166 -31.2144 -31.2090
   -31.2047 -31.1794 -30.6109 -30.6108 -30.5375 -30.5372 -30.4978 -30.4976
   -20.1648 -19.0846 -15.7055 -15.6223 -15.4663 -15.4273 -15.3176 -15.3015
   -15.2748 -15.1770 -15.1132 -15.0903 -15.0786 -15.0433 -14.9461 -14.8774
   -14.8698 -14.8574 -14.8414 -14.8026 -14.7998 -14.7474 -14.7394 -14.6819
   -14.6742 -14.6114 -14.6089 -14.6057 -14.5524 -14.5423 -14.4537 -12.7955
   -12.7949 -11.1803  -6.9202  -6.8583  -5.1207  -5.0037  -3.2684  -2.9451
    -2.8294  -2.7921  -2.7277  -2.7200  -2.6786  -2.6705  -2.6597  -2.5937
    -2.5717  -2.5686  -2.5415  -2.4329  -2.4213  -2.4113  -2.3909  -2.3726
    -2.3025  -2.2670  -2.2367  -2.2107  -2.1604  -2.1592  -2.1327  -2.1044
    -2.1029  -2.0213  -1.9937  -1.9543  -1.9144  -1.7234  -1.6765  -1.6353
    -1.6213  -1.5303  -1.4656  -1.4163  -1.3373  -1.3137  -1.2048  -1.1843
    -1.1019  -1.0914  -1.0499  -0.9343  -0.7740  -0.7641  -0.7318  -0.7214
    -0.7009  -0.6940  -0.6653  -0.6564  -0.6347  -0.4796  -0.4024  -0.3470
    -0.3052  -0.2269  -0.1568   0.0108   0.0154   0.0365   0.0638   0.0873
     0.0961   0.1312   0.1472   0.1778   0.1894   0.2205   0.2374   0.2917
     0.3366   0.3830   0.3889   0.4141   0.4393   0.4824   0.4918   0.4954
     0.5505   0.5673   0.6146   0.8225   0.9022   0.9060   0.9145   1.0833
     1.1307   1.3084   1.3330   2.0318   2.0348   2.1889   2.1897   4.1162
     4.1359   4.1501   4.1714   4.2373   4.3138   4.3188   4.3801   4.4153
     4.4211   4.4368

          k = 0.0380 0.0000 0.0000 ( 17913 PWs)   bands (ev):

   -55.2504 -55.2229 -55.2144 -55.1886 -55.1564 -55.1492 -55.1434 -55.0965
   -55.0959 -55.0899 -55.0558 -55.0380 -55.0082 -55.0039 -54.3125 -54.2784
   -31.8172 -31.7665 -31.7191 -31.6329 -31.5694 -31.5556 -31.5545 -31.5484
   -31.5116 -31.4822 -31.4662 -31.4526 -31.4459 -31.4430 -31.4285 -31.3968
   -31.3964 -31.3904 -31.3830 -31.3814 -31.3734 -31.3503 -31.3447 -31.3406
   -31.3387 -31.3361 -31.3202 -31.3164 -31.2968 -31.2800 -31.2648 -31.2424
   -31.2418 -31.2409 -31.2378 -31.2294 -31.2020 -31.1885 -31.1799 -31.1728
   -31.1599 -31.1496 -30.7241 -30.6259 -30.5984 -30.5407 -30.4544 -30.3432
   -20.1677 -19.0848 -16.0014 -15.7441 -15.6834 -15.5551 -15.3881 -15.3438
   -15.2823 -15.1869 -15.1025 -15.0772 -15.0218 -14.9949 -14.9651 -14.9629
   -14.9262 -14.9190 -14.8353 -14.8285 -14.7653 -14.7394 -14.7055 -14.6477
   -14.5998 -14.5572 -14.5162 -14.4858 -14.4825 -14.4526 -14.1300 -12.8097
   -12.6935 -11.1820  -6.9356  -6.8425  -5.1172  -5.0123  -3.3023  -3.1993
    -3.1468  -3.0519  -3.0193  -2.9357  -2.9105  -2.8638  -2.7803  -2.7656
    -2.6750  -2.6304  -2.5669  -2.5419  -2.4437  -2.3770  -2.3196  -2.2808
    -2.2010  -2.1256  -2.0438  -1.9998  -1.9754  -1.9573  -1.9235  -1.8677
    -1.8523  -1.8173  -1.7800  -1.6710  -1.6488  -1.6359  -1.6085  -1.5836
    -1.5503  -1.5364  -1.4616  -1.4406  -1.3905  -1.3438  -1.3227  -1.2582
    -1.1973  -1.0948  -1.0293  -1.0185  -0.9915  -0.8994  -0.8490  -0.7690
    -0.7357  -0.7082  -0.7027  -0.6910  -0.6289  -0.5891  -0.5797  -0.3638
    -0.3201  -0.2527  -0.1853  -0.1591  -0.1423  -0.1032  -0.0295   0.0536
     0.0786   0.0969   0.1201   0.1626   0.2297   0.2660   0.3305   0.3645
     0.4053   0.4251   0.4582   0.4897   0.5324   0.5502   0.6005   0.6701
     0.7131   0.7473   0.7930   0.8050   0.8830   0.9258   0.9685   1.1812
     1.3549   1.5581   1.6127   1.7254   1.8411   2.1839   2.2695   3.8603
     3.9288   4.0282   4.1594   4.1714   4.2263   4.2715   4.3065   4.3236
     4.3499   4.3776

          k = 0.0380 0.0419 0.0000 ( 17878 PWs)   bands (ev):

   -55.2451 -55.2196 -55.2179 -55.1936 -55.1553 -55.1461 -55.1400 -55.0999
   -55.0990 -55.0849 -55.0607 -55.0330 -55.0091 -55.0089 -54.3074 -54.2834
   -31.7600 -31.7286 -31.6649 -31.5793 -31.5428 -31.5164 -31.5118 -31.5082
   -31.5044 -31.4902 -31.4786 -31.4575 -31.4405 -31.4375 -31.4309 -31.4212
   -31.4018 -31.3960 -31.3898 -31.3884 -31.3772 -31.3598 -31.3455 -31.3420
   -31.3362 -31.3308 -31.3208 -31.3196 -31.3010 -31.2968 -31.2939 -31.2734
   -31.2615 -31.2532 -31.2447 -31.2331 -31.2281 -31.2236 -31.2112 -31.2059
   -31.1818 -31.1806 -30.6701 -30.6217 -30.6024 -30.5281 -30.4671 -30.4005
   -20.1661 -19.0846 -15.8814 -15.6453 -15.6133 -15.4655 -15.3124 -15.2659
   -15.2319 -15.1574 -15.1350 -15.0858 -15.0452 -14.9815 -14.9468 -14.9351
   -14.9166 -14.8914 -14.8672 -14.8508 -14.7786 -14.7728 -14.7247 -14.6881
   -14.6658 -14.6104 -14.5987 -14.5513 -14.5348 -14.5039 -14.2448 -12.8134
   -12.7328 -11.1816  -6.9271  -6.8509  -5.1208  -5.0032  -3.2231  -3.1146
    -3.0516  -2.9244  -2.8622  -2.7921  -2.7397  -2.7129  -2.6267  -2.5853
    -2.5235  -2.5075  -2.4540  -2.3903  -2.3423  -2.3196  -2.2619  -2.2506
    -2.2043  -2.1836  -2.1487  -2.1045  -2.0894  -2.0713  -2.0508  -1.9847
    -1.9436  -1.9278  -1.8793  -1.8440  -1.7920  -1.7488  -1.7253  -1.6929
    -1.6312  -1.6216  -1.5294  -1.4754  -1.4452  -1.3264  -1.2700  -1.1545
    -1.1264  -1.1013  -1.0374  -0.9587  -0.8989  -0.8233  -0.7455  -0.7118
    -0.6691  -0.6556  -0.6251  -0.5922  -0.5329  -0.4862  -0.4362  -0.3678
    -0.3566  -0.3075  -0.2544  -0.2024  -0.1731  -0.1335  -0.1106  -0.0262
    -0.0078   0.0190   0.0382   0.0656   0.1099   0.1356   0.1629   0.2016
     0.2545   0.2999   0.3441   0.3697   0.4642   0.5023   0.5825   0.6335
     0.7190   0.7547   0.8329   0.8782   0.8968   0.9623   1.0162   1.1098
     1.1654   1.2649   1.5204   1.9068   1.9681   2.1735   2.2444   3.9991
     4.0521   4.0573   4.1849   4.2267   4.2548   4.2837   4.3299   4.3876
     4.4086   4.4398

          k = 0.0380-0.0839 0.0000 ( 17916 PWs)   bands (ev):

   -55.2335 -55.2313 -55.2076 -55.2040 -55.1542 -55.1426 -55.1360 -55.1040
   -55.1027 -55.0741 -55.0715 -55.0228 -55.0192 -55.0101 -54.2955 -54.2953
   -31.6832 -31.6240 -31.6169 -31.5339 -31.5305 -31.5173 -31.5055 -31.5007
   -31.4936 -31.4649 -31.4478 -31.4466 -31.4437 -31.4307 -31.4046 -31.4028
   -31.3986 -31.3964 -31.3874 -31.3850 -31.3827 -31.3801 -31.3764 -31.3386
   -31.3346 -31.3285 -31.3260 -31.3258 -31.3248 -31.3225 -31.3185 -31.3135
   -31.2987 -31.2972 -31.2963 -31.2851 -31.2818 -31.2277 -31.2252 -31.2090
   -31.2047 -31.1852 -30.6120 -30.6119 -30.5374 -30.5371 -30.4978 -30.4976
   -20.1647 -19.0845 -15.6737 -15.5838 -15.4277 -15.3717 -15.2949 -15.2612
   -15.2182 -15.1475 -15.1199 -15.1157 -15.0528 -15.0058 -14.9426 -14.9237
   -14.9014 -14.8966 -14.8687 -14.8324 -14.7956 -14.7414 -14.7337 -14.7280
   -14.7161 -14.6491 -14.6479 -14.6163 -14.6053 -14.5858 -14.4461 -12.7953
   -12.7947 -11.1812  -6.9215  -6.8552  -5.1231  -4.9983  -3.2263  -2.9594
    -2.8107  -2.7396  -2.6355  -2.5382  -2.5310  -2.5038  -2.4912  -2.4420
    -2.4325  -2.3778  -2.3644  -2.3625  -2.3482  -2.3326  -2.3105  -2.2940
    -2.2590  -2.2402  -2.1955  -2.1586  -2.1486  -2.1274  -2.1133  -2.0850
    -2.0624  -2.0141  -1.9666  -1.9194  -1.9038  -1.7624  -1.7337  -1.6006
    -1.5163  -1.5010  -1.4726  -1.3834  -1.2950  -1.2631  -1.2537  -1.2340
    -1.2141  -1.1564  -1.0962  -1.0499  -0.9927  -0.9466  -0.9249  -0.9173
    -0.8775  -0.8418  -0.7435  -0.6162  -0.5928  -0.5300  -0.5050  -0.4008
    -0.3568  -0.3104  -0.2815  -0.1970  -0.1773  -0.1209  -0.0731  -0.0653
    -0.0617  -0.0520   0.0342   0.0845   0.0977   0.1285   0.1632   0.1890
     0.2322   0.2562   0.2812   0.4329   0.4668   0.4705   0.5320   0.6342
     0.6923   0.7714   0.7835   0.8199   0.8661   0.9480   0.9509   1.0567
     1.0883   1.2933   1.3164   2.0462   2.0490   2.1811   2.1828   4.0190
     4.0790   4.1490   4.1793   4.2293   4.2866   4.2990   4.4009   4.4296
     4.4671   4.4889

          k = 0.0380-0.0419 0.0000 ( 17876 PWs)   bands (ev):

   -55.2451 -55.2196 -55.2179 -55.1935 -55.1552 -55.1461 -55.1400 -55.0999
   -55.0990 -55.0849 -55.0607 -55.0330 -55.0091 -55.0088 -54.3074 -54.2834
   -31.7600 -31.7286 -31.6649 -31.5793 -31.5428 -31.5165 -31.5118 -31.5083
   -31.5044 -31.4902 -31.4786 -31.4575 -31.4405 -31.4375 -31.4310 -31.4213
   -31.4014 -31.3959 -31.3893 -31.3884 -31.3772 -31.3599 -31.3455 -31.3420
   -31.3362 -31.3309 -31.3220 -31.3196 -31.3004 -31.2967 -31.2938 -31.2734
   -31.2614 -31.2536 -31.2451 -31.2331 -31.2279 -31.2236 -31.2103 -31.2059
   -31.1822 -31.1806 -30.6700 -30.6217 -30.6024 -30.5281 -30.4671 -30.4005
   -20.1662 -19.0846 -15.8817 -15.6460 -15.6123 -15.4632 -15.3110 -15.2665
   -15.2319 -15.1579 -15.1407 -15.0850 -15.0467 -14.9817 -14.9464 -14.9353
   -14.9138 -14.8913 -14.8660 -14.8501 -14.7792 -14.7724 -14.7252 -14.6887
   -14.6663 -14.6104 -14.5980 -14.5507 -14.5352 -14.5043 -14.2444 -12.8134
   -12.7328 -11.1815  -6.9310  -6.8456  -5.1201  -5.0044  -3.2095  -3.1224
    -3.0456  -2.9286  -2.8628  -2.8081  -2.7392  -2.7120  -2.6271  -2.5870
    -2.5227  -2.5095  -2.4620  -2.3903  -2.3378  -2.3195  -2.2620  -2.2481
    -2.2052  -2.1842  -2.1460  -2.0981  -2.0834  -2.0716  -2.0507  -1.9848
    -1.9424  -1.9284  -1.8821  -1.8461  -1.7939  -1.7523  -1.7334  -1.6880
    -1.6700  -1.6159  -1.5124  -1.4719  -1.4431  -1.3239  -1.2687  -1.1535
    -1.1365  -1.0927  -1.0344  -0.9595  -0.8939  -0.8184  -0.7297  -0.7040
    -0.6694  -0.6495  -0.6323  -0.5953  -0.5267  -0.4878  -0.4355  -0.3760
    -0.3576  -0.3083  -0.2538  -0.2046  -0.1809  -0.1321  -0.1069  -0.0275
    -0.0083   0.0244   0.0441   0.0703   0.1138   0.1405   0.1651   0.2024
     0.2635   0.2966   0.3422   0.3680   0.4629   0.4997   0.5828   0.6328
     0.7209   0.7495   0.8301   0.8769   0.8913   0.9486   1.0119   1.1098
     1.1660   1.2652   1.5210   1.9069   1.9680   2.1734   2.2450   3.9971
     4.0512   4.0574   4.1817   4.2325   4.2627   4.2857   4.3260   4.3950
     4.4125   4.4391

          k =-0.0760-0.0000 0.0000 ( 17886 PWs)   bands (ev):

   -55.2503 -55.2229 -55.2144 -55.1886 -55.1558 -55.1496 -55.1434 -55.0965
   -55.0959 -55.0897 -55.0558 -55.0381 -55.0082 -55.0039 -54.3124 -54.2784
   -31.8174 -31.7667 -31.7201 -31.6378 -31.5732 -31.5593 -31.5547 -31.5487
   -31.5115 -31.4821 -31.4662 -31.4526 -31.4433 -31.4285 -31.4178 -31.3965
   -31.3905 -31.3829 -31.3761 -31.3700 -31.3642 -31.3611 -31.3492 -31.3453
   -31.3406 -31.3387 -31.3185 -31.3163 -31.2954 -31.2804 -31.2721 -31.2652
   -31.2423 -31.2416 -31.2344 -31.2291 -31.2015 -31.1877 -31.1827 -31.1728
   -31.1602 -31.1502 -30.7236 -30.6296 -30.5970 -30.5406 -30.4543 -30.3433
   -20.1675 -19.0846 -15.8681 -15.7668 -15.5901 -15.4961 -15.3682 -15.2974
   -15.2394 -15.1824 -15.1590 -15.1203 -15.0997 -15.0527 -15.0461 -15.0289
   -15.0015 -14.9582 -14.8268 -14.7770 -14.7648 -14.7444 -14.7087 -14.6437
   -14.6378 -14.5614 -14.5573 -14.5168 -14.4259 -14.3983 -14.1295 -12.8065
   -12.6932 -11.1836  -6.9436  -6.8345  -5.1110  -5.0100  -3.2655  -3.1854
    -3.1353  -3.0094  -2.8866  -2.8113  -2.7571  -2.7326  -2.7167  -2.6768
    -2.6690  -2.5681  -2.5537  -2.5448  -2.5272  -2.3775  -2.2534  -2.1989
    -2.1792  -1.9566  -1.9330  -1.9237  -1.9009  -1.8702  -1.8666  -1.8393
    -1.8163  -1.7743  -1.7579  -1.7533  -1.7135  -1.6160  -1.5850  -1.5798
    -1.5470  -1.4951  -1.4605  -1.4514  -1.4177  -1.3433  -1.2641  -1.1900
    -1.1491  -1.0086  -1.0057  -0.9955  -0.9698  -0.9357  -0.8693  -0.8540
    -0.8250  -0.7499  -0.7404  -0.7197  -0.6767  -0.6224  -0.5930  -0.5427
    -0.5309  -0.4868  -0.2270  -0.2074  -0.1813  -0.1578  -0.0751  -0.0566
    -0.0057   0.0436   0.1170   0.1242   0.1856   0.2133   0.2440   0.2598
     0.3257   0.3673   0.4065   0.4412   0.4496   0.4780   0.5197   0.5692
     0.6458   0.7004   0.7009   0.7421   0.8973   1.0197   1.0371   1.2109
     1.3028   1.3667   1.6164   1.7475   1.8148   2.0481   2.2110   3.8618
     3.8956   3.9797   4.0893   4.1323   4.1979   4.2846   4.3223   4.3305
     4.3651   4.3959

          k =-0.0760 0.0419 0.0000 ( 17914 PWs)   bands (ev):

   -55.2450 -55.2196 -55.2179 -55.1936 -55.1549 -55.1465 -55.1401 -55.1000
   -55.0990 -55.0848 -55.0607 -55.0332 -55.0091 -55.0089 -54.3074 -54.2834
   -31.7603 -31.7288 -31.6660 -31.5851 -31.5429 -31.5205 -31.5130 -31.5122
   -31.5046 -31.4902 -31.4787 -31.4578 -31.4403 -31.4318 -31.4214 -31.4173
   -31.4016 -31.3963 -31.3793 -31.3773 -31.3573 -31.3572 -31.3522 -31.3480
   -31.3454 -31.3414 -31.3197 -31.3067 -31.2982 -31.2958 -31.2937 -31.2806
   -31.2771 -31.2450 -31.2428 -31.2376 -31.2328 -31.2313 -31.2097 -31.2067
   -31.1865 -31.1807 -30.6698 -30.6249 -30.6017 -30.5282 -30.4672 -30.4005
   -20.1660 -19.0845 -15.7545 -15.6995 -15.5032 -15.4061 -15.2960 -15.2177
   -15.1971 -15.1583 -15.1309 -15.0994 -15.0608 -15.0350 -15.0220 -14.9993
   -14.9864 -14.9408 -14.8705 -14.8353 -14.7947 -14.7801 -14.7110 -14.6968
   -14.6767 -14.6142 -14.6107 -14.6042 -14.5312 -14.4961 -14.2444 -12.8111
   -12.7332 -11.1829  -6.9341  -6.8424  -5.1188  -4.9998  -3.1826  -3.0964
    -3.0541  -2.9082  -2.6537  -2.6254  -2.5523  -2.5421  -2.5238  -2.4910
    -2.4679  -2.4413  -2.3782  -2.3439  -2.3310  -2.2996  -2.2559  -2.2022
    -2.1931  -2.1586  -2.1190  -2.0567  -2.0275  -1.9946  -1.9695  -1.9463
    -1.9120  -1.8516  -1.8291  -1.7936  -1.7704  -1.7572  -1.7449  -1.6876
    -1.6035  -1.4953  -1.4872  -1.4411  -1.4016  -1.3320  -1.2732  -1.2590
    -1.0916  -1.0689  -0.9982  -0.9686  -0.9253  -0.8721  -0.8421  -0.7685
    -0.7612  -0.7234  -0.6608  -0.6424  -0.6380  -0.5832  -0.5157  -0.5100
    -0.5045  -0.5001  -0.4275  -0.4075  -0.3495  -0.3218  -0.2483  -0.2190
    -0.1294  -0.0912  -0.0474  -0.0267  -0.0028   0.0361   0.0733   0.1798
     0.2209   0.2437   0.3200   0.3770   0.4449   0.4818   0.5293   0.6503
     0.7161   0.7602   0.8679   0.9274   0.9909   1.0151   1.1144   1.1345
     1.1930   1.2270   1.3618   1.9215   1.9703   2.0958   2.2318   4.0093
     4.0292   4.0516   4.0646   4.1557   4.2088   4.2363   4.3119   4.3311
     4.4578   4.5013

          k =-0.0760-0.0839 0.0000 ( 17948 PWs)   bands (ev):

   -55.2335 -55.2313 -55.2076 -55.2040 -55.1539 -55.1429 -55.1361 -55.1040
   -55.1028 -55.0741 -55.0715 -55.0229 -55.0192 -55.0101 -54.2955 -54.2954
   -31.6834 -31.6242 -31.6172 -31.5348 -31.5313 -31.5173 -31.5058 -31.5007
   -31.4936 -31.4726 -31.4544 -31.4490 -31.4448 -31.4310 -31.4056 -31.4029
   -31.3915 -31.3891 -31.3819 -31.3810 -31.3774 -31.3742 -31.3614 -31.3477
   -31.3397 -31.3346 -31.3338 -31.3274 -31.3245 -31.3244 -31.3237 -31.3054
   -31.2979 -31.2956 -31.2771 -31.2726 -31.2719 -31.2480 -31.2441 -31.2090
   -31.2047 -31.1919 -30.6131 -30.6131 -30.5374 -30.5371 -30.4978 -30.4976
   -20.1646 -19.0843 -15.6380 -15.5395 -15.3892 -15.2660 -15.2537 -15.2411
   -15.1890 -15.1248 -15.1107 -15.0607 -15.0478 -15.0171 -15.0012 -14.9952
   -14.9592 -14.8507 -14.8466 -14.8363 -14.8156 -14.7706 -14.7596 -14.7525
   -14.7403 -14.7042 -14.6958 -14.6815 -14.6711 -14.5791 -14.4401 -12.7951
   -12.7945 -11.1822  -6.9226  -6.8521  -5.1254  -4.9930  -3.1821  -2.9849
    -2.8076  -2.7286  -2.6311  -2.4839  -2.4692  -2.3881  -2.3761  -2.3257
    -2.2549  -2.2519  -2.2483  -2.1670  -2.1549  -2.1548  -2.1335  -2.1139
    -2.0736  -2.0649  -2.0413  -2.0310  -1.9896  -1.9590  -1.9459  -1.9287
    -1.9185  -1.9146  -1.8835  -1.8688  -1.8534  -1.8115  -1.7883  -1.7284
    -1.6409  -1.6034  -1.4807  -1.4781  -1.4409  -1.4131  -1.3876  -1.3472
    -1.3272  -1.2794  -1.2596  -1.2335  -1.0502  -1.0342  -0.9795  -0.9396
    -0.9198  -0.9064  -0.8446  -0.7727  -0.7458  -0.7145  -0.6487  -0.5755
    -0.4795  -0.4553  -0.4468  -0.3410  -0.2887  -0.2492  -0.2449  -0.2355
    -0.2116  -0.1630  -0.1432  -0.0814  -0.0424   0.0013   0.0267   0.0436
     0.2247   0.2632   0.3216   0.4129   0.4418   0.5870   0.6354   0.6871
     0.7477   0.8239   0.8352   0.9011   1.0154   1.0276   1.0576   1.1345
     1.1778   1.1836   1.2087   2.0648   2.0669   2.1685   2.1715   3.9705
     4.0779   4.0965   4.1754   4.2416   4.3497   4.3628   4.3921   4.4023
     4.4477   4.4793

     the Fermi energy is     3.8970 ev

!    total energy              =   -2967.47598422 Ry
     estimated scf accuracy    <       0.00000005 Ry
     smearing contrib. (-TS)   =      -0.03654034 Ry
     internal energy E=F+TS    =   -2967.43944389 Ry

     The total energy is F=E-TS. E is the sum of the following terms:
     one-electron contribution =  -23963.27692979 Ry
     hartree contribution      =   12077.23557235 Ry
     xc contribution           =    -491.85825219 Ry
     ewald contribution        =    9410.45658523 Ry
     electric field correction =       0.00358052 Ry

     convergence has been achieved in  69 iterations

     Forces acting on atoms (cartesian axes, Ry/au):

     atom    1 type  1   force =    -0.00027226    0.00019556    0.09244288
     atom    2 type  1   force =    -0.00035588    0.00104409   -0.18340899
     atom    3 type  2   force =     0.00050440   -0.00072027   -0.02349087
     atom    4 type  2   force =     0.00072464   -0.00018843    0.05070127
     atom    5 type  2   force =    -0.01404919   -0.00130879    0.00495460
     atom    6 type  2   force =     0.01521779   -0.00064767    0.00509768
     atom    7 type  1   force =    -0.00048524    0.00106168   -0.00012451
     atom    8 type  1   force =     0.00016351   -0.00053105    0.00040357
     atom    9 type  2   force =    -0.00043960    0.00017353    0.00040494
     atom   10 type  2   force =     0.00040882    0.00016259    0.00047489
     atom   11 type  2   force =     0.00035743    0.00043825    0.00034143
     atom   12 type  2   force =     0.00005696    0.00013871    0.00026731
     atom   13 type  1   force =    -0.00088244   -0.00118998   -0.00010879
     atom   14 type  1   force =     0.00059505   -0.00005250    0.00021333
     atom   15 type  2   force =     0.00051155    0.00075469    0.00005465
     atom   16 type  2   force =    -0.00061135   -0.00036804    0.00006281
     atom   17 type  2   force =     0.00004960    0.00023109   -0.00038501
     atom   18 type  2   force =    -0.00011840    0.00027831   -0.00017585
     atom   19 type  1   force =     0.00057821   -0.00005245   -0.00035454
     atom   20 type  1   force =    -0.00001205    0.00016916   -0.00014679
     atom   21 type  2   force =    -0.00004161    0.00015578    0.10497179
     atom   22 type  2   force =    -0.00034286    0.00057526   -0.00089785
     atom   23 type  2   force =    -0.06799377    0.00011452   -0.02679701
     atom   24 type  2   force =     0.06771264    0.00051174   -0.02686320
     atom   25 type  1   force =    -0.00038860   -0.00008675    0.09626143
     atom   26 type  1   force =    -0.00036081   -0.00099458   -0.18319859
     atom   27 type  2   force =     0.00041843   -0.00125635   -0.02224953
     atom   28 type  2   force =     0.00070187   -0.00033175    0.05102120
     atom   29 type  2   force =    -0.01423776   -0.00106569    0.00466164
     atom   30 type  2   force =     0.01518688    0.00020768    0.00484541
     atom   31 type  1   force =    -0.00050108   -0.00146174    0.00017976
     atom   32 type  1   force =     0.00013513    0.00070695   -0.00026978
     atom   33 type  2   force =     0.00002237   -0.00020458    0.00006866
     atom   34 type  2   force =     0.00002474   -0.00006732   -0.00007730
     atom   35 type  2   force =     0.00021271    0.00008420    0.00030731
     atom   36 type  2   force =     0.00039638    0.00045174    0.00005249
     atom   37 type  1   force =    -0.00106734    0.00125309   -0.00005459
     atom   38 type  1   force =     0.00037887    0.00011248   -0.00044064
     atom   39 type  2   force =     0.00038846    0.00022786   -0.00033011
     atom   40 type  2   force =    -0.00008000    0.00019631    0.00007511
     atom   41 type  2   force =    -0.00021288    0.00017322   -0.00050443
     atom   42 type  2   force =     0.00015983   -0.00000581    0.00016481
     atom   43 type  1   force =    -0.00063113    0.00012232    0.00021609
     atom   44 type  1   force =    -0.00000526    0.00004297   -0.00084573
     atom   45 type  2   force =    -0.00005462    0.00015268    0.10490414
     atom   46 type  2   force =    -0.06804298   -0.00036670   -0.02680866
     atom   47 type  2   force =     0.06776887    0.00006321   -0.02689531
     atom   48 type  3   force =    -0.00317219    0.00020788   -0.00280933
     atom   49 type  2   force =     0.00035125    0.00047338    0.00094176
     atom   50 type  4   force =     0.00307824    0.00089140    0.00298263
     atom   51 type  4   force =     0.00082354    0.00080688   -0.00021423
     atom   52 type  4   force =    -0.00109527    0.00046349   -0.00034107
     atom   53 type  4   force =    -0.00057092   -0.00021915    0.00005669
     atom   54 type  2   force =     0.00085636   -0.00017691    0.00106922
     atom   55 type  4   force =    -0.00084222   -0.00037237   -0.00056535
     atom   56 type  4   force =    -0.00091680   -0.00097385    0.00015856

     Total force =     0.368242     Total SCF correction =     0.000542
  @ DRIVER MODE: Message from server: STATUS
  @ DRIVER MODE: Message from server: GETFORCE
  @ DRIVER MODE: Returning v,forces,stress,ensemble 

     Writing output data file ./calc.save/
  @ DRIVER MODE: Message from server: EXIT
  @ DRIVE MODE: Exiting  
 
     init_run     :     10.70s CPU     10.90s WALL (       1 calls)
     electrons    :   1069.65s CPU   1085.12s WALL (       1 calls)
     forces       :      2.25s CPU      2.32s WALL (       1 calls)

     Called by init_run:
     wfcinit      :      4.77s CPU      4.83s WALL (       1 calls)
     potinit      :      5.30s CPU      5.36s WALL (       1 calls)
     hinit0       :      0.26s CPU      0.27s WALL (       1 calls)

     Called by electrons:
     c_bands      :    911.26s CPU    917.65s WALL (      69 calls)
     sum_band     :    108.34s CPU    111.92s WALL (      69 calls)
     v_of_rho     :     38.82s CPU     40.75s WALL (      70 calls)
     newd         :     14.43s CPU     18.01s WALL (      70 calls)
     mix_rho      :      1.42s CPU      1.43s WALL (      69 calls)
     vdW_kernel   :      4.54s CPU      4.56s WALL (       1 calls)

     Called by c_bands:
     init_us_2    :      6.19s CPU      6.23s WALL (    1400 calls)
     cegterg      :    892.81s CPU    898.92s WALL (     702 calls)

     Called by *egterg:
     cdiaghg      :    147.61s CPU    148.23s WALL (    6641 calls)
     h_psi        :    479.10s CPU    483.42s WALL (    6652 calls)
     s_psi        :     62.33s CPU     62.52s WALL (    6652 calls)
     g_psi        :      1.74s CPU      1.76s WALL (    5940 calls)

     Called by h_psi:
     h_psi:calbec :     59.02s CPU     59.28s WALL (    6652 calls)
     vloc_psi     :    354.46s CPU    357.92s WALL (    6652 calls)
     add_vuspsi   :     62.47s CPU     62.86s WALL (    6652 calls)

     General routines
     calbec       :     78.32s CPU     78.64s WALL (    7382 calls)
     fft          :     19.56s CPU     19.70s WALL (    4410 calls)
     ffts         :      0.13s CPU      0.13s WALL (     139 calls)
     fftw         :    397.89s CPU    401.76s WALL (  947404 calls)
     interpolate  :      0.40s CPU      0.40s WALL (      70 calls)
     davcio       :      0.01s CPU      0.21s WALL (      10 calls)
 
     Parallel routines
 
     PWSCF        :  18m 2.82s CPU  18m19.01s WALL

 
   This run was terminated on:  21:18:28  15Sep2021            

=------------------------------------------------------------------------------=
   JOB DONE.
=------------------------------------------------------------------------------=
