
     Program PWSCF v.6.7GPU starts on 11Sep2021 at  1:35: 0 

     This program is part of the open-source Quantum ESPRESSO suite
     for quantum simulation of materials; please cite
         "P. Giannozzi et al., J. Phys.:Condens. Matter 21 395502 (2009);
         "P. Giannozzi et al., J. Phys.:Condens. Matter 29 465901 (2017);
         "P. Giannozzi et al., J. Chem. Phys. 152 154105 (2020);
          URL http://www.quantum-espresso.org", 
     in publications or presentations arising from this work. More details at
     http://www.quantum-espresso.org/quote

     Parallel version (MPI), running on    10 processors

     MPI processes distributed on     1 nodes
     R & G space division:  proc/nbgrp/npool/nimage =      10
     Reading input from /storage/home/hcoda1/3/ntian30/research/carbon/CxH_vib/CH2_calc/ads_slab/CH2O_c/out_0022/pw.inp
Warning: card &CELL ignored
Warning: card   CELL_DYNAMICS='IPI', ignored
Warning: card / ignored

     Current dimensions of program PWSCF are:
     Max number of different atomic species (ntypx) = 10
     Max number of k-points (npk) =  40000
     Max angular momentum in pseudopotentials (lmaxx) =  3
     Presently no symmetry can be used with electric field

     Message from routine cell_base_init:
     DEPRECATED: use true lattice parameter, not A to a.u. conversion factor

     **************************************************************************
     Initializing libbeef V0.1.2 with the BEEF-vdW functional.
     Citation: Wellendorff et al., PRB 85, 235149 (2012).
     **************************************************************************


     IMPORTANT: XC functional enforced from input :
     Exchange-correlation= BEEF-VDW
                           (   1   4  43  14   2   0   0)
     Any further DFT definition will be discarded
     Please, verify this is what you really want


     Subspace diagonalization in iterative solution of the eigenvalue problem:
     one sub-group per band group will be used
     scalapack distributed-memory algorithm (size of sub-group:  3*  3 procs)

  @ DRIVER MODE: Connecting to 
 qe_1139763_2792043.sched-torque.pace.gatech.eduzh3gtypy_scratch
  using UNIX socket
  @ DRIVER MODE: Message from server: STATUS
  @ DRIVER MODE: Message from server: INIT
  @ DRIVER MODE: Receiving replica           0          -1
  @ DRIVER MODE: Receiving encoded integer          25
  @ DRIVER MODE:  SCF:  T  FORCE:  T  STRESS:  F  VC:  F  ENSEMBLE:  F
  @ DRIVER MODE:  SCF:  T  FORCE:  T  STRESS:  F  VC:  F  ENSEMBLE:  F
 
     Parallelization info
     --------------------
     sticks:   dense  smooth     PW     G-vecs:    dense   smooth      PW
     Min         327     131     37                56683    14340    2191
     Max         328     133     38                56694    14346    2206
     Sum        3275    1317    379               566857   143421   21985
 
     Using Slab Decomposition
 


     bravais-lattice index     =            0
     lattice parameter (alat)  =       1.8897  a.u.
     unit-cell volume          =    6658.9804 (a.u.)^3
     number of atoms/cell      =           51
     number of atomic types    =            4
     number of electrons       =       390.00
     number of Kohn-Sham states=          205
     kinetic-energy cutoff     =      29.3995  Ry
     charge density cutoff     =     293.9946  Ry
     scf convergence threshold =      7.3E-08
     mixing beta               =       0.0500
     number of iterations used =            8  plain     mixing
     Exchange-correlation= BEEF-VDW
                           (   1   4  43  14   2   0   0)

     celldm(1)=   1.889726  celldm(2)=   0.000000  celldm(3)=   0.000000
     celldm(4)=   0.000000  celldm(5)=   0.000000  celldm(6)=   0.000000

     crystal axes: (cart. coord. in units of alat)
               a(1) = (   6.579727   0.000000   0.000000 )  
               a(2) = (  -0.000775   5.961596   0.000000 )  
               a(3) = (   0.000000   0.000000  25.155947 )  

     reciprocal axes: (cart. coord. in units 2 pi/alat)
               b(1) = (  0.151982  0.000020  0.000000 )  
               b(2) = (  0.000000  0.167740  0.000000 )  
               b(3) = (  0.000000  0.000000  0.039752 )  


     PseudoPot. # 1 for O  read from file:
     /storage/coda1/p-amedford6/0/shared/rich_project_chbe-medford/medford-share/data/pseudos_module/espresso/nninc/pbe/van/O.UPF
     MD5 check sum: 78c19812648e8988a0fe644b0f25305e
     Pseudo is Ultrasoft, Zval =  6.0
     Generated by new atomic code, or converted to UPF format
     Using radial grid of  737 points,  4 beta functions with: 
                l(1) =   0
                l(2) =   0
                l(3) =   1
                l(4) =   1
     Q(r) pseudized with  8 coefficients,  rinner =    0.800   0.800   0.800


     PseudoPot. # 2 for Ti read from file:
     /storage/coda1/p-amedford6/0/shared/rich_project_chbe-medford/medford-share/data/pseudos_module/espresso/nninc/pbe/van/Ti.UPF
     MD5 check sum: 8e4df49b7f0d34bbd5052bf3f5ea0213
     Pseudo is Ultrasoft, Zval = 12.0
     Generated by new atomic code, or converted to UPF format
     Using radial grid of  851 points,  6 beta functions with: 
                l(1) =   0
                l(2) =   0
                l(3) =   1
                l(4) =   1
                l(5) =   2
                l(6) =   2
     Q(r) pseudized with  8 coefficients,  rinner =    1.000   1.000   1.000
                                                       1.000   1.000

     PseudoPot. # 3 for C  read from file:
     /storage/coda1/p-amedford6/0/shared/rich_project_chbe-medford/medford-share/data/pseudos_module/espresso/nninc/pbe/van/C.UPF
     MD5 check sum: 1a69bf6b8db32088f5b2163dbdb77a27
     Pseudo is Ultrasoft, Zval =  4.0
     Generated by new atomic code, or converted to UPF format
     Using radial grid of  721 points,  4 beta functions with: 
                l(1) =   0
                l(2) =   0
                l(3) =   1
                l(4) =   1
     Q(r) pseudized with  8 coefficients,  rinner =    0.800   0.800   0.800


     PseudoPot. # 4 for H  read from file:
     /storage/coda1/p-amedford6/0/shared/rich_project_chbe-medford/medford-share/data/pseudos_module/espresso/nninc/pbe/van/H.UPF
     MD5 check sum: b5ee9d7bfd3a09ee7748110bda690ff7
     Pseudo is Ultrasoft, Zval =  1.0
     Generated by new atomic code, or converted to UPF format
     Using radial grid of  615 points,  1 beta functions with: 
                l(1) =   0
     Q(r) pseudized with  8 coefficients,  rinner =    0.800

     atomic species   valence    mass     pseudopotential
        O1             6.00    15.99900     O ( 1.00)
        Ti1           12.00    47.86700     Ti( 1.00)
        C1             4.00    12.01100     C ( 1.00)
        H1             1.00     1.00800     H ( 1.00)

     No symmetry found



   Cartesian axes

     site n.     atom                  positions (alat units)
         1           O1  tau(   1) = (   3.2904802   0.0005063   4.7018136  )
         2           O1  tau(   2) = (   3.2900926   2.9813045   4.7018136  )
         3           Ti1 tau(   3) = (   0.0004258   2.9801865   6.0000000  )
         4           Ti1 tau(   4) = (   0.0000382   5.9609847   6.0000000  )
         5           Ti1 tau(   5) = (   3.2906075   1.4906267   6.0002472  )
         6           Ti1 tau(   6) = (   3.2902200   4.4714249   6.0002472  )
         7           O1  tau(   7) = (   1.3043587   1.4918075   6.0039043  )
         8           O1  tau(   8) = (   1.3039711   4.4726057   6.0039043  )
         9           O1  tau(   9) = (   5.2767064   1.4903225   6.0039473  )
        10           O1  tau(  10) = (   5.2763189   4.4711207   6.0039473  )
        11           O1  tau(  11) = (   3.2906025   0.0005020   7.3038282  )
        12           O1  tau(  12) = (   3.2902150   2.9813002   7.3038282  )
        13           O1  tau(  13) = (   0.0006271   0.0005054   7.9858123  )
        14           O1  tau(  14) = (   0.0002396   2.9813036   7.9858123  )
        15           Ti1 tau(  15) = (   3.3026304   0.0558743   9.1529855  )
        16           Ti1 tau(  16) = (   3.3164045   3.0327615   9.1572159  )
        17           Ti1 tau(  17) = (   0.0278175   4.5359734   9.2551557  )
        18           Ti1 tau(  18) = (   0.0245227   1.6138560   9.3625275  )
        19           O1  tau(  19) = (   4.5942328   1.4918067   9.2879030  )
        20           O1  tau(  20) = (   4.5938453   4.4726049   9.2879030  )
        21           O1  tau(  21) = (   1.9868534   1.4903216   9.2879459  )
        22           O1  tau(  22) = (   1.9864658   4.4711199   9.2879459  )
        23           O1  tau(  23) = (   0.0082563   0.0105963  10.6032901  )
        24           O1  tau(  24) = (   0.0079484   2.9900140  10.5841352  )
        25           O1  tau(  25) = (   3.3038251   2.9929121  11.3473413  )
        26           O1  tau(  26) = (   3.3033308   0.0102956  11.3494618  )
        27           Ti1 tau(  27) = (   0.0317432   0.0173395  12.5007832  )
        28           Ti1 tau(  28) = (   3.3306627   4.4867663  12.4909107  )
        29           Ti1 tau(  29) = (   3.3307827   1.5098530  12.4883691  )
        30           Ti1 tau(  30) = (   0.0330478   2.9976760  12.7859357  )
        31           O1  tau(  31) = (   1.3012438   4.4818129  12.6408784  )
        32           O1  tau(  32) = (   1.3024292   1.5014896  12.6394904  )
        33           O1  tau(  33) = (   5.3013637   4.4812751  12.6442516  )
        34           O1  tau(  34) = (   5.3009141   1.5012301  12.6421300  )
        35           O1  tau(  35) = (   3.3022887   2.9886358  13.9251823  )
        36           O1  tau(  36) = (   3.3062039   0.0095056  13.9482717  )
        37           O1  tau(  37) = (   0.0260699   0.0177473  14.6866479  )
        38           O1  tau(  38) = (   0.0273203   2.9953000  14.7270975  )
        39           Ti1 tau(  39) = (   3.3120190   2.9903054  15.7171600  )
        40           Ti1 tau(  40) = (   3.3230935   0.0106652  15.7391692  )
        41           Ti1 tau(  41) = (   0.0328368   4.5824378  15.9539421  )
        42           Ti1 tau(  42) = (   0.0326753   1.3890416  16.0019494  )
        43           O1  tau(  43) = (   4.5622593   4.4711273  16.0916796  )
        44           O1  tau(  44) = (   4.5612194   1.5125715  16.1009491  )
        45           O1  tau(  45) = (   2.0595944   1.5153445  16.1103626  )
        46           O1  tau(  46) = (   2.0577381   4.4687033  16.1006481  )
        47           O1  tau(  47) = (   0.0167757   0.0040543  17.2075325  )
        48           O1  tau(  48) = (   6.5679879   3.0050237  17.4360139  )
        49           C1  tau(  49) = (   6.3840651   3.0748419  18.6981053  )
        50           H1  tau(  50) = (   6.3009919   4.0539401  19.1613311  )
        51           H1  tau(  51) = (   6.3054763   2.1676074  19.2739789  )

     number of k points=    10  Fermi-Dirac smearing, width (Ry)=  0.0073
                       cart. coord. in units 2pi/alat
        k(    1) = (   0.0000000   0.0000000   0.0000000), wk =   0.1250000
        k(    2) = (   0.0000000   0.0419351   0.0000000), wk =   0.2500000
        k(    3) = (   0.0000000  -0.0838702   0.0000000), wk =   0.1250000
        k(    4) = (   0.0379955   0.0000049   0.0000000), wk =   0.2500000
        k(    5) = (   0.0379955   0.0419400   0.0000000), wk =   0.2500000
        k(    6) = (   0.0379955  -0.0838652   0.0000000), wk =   0.2500000
        k(    7) = (   0.0379955  -0.0419301   0.0000000), wk =   0.2500000
        k(    8) = (  -0.0759910  -0.0000099   0.0000000), wk =   0.1250000
        k(    9) = (  -0.0759910   0.0419252   0.0000000), wk =   0.2500000
        k(   10) = (  -0.0759910  -0.0838800   0.0000000), wk =   0.1250000

     Dense  grid:   566857 G-vectors     FFT dimensions: (  72,  64, 270)

     Smooth grid:   143421 G-vectors     FFT dimensions: (  45,  40, 180)

     Estimated max dynamical RAM per process >     362.05 MB

     Estimated total dynamical RAM >       3.54 GB
     Cannot read rho : file not found

     Initial potential from superposition of free atoms

     starting charge  373.99919, renormalised to  390.00000

     negative rho (up, down):  1.845E-02 0.000E+00


     %%%%%%%%%%%%%%%%%%%%%%%%%%%%%%%%%%%%%%%%%%%%%%%%%%%%%%%%%%%%%%%%%%%%%%%%
     %                                                                      %
     % You are using vdW-DF, which was implemented by the Thonhauser group. %
     % Please cite the following two papers that made this development      %
     % possible and the two reviews that describe the various versions:     %
     %                                                                      %
     %   T. Thonhauser et al., PRL 115, 136402 (2015).                      %
     %   T. Thonhauser et al., PRB 76, 125112 (2007).                       %
     %   K. Berland et al., Rep. Prog. Phys. 78, 066501 (2015).             %
     %   D.C. Langreth et al., J. Phys.: Condens. Matter 21, 084203 (2009). %
     %                                                                      %
     %                                                                      %
     % If you are calculating the stress with vdW-DF, please also cite:     %
     %                                                                      %
     %   R. Sabatini et al., J. Phys.: Condens. Matter 24, 424209 (2012).   %
     %                                                                      %
     %%%%%%%%%%%%%%%%%%%%%%%%%%%%%%%%%%%%%%%%%%%%%%%%%%%%%%%%%%%%%%%%%%%%%%%%


 
     Adding external electric field

     Computed dipole along edir(3) : 
        Dipole               -5.1802 Ry au,        -13.1669 Debye
        Dipole field         -0.0098 Ry au, 
 
        Potential amp.        0.9062 Ry
        Total length         46.3494 bohr
 
     Starting wfcs are  294 atomic wfcs
  @ DRIVER MODE: Message from server: STATUS
  @ DRIVER MODE: Message from server: POSDATA
  @ DRIVER MODE: Reading and sharing cell 
  @ DRIVER MODE: Reading and sharing positions 
  @ DRIVER MODE: Received positions 

     total cpu time spent up to now is       11.1 secs

     Self-consistent Calculation

     iteration #  1     ecut=    29.40 Ry     beta= 0.05
     Davidson diagonalization with overlap
     c_bands:  5 eigenvalues not converged
     c_bands:  2 eigenvalues not converged
     c_bands:  2 eigenvalues not converged
     c_bands:  1 eigenvalues not converged
     c_bands:  2 eigenvalues not converged
     c_bands:  2 eigenvalues not converged
     c_bands:  3 eigenvalues not converged
     c_bands:  2 eigenvalues not converged
     ethr =  1.00E-05,  avg # of iterations = 21.9

     negative rho (up, down):  1.782E-02 0.000E+00
 
     Adding external electric field

     Computed dipole along edir(3) : 
        Dipole               21.8281 Ry au,         55.4815 Debye
        Dipole field          0.0412 Ry au, 
 
        Potential amp.       -3.8185 Ry
        Total length         46.3494 bohr
 

     total cpu time spent up to now is       52.5 secs

     total energy              =   -2823.15748632 Ry
     estimated scf accuracy    <    1180.32606181 Ry

     iteration #  2     ecut=    29.40 Ry     beta= 0.05
     Davidson diagonalization with overlap
     ethr =  1.00E-02,  avg # of iterations = 17.0

     negative rho (up, down):  7.319E-03 0.000E+00
 
     Adding external electric field

     Computed dipole along edir(3) : 
        Dipole               -2.3482 Ry au,         -5.9685 Debye
        Dipole field         -0.0044 Ry au, 
 
        Potential amp.        0.4108 Ry
        Total length         46.3494 bohr
 

     total cpu time spent up to now is       93.1 secs

     total energy              =   -2702.79062995 Ry
     estimated scf accuracy    <   28573.88006553 Ry

     iteration #  3     ecut=    29.40 Ry     beta= 0.05
     Davidson diagonalization with overlap
     ethr =  1.00E-02,  avg # of iterations = 18.2

     negative rho (up, down):  7.323E-03 0.000E+00
 
     Adding external electric field

     Computed dipole along edir(3) : 
        Dipole               -3.0706 Ry au,         -7.8047 Debye
        Dipole field         -0.0058 Ry au, 
 
        Potential amp.        0.5372 Ry
        Total length         46.3494 bohr
 

     total cpu time spent up to now is      129.9 secs

     total energy              =   -2924.08740533 Ry
     estimated scf accuracy    <     464.40022776 Ry

     iteration #  4     ecut=    29.40 Ry     beta= 0.05
     Davidson diagonalization with overlap
     ethr =  1.00E-02,  avg # of iterations =  7.2

     negative rho (up, down):  7.342E-03 0.000E+00
 
     Adding external electric field

     Computed dipole along edir(3) : 
        Dipole               -3.5878 Ry au,         -9.1193 Debye
        Dipole field         -0.0068 Ry au, 
 
        Potential amp.        0.6276 Ry
        Total length         46.3494 bohr
 

     total cpu time spent up to now is      142.2 secs

     total energy              =   -2924.99967206 Ry
     estimated scf accuracy    <     191.21225353 Ry

     iteration #  5     ecut=    29.40 Ry     beta= 0.05
     Davidson diagonalization with overlap
     ethr =  1.00E-02,  avg # of iterations =  4.6

     negative rho (up, down):  7.418E-03 0.000E+00
 
     Adding external electric field

     Computed dipole along edir(3) : 
        Dipole               -4.4385 Ry au,        -11.2815 Debye
        Dipole field         -0.0084 Ry au, 
 
        Potential amp.        0.7764 Ry
        Total length         46.3494 bohr
 

     total cpu time spent up to now is      153.6 secs

     total energy              =   -2922.40650709 Ry
     estimated scf accuracy    <     125.70188875 Ry

     iteration #  6     ecut=    29.40 Ry     beta= 0.05
     Davidson diagonalization with overlap
     c_bands:  1 eigenvalues not converged
     ethr =  1.00E-02,  avg # of iterations = 14.2

     negative rho (up, down):  6.859E-03 0.000E+00
 
     Adding external electric field

     Computed dipole along edir(3) : 
        Dipole               -3.5327 Ry au,         -8.9792 Debye
        Dipole field         -0.0067 Ry au, 
 
        Potential amp.        0.6180 Ry
        Total length         46.3494 bohr
 

     total cpu time spent up to now is      171.3 secs

     total energy              =   -2931.91172878 Ry
     estimated scf accuracy    <      15.87098113 Ry

     iteration #  7     ecut=    29.40 Ry     beta= 0.05
     Davidson diagonalization with overlap
     ethr =  4.07E-03,  avg # of iterations =  2.0

     negative rho (up, down):  6.835E-03 0.000E+00
 
     Adding external electric field

     Computed dipole along edir(3) : 
        Dipole               -3.5397 Ry au,         -8.9970 Debye
        Dipole field         -0.0067 Ry au, 
 
        Potential amp.        0.6192 Ry
        Total length         46.3494 bohr
 

     total cpu time spent up to now is      182.1 secs

     total energy              =   -2932.04259678 Ry
     estimated scf accuracy    <      13.13018379 Ry

     iteration #  8     ecut=    29.40 Ry     beta= 0.05
     Davidson diagonalization with overlap
     ethr =  3.37E-03,  avg # of iterations =  1.1

     negative rho (up, down):  6.960E-03 0.000E+00
 
     Adding external electric field

     Computed dipole along edir(3) : 
        Dipole               -5.1931 Ry au,        -13.1995 Debye
        Dipole field         -0.0098 Ry au, 
 
        Potential amp.        0.9085 Ry
        Total length         46.3494 bohr
 

     total cpu time spent up to now is      192.0 secs

     total energy              =   -2933.30700800 Ry
     estimated scf accuracy    <      13.12897582 Ry

     iteration #  9     ecut=    29.40 Ry     beta= 0.05
     Davidson diagonalization with overlap
     c_bands:  2 eigenvalues not converged
     ethr =  3.37E-03,  avg # of iterations = 11.4

     negative rho (up, down):  5.845E-03 0.000E+00
 
     Adding external electric field

     Computed dipole along edir(3) : 
        Dipole               -4.4020 Ry au,        -11.1889 Debye
        Dipole field         -0.0083 Ry au, 
 
        Potential amp.        0.7701 Ry
        Total length         46.3494 bohr
 

     total cpu time spent up to now is      205.8 secs

     total energy              =   -2931.79957459 Ry
     estimated scf accuracy    <      89.43072884 Ry

     iteration # 10     ecut=    29.40 Ry     beta= 0.05
     Davidson diagonalization with overlap
     ethr =  3.37E-03,  avg # of iterations =  1.7

     negative rho (up, down):  2.757E-03 0.000E+00
 
     Adding external electric field

     Computed dipole along edir(3) : 
        Dipole               -4.6080 Ry au,        -11.7123 Debye
        Dipole field         -0.0087 Ry au, 
 
        Potential amp.        0.8061 Ry
        Total length         46.3494 bohr
 

     total cpu time spent up to now is      216.2 secs

     total energy              =   -2934.68115381 Ry
     estimated scf accuracy    <      17.14767532 Ry

     iteration # 11     ecut=    29.40 Ry     beta= 0.05
     Davidson diagonalization with overlap
     ethr =  3.37E-03,  avg # of iterations =  1.8

     negative rho (up, down):  2.046E-03 0.000E+00
 
     Adding external electric field

     Computed dipole along edir(3) : 
        Dipole               -4.9980 Ry au,        -12.7036 Debye
        Dipole field         -0.0094 Ry au, 
 
        Potential amp.        0.8743 Ry
        Total length         46.3494 bohr
 

     total cpu time spent up to now is      226.8 secs

     total energy              =   -2936.94983135 Ry
     estimated scf accuracy    <      23.61458589 Ry

     iteration # 12     ecut=    29.40 Ry     beta= 0.05
     Davidson diagonalization with overlap
     ethr =  3.37E-03,  avg # of iterations =  3.6

     negative rho (up, down):  7.778E-02 0.000E+00
 
     Adding external electric field

     Computed dipole along edir(3) : 
        Dipole               -3.9760 Ry au,        -10.1061 Debye
        Dipole field         -0.0075 Ry au, 
 
        Potential amp.        0.6955 Ry
        Total length         46.3494 bohr
 

     total cpu time spent up to now is      237.9 secs

     total energy              =   -2929.31475254 Ry
     estimated scf accuracy    <      31.09589497 Ry

     iteration # 13     ecut=    29.40 Ry     beta= 0.05
     Davidson diagonalization with overlap
     ethr =  3.37E-03,  avg # of iterations =  4.0

     negative rho (up, down):  3.633E-01 0.000E+00
 
     Adding external electric field

     Computed dipole along edir(3) : 
        Dipole               -3.2527 Ry au,         -8.2675 Debye
        Dipole field         -0.0061 Ry au, 
 
        Potential amp.        0.5690 Ry
        Total length         46.3494 bohr
 

     total cpu time spent up to now is      250.4 secs

     total energy              =   -2928.02989080 Ry
     estimated scf accuracy    <      11.81298871 Ry

     iteration # 14     ecut=    29.40 Ry     beta= 0.05
     Davidson diagonalization with overlap
     c_bands:  1 eigenvalues not converged
     ethr =  3.03E-03,  avg # of iterations = 13.2

     negative rho (up, down):  4.033E-01 0.000E+00
 
     Adding external electric field

     Computed dipole along edir(3) : 
        Dipole               -3.7470 Ry au,         -9.5240 Debye
        Dipole field         -0.0071 Ry au, 
 
        Potential amp.        0.6555 Ry
        Total length         46.3494 bohr
 

     total cpu time spent up to now is      272.1 secs

     total energy              =   -2933.97782489 Ry
     estimated scf accuracy    <     121.39962952 Ry

     iteration # 15     ecut=    29.40 Ry     beta= 0.05
     Davidson diagonalization with overlap
     ethr =  3.03E-03,  avg # of iterations =  1.1

     negative rho (up, down):  4.106E-01 0.000E+00
 
     Adding external electric field

     Computed dipole along edir(3) : 
        Dipole               -4.2570 Ry au,        -10.8203 Debye
        Dipole field         -0.0080 Ry au, 
 
        Potential amp.        0.7447 Ry
        Total length         46.3494 bohr
 

     total cpu time spent up to now is      282.0 secs

     total energy              =   -2933.91581650 Ry
     estimated scf accuracy    <      89.33008694 Ry

     iteration # 16     ecut=    29.40 Ry     beta= 0.05
     Davidson diagonalization with overlap
     ethr =  3.03E-03,  avg # of iterations = 12.1

     negative rho (up, down):  3.287E-01 0.000E+00
 
     Adding external electric field

     Computed dipole along edir(3) : 
        Dipole               -4.9329 Ry au,        -12.5383 Debye
        Dipole field         -0.0093 Ry au, 
 
        Potential amp.        0.8629 Ry
        Total length         46.3494 bohr
 

     total cpu time spent up to now is      297.4 secs

     total energy              =   -2932.27211534 Ry
     estimated scf accuracy    <     163.08821306 Ry

     iteration # 17     ecut=    29.40 Ry     beta= 0.05
     Davidson diagonalization with overlap
     ethr =  3.03E-03,  avg # of iterations = 14.2

     negative rho (up, down):  1.793E-01 0.000E+00
 
     Adding external electric field

     Computed dipole along edir(3) : 
        Dipole               -2.4596 Ry au,         -6.2517 Debye
        Dipole field         -0.0046 Ry au, 
 
        Potential amp.        0.4303 Ry
        Total length         46.3494 bohr
 

     total cpu time spent up to now is      315.7 secs

     total energy              =   -2926.76949644 Ry
     estimated scf accuracy    <     505.46902412 Ry

     iteration # 18     ecut=    29.40 Ry     beta= 0.05
     Davidson diagonalization with overlap
     ethr =  3.03E-03,  avg # of iterations = 14.1

     negative rho (up, down):  3.327E-02 0.000E+00
 
     Adding external electric field

     Computed dipole along edir(3) : 
        Dipole               -2.2066 Ry au,         -5.6086 Debye
        Dipole field         -0.0042 Ry au, 
 
        Potential amp.        0.3860 Ry
        Total length         46.3494 bohr
 

     total cpu time spent up to now is      332.3 secs

     total energy              =   -2929.26439032 Ry
     estimated scf accuracy    <      42.65431256 Ry

     iteration # 19     ecut=    29.40 Ry     beta= 0.05
     Davidson diagonalization with overlap
     ethr =  3.03E-03,  avg # of iterations =  7.4

     negative rho (up, down):  3.201E-02 0.000E+00
 
     Adding external electric field

     Computed dipole along edir(3) : 
        Dipole               -1.3793 Ry au,         -3.5059 Debye
        Dipole field         -0.0026 Ry au, 
 
        Potential amp.        0.2413 Ry
        Total length         46.3494 bohr
 

     total cpu time spent up to now is      345.2 secs

     total energy              =   -2930.45549740 Ry
     estimated scf accuracy    <      16.76275040 Ry

     iteration # 20     ecut=    29.40 Ry     beta= 0.05
     Davidson diagonalization with overlap
     ethr =  3.03E-03,  avg # of iterations =  2.2

     negative rho (up, down):  3.789E-03 0.000E+00
 
     Adding external electric field

     Computed dipole along edir(3) : 
        Dipole                0.8032 Ry au,          2.0417 Debye
        Dipole field          0.0015 Ry au, 
 
        Potential amp.       -0.1405 Ry
        Total length         46.3494 bohr
 

     total cpu time spent up to now is      355.6 secs

     total energy              =   -2931.64434466 Ry
     estimated scf accuracy    <      14.01204983 Ry

     iteration # 21     ecut=    29.40 Ry     beta= 0.05
     Davidson diagonalization with overlap
     ethr =  3.03E-03,  avg # of iterations = 10.1

     negative rho (up, down):  3.746E-04 0.000E+00
 
     Adding external electric field

     Computed dipole along edir(3) : 
        Dipole                0.5921 Ry au,          1.5048 Debye
        Dipole field          0.0011 Ry au, 
 
        Potential amp.       -0.1036 Ry
        Total length         46.3494 bohr
 

     total cpu time spent up to now is      368.8 secs

     total energy              =   -2929.46975351 Ry
     estimated scf accuracy    <      89.10662251 Ry

     iteration # 22     ecut=    29.40 Ry     beta= 0.05
     Davidson diagonalization with overlap
     ethr =  3.03E-03,  avg # of iterations =  5.0

     negative rho (up, down):  7.327E-04 0.000E+00
 
     Adding external electric field

     Computed dipole along edir(3) : 
        Dipole               -0.1096 Ry au,         -0.2786 Debye
        Dipole field         -0.0002 Ry au, 
 
        Potential amp.        0.0192 Ry
        Total length         46.3494 bohr
 

     total cpu time spent up to now is      380.5 secs

     total energy              =   -2930.49499303 Ry
     estimated scf accuracy    <       5.97597606 Ry

     iteration # 23     ecut=    29.40 Ry     beta= 0.05
     Davidson diagonalization with overlap
     ethr =  1.53E-03,  avg # of iterations =  4.2

     negative rho (up, down):  1.067E-01 0.000E+00
 
     Adding external electric field

     Computed dipole along edir(3) : 
        Dipole               -1.3922 Ry au,         -3.5385 Debye
        Dipole field         -0.0026 Ry au, 
 
        Potential amp.        0.2435 Ry
        Total length         46.3494 bohr
 

     total cpu time spent up to now is      391.8 secs

     total energy              =   -2929.72399298 Ry
     estimated scf accuracy    <       5.62611473 Ry

     iteration # 24     ecut=    29.40 Ry     beta= 0.05
     Davidson diagonalization with overlap
     c_bands:  2 eigenvalues not converged
     c_bands:  5 eigenvalues not converged
     c_bands:  4 eigenvalues not converged
     c_bands:  1 eigenvalues not converged
     c_bands:  1 eigenvalues not converged
     ethr =  1.44E-03,  avg # of iterations = 18.4

     negative rho (up, down):  3.056E-02 0.000E+00
 
     Adding external electric field

     Computed dipole along edir(3) : 
        Dipole               -0.1407 Ry au,         -0.3575 Debye
        Dipole field         -0.0003 Ry au, 
 
        Potential amp.        0.0246 Ry
        Total length         46.3494 bohr
 

     total cpu time spent up to now is      411.9 secs

     total energy              =   -2930.61756512 Ry
     estimated scf accuracy    <      52.43998389 Ry

     iteration # 25     ecut=    29.40 Ry     beta= 0.05
     Davidson diagonalization with overlap
     ethr =  1.44E-03,  avg # of iterations =  3.3

     negative rho (up, down):  4.336E-02 0.000E+00
 
     Adding external electric field

     Computed dipole along edir(3) : 
        Dipole               -0.2643 Ry au,         -0.6718 Debye
        Dipole field         -0.0005 Ry au, 
 
        Potential amp.        0.0462 Ry
        Total length         46.3494 bohr
 

     total cpu time spent up to now is      422.9 secs

     total energy              =   -2930.58191777 Ry
     estimated scf accuracy    <      35.38365328 Ry

     iteration # 26     ecut=    29.40 Ry     beta= 0.05
     Davidson diagonalization with overlap
     ethr =  1.44E-03,  avg # of iterations =  1.2

     negative rho (up, down):  8.972E-02 0.000E+00
 
     Adding external electric field

     Computed dipole along edir(3) : 
        Dipole               -0.8347 Ry au,         -2.1215 Debye
        Dipole field         -0.0016 Ry au, 
 
        Potential amp.        0.1460 Ry
        Total length         46.3494 bohr
 

     total cpu time spent up to now is      432.9 secs

     total energy              =   -2930.37965606 Ry
     estimated scf accuracy    <      21.16856375 Ry

     iteration # 27     ecut=    29.40 Ry     beta= 0.05
     Davidson diagonalization with overlap
     ethr =  1.44E-03,  avg # of iterations =  1.0

     negative rho (up, down):  4.275E-02 0.000E+00
 
     Adding external electric field

     Computed dipole along edir(3) : 
        Dipole               -0.2295 Ry au,         -0.5834 Debye
        Dipole field         -0.0004 Ry au, 
 
        Potential amp.        0.0402 Ry
        Total length         46.3494 bohr
 

     total cpu time spent up to now is      442.7 secs

     total energy              =   -2929.93590244 Ry
     estimated scf accuracy    <       7.39869704 Ry

     iteration # 28     ecut=    29.40 Ry     beta= 0.05
     Davidson diagonalization with overlap
     ethr =  1.44E-03,  avg # of iterations = 11.1

     negative rho (up, down):  7.029E-02 0.000E+00
 
     Adding external electric field

     Computed dipole along edir(3) : 
        Dipole               -0.7272 Ry au,         -1.8484 Debye
        Dipole field         -0.0014 Ry au, 
 
        Potential amp.        0.1272 Ry
        Total length         46.3494 bohr
 

     total cpu time spent up to now is      456.2 secs

     total energy              =   -2930.15723448 Ry
     estimated scf accuracy    <       2.48516557 Ry

     iteration # 29     ecut=    29.40 Ry     beta= 0.05
     Davidson diagonalization with overlap
     ethr =  6.37E-04,  avg # of iterations =  2.0

     negative rho (up, down):  8.537E-02 0.000E+00
 
     Adding external electric field

     Computed dipole along edir(3) : 
        Dipole               -0.9656 Ry au,         -2.4544 Debye
        Dipole field         -0.0018 Ry au, 
 
        Potential amp.        0.1689 Ry
        Total length         46.3494 bohr
 

     total cpu time spent up to now is      467.0 secs

     total energy              =   -2930.14544638 Ry
     estimated scf accuracy    <       1.68888849 Ry

     iteration # 30     ecut=    29.40 Ry     beta= 0.05
     Davidson diagonalization with overlap
     ethr =  4.33E-04,  avg # of iterations =  2.4

     negative rho (up, down):  4.995E-02 0.000E+00
 
     Adding external electric field

     Computed dipole along edir(3) : 
        Dipole               -0.4042 Ry au,         -1.0273 Debye
        Dipole field         -0.0008 Ry au, 
 
        Potential amp.        0.0707 Ry
        Total length         46.3494 bohr
 

     total cpu time spent up to now is      477.8 secs

     total energy              =   -2930.12129072 Ry
     estimated scf accuracy    <       1.04950735 Ry

     iteration # 31     ecut=    29.40 Ry     beta= 0.05
     Davidson diagonalization with overlap
     c_bands:  2 eigenvalues not converged
     c_bands:  3 eigenvalues not converged
     c_bands:  2 eigenvalues not converged
     c_bands:  1 eigenvalues not converged
     c_bands:  2 eigenvalues not converged
     c_bands:  2 eigenvalues not converged
     ethr =  2.69E-04,  avg # of iterations = 18.4

     negative rho (up, down):  3.479E-02 0.000E+00
 
     Adding external electric field

     Computed dipole along edir(3) : 
        Dipole               -0.1424 Ry au,         -0.3619 Debye
        Dipole field         -0.0003 Ry au, 
 
        Potential amp.        0.0249 Ry
        Total length         46.3494 bohr
 

     total cpu time spent up to now is      495.5 secs

     total energy              =   -2930.18042116 Ry
     estimated scf accuracy    <       0.99010440 Ry

     iteration # 32     ecut=    29.40 Ry     beta= 0.05
     Davidson diagonalization with overlap
     ethr =  2.54E-04,  avg # of iterations =  2.2

     negative rho (up, down):  4.255E-02 0.000E+00
 
     Adding external electric field

     Computed dipole along edir(3) : 
        Dipole               -0.2264 Ry au,         -0.5753 Debye
        Dipole field         -0.0004 Ry au, 
 
        Potential amp.        0.0396 Ry
        Total length         46.3494 bohr
 

     total cpu time spent up to now is      505.9 secs

     total energy              =   -2930.14977987 Ry
     estimated scf accuracy    <       0.71670455 Ry

     iteration # 33     ecut=    29.40 Ry     beta= 0.05
     Davidson diagonalization with overlap
     ethr =  1.84E-04,  avg # of iterations =  5.7

     negative rho (up, down):  3.831E-02 0.000E+00
 
     Adding external electric field

     Computed dipole along edir(3) : 
        Dipole               -0.1333 Ry au,         -0.3389 Debye
        Dipole field         -0.0003 Ry au, 
 
        Potential amp.        0.0233 Ry
        Total length         46.3494 bohr
 

     total cpu time spent up to now is      517.5 secs

     total energy              =   -2930.16406780 Ry
     estimated scf accuracy    <       2.98886228 Ry

     iteration # 34     ecut=    29.40 Ry     beta= 0.05
     Davidson diagonalization with overlap
     c_bands:  2 eigenvalues not converged
     ethr =  1.84E-04,  avg # of iterations = 12.0

     negative rho (up, down):  4.306E-02 0.000E+00
 
     Adding external electric field

     Computed dipole along edir(3) : 
        Dipole               -0.1974 Ry au,         -0.5017 Debye
        Dipole field         -0.0004 Ry au, 
 
        Potential amp.        0.0345 Ry
        Total length         46.3494 bohr
 

     total cpu time spent up to now is      531.6 secs

     total energy              =   -2930.20446714 Ry
     estimated scf accuracy    <       1.14360933 Ry

     iteration # 35     ecut=    29.40 Ry     beta= 0.05
     Davidson diagonalization with overlap
     ethr =  1.84E-04,  avg # of iterations =  7.4

     negative rho (up, down):  3.099E-02 0.000E+00
 
     Adding external electric field

     Computed dipole along edir(3) : 
        Dipole                0.0512 Ry au,          0.1301 Debye
        Dipole field          0.0001 Ry au, 
 
        Potential amp.       -0.0090 Ry
        Total length         46.3494 bohr
 

     total cpu time spent up to now is      543.4 secs

     total energy              =   -2930.18194989 Ry
     estimated scf accuracy    <       1.07425288 Ry

     iteration # 36     ecut=    29.40 Ry     beta= 0.05
     Davidson diagonalization with overlap
     ethr =  1.84E-04,  avg # of iterations =  6.0

     negative rho (up, down):  7.551E-03 0.000E+00
 
     Adding external electric field

     Computed dipole along edir(3) : 
        Dipole                0.7271 Ry au,          1.8482 Debye
        Dipole field          0.0014 Ry au, 
 
        Potential amp.       -0.1272 Ry
        Total length         46.3494 bohr
 

     total cpu time spent up to now is      555.0 secs

     total energy              =   -2930.15760438 Ry
     estimated scf accuracy    <       0.78672897 Ry

     iteration # 37     ecut=    29.40 Ry     beta= 0.05
     Davidson diagonalization with overlap
     ethr =  1.84E-04,  avg # of iterations = 11.4

     negative rho (up, down):  3.956E-03 0.000E+00
 
     Adding external electric field

     Computed dipole along edir(3) : 
        Dipole                0.9408 Ry au,          2.3913 Debye
        Dipole field          0.0018 Ry au, 
 
        Potential amp.       -0.1646 Ry
        Total length         46.3494 bohr
 

     total cpu time spent up to now is      568.7 secs

     total energy              =   -2930.15475230 Ry
     estimated scf accuracy    <       0.33389284 Ry

     iteration # 38     ecut=    29.40 Ry     beta= 0.05
     Davidson diagonalization with overlap
     c_bands:  3 eigenvalues not converged
     ethr =  8.56E-05,  avg # of iterations = 14.4

     negative rho (up, down):  5.641E-03 0.000E+00
 
     Adding external electric field

     Computed dipole along edir(3) : 
        Dipole                0.8803 Ry au,          2.2376 Debye
        Dipole field          0.0017 Ry au, 
 
        Potential amp.       -0.1540 Ry
        Total length         46.3494 bohr
 

     total cpu time spent up to now is      584.3 secs

     total energy              =   -2930.17428544 Ry
     estimated scf accuracy    <       1.44264507 Ry

     iteration # 39     ecut=    29.40 Ry     beta= 0.05
     Davidson diagonalization with overlap
     ethr =  8.56E-05,  avg # of iterations =  1.8

     negative rho (up, down):  1.323E-02 0.000E+00
 
     Adding external electric field

     Computed dipole along edir(3) : 
        Dipole                0.5769 Ry au,          1.4663 Debye
        Dipole field          0.0011 Ry au, 
 
        Potential amp.       -0.1009 Ry
        Total length         46.3494 bohr
 

     total cpu time spent up to now is      594.8 secs

     total energy              =   -2930.13870594 Ry
     estimated scf accuracy    <       0.85632174 Ry

     iteration # 40     ecut=    29.40 Ry     beta= 0.05
     Davidson diagonalization with overlap
     ethr =  8.56E-05,  avg # of iterations =  6.8

     negative rho (up, down):  1.322E-02 0.000E+00
 
     Adding external electric field

     Computed dipole along edir(3) : 
        Dipole                0.5778 Ry au,          1.4687 Debye
        Dipole field          0.0011 Ry au, 
 
        Potential amp.       -0.1011 Ry
        Total length         46.3494 bohr
 

     total cpu time spent up to now is      606.6 secs

     total energy              =   -2930.16486962 Ry
     estimated scf accuracy    <       0.21402878 Ry

     iteration # 41     ecut=    29.40 Ry     beta= 0.05
     Davidson diagonalization with overlap
     c_bands:  1 eigenvalues not converged
     c_bands:  1 eigenvalues not converged
     c_bands:  3 eigenvalues not converged
     c_bands:  2 eigenvalues not converged
     ethr =  5.49E-05,  avg # of iterations = 16.0

     negative rho (up, down):  7.795E-03 0.000E+00
 
     Adding external electric field

     Computed dipole along edir(3) : 
        Dipole                0.7199 Ry au,          1.8298 Debye
        Dipole field          0.0014 Ry au, 
 
        Potential amp.       -0.1259 Ry
        Total length         46.3494 bohr
 

     total cpu time spent up to now is      621.8 secs

     total energy              =   -2930.15993644 Ry
     estimated scf accuracy    <       0.13919668 Ry

     iteration # 42     ecut=    29.40 Ry     beta= 0.05
     Davidson diagonalization with overlap
     c_bands:  3 eigenvalues not converged
     c_bands:  2 eigenvalues not converged
     ethr =  3.57E-05,  avg # of iterations = 14.9

     negative rho (up, down):  7.200E-03 0.000E+00
 
     Adding external electric field

     Computed dipole along edir(3) : 
        Dipole                0.7668 Ry au,          1.9491 Debye
        Dipole field          0.0014 Ry au, 
 
        Potential amp.       -0.1341 Ry
        Total length         46.3494 bohr
 

     total cpu time spent up to now is      636.8 secs

     total energy              =   -2930.15979384 Ry
     estimated scf accuracy    <       0.20843601 Ry

     iteration # 43     ecut=    29.40 Ry     beta= 0.05
     Davidson diagonalization with overlap
     ethr =  3.57E-05,  avg # of iterations =  1.9

     negative rho (up, down):  8.782E-03 0.000E+00
 
     Adding external electric field

     Computed dipole along edir(3) : 
        Dipole                0.7201 Ry au,          1.8302 Debye
        Dipole field          0.0014 Ry au, 
 
        Potential amp.       -0.1260 Ry
        Total length         46.3494 bohr
 

     total cpu time spent up to now is      647.2 secs

     total energy              =   -2930.16123008 Ry
     estimated scf accuracy    <       0.02854847 Ry

     iteration # 44     ecut=    29.40 Ry     beta= 0.05
     Davidson diagonalization with overlap
     c_bands:  1 eigenvalues not converged
     c_bands:  1 eigenvalues not converged
     c_bands:  3 eigenvalues not converged
     c_bands:  3 eigenvalues not converged
     c_bands:  3 eigenvalues not converged
     c_bands:  5 eigenvalues not converged
     c_bands:  2 eigenvalues not converged
     c_bands:  3 eigenvalues not converged
     c_bands:  3 eigenvalues not converged
     ethr =  7.32E-06,  avg # of iterations = 19.9

     negative rho (up, down):  8.965E-03 0.000E+00
 
     Adding external electric field

     Computed dipole along edir(3) : 
        Dipole                0.7342 Ry au,          1.8661 Debye
        Dipole field          0.0014 Ry au, 
 
        Potential amp.       -0.1284 Ry
        Total length         46.3494 bohr
 

     total cpu time spent up to now is      666.9 secs

     total energy              =   -2930.16481948 Ry
     estimated scf accuracy    <       0.24819752 Ry

     iteration # 45     ecut=    29.40 Ry     beta= 0.05
     Davidson diagonalization with overlap
     c_bands:  1 eigenvalues not converged
     c_bands:  1 eigenvalues not converged
     ethr =  7.32E-06,  avg # of iterations = 10.6

     negative rho (up, down):  8.388E-03 0.000E+00
 
     Adding external electric field

     Computed dipole along edir(3) : 
        Dipole                0.9131 Ry au,          2.3210 Debye
        Dipole field          0.0017 Ry au, 
 
        Potential amp.       -0.1597 Ry
        Total length         46.3494 bohr
 

     total cpu time spent up to now is      679.7 secs

     total energy              =   -2930.16097090 Ry
     estimated scf accuracy    <       0.10630693 Ry

     iteration # 46     ecut=    29.40 Ry     beta= 0.05
     Davidson diagonalization with overlap
     c_bands:  1 eigenvalues not converged
     c_bands:  4 eigenvalues not converged
     c_bands:  2 eigenvalues not converged
     c_bands:  1 eigenvalues not converged
     c_bands:  1 eigenvalues not converged
     c_bands:  2 eigenvalues not converged
     c_bands:  1 eigenvalues not converged
     ethr =  7.32E-06,  avg # of iterations = 18.7

     negative rho (up, down):  9.558E-03 0.000E+00
 
     Adding external electric field

     Computed dipole along edir(3) : 
        Dipole                0.9165 Ry au,          2.3296 Debye
        Dipole field          0.0017 Ry au, 
 
        Potential amp.       -0.1603 Ry
        Total length         46.3494 bohr
 

     total cpu time spent up to now is      697.5 secs

     total energy              =   -2930.16499730 Ry
     estimated scf accuracy    <       0.05599525 Ry

     iteration # 47     ecut=    29.40 Ry     beta= 0.05
     Davidson diagonalization with overlap
     ethr =  7.32E-06,  avg # of iterations =  7.0

     negative rho (up, down):  1.417E-02 0.000E+00
 
     Adding external electric field

     Computed dipole along edir(3) : 
        Dipole                0.9182 Ry au,          2.3339 Debye
        Dipole field          0.0017 Ry au, 
 
        Potential amp.       -0.1606 Ry
        Total length         46.3494 bohr
 

     total cpu time spent up to now is      709.1 secs

     total energy              =   -2930.16579345 Ry
     estimated scf accuracy    <       0.00546398 Ry

     iteration # 48     ecut=    29.40 Ry     beta= 0.05
     Davidson diagonalization with overlap
     c_bands:  1 eigenvalues not converged
     c_bands:  5 eigenvalues not converged
     c_bands:  1 eigenvalues not converged
     c_bands:  1 eigenvalues not converged
     ethr =  1.40E-06,  avg # of iterations = 18.3

     negative rho (up, down):  1.352E-02 0.000E+00
 
     Adding external electric field

     Computed dipole along edir(3) : 
        Dipole                0.9497 Ry au,          2.4140 Debye
        Dipole field          0.0018 Ry au, 
 
        Potential amp.       -0.1661 Ry
        Total length         46.3494 bohr
 

     total cpu time spent up to now is      730.2 secs

     total energy              =   -2930.16650238 Ry
     estimated scf accuracy    <       0.07870848 Ry

     iteration # 49     ecut=    29.40 Ry     beta= 0.05
     Davidson diagonalization with overlap
     ethr =  1.40E-06,  avg # of iterations = 12.4

     negative rho (up, down):  1.390E-02 0.000E+00
 
     Adding external electric field

     Computed dipole along edir(3) : 
        Dipole                0.9481 Ry au,          2.4098 Debye
        Dipole field          0.0018 Ry au, 
 
        Potential amp.       -0.1659 Ry
        Total length         46.3494 bohr
 

     total cpu time spent up to now is      744.2 secs

     total energy              =   -2930.16671105 Ry
     estimated scf accuracy    <       0.01129698 Ry

     iteration # 50     ecut=    29.40 Ry     beta= 0.05
     Davidson diagonalization with overlap
     c_bands:  1 eigenvalues not converged
     c_bands:  1 eigenvalues not converged
     ethr =  1.40E-06,  avg # of iterations = 14.9

     negative rho (up, down):  1.462E-02 0.000E+00
 
     Adding external electric field

     Computed dipole along edir(3) : 
        Dipole                0.9604 Ry au,          2.4412 Debye
        Dipole field          0.0018 Ry au, 
 
        Potential amp.       -0.1680 Ry
        Total length         46.3494 bohr
 

     total cpu time spent up to now is      759.7 secs

     total energy              =   -2930.16674241 Ry
     estimated scf accuracy    <       0.01817093 Ry

     iteration # 51     ecut=    29.40 Ry     beta= 0.05
     Davidson diagonalization with overlap
     ethr =  1.40E-06,  avg # of iterations = 10.2

     negative rho (up, down):  1.549E-02 0.000E+00
 
     Adding external electric field

     Computed dipole along edir(3) : 
        Dipole                0.9545 Ry au,          2.4260 Debye
        Dipole field          0.0018 Ry au, 
 
        Potential amp.       -0.1670 Ry
        Total length         46.3494 bohr
 

     total cpu time spent up to now is      773.1 secs

     total energy              =   -2930.16680536 Ry
     estimated scf accuracy    <       0.00140337 Ry

     iteration # 52     ecut=    29.40 Ry     beta= 0.05
     Davidson diagonalization with overlap
     c_bands:  1 eigenvalues not converged
     c_bands:  1 eigenvalues not converged
     ethr =  3.60E-07,  avg # of iterations = 13.3

     negative rho (up, down):  1.568E-02 0.000E+00
 
     Adding external electric field

     Computed dipole along edir(3) : 
        Dipole                0.9603 Ry au,          2.4409 Debye
        Dipole field          0.0018 Ry au, 
 
        Potential amp.       -0.1680 Ry
        Total length         46.3494 bohr
 

     total cpu time spent up to now is      789.4 secs

     total energy              =   -2930.16703846 Ry
     estimated scf accuracy    <       0.00057849 Ry

     iteration # 53     ecut=    29.40 Ry     beta= 0.05
     Davidson diagonalization with overlap
     ethr =  1.48E-07,  avg # of iterations =  6.0

     negative rho (up, down):  1.580E-02 0.000E+00
 
     Adding external electric field

     Computed dipole along edir(3) : 
        Dipole                0.9641 Ry au,          2.4504 Debye
        Dipole field          0.0018 Ry au, 
 
        Potential amp.       -0.1686 Ry
        Total length         46.3494 bohr
 

     total cpu time spent up to now is      801.2 secs

     total energy              =   -2930.16705130 Ry
     estimated scf accuracy    <       0.00032344 Ry

     iteration # 54     ecut=    29.40 Ry     beta= 0.05
     Davidson diagonalization with overlap
     ethr =  8.29E-08,  avg # of iterations = 14.9

     negative rho (up, down):  1.613E-02 0.000E+00
 
     Adding external electric field

     Computed dipole along edir(3) : 
        Dipole                0.9617 Ry au,          2.4443 Debye
        Dipole field          0.0018 Ry au, 
 
        Potential amp.       -0.1682 Ry
        Total length         46.3494 bohr
 

     total cpu time spent up to now is      816.7 secs

     total energy              =   -2930.16707354 Ry
     estimated scf accuracy    <       0.00016476 Ry

     iteration # 55     ecut=    29.40 Ry     beta= 0.05
     Davidson diagonalization with overlap
     ethr =  4.22E-08,  avg # of iterations = 10.7

     negative rho (up, down):  1.652E-02 0.000E+00
 
     Adding external electric field

     Computed dipole along edir(3) : 
        Dipole                0.9483 Ry au,          2.4104 Debye
        Dipole field          0.0018 Ry au, 
 
        Potential amp.       -0.1659 Ry
        Total length         46.3494 bohr
 

     total cpu time spent up to now is      830.3 secs

     total energy              =   -2930.16708100 Ry
     estimated scf accuracy    <       0.00010078 Ry

     iteration # 56     ecut=    29.40 Ry     beta= 0.05
     Davidson diagonalization with overlap
     c_bands:  1 eigenvalues not converged
     ethr =  2.58E-08,  avg # of iterations = 13.6

     negative rho (up, down):  1.654E-02 0.000E+00
 
     Adding external electric field

     Computed dipole along edir(3) : 
        Dipole                0.9474 Ry au,          2.4081 Debye
        Dipole field          0.0018 Ry au, 
 
        Potential amp.       -0.1657 Ry
        Total length         46.3494 bohr
 

     total cpu time spent up to now is      849.7 secs

     total energy              =   -2930.16710769 Ry
     estimated scf accuracy    <       0.00010556 Ry

     iteration # 57     ecut=    29.40 Ry     beta= 0.05
     Davidson diagonalization with overlap
     ethr =  2.58E-08,  avg # of iterations =  1.1

     negative rho (up, down):  1.665E-02 0.000E+00
 
     Adding external electric field

     Computed dipole along edir(3) : 
        Dipole                0.9492 Ry au,          2.4127 Debye
        Dipole field          0.0018 Ry au, 
 
        Potential amp.       -0.1661 Ry
        Total length         46.3494 bohr
 

     total cpu time spent up to now is      859.6 secs

     total energy              =   -2930.16709256 Ry
     estimated scf accuracy    <       0.00008404 Ry

     iteration # 58     ecut=    29.40 Ry     beta= 0.05
     Davidson diagonalization with overlap
     c_bands:  1 eigenvalues not converged
     c_bands:  1 eigenvalues not converged
     ethr =  2.15E-08,  avg # of iterations = 16.4

     negative rho (up, down):  1.693E-02 0.000E+00
 
     Adding external electric field

     Computed dipole along edir(3) : 
        Dipole                0.9439 Ry au,          2.3991 Debye
        Dipole field          0.0018 Ry au, 
 
        Potential amp.       -0.1651 Ry
        Total length         46.3494 bohr
 

     total cpu time spent up to now is      879.6 secs

     total energy              =   -2930.16710779 Ry
     estimated scf accuracy    <       0.00014290 Ry

     iteration # 59     ecut=    29.40 Ry     beta= 0.05
     Davidson diagonalization with overlap
     ethr =  2.15E-08,  avg # of iterations = 12.5

     negative rho (up, down):  1.709E-02 0.000E+00
 
     Adding external electric field

     Computed dipole along edir(3) : 
        Dipole                0.9396 Ry au,          2.3881 Debye
        Dipole field          0.0018 Ry au, 
 
        Potential amp.       -0.1644 Ry
        Total length         46.3494 bohr
 

     total cpu time spent up to now is      896.1 secs

     total energy              =   -2930.16712924 Ry
     estimated scf accuracy    <       0.00001537 Ry

     iteration # 60     ecut=    29.40 Ry     beta= 0.05
     Davidson diagonalization with overlap
     c_bands:  1 eigenvalues not converged
     ethr =  3.94E-09,  avg # of iterations = 14.9

     negative rho (up, down):  1.721E-02 0.000E+00
 
     Adding external electric field

     Computed dipole along edir(3) : 
        Dipole                0.9388 Ry au,          2.3862 Debye
        Dipole field          0.0018 Ry au, 
 
        Potential amp.       -0.1642 Ry
        Total length         46.3494 bohr
 

     total cpu time spent up to now is      916.7 secs

     total energy              =   -2930.16713840 Ry
     estimated scf accuracy    <       0.00002770 Ry

     iteration # 61     ecut=    29.40 Ry     beta= 0.05
     Davidson diagonalization with overlap
     ethr =  3.94E-09,  avg # of iterations =  5.0

     negative rho (up, down):  1.732E-02 0.000E+00
 
     Adding external electric field

     Computed dipole along edir(3) : 
        Dipole                0.9378 Ry au,          2.3836 Debye
        Dipole field          0.0018 Ry au, 
 
        Potential amp.       -0.1640 Ry
        Total length         46.3494 bohr
 

     total cpu time spent up to now is      928.3 secs

     total energy              =   -2930.16713687 Ry
     estimated scf accuracy    <       0.00001718 Ry

     iteration # 62     ecut=    29.40 Ry     beta= 0.05
     Davidson diagonalization with overlap
     c_bands:  1 eigenvalues not converged
     c_bands:  1 eigenvalues not converged
     ethr =  3.94E-09,  avg # of iterations = 17.2

     negative rho (up, down):  1.727E-02 0.000E+00
 
     Adding external electric field

     Computed dipole along edir(3) : 
        Dipole                0.9359 Ry au,          2.3787 Debye
        Dipole field          0.0018 Ry au, 
 
        Potential amp.       -0.1637 Ry
        Total length         46.3494 bohr
 

     total cpu time spent up to now is      951.9 secs

     total energy              =   -2930.16714601 Ry
     estimated scf accuracy    <       0.00002171 Ry

     iteration # 63     ecut=    29.40 Ry     beta= 0.05
     Davidson diagonalization with overlap
     ethr =  3.94E-09,  avg # of iterations =  9.5

     negative rho (up, down):  1.723E-02 0.000E+00
 
     Adding external electric field

     Computed dipole along edir(3) : 
        Dipole                0.9349 Ry au,          2.3763 Debye
        Dipole field          0.0018 Ry au, 
 
        Potential amp.       -0.1635 Ry
        Total length         46.3494 bohr
 

     total cpu time spent up to now is      965.1 secs

     total energy              =   -2930.16714906 Ry
     estimated scf accuracy    <       0.00000766 Ry

     iteration # 64     ecut=    29.40 Ry     beta= 0.05
     Davidson diagonalization with overlap
     ethr =  1.96E-09,  avg # of iterations = 11.2

     negative rho (up, down):  1.725E-02 0.000E+00
 
     Adding external electric field

     Computed dipole along edir(3) : 
        Dipole                0.9350 Ry au,          2.3765 Debye
        Dipole field          0.0018 Ry au, 
 
        Potential amp.       -0.1636 Ry
        Total length         46.3494 bohr
 

     total cpu time spent up to now is      982.4 secs

     total energy              =   -2930.16715409 Ry
     estimated scf accuracy    <       0.00000190 Ry

     iteration # 65     ecut=    29.40 Ry     beta= 0.05
     Davidson diagonalization with overlap
     ethr =  4.87E-10,  avg # of iterations =  9.4

     negative rho (up, down):  1.727E-02 0.000E+00
 
     Adding external electric field

     Computed dipole along edir(3) : 
        Dipole                0.9348 Ry au,          2.3761 Debye
        Dipole field          0.0018 Ry au, 
 
        Potential amp.       -0.1635 Ry
        Total length         46.3494 bohr
 

     total cpu time spent up to now is      995.6 secs

     total energy              =   -2930.16715745 Ry
     estimated scf accuracy    <       0.00000080 Ry

     iteration # 66     ecut=    29.40 Ry     beta= 0.05
     Davidson diagonalization with overlap
     ethr =  2.06E-10,  avg # of iterations = 11.5

     negative rho (up, down):  1.721E-02 0.000E+00
 
     Adding external electric field

     Computed dipole along edir(3) : 
        Dipole                0.9344 Ry au,          2.3751 Debye
        Dipole field          0.0018 Ry au, 
 
        Potential amp.       -0.1635 Ry
        Total length         46.3494 bohr
 

     total cpu time spent up to now is     1011.9 secs

     total energy              =   -2930.16716007 Ry
     estimated scf accuracy    <       0.00000111 Ry

     iteration # 67     ecut=    29.40 Ry     beta= 0.05
     Davidson diagonalization with overlap
     ethr =  2.06E-10,  avg # of iterations = 13.0

     negative rho (up, down):  1.722E-02 0.000E+00
 
     Adding external electric field

     Computed dipole along edir(3) : 
        Dipole                0.9342 Ry au,          2.3745 Debye
        Dipole field          0.0018 Ry au, 
 
        Potential amp.       -0.1634 Ry
        Total length         46.3494 bohr
 

     total cpu time spent up to now is     1030.6 secs

     total energy              =   -2930.16716290 Ry
     estimated scf accuracy    <       0.00000052 Ry

     iteration # 68     ecut=    29.40 Ry     beta= 0.05
     Davidson diagonalization with overlap
     ethr =  1.32E-10,  avg # of iterations =  5.9

     negative rho (up, down):  1.724E-02 0.000E+00
 
     Adding external electric field

     Computed dipole along edir(3) : 
        Dipole                0.9340 Ry au,          2.3741 Debye
        Dipole field          0.0018 Ry au, 
 
        Potential amp.       -0.1634 Ry
        Total length         46.3494 bohr
 

     total cpu time spent up to now is     1042.4 secs

     total energy              =   -2930.16716531 Ry
     estimated scf accuracy    <       0.00000031 Ry

     iteration # 69     ecut=    29.40 Ry     beta= 0.05
     Davidson diagonalization with overlap
     c_bands:  1 eigenvalues not converged
     c_bands:  1 eigenvalues not converged
     ethr =  8.04E-11,  avg # of iterations = 13.8

     negative rho (up, down):  1.724E-02 0.000E+00
 
     Adding external electric field

     Computed dipole along edir(3) : 
        Dipole                0.9337 Ry au,          2.3732 Debye
        Dipole field          0.0018 Ry au, 
 
        Potential amp.       -0.1633 Ry
        Total length         46.3494 bohr
 

     total cpu time spent up to now is     1061.1 secs

     total energy              =   -2930.16716750 Ry
     estimated scf accuracy    <       0.00000031 Ry

     iteration # 70     ecut=    29.40 Ry     beta= 0.05
     Davidson diagonalization with overlap
     ethr =  8.04E-11,  avg # of iterations = 13.3

     negative rho (up, down):  1.727E-02 0.000E+00
 
     Adding external electric field

     Computed dipole along edir(3) : 
        Dipole                0.9337 Ry au,          2.3731 Debye
        Dipole field          0.0018 Ry au, 
 
        Potential amp.       -0.1633 Ry
        Total length         46.3494 bohr
 

     total cpu time spent up to now is     1079.4 secs

     total energy              =   -2930.16716949 Ry
     estimated scf accuracy    <       0.00000034 Ry

     iteration # 71     ecut=    29.40 Ry     beta= 0.05
     Davidson diagonalization with overlap
     ethr =  8.04E-11,  avg # of iterations = 12.3

     negative rho (up, down):  1.728E-02 0.000E+00
 
     Adding external electric field

     Computed dipole along edir(3) : 
        Dipole                0.9338 Ry au,          2.3735 Debye
        Dipole field          0.0018 Ry au, 
 
        Potential amp.       -0.1634 Ry
        Total length         46.3494 bohr
 

     total cpu time spent up to now is     1096.2 secs

     End of self-consistent calculation

          k = 0.0000 0.0000 0.0000 ( 18029 PWs)   bands (ev):

   -55.8208 -55.8104 -55.7844 -55.7742 -55.7116 -55.6973 -55.6749 -55.6023
   -55.6009 -55.5899 -55.5791 -55.5563 -55.5245 -55.4869 -54.8464 -54.8124
   -32.3803 -32.2932 -32.1881 -32.1706 -32.1274 -32.1226 -32.1154 -32.0965
   -32.0694 -32.0521 -32.0504 -32.0246 -31.9942 -31.9917 -31.9795 -31.9588
   -31.9426 -31.9411 -31.9316 -31.9150 -31.8930 -31.8870 -31.8841 -31.8722
   -31.8629 -31.8463 -31.8443 -31.8210 -31.8157 -31.8151 -31.7898 -31.7622
   -31.7560 -31.7342 -31.7333 -31.7306 -31.7088 -31.7087 -31.6949 -31.6774
   -31.6758 -31.6752 -31.2566 -31.1587 -31.1365 -31.0732 -30.9872 -30.8760
   -19.8384 -16.5910 -16.2966 -16.1504 -16.0167 -15.9674 -15.8525 -15.6945
   -15.6155 -15.5492 -15.4938 -15.4413 -15.4041 -15.4028 -15.3733 -15.3597
   -15.3539 -15.3466 -15.2726 -15.2707 -15.2357 -15.2182 -15.2074 -15.1183
   -15.0575 -14.9978 -14.9508 -14.8923 -14.8394 -14.8253 -13.3475 -13.2290
    -9.3205  -5.5653  -5.5165  -3.9402  -3.7635  -3.7237  -3.7080  -3.6514
    -3.5281  -3.4234  -3.3964  -3.1061  -3.0184  -2.9885  -2.9777  -2.9652
    -2.8224  -2.7798  -2.6651  -2.6621  -2.6504  -2.6458  -2.6258  -2.5904
    -2.5839  -2.5391  -2.5163  -2.4071  -2.3675  -2.2578  -2.2442  -2.2156
    -2.1562  -2.1310  -2.1003  -2.0875  -2.0578  -2.0537  -2.0515  -2.0066
    -1.9060  -1.8187  -1.7512  -1.6689  -1.6306  -1.5376  -1.3790  -1.3098
    -1.2692  -1.2336  -1.1843  -1.1654  -1.1351  -1.1131  -1.0919  -1.0821
    -0.9840  -0.8719  -0.8617  -0.7633  -0.7032  -0.6835  -0.6689  -0.5783
    -0.5596  -0.5491  -0.4552  -0.3140  -0.3042  -0.3002  -0.1814  -0.1504
    -0.1274  -0.0825  -0.0578  -0.0230   0.0076   0.0630   0.1071   0.1176
     0.1645   0.1818   0.2075   0.3088   0.3613   0.3728   0.4270   0.4640
     0.6458   0.6659   0.8074   0.8729   1.0795   1.1779   1.2327   1.3466
     1.7654   1.8232   3.3445   3.3759   3.4010   3.4509   3.4968   3.5387
     3.5919   3.8043   3.8112   3.8375   3.9027

          k = 0.0000 0.0419 0.0000 ( 17933 PWs)   bands (ev):

   -55.8162 -55.8051 -55.7889 -55.7794 -55.7075 -55.6956 -55.6789 -55.6038
   -55.5993 -55.5852 -55.5762 -55.5611 -55.5272 -55.4881 -54.8414 -54.8173
   -32.3224 -32.2393 -32.1368 -32.1288 -32.1153 -32.1093 -32.0830 -32.0709
   -32.0585 -32.0348 -32.0226 -32.0149 -32.0124 -31.9931 -31.9805 -31.9715
   -31.9657 -31.9541 -31.9338 -31.9216 -31.9017 -31.8979 -31.8830 -31.8704
   -31.8590 -31.8568 -31.8507 -31.8397 -31.8192 -31.8121 -31.8025 -31.7863
   -31.7763 -31.7635 -31.7516 -31.7363 -31.7358 -31.7355 -31.7242 -31.7057
   -31.6994 -31.6722 -31.2026 -31.1553 -31.1394 -31.0607 -30.9996 -30.9331
   -19.8346 -16.4567 -16.1763 -16.0410 -15.9251 -15.8610 -15.8211 -15.7185
   -15.6332 -15.5902 -15.4856 -15.4660 -15.4551 -15.4353 -15.3676 -15.3498
   -15.3357 -15.3196 -15.2950 -15.2938 -15.2624 -15.2465 -15.1717 -15.1610
   -15.1063 -15.0536 -15.0096 -14.9606 -14.9045 -14.8946 -13.3506 -13.2680
    -9.3212  -5.5549  -5.5077  -3.7544  -3.6035  -3.5685  -3.5484  -3.5207
    -3.4949  -3.2759  -3.1520  -3.0924  -3.0038  -2.9480  -2.8874  -2.8525
    -2.8299  -2.8218  -2.7797  -2.7639  -2.7368  -2.7219  -2.6867  -2.6068
    -2.5921  -2.5885  -2.5590  -2.5529  -2.5342  -2.4186  -2.3412  -2.3223
    -2.2382  -2.2214  -2.1429  -2.1242  -2.0787  -2.0679  -2.0003  -1.9425
    -1.8334  -1.7068  -1.6346  -1.6027  -1.5271  -1.5017  -1.4994  -1.2625
    -1.2350  -1.1681  -1.1412  -1.0444  -1.0170  -0.9510  -0.9297  -0.9109
    -0.8901  -0.7973  -0.7823  -0.7675  -0.7331  -0.7163  -0.6519  -0.6067
    -0.5532  -0.5145  -0.4823  -0.4440  -0.3510  -0.3227  -0.3033  -0.2932
    -0.2643  -0.1735  -0.1204  -0.1053  -0.0623  -0.0143   0.0197   0.0322
     0.0773   0.0809   0.1600   0.2385   0.2498   0.3041   0.3753   0.4794
     0.4894   0.5460   0.5806   0.7800   0.7865   1.1070   1.3654   1.4370
     1.7145   1.7357   3.3824   3.5199   3.5467   3.6072   3.6195   3.6800
     3.7130   3.7266   3.7712   3.8579   3.8673

          k = 0.0000-0.0839 0.0000 ( 17884 PWs)   bands (ev):

   -55.8090 -55.7960 -55.7926 -55.7919 -55.7017 -55.6940 -55.6846 -55.6053
   -55.5978 -55.5758 -55.5729 -55.5708 -55.5305 -55.4894 -54.8299 -54.8287
   -32.1812 -32.1809 -32.1153 -32.1023 -32.1005 -32.0966 -32.0816 -32.0753
   -32.0627 -32.0166 -32.0105 -32.0048 -31.9922 -31.9853 -31.9804 -31.9547
   -31.9435 -31.9359 -31.9277 -31.9226 -31.9091 -31.9018 -31.8903 -31.8865
   -31.8804 -31.8771 -31.8567 -31.8558 -31.8373 -31.8293 -31.8289 -31.8238
   -31.8175 -31.7997 -31.7991 -31.7775 -31.7716 -31.7368 -31.7344 -31.7167
   -31.6979 -31.6696 -31.1479 -31.1464 -31.0702 -31.0691 -31.0307 -31.0296
   -19.8307 -16.1268 -16.1102 -15.9022 -15.8974 -15.7816 -15.7623 -15.7323
   -15.6587 -15.6399 -15.6165 -15.5601 -15.5301 -15.4615 -15.3712 -15.3660
   -15.2991 -15.2827 -15.2509 -15.2282 -15.2242 -15.1891 -15.1863 -15.1550
   -15.1491 -15.1452 -15.0837 -15.0322 -15.0295 -15.0265 -13.3318 -13.3296
    -9.3220  -5.5448  -5.5007  -3.5649  -3.3301  -3.2953  -3.2387  -3.2284
    -3.1693  -3.1527  -3.1496  -3.1267  -3.1076  -3.0971  -3.0437  -2.9566
    -2.9403  -2.9261  -2.8828  -2.8079  -2.7645  -2.7552  -2.7183  -2.6821
    -2.6545  -2.6286  -2.6044  -2.5880  -2.5732  -2.4772  -2.4281  -2.3492
    -2.2988  -2.2292  -2.1987  -2.0960  -1.9774  -1.8993  -1.7826  -1.7651
    -1.7191  -1.6652  -1.5855  -1.5734  -1.5369  -1.4413  -1.3140  -1.2725
    -1.2382  -1.2304  -1.2021  -1.1890  -1.1469  -1.0967  -1.0754  -1.0584
    -0.9539  -0.9395  -0.7056  -0.7017  -0.6772  -0.5437  -0.5178  -0.4863
    -0.4726  -0.4417  -0.4379  -0.4220  -0.3282  -0.3109  -0.3008  -0.2747
    -0.2527  -0.2420  -0.1958  -0.1824  -0.1637  -0.1405  -0.1174  -0.0846
    -0.0495  -0.0229   0.0004   0.0336   0.0893   0.1733   0.3358   0.3662
     0.3922   0.3996   0.6807   0.6885   0.8364   0.9006   1.5015   1.5036
     1.6550   1.6574   3.2997   3.6146   3.6269   3.6340   3.6708   3.7504
     3.7740   3.8952   3.9315   3.9490   3.9599

          k = 0.0380 0.0000 0.0000 ( 17913 PWs)   bands (ev):

   -55.8207 -55.8103 -55.7843 -55.7741 -55.7116 -55.6972 -55.6748 -55.6021
   -55.6005 -55.5901 -55.5791 -55.5562 -55.5244 -55.4868 -54.8463 -54.8123
   -32.3804 -32.2941 -32.1929 -32.1708 -32.1272 -32.1251 -32.1153 -32.0965
   -32.0730 -32.0522 -32.0503 -32.0060 -31.9941 -31.9917 -31.9765 -31.9584
   -31.9411 -31.9367 -31.9217 -31.9147 -31.9054 -31.8925 -31.8839 -31.8627
   -31.8542 -31.8463 -31.8437 -31.8210 -31.8155 -31.8152 -31.7869 -31.7708
   -31.7558 -31.7415 -31.7332 -31.7305 -31.7085 -31.7084 -31.6938 -31.6807
   -31.6773 -31.6762 -31.2561 -31.1621 -31.1344 -31.0730 -30.9870 -30.8757
   -19.8382 -16.5183 -16.2051 -16.0923 -16.0120 -15.8727 -15.8515 -15.7516
   -15.6280 -15.5598 -15.5369 -15.5150 -15.5109 -15.5034 -15.4486 -15.4148
   -15.3881 -15.3499 -15.2788 -15.2273 -15.2086 -15.1174 -15.1119 -15.0795
   -15.0635 -15.0258 -14.9598 -14.9243 -14.8850 -14.8232 -13.3441 -13.2287
    -9.3197  -5.5627  -5.5119  -3.8626  -3.7230  -3.5772  -3.4950  -3.4469
    -3.3773  -3.3628  -3.3323  -3.2893  -3.0928  -3.0406  -2.9506  -2.9200
    -2.9105  -2.8410  -2.7632  -2.7319  -2.6871  -2.6380  -2.5840  -2.5253
    -2.4344  -2.4298  -2.4189  -2.3649  -2.3549  -2.2750  -2.1858  -2.1777
    -2.1563  -2.0923  -2.0483  -2.0146  -1.9697  -1.9113  -1.8989  -1.8750
    -1.8120  -1.7916  -1.7102  -1.6628  -1.6113  -1.5304  -1.4751  -1.4207
    -1.3287  -1.2903  -1.2549  -1.2412  -1.2053  -1.1303  -1.1140  -1.0724
    -1.0433  -1.0253  -0.8771  -0.7627  -0.7026  -0.6765  -0.6551  -0.6261
    -0.6078  -0.4890  -0.4669  -0.4185  -0.3886  -0.3121  -0.2412  -0.2330
    -0.1713  -0.1457  -0.1386  -0.0701  -0.0539  -0.0388   0.0042   0.0386
     0.0578   0.0818   0.1755   0.2182   0.2926   0.3392   0.3746   0.4296
     0.4406   0.5135   0.7501   0.8517   1.0797   1.1039   1.1898   1.3144
     1.6493   1.7359   3.3427   3.4255   3.4493   3.6123   3.6312   3.6784
     3.6969   3.7593   3.7826   3.8139   3.8469

          k = 0.0380 0.0419 0.0000 ( 17878 PWs)   bands (ev):

   -55.8161 -55.8049 -55.7888 -55.7794 -55.7075 -55.6956 -55.6789 -55.6037
   -55.5991 -55.5853 -55.5762 -55.5611 -55.5272 -55.4881 -54.8413 -54.8172
   -32.3225 -32.2402 -32.1421 -32.1292 -32.1152 -32.1092 -32.0830 -32.0735
   -32.0584 -32.0352 -32.0230 -32.0184 -31.9977 -31.9925 -31.9806 -31.9717
   -31.9630 -31.9448 -31.9338 -31.9130 -31.9055 -31.8975 -31.8955 -31.8687
   -31.8567 -31.8544 -31.8433 -31.8384 -31.8193 -31.8122 -31.7986 -31.7879
   -31.7766 -31.7635 -31.7523 -31.7426 -31.7385 -31.7342 -31.7267 -31.7057
   -31.7010 -31.6778 -31.2022 -31.1580 -31.1384 -31.0605 -30.9997 -30.9330
   -19.8344 -16.3900 -16.0907 -15.9957 -15.9110 -15.8186 -15.7716 -15.7122
   -15.6839 -15.6006 -15.5211 -15.5104 -15.4866 -15.4445 -15.4376 -15.4174
   -15.3940 -15.3044 -15.2995 -15.2777 -15.2430 -15.1912 -15.1540 -15.1419
   -15.1304 -15.0795 -15.0349 -14.9733 -14.9515 -14.9015 -13.3482 -13.2683
    -9.3207  -5.5532  -5.5048  -3.6889  -3.6396  -3.4173  -3.3377  -3.2729
    -3.2318  -3.1885  -3.1436  -3.1270  -3.0250  -2.9172  -2.8799  -2.8591
    -2.8294  -2.8141  -2.7372  -2.7057  -2.6960  -2.6743  -2.6356  -2.6032
    -2.5776  -2.5648  -2.5424  -2.4790  -2.4449  -2.4339  -2.3458  -2.3131
    -2.1988  -2.1789  -2.1396  -2.1208  -2.0501  -1.9989  -1.9227  -1.8667
    -1.7847  -1.7547  -1.6880  -1.6049  -1.5673  -1.4368  -1.3751  -1.3261
    -1.3118  -1.2554  -1.1812  -1.1432  -1.1182  -1.0792  -1.0384  -0.9559
    -0.9269  -0.8797  -0.8485  -0.8316  -0.7799  -0.7412  -0.6793  -0.6546
    -0.5763  -0.5437  -0.5219  -0.4911  -0.4725  -0.4454  -0.4131  -0.3852
    -0.3487  -0.3236  -0.3035  -0.2400  -0.1753  -0.1452  -0.0940  -0.0232
     0.0252   0.0546   0.1558   0.2359   0.2892   0.3280   0.4061   0.4431
     0.4777   0.5459   0.6213   0.7111   0.7536   1.0561   1.3778   1.4412
     1.6361   1.7119   3.3376   3.5167   3.6068   3.6256   3.6488   3.7327
     3.7514   3.8359   3.8475   3.8671   3.9038

          k = 0.0380-0.0839 0.0000 ( 17916 PWs)   bands (ev):

   -55.8090 -55.7960 -55.7925 -55.7919 -55.7018 -55.6940 -55.6847 -55.6053
   -55.5977 -55.5758 -55.5729 -55.5708 -55.5305 -55.4894 -54.8299 -54.8287
   -32.1814 -32.1812 -32.1160 -32.1026 -32.1011 -32.0967 -32.0817 -32.0758
   -32.0628 -32.0268 -32.0187 -32.0112 -31.9934 -31.9614 -31.9607 -31.9563
   -31.9434 -31.9347 -31.9265 -31.9227 -31.9043 -31.9020 -31.8927 -31.8913
   -31.8875 -31.8867 -31.8663 -31.8559 -31.8293 -31.8289 -31.8259 -31.8160
   -31.8111 -31.8001 -31.7878 -31.7758 -31.7714 -31.7481 -31.7384 -31.7167
   -31.7031 -31.6765 -31.1489 -31.1474 -31.0701 -31.0690 -31.0307 -31.0297
   -19.8307 -16.0754 -16.0703 -15.8485 -15.8442 -15.8024 -15.7172 -15.6832
   -15.6417 -15.6177 -15.6051 -15.5563 -15.5108 -15.4378 -15.3976 -15.3705
   -15.3490 -15.3141 -15.2944 -15.2607 -15.2431 -15.2365 -15.2249 -15.2009
   -15.1930 -15.1282 -15.0962 -15.0752 -15.0677 -15.0106 -13.3316 -13.3294
    -9.3218  -5.5438  -5.4999  -3.5632  -3.3139  -3.2781  -3.1224  -3.0380
    -3.0284  -3.0134  -2.9952  -2.9271  -2.9091  -2.8917  -2.8841  -2.8680
    -2.8568  -2.8350  -2.7998  -2.7610  -2.7298  -2.7031  -2.6816  -2.6374
    -2.6162  -2.6110  -2.6027  -2.5615  -2.5369  -2.4774  -2.4654  -2.3803
    -2.3479  -2.1467  -2.0766  -1.9891  -1.9596  -1.8773  -1.7571  -1.7523
    -1.7474  -1.6960  -1.6820  -1.6251  -1.6064  -1.5675  -1.5536  -1.5061
    -1.4344  -1.4272  -1.3810  -1.3652  -1.1758  -1.1674  -1.1081  -1.0490
    -1.0352  -0.9014  -0.8815  -0.8038  -0.7826  -0.6948  -0.6654  -0.6126
    -0.5768  -0.5700  -0.5460  -0.5054  -0.4925  -0.4609  -0.4132  -0.3925
    -0.3768  -0.3559  -0.3095  -0.2986  -0.2345  -0.1928  -0.1311  -0.0369
     0.0136   0.0302   0.1732   0.1997   0.2476   0.2734   0.2995   0.3471
     0.4509   0.4981   0.6245   0.6326   0.8250   0.8773   1.5167   1.5182
     1.6450   1.6497   3.2986   3.5549   3.5981   3.6547   3.6835   3.7375
     3.7482   3.9168   3.9419   3.9572   4.0089

          k = 0.0380-0.0419 0.0000 ( 17876 PWs)   bands (ev):

   -55.8161 -55.8049 -55.7888 -55.7794 -55.7075 -55.6956 -55.6788 -55.6037
   -55.5991 -55.5853 -55.5762 -55.5611 -55.5272 -55.4881 -54.8413 -54.8172
   -32.3225 -32.2402 -32.1421 -32.1292 -32.1152 -32.1092 -32.0830 -32.0734
   -32.0584 -32.0352 -32.0228 -32.0185 -31.9978 -31.9925 -31.9806 -31.9716
   -31.9631 -31.9447 -31.9338 -31.9130 -31.9054 -31.8975 -31.8956 -31.8687
   -31.8567 -31.8544 -31.8437 -31.8385 -31.8192 -31.8122 -31.7981 -31.7882
   -31.7763 -31.7635 -31.7504 -31.7438 -31.7407 -31.7347 -31.7239 -31.7057
   -31.7018 -31.6777 -31.2022 -31.1580 -31.1384 -31.0605 -30.9997 -30.9330
   -19.8344 -16.3900 -16.0907 -15.9957 -15.9110 -15.8187 -15.7715 -15.7122
   -15.6839 -15.6007 -15.5218 -15.5099 -15.4866 -15.4449 -15.4375 -15.4170
   -15.3952 -15.3021 -15.2997 -15.2768 -15.2446 -15.1912 -15.1540 -15.1417
   -15.1302 -15.0797 -15.0341 -14.9756 -14.9513 -14.9008 -13.3482 -13.2683
    -9.3207  -5.5537  -5.5043  -3.6888  -3.6387  -3.4177  -3.3379  -3.2717
    -3.2322  -3.1867  -3.1409  -3.1296  -3.0249  -2.9176  -2.8793  -2.8600
    -2.8300  -2.8133  -2.7340  -2.7077  -2.6971  -2.6750  -2.6341  -2.6027
    -2.5823  -2.5607  -2.5420  -2.4757  -2.4474  -2.4327  -2.3426  -2.3108
    -2.1981  -2.1780  -2.1375  -2.1220  -2.0454  -2.0008  -1.9246  -1.8647
    -1.7859  -1.7542  -1.6869  -1.6085  -1.5759  -1.4375  -1.3759  -1.3271
    -1.3163  -1.2570  -1.1837  -1.1442  -1.1173  -1.0810  -1.0391  -0.9554
    -0.9289  -0.8813  -0.8504  -0.8333  -0.7832  -0.7399  -0.6778  -0.6525
    -0.5845  -0.5432  -0.5238  -0.4960  -0.4705  -0.4494  -0.4154  -0.3863
    -0.3519  -0.3206  -0.2993  -0.2408  -0.1721  -0.1451  -0.0903  -0.0218
     0.0269   0.0575   0.1555   0.2362   0.2916   0.3350   0.4064   0.4452
     0.4918   0.5418   0.6223   0.7140   0.7543   1.0556   1.3775   1.4415
     1.6356   1.7127   3.3380   3.5196   3.6084   3.6290   3.6511   3.7243
     3.7489   3.8245   3.8399   3.8573   3.8947

          k =-0.0760-0.0000 0.0000 ( 17886 PWs)   bands (ev):

   -55.8206 -55.8102 -55.7843 -55.7741 -55.7116 -55.6971 -55.6748 -55.6021
   -55.6001 -55.5904 -55.5791 -55.5562 -55.5244 -55.4868 -54.8463 -54.8122
   -32.3806 -32.2950 -32.1975 -32.1711 -32.1276 -32.1270 -32.1152 -32.0966
   -32.0765 -32.0524 -32.0503 -31.9942 -31.9917 -31.9735 -31.9732 -31.9583
   -31.9410 -31.9379 -31.9317 -31.9146 -31.9110 -31.8924 -31.8843 -31.8627
   -31.8466 -31.8440 -31.8226 -31.8206 -31.8154 -31.8151 -31.7948 -31.7818
   -31.7564 -31.7549 -31.7328 -31.7302 -31.7081 -31.7074 -31.6928 -31.6849
   -31.6776 -31.6774 -31.2557 -31.1655 -31.1331 -31.0730 -30.9869 -30.8758
   -19.8380 -16.4183 -16.1590 -15.9704 -15.9644 -15.8529 -15.8302 -15.7536
   -15.6728 -15.6143 -15.5942 -15.5740 -15.5562 -15.5348 -15.5094 -15.4682
   -15.3930 -15.3762 -15.2857 -15.2072 -15.1688 -15.1684 -15.1657 -15.0990
   -15.0350 -15.0070 -14.9741 -14.8840 -14.8721 -14.8234 -13.3409 -13.2284
    -9.3188  -5.5606  -5.5073  -3.8419  -3.7672  -3.4996  -3.4247  -3.3563
    -3.2285  -3.2073  -3.1954  -3.0984  -3.0863  -3.0749  -3.0135  -2.8967
    -2.8859  -2.7550  -2.7064  -2.6992  -2.6800  -2.5848  -2.4195  -2.4136
    -2.3932  -2.3370  -2.3273  -2.3199  -2.2311  -2.2141  -2.1695  -2.1497
    -2.0982  -2.0962  -2.0824  -2.0518  -2.0348  -2.0004  -1.9580  -1.9451
    -1.8742  -1.6736  -1.6086  -1.5871  -1.5218  -1.4815  -1.4774  -1.4115
    -1.3857  -1.3626  -1.3229  -1.2900  -1.2299  -1.2239  -1.1714  -1.1188
    -1.0974  -1.0879  -1.0234  -0.9831  -0.9621  -0.7187  -0.6330  -0.6002
    -0.5728  -0.5647  -0.5565  -0.5188  -0.4744  -0.3700  -0.3148  -0.3100
    -0.2902  -0.2545  -0.1882  -0.1173  -0.0974  -0.0501  -0.0397  -0.0325
     0.0107   0.0347   0.1066   0.1497   0.2251   0.2649   0.2977   0.4854
     0.5714   0.5878   0.7146   0.8402   0.8687   1.0958   1.2121   1.2886
     1.5108   1.6726   3.3012   3.4000   3.4246   3.4587   3.6161   3.6440
     3.7278   3.7545   3.7810   3.8024   3.8519

          k =-0.0760 0.0419 0.0000 ( 17914 PWs)   bands (ev):

   -55.8161 -55.8049 -55.7889 -55.7794 -55.7076 -55.6955 -55.6789 -55.6037
   -55.5989 -55.5856 -55.5762 -55.5611 -55.5273 -55.4881 -54.8413 -54.8173
   -32.3228 -32.2412 -32.1474 -32.1296 -32.1153 -32.1092 -32.0831 -32.0762
   -32.0584 -32.0356 -32.0230 -32.0224 -31.9938 -31.9808 -31.9736 -31.9719
   -31.9609 -31.9362 -31.9330 -31.9258 -31.9041 -31.8987 -31.8974 -31.8681
   -31.8589 -31.8564 -31.8396 -31.8192 -31.8131 -31.8096 -31.7991 -31.7944
   -31.7907 -31.7636 -31.7469 -31.7451 -31.7450 -31.7367 -31.7262 -31.7057
   -31.7031 -31.6838 -31.2019 -31.1609 -31.1377 -31.0605 -30.9997 -30.9330
   -19.8343 -16.2989 -16.0511 -15.8782 -15.8729 -15.8144 -15.7444 -15.7046
   -15.6650 -15.6127 -15.5632 -15.5628 -15.5088 -15.5051 -15.4812 -15.4720
   -15.3679 -15.3540 -15.2969 -15.2723 -15.2548 -15.2220 -15.2044 -15.1447
   -15.1367 -15.0836 -15.0445 -14.9706 -14.9486 -14.9037 -13.3460 -13.2687
    -9.3202  -5.5523  -5.5016  -3.6794  -3.6577  -3.3427  -3.1610  -3.1518
    -3.0750  -3.0118  -2.9387  -2.9180  -2.9106  -2.8906  -2.8865  -2.8622
    -2.8060  -2.7932  -2.7908  -2.6648  -2.6349  -2.5936  -2.5752  -2.5574
    -2.5389  -2.4909  -2.4308  -2.4089  -2.3838  -2.3406  -2.2995  -2.2891
    -2.2312  -2.1695  -2.1481  -2.0765  -1.9748  -1.9585  -1.9220  -1.8901
    -1.8642  -1.7596  -1.6173  -1.5906  -1.5039  -1.4697  -1.4019  -1.3763
    -1.3439  -1.3220  -1.2829  -1.2504  -1.1825  -1.1529  -1.1291  -1.0741
    -1.0579  -1.0513  -0.9812  -0.9459  -0.9356  -0.9288  -0.8660  -0.7917
    -0.7143  -0.7031  -0.6765  -0.6105  -0.5579  -0.5481  -0.5248  -0.4767
    -0.4665  -0.3898  -0.3795  -0.2659  -0.1994  -0.1909  -0.1345   0.0253
     0.0294   0.0631   0.2113   0.2741   0.2790   0.3410   0.4464   0.5201
     0.5596   0.6366   0.6472   0.7144   0.7334   0.9008   1.3930   1.4445
     1.5603   1.6974   3.3212   3.4491   3.5171   3.6076   3.6290   3.6647
     3.6691   3.8038   3.8302   3.9090   3.9531

          k =-0.0760-0.0839 0.0000 ( 17948 PWs)   bands (ev):

   -55.8090 -55.7960 -55.7925 -55.7919 -55.7018 -55.6940 -55.6847 -55.6053
   -55.5976 -55.5759 -55.5729 -55.5709 -55.5306 -55.4895 -54.8300 -54.8287
   -32.1817 -32.1815 -32.1167 -32.1030 -32.1016 -32.0968 -32.0817 -32.0763
   -32.0630 -32.0336 -32.0259 -32.0114 -31.9946 -31.9577 -31.9469 -31.9384
   -31.9371 -31.9334 -31.9252 -31.9219 -31.9046 -31.9017 -31.8982 -31.8972
   -31.8943 -31.8912 -31.8797 -31.8560 -31.8290 -31.8282 -31.8276 -31.8055
   -31.8009 -31.7833 -31.7801 -31.7733 -31.7704 -31.7700 -31.7429 -31.7167
   -31.7091 -31.6846 -31.1499 -31.1483 -31.0700 -31.0690 -31.0308 -31.0297
   -19.8306 -16.0231 -15.9926 -15.8753 -15.7626 -15.7497 -15.7069 -15.6637
   -15.6159 -15.5574 -15.5546 -15.5065 -15.4874 -15.4833 -15.4388 -15.4058
   -15.3584 -15.3523 -15.3407 -15.3398 -15.2859 -15.2823 -15.2358 -15.2282
   -15.2076 -15.1685 -15.1651 -15.0949 -15.0593 -15.0047 -13.3314 -13.3292
    -9.3216  -5.5429  -5.4991  -3.5544  -3.3119  -3.2785  -3.1082  -2.9806
    -2.9708  -2.9120  -2.8282  -2.7909  -2.7462  -2.6962  -2.6928  -2.6708
    -2.6587  -2.6450  -2.6410  -2.6329  -2.5872  -2.5679  -2.5260  -2.4820
    -2.4743  -2.4608  -2.4549  -2.4149  -2.3991  -2.3875  -2.3802  -2.3744
    -2.3029  -2.2268  -2.1558  -2.0808  -2.0274  -2.0076  -1.9764  -1.9417
    -1.9069  -1.8895  -1.8725  -1.7485  -1.7260  -1.5773  -1.5615  -1.5385
    -1.5296  -1.4763  -1.4690  -1.3472  -1.2711  -1.2651  -1.1983  -1.1755
    -1.1469  -1.0985  -1.0763  -0.9960  -0.9540  -0.9111  -0.8571  -0.7962
    -0.7844  -0.7186  -0.7083  -0.6276  -0.6068  -0.5855  -0.5808  -0.5103
    -0.4764  -0.3970  -0.3860  -0.3632  -0.2622  -0.1965  -0.1921   0.0030
     0.1748   0.1793   0.1991   0.2992   0.3295   0.3726   0.4289   0.4440
     0.5307   0.5852   0.6762   0.6964   0.7052   0.7858   1.5365   1.5376
     1.6286   1.6391   3.2987   3.5631   3.6004   3.6044   3.6644   3.8184
     3.8214   3.8385   3.8479   3.9732   3.9839

     the Fermi energy is     3.3297 ev

!    total energy              =   -2930.16718675 Ry
     estimated scf accuracy    <       0.00000005 Ry
     smearing contrib. (-TS)   =      -0.03340687 Ry
     internal energy E=F+TS    =   -2930.13377988 Ry

     The total energy is F=E-TS. E is the sum of the following terms:
     one-electron contribution =  -24668.17809199 Ry
     hartree contribution      =   12419.53880601 Ry
     xc contribution           =    -481.27437023 Ry
     ewald contribution        =    9799.77823081 Ry
     electric field correction =       0.00164552 Ry

     convergence has been achieved in  71 iterations

     Forces acting on atoms (cartesian axes, Ry/au):

     atom    1 type  1   force =    -0.00009964    0.00004707    0.10425310
     atom    2 type  1   force =    -0.00009542    0.00005074    0.10430796
     atom    3 type  2   force =    -0.00025107   -0.00196185    0.10279984
     atom    4 type  2   force =    -0.00014788    0.00159512    0.11370883
     atom    5 type  2   force =    -0.00033199    0.00058279   -0.18043338
     atom    6 type  2   force =    -0.00019557   -0.00013765   -0.18078629
     atom    7 type  1   force =    -0.06892981    0.00063607   -0.02908264
     atom    8 type  1   force =    -0.06845067   -0.00121194   -0.02912233
     atom    9 type  1   force =     0.06856474    0.00112431   -0.02916145
     atom   10 type  1   force =     0.06818018   -0.00081409   -0.02921245
     atom   11 type  1   force =     0.00037482    0.00051065    0.04558645
     atom   12 type  1   force =     0.00056865    0.00075843    0.04712144
     atom   13 type  1   force =     0.00028180   -0.00576170   -0.03303297
     atom   14 type  1   force =     0.00033193    0.00397705   -0.02581165
     atom   15 type  2   force =     0.00003098   -0.00027857    0.00022572
     atom   16 type  2   force =     0.00013443    0.00012980   -0.00012059
     atom   17 type  2   force =    -0.00021598   -0.00068847    0.00125002
     atom   18 type  2   force =    -0.00028367   -0.00034614    0.00063568
     atom   19 type  1   force =    -0.01791730    0.00015204    0.00393080
     atom   20 type  1   force =    -0.01643404    0.00130349    0.00320616
     atom   21 type  1   force =     0.01955015   -0.00097428    0.00432524
     atom   22 type  1   force =     0.01781143    0.00103205    0.00343724
     atom   23 type  1   force =    -0.00014455   -0.00025944    0.00013409
     atom   24 type  1   force =    -0.00022428    0.00003419    0.00001288
     atom   25 type  1   force =    -0.00002413   -0.00010005   -0.00085834
     atom   26 type  1   force =    -0.00011708    0.00021860   -0.00015068
     atom   27 type  2   force =    -0.00004189   -0.00075017   -0.00090183
     atom   28 type  2   force =     0.00014727    0.00066984    0.00014367
     atom   29 type  2   force =     0.00009773   -0.00086985    0.00052880
     atom   30 type  2   force =    -0.00025153    0.00137815   -0.00044198
     atom   31 type  1   force =    -0.00020050   -0.00035265    0.00041857
     atom   32 type  1   force =    -0.00024782    0.00036375    0.00001344
     atom   33 type  1   force =    -0.00000678   -0.00040300    0.00052409
     atom   34 type  1   force =     0.00019836    0.00043769    0.00022835
     atom   35 type  1   force =     0.00014769   -0.00006600   -0.00139738
     atom   36 type  1   force =    -0.00006899    0.00033641   -0.00014106
     atom   37 type  1   force =    -0.00074770    0.00009543    0.00040889
     atom   38 type  1   force =     0.00006334   -0.00023169   -0.00062380
     atom   39 type  2   force =    -0.00077269    0.00066974    0.00134007
     atom   40 type  2   force =    -0.00103516   -0.00008605    0.00044051
     atom   41 type  2   force =     0.00062162   -0.00090566   -0.00055514
     atom   42 type  2   force =     0.00069009    0.00100788   -0.00052349
     atom   43 type  1   force =    -0.00035149    0.00021999    0.00053166
     atom   44 type  1   force =     0.00051870    0.00014918    0.00050491
     atom   45 type  1   force =    -0.00060920   -0.00004547    0.00036800
     atom   46 type  1   force =     0.00019043    0.00015991    0.00053426
     atom   47 type  1   force =    -0.00043255    0.00081583    0.00139314
     atom   48 type  1   force =    -0.00047366   -0.00057473    0.00083423
     atom   49 type  3   force =     0.00031412    0.00975001   -0.00473620
     atom   50 type  4   force =     0.00054589   -0.00052741   -0.00030738
     atom   51 type  4   force =    -0.00026132   -0.01085934    0.00425300

     Total force =     0.374726     Total SCF correction =     0.000607
  @ DRIVER MODE: Message from server: STATUS
  @ DRIVER MODE: Message from server: GETFORCE
  @ DRIVER MODE: Returning v,forces,stress,ensemble 

     Writing output data file ./calc.save/
  @ DRIVER MODE: Message from server: EXIT
  @ DRIVE MODE: Exiting  
 
     init_run     :     10.61s CPU     10.82s WALL (       1 calls)
     electrons    :   1069.03s CPU   1085.08s WALL (       1 calls)
     forces       :      2.33s CPU      2.60s WALL (       1 calls)

     Called by init_run:
     wfcinit      :      4.72s CPU      4.79s WALL (       1 calls)
     potinit      :      5.31s CPU      5.37s WALL (       1 calls)
     hinit0       :      0.24s CPU      0.24s WALL (       1 calls)

     Called by electrons:
     c_bands      :    901.83s CPU    908.07s WALL (      71 calls)
     sum_band     :    112.28s CPU    116.29s WALL (      71 calls)
     v_of_rho     :     42.17s CPU     44.23s WALL (      72 calls)
     newd         :     15.68s CPU     19.36s WALL (      72 calls)
     mix_rho      :      1.59s CPU      1.62s WALL (      71 calls)
     vdW_kernel   :      4.54s CPU      4.56s WALL (       1 calls)

     Called by c_bands:
     init_us_2    :      7.59s CPU      7.63s WALL (    1440 calls)
     cegterg      :    881.80s CPU    887.72s WALL (     712 calls)

     Called by *egterg:
     cdiaghg      :    151.73s CPU    152.36s WALL (    7591 calls)
     h_psi        :    463.72s CPU    467.76s WALL (    7603 calls)
     s_psi        :     65.03s CPU     65.24s WALL (    7603 calls)
     g_psi        :      1.72s CPU      1.74s WALL (    6881 calls)

     Called by h_psi:
     h_psi:calbec :     61.36s CPU     61.68s WALL (    7603 calls)
     vloc_psi     :    333.14s CPU    336.28s WALL (    7603 calls)
     add_vuspsi   :     65.63s CPU     65.97s WALL (    7603 calls)

     General routines
     calbec       :     81.82s CPU     82.20s WALL (    8353 calls)
     fft          :     21.97s CPU     22.15s WALL (    4536 calls)
     ffts         :      0.14s CPU      0.15s WALL (     143 calls)
     fftw         :    377.48s CPU    381.08s WALL (  893264 calls)
     interpolate  :      0.48s CPU      0.48s WALL (      72 calls)
     davcio       :      0.00s CPU      0.61s WALL (      10 calls)
 
     Parallel routines
 
     PWSCF        :  18m 2.29s CPU  18m44.42s WALL

 
   This run was terminated on:   1:53:45  11Sep2021            

=------------------------------------------------------------------------------=
   JOB DONE.
=------------------------------------------------------------------------------=
