
     Program PWSCF v.6.7GPU starts on  2Aug2021 at 19:29:40 

     This program is part of the open-source Quantum ESPRESSO suite
     for quantum simulation of materials; please cite
         "P. Giannozzi et al., J. Phys.:Condens. Matter 21 395502 (2009);
         "P. Giannozzi et al., J. Phys.:Condens. Matter 29 465901 (2017);
         "P. Giannozzi et al., J. Chem. Phys. 152 154105 (2020);
          URL http://www.quantum-espresso.org", 
     in publications or presentations arising from this work. More details at
     http://www.quantum-espresso.org/quote

     Parallel version (MPI), running on    16 processors

     MPI processes distributed on     1 nodes
     R & G space division:  proc/nbgrp/npool/nimage =      16
     Reading input from /storage/home/hcoda1/3/ntian30/research/carbon/02Aug_vib_paired/ads_slab/CH3NH_b/out_0026/pw.inp
Warning: card &CELL ignored
Warning: card   CELL_DYNAMICS='IPI', ignored
Warning: card / ignored

     Current dimensions of program PWSCF are:
     Max number of different atomic species (ntypx) = 10
     Max number of k-points (npk) =  40000
     Max angular momentum in pseudopotentials (lmaxx) =  3
     Presently no symmetry can be used with electric field

     Message from routine cell_base_init:
     DEPRECATED: use true lattice parameter, not A to a.u. conversion factor

     **************************************************************************
     Initializing libbeef V0.1.2 with the BEEF-vdW functional.
     Citation: Wellendorff et al., PRB 85, 235149 (2012).
     **************************************************************************


     IMPORTANT: XC functional enforced from input :
     Exchange-correlation= BEEF-VDW
                           (   1   4  43  14   2   0   0)
     Any further DFT definition will be discarded
     Please, verify this is what you really want


     Subspace diagonalization in iterative solution of the eigenvalue problem:
     one sub-group per band group will be used
     scalapack distributed-memory algorithm (size of sub-group:  4*  4 procs)

  @ DRIVER MODE: Connecting to 
 qe_1139763_2482541.sched-torque.pace.gatech.eduw7brhw63_scratch
  using UNIX socket
  @ DRIVER MODE: Message from server: STATUS
  @ DRIVER MODE: Message from server: INIT
  @ DRIVER MODE: Receiving replica           0          -1
  @ DRIVER MODE: Receiving encoded integer          25
  @ DRIVER MODE:  SCF:  T  FORCE:  T  STRESS:  F  VC:  F  ENSEMBLE:  F
  @ DRIVER MODE:  SCF:  T  FORCE:  T  STRESS:  F  VC:  F  ENSEMBLE:  F
 
     Parallelization info
     --------------------
     sticks:   dense  smooth     PW     G-vecs:    dense   smooth      PW
     Min         204      82     23                35422     8962    1367
     Max         205      84     24                35435     8968    1382
     Sum        3275    1317    379               566857   143421   21985
 
     Using Slab Decomposition
 


     bravais-lattice index     =            0
     lattice parameter (alat)  =       1.8897  a.u.
     unit-cell volume          =    6658.9804 (a.u.)^3
     number of atoms/cell      =           53
     number of atomic types    =            5
     number of electrons       =       391.00
     number of Kohn-Sham states=          205
     kinetic-energy cutoff     =      29.3995  Ry
     charge density cutoff     =     293.9946  Ry
     scf convergence threshold =      7.3E-08
     mixing beta               =       0.0500
     number of iterations used =            8  plain     mixing
     Exchange-correlation= BEEF-VDW
                           (   1   4  43  14   2   0   0)

     celldm(1)=   1.889726  celldm(2)=   0.000000  celldm(3)=   0.000000
     celldm(4)=   0.000000  celldm(5)=   0.000000  celldm(6)=   0.000000

     crystal axes: (cart. coord. in units of alat)
               a(1) = (   6.579727   0.000000   0.000000 )  
               a(2) = (  -0.000775   5.961596   0.000000 )  
               a(3) = (   0.000000   0.000000  25.155947 )  

     reciprocal axes: (cart. coord. in units 2 pi/alat)
               b(1) = (  0.151982  0.000020  0.000000 )  
               b(2) = (  0.000000  0.167740  0.000000 )  
               b(3) = (  0.000000  0.000000  0.039752 )  


     PseudoPot. # 1 for Ti read from file:
     /storage/coda1/p-amedford6/0/shared/rich_project_chbe-medford/medford-share/data/pseudos_module/espresso/nninc/pbe/van/Ti.UPF
     MD5 check sum: 8e4df49b7f0d34bbd5052bf3f5ea0213
     Pseudo is Ultrasoft, Zval = 12.0
     Generated by new atomic code, or converted to UPF format
     Using radial grid of  851 points,  6 beta functions with: 
                l(1) =   0
                l(2) =   0
                l(3) =   1
                l(4) =   1
                l(5) =   2
                l(6) =   2
     Q(r) pseudized with  8 coefficients,  rinner =    1.000   1.000   1.000
                                                       1.000   1.000

     PseudoPot. # 2 for O  read from file:
     /storage/coda1/p-amedford6/0/shared/rich_project_chbe-medford/medford-share/data/pseudos_module/espresso/nninc/pbe/van/O.UPF
     MD5 check sum: 78c19812648e8988a0fe644b0f25305e
     Pseudo is Ultrasoft, Zval =  6.0
     Generated by new atomic code, or converted to UPF format
     Using radial grid of  737 points,  4 beta functions with: 
                l(1) =   0
                l(2) =   0
                l(3) =   1
                l(4) =   1
     Q(r) pseudized with  8 coefficients,  rinner =    0.800   0.800   0.800


     PseudoPot. # 3 for H  read from file:
     /storage/coda1/p-amedford6/0/shared/rich_project_chbe-medford/medford-share/data/pseudos_module/espresso/nninc/pbe/van/H.UPF
     MD5 check sum: b5ee9d7bfd3a09ee7748110bda690ff7
     Pseudo is Ultrasoft, Zval =  1.0
     Generated by new atomic code, or converted to UPF format
     Using radial grid of  615 points,  1 beta functions with: 
                l(1) =   0
     Q(r) pseudized with  8 coefficients,  rinner =    0.800

     PseudoPot. # 4 for N  read from file:
     /storage/coda1/p-amedford6/0/shared/rich_project_chbe-medford/medford-share/data/pseudos_module/espresso/nninc/pbe/van/N.UPF
     MD5 check sum: 90d10febe142ad51ac9d5be1deb811c4
     Pseudo is Ultrasoft, Zval =  5.0
     Generated by new atomic code, or converted to UPF format
     Using radial grid of  729 points,  4 beta functions with: 
                l(1) =   0
                l(2) =   0
                l(3) =   1
                l(4) =   1
     Q(r) pseudized with  8 coefficients,  rinner =    0.800   0.800   0.800


     PseudoPot. # 5 for C  read from file:
     /storage/coda1/p-amedford6/0/shared/rich_project_chbe-medford/medford-share/data/pseudos_module/espresso/nninc/pbe/van/C.UPF
     MD5 check sum: 1a69bf6b8db32088f5b2163dbdb77a27
     Pseudo is Ultrasoft, Zval =  4.0
     Generated by new atomic code, or converted to UPF format
     Using radial grid of  721 points,  4 beta functions with: 
                l(1) =   0
                l(2) =   0
                l(3) =   1
                l(4) =   1
     Q(r) pseudized with  8 coefficients,  rinner =    0.800   0.800   0.800


     atomic species   valence    mass     pseudopotential
        Ti1           12.00    47.86700     Ti( 1.00)
        O1             6.00    15.99900     O ( 1.00)
        H1             1.00     1.00800     H ( 1.00)
        N1             5.00    14.00700     N ( 1.00)
        C1             4.00    12.01100     C ( 1.00)

     No symmetry found



   Cartesian axes

     site n.     atom                  positions (alat units)
         1           Ti1 tau(   1) = (   0.0004258   2.9801865   6.0000000  )
         2           Ti1 tau(   2) = (   3.2906075   1.4906267   6.0002472  )
         3           O1  tau(   3) = (   0.0006271   0.0005054   7.9858123  )
         4           O1  tau(   4) = (   3.2906025   0.0005020   7.3038282  )
         5           O1  tau(   5) = (   4.5942328   1.4918067   9.2879030  )
         6           O1  tau(   6) = (   1.9868534   1.4903216   9.2879459  )
         7           Ti1 tau(   7) = (   3.2907910   2.8959150   9.1758416  )
         8           Ti1 tau(   8) = (   0.0015273   1.4827037   9.2680791  )
         9           O1  tau(   9) = (   3.2906183   5.9580730  11.3246990  )
        10           O1  tau(  10) = (   0.0116148   5.9584955  10.6183126  )
        11           O1  tau(  11) = (   1.3160896   1.4863360  12.6200149  )
        12           O1  tau(  12) = (   5.2947061   1.4800608  12.6053981  )
        13           Ti1 tau(  13) = (   6.5224157   2.9421717  12.6196007  )
        14           Ti1 tau(  14) = (   3.2076970   1.4879367  12.4696142  )
        15           O1  tau(  15) = (   6.5517659   0.0158556  14.6493665  )
        16           O1  tau(  16) = (   3.3109316   0.0069331  13.9179417  )
        17           O1  tau(  17) = (   4.5083530   1.5297238  16.0872293  )
        18           O1  tau(  18) = (   2.0274073   1.5273405  16.0409094  )
        19           Ti1 tau(  19) = (   3.2920608   3.0081397  15.6838061  )
        20           Ti1 tau(  20) = (   0.0536170   1.5416865  15.8648894  )
        21           O1  tau(  21) = (   3.2904802   0.0005063   4.7018136  )
        22           O1  tau(  22) = (   0.0122827   0.0301012  17.2134340  )
        23           O1  tau(  23) = (   1.3043587   1.4918075   6.0039043  )
        24           O1  tau(  24) = (   5.2767064   1.4903225   6.0039473  )
        25           Ti1 tau(  25) = (   0.0000382   5.9609847   6.0000000  )
        26           Ti1 tau(  26) = (   3.2902200   4.4714249   6.0002472  )
        27           O1  tau(  27) = (   0.0002396   2.9813036   7.9858123  )
        28           O1  tau(  28) = (   3.2902150   2.9813002   7.3038282  )
        29           O1  tau(  29) = (   4.5938453   4.4726049   9.2879030  )
        30           O1  tau(  30) = (   1.9864658   4.4711199   9.2879459  )
        31           Ti1 tau(  31) = (   3.2891106   5.8743827   9.1763621  )
        32           Ti1 tau(  32) = (   0.0006254   4.4649316   9.2693709  )
        33           O1  tau(  33) = (   3.2866862   2.9837957  11.3234553  )
        34           O1  tau(  34) = (   0.0092240   2.9805883  10.6323155  )
        35           O1  tau(  35) = (   1.3095649   4.4762946  12.6335636  )
        36           O1  tau(  36) = (   5.2963019   4.4650584  12.6194355  )
        37           Ti1 tau(  37) = (   6.5192018   5.9199268  12.5733442  )
        38           Ti1 tau(  38) = (   3.2055211   4.4685508  12.4747853  )
        39           O1  tau(  39) = (   6.5624772   2.9349094  14.6472044  )
        40           O1  tau(  40) = (   3.3065106   2.9879112  13.8942307  )
        41           O1  tau(  41) = (   4.5199725   4.4841037  16.0899424  )
        42           O1  tau(  42) = (   2.0389375   4.4882992  16.0664246  )
        43           Ti1 tau(  43) = (   3.3279474   0.0221627  15.7114356  )
        44           Ti1 tau(  44) = (   0.0314192   4.6578676  16.1055029  )
        45           O1  tau(  45) = (   3.2900926   2.9813045   4.7018136  )
        46           O1  tau(  46) = (   1.3039711   4.4726057   6.0039043  )
        47           O1  tau(  47) = (   5.2763189   4.4711207   6.0039473  )
        48           H1  tau(  48) = (   5.5751926   2.9245997  17.7795037  )
        49           N1  tau(  49) = (   6.5345126   2.9709300  17.4463781  )
        50           C1  tau(  50) = (   0.8205834   2.9192471  18.6315588  )
        51           H1  tau(  51) = (   0.6379014   3.7726647  19.2931901  )
        52           H1  tau(  52) = (   0.6716828   1.9903841  19.1881566  )
        53           H1  tau(  53) = (   1.8691752   2.9530840  18.3388921  )

     number of k points=    10  Fermi-Dirac smearing, width (Ry)=  0.0073
                       cart. coord. in units 2pi/alat
        k(    1) = (   0.0000000   0.0000000   0.0000000), wk =   0.1250000
        k(    2) = (   0.0000000   0.0419351   0.0000000), wk =   0.2500000
        k(    3) = (   0.0000000  -0.0838702   0.0000000), wk =   0.1250000
        k(    4) = (   0.0379955   0.0000049   0.0000000), wk =   0.2500000
        k(    5) = (   0.0379955   0.0419400   0.0000000), wk =   0.2500000
        k(    6) = (   0.0379955  -0.0838652   0.0000000), wk =   0.2500000
        k(    7) = (   0.0379955  -0.0419301   0.0000000), wk =   0.2500000
        k(    8) = (  -0.0759910  -0.0000099   0.0000000), wk =   0.1250000
        k(    9) = (  -0.0759910   0.0419252   0.0000000), wk =   0.2500000
        k(   10) = (  -0.0759910  -0.0838800   0.0000000), wk =   0.1250000

     Dense  grid:   566857 G-vectors     FFT dimensions: (  72,  64, 270)

     Smooth grid:   143421 G-vectors     FFT dimensions: (  45,  40, 180)

     Estimated max dynamical RAM per process >     229.32 MB

     Estimated total dynamical RAM >       3.58 GB
     Cannot read rho : file not found

     Initial potential from superposition of free atoms

     starting charge  374.99916, renormalised to  391.00000

     negative rho (up, down):  1.779E-02 0.000E+00


     %%%%%%%%%%%%%%%%%%%%%%%%%%%%%%%%%%%%%%%%%%%%%%%%%%%%%%%%%%%%%%%%%%%%%%%%
     %                                                                      %
     % You are using vdW-DF, which was implemented by the Thonhauser group. %
     % Please cite the following two papers that made this development      %
     % possible and the two reviews that describe the various versions:     %
     %                                                                      %
     %   T. Thonhauser et al., PRL 115, 136402 (2015).                      %
     %   T. Thonhauser et al., PRB 76, 125112 (2007).                       %
     %   K. Berland et al., Rep. Prog. Phys. 78, 066501 (2015).             %
     %   D.C. Langreth et al., J. Phys.: Condens. Matter 21, 084203 (2009). %
     %                                                                      %
     %                                                                      %
     % If you are calculating the stress with vdW-DF, please also cite:     %
     %                                                                      %
     %   R. Sabatini et al., J. Phys.: Condens. Matter 24, 424209 (2012).   %
     %                                                                      %
     %%%%%%%%%%%%%%%%%%%%%%%%%%%%%%%%%%%%%%%%%%%%%%%%%%%%%%%%%%%%%%%%%%%%%%%%


 
     Adding external electric field

     Computed dipole along edir(3) : 
        Dipole               -5.8162 Ry au,        -14.7834 Debye
        Dipole field         -0.0110 Ry au, 
 
        Potential amp.        1.0175 Ry
        Total length         46.3494 bohr
 
     Starting wfcs are  296 atomic wfcs
  @ DRIVER MODE: Message from server: STATUS
  @ DRIVER MODE: Message from server: POSDATA
  @ DRIVER MODE: Reading and sharing cell 
  @ DRIVER MODE: Reading and sharing positions 
  @ DRIVER MODE: Received positions 

     total cpu time spent up to now is       24.3 secs

     Self-consistent Calculation

     iteration #  1     ecut=    29.40 Ry     beta= 0.05
     Davidson diagonalization with overlap
     c_bands:  3 eigenvalues not converged
     c_bands:  1 eigenvalues not converged
     c_bands:  1 eigenvalues not converged
     c_bands:  2 eigenvalues not converged
     c_bands:  4 eigenvalues not converged
     c_bands:  2 eigenvalues not converged
     c_bands:  1 eigenvalues not converged
     c_bands:  1 eigenvalues not converged
     c_bands:  2 eigenvalues not converged
     ethr =  1.00E-05,  avg # of iterations = 19.5

     negative rho (up, down):  1.705E-02 0.000E+00
 
     Adding external electric field

     Computed dipole along edir(3) : 
        Dipole               26.0055 Ry au,         66.0994 Debye
        Dipole field          0.0491 Ry au, 
 
        Potential amp.       -4.5493 Ry
        Total length         46.3494 bohr
 

     total cpu time spent up to now is       52.7 secs

     total energy              =   -2770.79399217 Ry
     estimated scf accuracy    <    1640.10343891 Ry

     iteration #  2     ecut=    29.40 Ry     beta= 0.05
     Davidson diagonalization with overlap
     ethr =  1.00E-02,  avg # of iterations = 18.4

     negative rho (up, down):  6.949E-03 0.000E+00
 
     Adding external electric field

     Computed dipole along edir(3) : 
        Dipole               -2.3404 Ry au,         -5.9487 Debye
        Dipole field         -0.0044 Ry au, 
 
        Potential amp.        0.4094 Ry
        Total length         46.3494 bohr
 

     total cpu time spent up to now is       87.4 secs

     total energy              =   -2641.11125885 Ry
     estimated scf accuracy    <   36835.83489897 Ry

     iteration #  3     ecut=    29.40 Ry     beta= 0.05
     Davidson diagonalization with overlap
     ethr =  1.00E-02,  avg # of iterations = 15.4

     negative rho (up, down):  6.998E-03 0.000E+00
 
     Adding external electric field

     Computed dipole along edir(3) : 
        Dipole               -3.4995 Ry au,         -8.8948 Debye
        Dipole field         -0.0066 Ry au, 
 
        Potential amp.        0.6122 Ry
        Total length         46.3494 bohr
 

     total cpu time spent up to now is      115.2 secs

     total energy              =   -2908.12810330 Ry
     estimated scf accuracy    <    1380.88578609 Ry

     iteration #  4     ecut=    29.40 Ry     beta= 0.05
     Davidson diagonalization with overlap
     ethr =  1.00E-02,  avg # of iterations =  7.0

     negative rho (up, down):  7.100E-03 0.000E+00
 
     Adding external electric field

     Computed dipole along edir(3) : 
        Dipole               -4.5289 Ry au,        -11.5112 Debye
        Dipole field         -0.0085 Ry au, 
 
        Potential amp.        0.7923 Ry
        Total length         46.3494 bohr
 

     total cpu time spent up to now is      125.9 secs

     total energy              =   -2902.08305976 Ry
     estimated scf accuracy    <     922.63672530 Ry

     iteration #  5     ecut=    29.40 Ry     beta= 0.05
     Davidson diagonalization with overlap
     ethr =  1.00E-02,  avg # of iterations =  9.6

     negative rho (up, down):  6.951E-03 0.000E+00
 
     Adding external electric field

     Computed dipole along edir(3) : 
        Dipole               -4.2458 Ry au,        -10.7917 Debye
        Dipole field         -0.0080 Ry au, 
 
        Potential amp.        0.7427 Ry
        Total length         46.3494 bohr
 

     total cpu time spent up to now is      139.3 secs

     total energy              =   -2922.72240139 Ry
     estimated scf accuracy    <      12.97272655 Ry

     iteration #  6     ecut=    29.40 Ry     beta= 0.05
     Davidson diagonalization with overlap
     ethr =  3.32E-03,  avg # of iterations =  2.3

     negative rho (up, down):  7.182E-03 0.000E+00
 
     Adding external electric field

     Computed dipole along edir(3) : 
        Dipole               -2.0295 Ry au,         -5.1586 Debye
        Dipole field         -0.0038 Ry au, 
 
        Potential amp.        0.3550 Ry
        Total length         46.3494 bohr
 

     total cpu time spent up to now is      147.0 secs

     total energy              =   -2919.00183973 Ry
     estimated scf accuracy    <      11.78798587 Ry

     iteration #  7     ecut=    29.40 Ry     beta= 0.05
     Davidson diagonalization with overlap
     ethr =  3.01E-03,  avg # of iterations = 10.4

     negative rho (up, down):  7.194E-03 0.000E+00
 
     Adding external electric field

     Computed dipole along edir(3) : 
        Dipole               -1.8065 Ry au,         -4.5916 Debye
        Dipole field         -0.0034 Ry au, 
 
        Potential amp.        0.3160 Ry
        Total length         46.3494 bohr
 

     total cpu time spent up to now is      157.8 secs

     total energy              =   -2923.07922383 Ry
     estimated scf accuracy    <     207.10459704 Ry

     iteration #  8     ecut=    29.40 Ry     beta= 0.05
     Davidson diagonalization with overlap
     ethr =  3.01E-03,  avg # of iterations =  2.6

     negative rho (up, down):  7.140E-03 0.000E+00
 
     Adding external electric field

     Computed dipole along edir(3) : 
        Dipole               -2.0935 Ry au,         -5.3210 Debye
        Dipole field         -0.0040 Ry au, 
 
        Potential amp.        0.3662 Ry
        Total length         46.3494 bohr
 

     total cpu time spent up to now is      165.4 secs

     total energy              =   -2920.99433936 Ry
     estimated scf accuracy    <     229.62875671 Ry

     iteration #  9     ecut=    29.40 Ry     beta= 0.05
     Davidson diagonalization with overlap
     ethr =  3.01E-03,  avg # of iterations =  1.4

     negative rho (up, down):  7.103E-03 0.000E+00
 
     Adding external electric field

     Computed dipole along edir(3) : 
        Dipole               -2.1417 Ry au,         -5.4437 Debye
        Dipole field         -0.0040 Ry au, 
 
        Potential amp.        0.3747 Ry
        Total length         46.3494 bohr
 

     total cpu time spent up to now is      172.5 secs

     total energy              =   -2920.40022547 Ry
     estimated scf accuracy    <     122.00882969 Ry

     iteration # 10     ecut=    29.40 Ry     beta= 0.05
     Davidson diagonalization with overlap
     ethr =  3.01E-03,  avg # of iterations =  1.1

     negative rho (up, down):  7.131E-03 0.000E+00
 
     Adding external electric field

     Computed dipole along edir(3) : 
        Dipole               -1.9115 Ry au,         -4.8586 Debye
        Dipole field         -0.0036 Ry au, 
 
        Potential amp.        0.3344 Ry
        Total length         46.3494 bohr
 

     total cpu time spent up to now is      179.4 secs

     total energy              =   -2920.70014467 Ry
     estimated scf accuracy    <      56.16151392 Ry

     iteration # 11     ecut=    29.40 Ry     beta= 0.05
     Davidson diagonalization with overlap
     ethr =  3.01E-03,  avg # of iterations =  1.1

     negative rho (up, down):  7.074E-03 0.000E+00
 
     Adding external electric field

     Computed dipole along edir(3) : 
        Dipole               -2.4275 Ry au,         -6.1700 Debye
        Dipole field         -0.0046 Ry au, 
 
        Potential amp.        0.4246 Ry
        Total length         46.3494 bohr
 

     total cpu time spent up to now is      186.2 secs

     total energy              =   -2917.81069524 Ry
     estimated scf accuracy    <      69.76786194 Ry

     iteration # 12     ecut=    29.40 Ry     beta= 0.05
     Davidson diagonalization with overlap
     ethr =  3.01E-03,  avg # of iterations =  7.7

     negative rho (up, down):  7.080E-03 0.000E+00
 
     Adding external electric field

     Computed dipole along edir(3) : 
        Dipole               -2.0691 Ry au,         -5.2591 Debye
        Dipole field         -0.0039 Ry au, 
 
        Potential amp.        0.3620 Ry
        Total length         46.3494 bohr
 

     total cpu time spent up to now is      195.9 secs

     total energy              =   -2920.27290997 Ry
     estimated scf accuracy    <       0.73440404 Ry

     iteration # 13     ecut=    29.40 Ry     beta= 0.05
     Davidson diagonalization with overlap
     c_bands:  1 eigenvalues not converged
     c_bands:  1 eigenvalues not converged
     ethr =  1.88E-04,  avg # of iterations = 16.9

     negative rho (up, down):  7.085E-03 0.000E+00
 
     Adding external electric field

     Computed dipole along edir(3) : 
        Dipole               -1.8363 Ry au,         -4.6673 Debye
        Dipole field         -0.0035 Ry au, 
 
        Potential amp.        0.3212 Ry
        Total length         46.3494 bohr
 

     total cpu time spent up to now is      211.2 secs

     total energy              =   -2920.52779820 Ry
     estimated scf accuracy    <       1.24134239 Ry

     iteration # 14     ecut=    29.40 Ry     beta= 0.05
     Davidson diagonalization with overlap
     ethr =  1.88E-04,  avg # of iterations =  2.3

     negative rho (up, down):  7.216E-03 0.000E+00
 
     Adding external electric field

     Computed dipole along edir(3) : 
        Dipole               -1.3738 Ry au,         -3.4919 Debye
        Dipole field         -0.0026 Ry au, 
 
        Potential amp.        0.2403 Ry
        Total length         46.3494 bohr
 

     total cpu time spent up to now is      218.6 secs

     total energy              =   -2920.43593572 Ry
     estimated scf accuracy    <       0.84817314 Ry

     iteration # 15     ecut=    29.40 Ry     beta= 0.05
     Davidson diagonalization with overlap
     ethr =  1.88E-04,  avg # of iterations =  7.9

     negative rho (up, down):  7.372E-03 0.000E+00
 
     Adding external electric field

     Computed dipole along edir(3) : 
        Dipole               -0.8647 Ry au,         -2.1977 Debye
        Dipole field         -0.0016 Ry au, 
 
        Potential amp.        0.1513 Ry
        Total length         46.3494 bohr
 

     total cpu time spent up to now is      227.8 secs

     total energy              =   -2920.39267493 Ry
     estimated scf accuracy    <       0.46717522 Ry

     iteration # 16     ecut=    29.40 Ry     beta= 0.05
     Davidson diagonalization with overlap
     c_bands:  1 eigenvalues not converged
     c_bands:  2 eigenvalues not converged
     ethr =  1.19E-04,  avg # of iterations = 11.5

     negative rho (up, down):  7.481E-03 0.000E+00
 
     Adding external electric field

     Computed dipole along edir(3) : 
        Dipole               -0.5934 Ry au,         -1.5082 Debye
        Dipole field         -0.0011 Ry au, 
 
        Potential amp.        0.1038 Ry
        Total length         46.3494 bohr
 

     total cpu time spent up to now is      239.3 secs

     total energy              =   -2920.39014232 Ry
     estimated scf accuracy    <       0.27697056 Ry

     iteration # 17     ecut=    29.40 Ry     beta= 0.05
     Davidson diagonalization with overlap
     c_bands:  2 eigenvalues not converged
     c_bands:  1 eigenvalues not converged
     ethr =  7.08E-05,  avg # of iterations = 15.7

     negative rho (up, down):  7.886E-03 0.000E+00
 
     Adding external electric field

     Computed dipole along edir(3) : 
        Dipole                0.0664 Ry au,          0.1689 Debye
        Dipole field          0.0001 Ry au, 
 
        Potential amp.       -0.0116 Ry
        Total length         46.3494 bohr
 

     total cpu time spent up to now is      254.1 secs

     total energy              =   -2920.40104312 Ry
     estimated scf accuracy    <       0.40330120 Ry

     iteration # 18     ecut=    29.40 Ry     beta= 0.05
     Davidson diagonalization with overlap
     ethr =  7.08E-05,  avg # of iterations =  6.2

     negative rho (up, down):  8.217E-03 0.000E+00
 
     Adding external electric field

     Computed dipole along edir(3) : 
        Dipole                0.5648 Ry au,          1.4357 Debye
        Dipole field          0.0011 Ry au, 
 
        Potential amp.       -0.0988 Ry
        Total length         46.3494 bohr
 

     total cpu time spent up to now is      265.2 secs

     total energy              =   -2920.41718055 Ry
     estimated scf accuracy    <       0.08733202 Ry

     iteration # 19     ecut=    29.40 Ry     beta= 0.05
     Davidson diagonalization with overlap
     c_bands:  3 eigenvalues not converged
     c_bands:  4 eigenvalues not converged
     c_bands:  1 eigenvalues not converged
     c_bands:  1 eigenvalues not converged
     c_bands:  4 eigenvalues not converged
     c_bands:  3 eigenvalues not converged
     c_bands:  4 eigenvalues not converged
     c_bands:  2 eigenvalues not converged
     c_bands:  4 eigenvalues not converged
     c_bands:  2 eigenvalues not converged
     ethr =  2.23E-05,  avg # of iterations = 20.0

     negative rho (up, down):  7.882E-03 0.000E+00
 
     Adding external electric field

     Computed dipole along edir(3) : 
        Dipole                0.2208 Ry au,          0.5611 Debye
        Dipole field          0.0004 Ry au, 
 
        Potential amp.       -0.0386 Ry
        Total length         46.3494 bohr
 

     total cpu time spent up to now is      281.8 secs

     total energy              =   -2920.39505752 Ry
     estimated scf accuracy    <       0.81800633 Ry

     iteration # 20     ecut=    29.40 Ry     beta= 0.05
     Davidson diagonalization with overlap
     c_bands:  3 eigenvalues not converged
     c_bands:  1 eigenvalues not converged
     c_bands:  1 eigenvalues not converged
     ethr =  2.23E-05,  avg # of iterations = 15.5

     negative rho (up, down):  8.049E-03 0.000E+00
 
     Adding external electric field

     Computed dipole along edir(3) : 
        Dipole                0.2653 Ry au,          0.6744 Debye
        Dipole field          0.0005 Ry au, 
 
        Potential amp.       -0.0464 Ry
        Total length         46.3494 bohr
 

     total cpu time spent up to now is      298.1 secs

     total energy              =   -2920.40525758 Ry
     estimated scf accuracy    <       0.11604282 Ry

     iteration # 21     ecut=    29.40 Ry     beta= 0.05
     Davidson diagonalization with overlap
     c_bands:  1 eigenvalues not converged
     c_bands:  1 eigenvalues not converged
     c_bands:  3 eigenvalues not converged
     c_bands:  2 eigenvalues not converged
     c_bands:  1 eigenvalues not converged
     c_bands:  1 eigenvalues not converged
     ethr =  2.23E-05,  avg # of iterations = 18.4

     negative rho (up, down):  8.641E-03 0.000E+00
 
     Adding external electric field

     Computed dipole along edir(3) : 
        Dipole                0.5036 Ry au,          1.2801 Debye
        Dipole field          0.0010 Ry au, 
 
        Potential amp.       -0.0881 Ry
        Total length         46.3494 bohr
 

     total cpu time spent up to now is      315.0 secs

     total energy              =   -2920.41704158 Ry
     estimated scf accuracy    <       0.08403133 Ry

     iteration # 22     ecut=    29.40 Ry     beta= 0.05
     Davidson diagonalization with overlap
     ethr =  2.15E-05,  avg # of iterations =  5.3

     negative rho (up, down):  1.040E-02 0.000E+00
 
     Adding external electric field

     Computed dipole along edir(3) : 
        Dipole                0.6529 Ry au,          1.6595 Debye
        Dipole field          0.0012 Ry au, 
 
        Potential amp.       -0.1142 Ry
        Total length         46.3494 bohr
 

     total cpu time spent up to now is      330.5 secs

     total energy              =   -2920.41676681 Ry
     estimated scf accuracy    <       0.03622115 Ry

     iteration # 23     ecut=    29.40 Ry     beta= 0.05
     Davidson diagonalization with overlap
     c_bands:  1 eigenvalues not converged
     ethr =  9.26E-06,  avg # of iterations = 15.2

     negative rho (up, down):  1.054E-02 0.000E+00
 
     Adding external electric field

     Computed dipole along edir(3) : 
        Dipole                0.6506 Ry au,          1.6538 Debye
        Dipole field          0.0012 Ry au, 
 
        Potential amp.       -0.1138 Ry
        Total length         46.3494 bohr
 

     total cpu time spent up to now is      345.3 secs

     total energy              =   -2920.42601460 Ry
     estimated scf accuracy    <       0.06101618 Ry

     iteration # 24     ecut=    29.40 Ry     beta= 0.05
     Davidson diagonalization with overlap
     ethr =  9.26E-06,  avg # of iterations =  1.3

     negative rho (up, down):  1.058E-02 0.000E+00
 
     Adding external electric field

     Computed dipole along edir(3) : 
        Dipole                0.6854 Ry au,          1.7420 Debye
        Dipole field          0.0013 Ry au, 
 
        Potential amp.       -0.1199 Ry
        Total length         46.3494 bohr
 

     total cpu time spent up to now is      352.3 secs

     total energy              =   -2920.42449088 Ry
     estimated scf accuracy    <       0.05277949 Ry

     iteration # 25     ecut=    29.40 Ry     beta= 0.05
     Davidson diagonalization with overlap
     ethr =  9.26E-06,  avg # of iterations =  7.8

     negative rho (up, down):  1.075E-02 0.000E+00
 
     Adding external electric field

     Computed dipole along edir(3) : 
        Dipole                0.6966 Ry au,          1.7707 Debye
        Dipole field          0.0013 Ry au, 
 
        Potential amp.       -0.1219 Ry
        Total length         46.3494 bohr
 

     total cpu time spent up to now is      362.3 secs

     total energy              =   -2920.42348656 Ry
     estimated scf accuracy    <       0.03728816 Ry

     iteration # 26     ecut=    29.40 Ry     beta= 0.05
     Davidson diagonalization with overlap
     ethr =  9.26E-06,  avg # of iterations =  8.9

     negative rho (up, down):  1.032E-02 0.000E+00
 
     Adding external electric field

     Computed dipole along edir(3) : 
        Dipole                0.6506 Ry au,          1.6537 Debye
        Dipole field          0.0012 Ry au, 
 
        Potential amp.       -0.1138 Ry
        Total length         46.3494 bohr
 

     total cpu time spent up to now is      371.5 secs

     total energy              =   -2920.42421296 Ry
     estimated scf accuracy    <       0.03291296 Ry

     iteration # 27     ecut=    29.40 Ry     beta= 0.05
     Davidson diagonalization with overlap
     ethr =  8.42E-06,  avg # of iterations =  1.1

     negative rho (up, down):  1.046E-02 0.000E+00
 
     Adding external electric field

     Computed dipole along edir(3) : 
        Dipole                0.6158 Ry au,          1.5653 Debye
        Dipole field          0.0012 Ry au, 
 
        Potential amp.       -0.1077 Ry
        Total length         46.3494 bohr
 

     total cpu time spent up to now is      378.3 secs

     total energy              =   -2920.41921718 Ry
     estimated scf accuracy    <       0.03457470 Ry

     iteration # 28     ecut=    29.40 Ry     beta= 0.05
     Davidson diagonalization with overlap
     c_bands:  1 eigenvalues not converged
     ethr =  8.42E-06,  avg # of iterations = 14.3

     negative rho (up, down):  1.163E-02 0.000E+00
 
     Adding external electric field

     Computed dipole along edir(3) : 
        Dipole                0.6720 Ry au,          1.7079 Debye
        Dipole field          0.0013 Ry au, 
 
        Potential amp.       -0.1175 Ry
        Total length         46.3494 bohr
 

     total cpu time spent up to now is      390.5 secs

     total energy              =   -2920.42258973 Ry
     estimated scf accuracy    <       0.03181508 Ry

     iteration # 29     ecut=    29.40 Ry     beta= 0.05
     Davidson diagonalization with overlap
     ethr =  8.14E-06,  avg # of iterations =  8.5

     negative rho (up, down):  1.233E-02 0.000E+00
 
     Adding external electric field

     Computed dipole along edir(3) : 
        Dipole                0.7382 Ry au,          1.8763 Debye
        Dipole field          0.0014 Ry au, 
 
        Potential amp.       -0.1291 Ry
        Total length         46.3494 bohr
 

     total cpu time spent up to now is      399.7 secs

     total energy              =   -2920.42438845 Ry
     estimated scf accuracy    <       0.01987791 Ry

     iteration # 30     ecut=    29.40 Ry     beta= 0.05
     Davidson diagonalization with overlap
     ethr =  5.08E-06,  avg # of iterations =  7.4

     negative rho (up, down):  1.202E-02 0.000E+00
 
     Adding external electric field

     Computed dipole along edir(3) : 
        Dipole                0.6657 Ry au,          1.6920 Debye
        Dipole field          0.0013 Ry au, 
 
        Potential amp.       -0.1165 Ry
        Total length         46.3494 bohr
 

     total cpu time spent up to now is      408.5 secs

     total energy              =   -2920.42426538 Ry
     estimated scf accuracy    <       0.01861715 Ry

     iteration # 31     ecut=    29.40 Ry     beta= 0.05
     Davidson diagonalization with overlap
     ethr =  4.76E-06,  avg # of iterations =  7.0

     negative rho (up, down):  1.294E-02 0.000E+00
 
     Adding external electric field

     Computed dipole along edir(3) : 
        Dipole                0.6489 Ry au,          1.6494 Debye
        Dipole field          0.0012 Ry au, 
 
        Potential amp.       -0.1135 Ry
        Total length         46.3494 bohr
 

     total cpu time spent up to now is      417.4 secs

     total energy              =   -2920.42380466 Ry
     estimated scf accuracy    <       0.02049841 Ry

     iteration # 32     ecut=    29.40 Ry     beta= 0.05
     Davidson diagonalization with overlap
     ethr =  4.76E-06,  avg # of iterations =  5.3

     negative rho (up, down):  1.516E-02 0.000E+00
 
     Adding external electric field

     Computed dipole along edir(3) : 
        Dipole                0.6525 Ry au,          1.6585 Debye
        Dipole field          0.0012 Ry au, 
 
        Potential amp.       -0.1141 Ry
        Total length         46.3494 bohr
 

     total cpu time spent up to now is      425.6 secs

     total energy              =   -2920.42011559 Ry
     estimated scf accuracy    <       0.01810342 Ry

     iteration # 33     ecut=    29.40 Ry     beta= 0.05
     Davidson diagonalization with overlap
     c_bands:  1 eigenvalues not converged
     c_bands:  2 eigenvalues not converged
     ethr =  4.63E-06,  avg # of iterations = 15.7

     negative rho (up, down):  1.504E-02 0.000E+00
 
     Adding external electric field

     Computed dipole along edir(3) : 
        Dipole                0.6442 Ry au,          1.6373 Debye
        Dipole field          0.0012 Ry au, 
 
        Potential amp.       -0.1127 Ry
        Total length         46.3494 bohr
 

     total cpu time spent up to now is      443.7 secs

     total energy              =   -2920.42469478 Ry
     estimated scf accuracy    <       0.00574454 Ry

     iteration # 34     ecut=    29.40 Ry     beta= 0.05
     Davidson diagonalization with overlap
     ethr =  1.47E-06,  avg # of iterations = 12.0

     negative rho (up, down):  1.665E-02 0.000E+00
 
     Adding external electric field

     Computed dipole along edir(3) : 
        Dipole                0.6898 Ry au,          1.7532 Debye
        Dipole field          0.0013 Ry au, 
 
        Potential amp.       -0.1207 Ry
        Total length         46.3494 bohr
 

     total cpu time spent up to now is      456.0 secs

     total energy              =   -2920.42278993 Ry
     estimated scf accuracy    <       0.01610797 Ry

     iteration # 35     ecut=    29.40 Ry     beta= 0.05
     Davidson diagonalization with overlap
     c_bands:  1 eigenvalues not converged
     c_bands:  1 eigenvalues not converged
     c_bands:  2 eigenvalues not converged
     ethr =  1.47E-06,  avg # of iterations = 15.4

     negative rho (up, down):  1.736E-02 0.000E+00
 
     Adding external electric field

     Computed dipole along edir(3) : 
        Dipole                0.7038 Ry au,          1.7888 Debye
        Dipole field          0.0013 Ry au, 
 
        Potential amp.       -0.1231 Ry
        Total length         46.3494 bohr
 

     total cpu time spent up to now is      468.8 secs

     total energy              =   -2920.42366189 Ry
     estimated scf accuracy    <       0.00333067 Ry

     iteration # 36     ecut=    29.40 Ry     beta= 0.05
     Davidson diagonalization with overlap
     ethr =  8.52E-07,  avg # of iterations =  5.9

     negative rho (up, down):  1.730E-02 0.000E+00
 
     Adding external electric field

     Computed dipole along edir(3) : 
        Dipole                0.6871 Ry au,          1.7464 Debye
        Dipole field          0.0013 Ry au, 
 
        Potential amp.       -0.1202 Ry
        Total length         46.3494 bohr
 

     total cpu time spent up to now is      479.0 secs

     total energy              =   -2920.42356196 Ry
     estimated scf accuracy    <       0.00195309 Ry

     iteration # 37     ecut=    29.40 Ry     beta= 0.05
     Davidson diagonalization with overlap
     ethr =  5.00E-07,  avg # of iterations = 12.2

     negative rho (up, down):  1.715E-02 0.000E+00
 
     Adding external electric field

     Computed dipole along edir(3) : 
        Dipole                0.6812 Ry au,          1.7313 Debye
        Dipole field          0.0013 Ry au, 
 
        Potential amp.       -0.1192 Ry
        Total length         46.3494 bohr
 

     total cpu time spent up to now is      490.0 secs

     total energy              =   -2920.42358217 Ry
     estimated scf accuracy    <       0.00106528 Ry

     iteration # 38     ecut=    29.40 Ry     beta= 0.05
     Davidson diagonalization with overlap
     ethr =  2.72E-07,  avg # of iterations =  8.1

     negative rho (up, down):  1.724E-02 0.000E+00
 
     Adding external electric field

     Computed dipole along edir(3) : 
        Dipole                0.6753 Ry au,          1.7165 Debye
        Dipole field          0.0013 Ry au, 
 
        Potential amp.       -0.1181 Ry
        Total length         46.3494 bohr
 

     total cpu time spent up to now is      499.5 secs

     total energy              =   -2920.42356587 Ry
     estimated scf accuracy    <       0.00054237 Ry

     iteration # 39     ecut=    29.40 Ry     beta= 0.05
     Davidson diagonalization with overlap
     c_bands:  1 eigenvalues not converged
     c_bands:  1 eigenvalues not converged
     ethr =  1.39E-07,  avg # of iterations = 17.1

     negative rho (up, down):  1.820E-02 0.000E+00
 
     Adding external electric field

     Computed dipole along edir(3) : 
        Dipole                0.6955 Ry au,          1.7679 Debye
        Dipole field          0.0013 Ry au, 
 
        Potential amp.       -0.1217 Ry
        Total length         46.3494 bohr
 

     total cpu time spent up to now is      516.6 secs

     total energy              =   -2920.42370812 Ry
     estimated scf accuracy    <       0.00079736 Ry

     iteration # 40     ecut=    29.40 Ry     beta= 0.05
     Davidson diagonalization with overlap
     c_bands:  5 eigenvalues not converged
     ethr =  1.39E-07,  avg # of iterations = 11.8

     negative rho (up, down):  1.802E-02 0.000E+00
 
     Adding external electric field

     Computed dipole along edir(3) : 
        Dipole                0.6887 Ry au,          1.7506 Debye
        Dipole field          0.0013 Ry au, 
 
        Potential amp.       -0.1205 Ry
        Total length         46.3494 bohr
 

     total cpu time spent up to now is      528.5 secs

     total energy              =   -2920.42374602 Ry
     estimated scf accuracy    <       0.00030042 Ry

     iteration # 41     ecut=    29.40 Ry     beta= 0.05
     Davidson diagonalization with overlap
     ethr =  7.68E-08,  avg # of iterations = 11.8

     negative rho (up, down):  1.787E-02 0.000E+00
 
     Adding external electric field

     Computed dipole along edir(3) : 
        Dipole                0.6800 Ry au,          1.7284 Debye
        Dipole field          0.0013 Ry au, 
 
        Potential amp.       -0.1190 Ry
        Total length         46.3494 bohr
 

     total cpu time spent up to now is      542.0 secs

     total energy              =   -2920.42378942 Ry
     estimated scf accuracy    <       0.00022378 Ry

     iteration # 42     ecut=    29.40 Ry     beta= 0.05
     Davidson diagonalization with overlap
     c_bands:  1 eigenvalues not converged
     ethr =  5.72E-08,  avg # of iterations =  8.5

     negative rho (up, down):  1.794E-02 0.000E+00
 
     Adding external electric field

     Computed dipole along edir(3) : 
        Dipole                0.6763 Ry au,          1.7189 Debye
        Dipole field          0.0013 Ry au, 
 
        Potential amp.       -0.1183 Ry
        Total length         46.3494 bohr
 

     total cpu time spent up to now is      552.0 secs

     total energy              =   -2920.42384010 Ry
     estimated scf accuracy    <       0.00009458 Ry

     iteration # 43     ecut=    29.40 Ry     beta= 0.05
     Davidson diagonalization with overlap
     ethr =  2.42E-08,  avg # of iterations =  8.1

     negative rho (up, down):  1.823E-02 0.000E+00
 
     Adding external electric field

     Computed dipole along edir(3) : 
        Dipole                0.6823 Ry au,          1.7341 Debye
        Dipole field          0.0013 Ry au, 
 
        Potential amp.       -0.1193 Ry
        Total length         46.3494 bohr
 

     total cpu time spent up to now is      570.5 secs

     total energy              =   -2920.42387226 Ry
     estimated scf accuracy    <       0.00004934 Ry

     iteration # 44     ecut=    29.40 Ry     beta= 0.05
     Davidson diagonalization with overlap
     ethr =  1.26E-08,  avg # of iterations =  9.1

     negative rho (up, down):  1.830E-02 0.000E+00
 
     Adding external electric field

     Computed dipole along edir(3) : 
        Dipole                0.6851 Ry au,          1.7413 Debye
        Dipole field          0.0013 Ry au, 
 
        Potential amp.       -0.1198 Ry
        Total length         46.3494 bohr
 

     total cpu time spent up to now is      581.1 secs

     total energy              =   -2920.42389615 Ry
     estimated scf accuracy    <       0.00002953 Ry

     iteration # 45     ecut=    29.40 Ry     beta= 0.05
     Davidson diagonalization with overlap
     ethr =  7.55E-09,  avg # of iterations =  8.8

     negative rho (up, down):  1.813E-02 0.000E+00
 
     Adding external electric field

     Computed dipole along edir(3) : 
        Dipole                0.6834 Ry au,          1.7369 Debye
        Dipole field          0.0013 Ry au, 
 
        Potential amp.       -0.1195 Ry
        Total length         46.3494 bohr
 

     total cpu time spent up to now is      594.8 secs

     total energy              =   -2920.42391414 Ry
     estimated scf accuracy    <       0.00001704 Ry

     iteration # 46     ecut=    29.40 Ry     beta= 0.05
     Davidson diagonalization with overlap
     ethr =  4.36E-09,  avg # of iterations = 11.4

     negative rho (up, down):  1.811E-02 0.000E+00
 
     Adding external electric field

     Computed dipole along edir(3) : 
        Dipole                0.6848 Ry au,          1.7405 Debye
        Dipole field          0.0013 Ry au, 
 
        Potential amp.       -0.1198 Ry
        Total length         46.3494 bohr
 

     total cpu time spent up to now is      607.7 secs

     total energy              =   -2920.42393093 Ry
     estimated scf accuracy    <       0.00001696 Ry

     iteration # 47     ecut=    29.40 Ry     beta= 0.05
     Davidson diagonalization with overlap
     ethr =  4.34E-09,  avg # of iterations =  7.9

     negative rho (up, down):  1.817E-02 0.000E+00
 
     Adding external electric field

     Computed dipole along edir(3) : 
        Dipole                0.6859 Ry au,          1.7433 Debye
        Dipole field          0.0013 Ry au, 
 
        Potential amp.       -0.1200 Ry
        Total length         46.3494 bohr
 

     total cpu time spent up to now is      617.2 secs

     total energy              =   -2920.42394796 Ry
     estimated scf accuracy    <       0.00000455 Ry

     iteration # 48     ecut=    29.40 Ry     beta= 0.05
     Davidson diagonalization with overlap
     ethr =  1.16E-09,  avg # of iterations =  9.3

     negative rho (up, down):  1.814E-02 0.000E+00
 
     Adding external electric field

     Computed dipole along edir(3) : 
        Dipole                0.6856 Ry au,          1.7426 Debye
        Dipole field          0.0013 Ry au, 
 
        Potential amp.       -0.1199 Ry
        Total length         46.3494 bohr
 

     total cpu time spent up to now is      631.0 secs

     total energy              =   -2920.42396162 Ry
     estimated scf accuracy    <       0.00000379 Ry

     iteration # 49     ecut=    29.40 Ry     beta= 0.05
     Davidson diagonalization with overlap
     ethr =  9.70E-10,  avg # of iterations = 11.1

     negative rho (up, down):  1.817E-02 0.000E+00
 
     Adding external electric field

     Computed dipole along edir(3) : 
        Dipole                0.6862 Ry au,          1.7441 Debye
        Dipole field          0.0013 Ry au, 
 
        Potential amp.       -0.1200 Ry
        Total length         46.3494 bohr
 

     total cpu time spent up to now is      641.9 secs

     total energy              =   -2920.42397448 Ry
     estimated scf accuracy    <       0.00000250 Ry

     iteration # 50     ecut=    29.40 Ry     beta= 0.05
     Davidson diagonalization with overlap
     ethr =  6.39E-10,  avg # of iterations =  2.0

     negative rho (up, down):  1.817E-02 0.000E+00
 
     Adding external electric field

     Computed dipole along edir(3) : 
        Dipole                0.6860 Ry au,          1.7435 Debye
        Dipole field          0.0013 Ry au, 
 
        Potential amp.       -0.1200 Ry
        Total length         46.3494 bohr
 

     total cpu time spent up to now is      649.4 secs

     total energy              =   -2920.42398596 Ry
     estimated scf accuracy    <       0.00000160 Ry

     iteration # 51     ecut=    29.40 Ry     beta= 0.05
     Davidson diagonalization with overlap
     ethr =  4.08E-10,  avg # of iterations = 12.5

     negative rho (up, down):  1.816E-02 0.000E+00
 
     Adding external electric field

     Computed dipole along edir(3) : 
        Dipole                0.6854 Ry au,          1.7421 Debye
        Dipole field          0.0013 Ry au, 
 
        Potential amp.       -0.1199 Ry
        Total length         46.3494 bohr
 

     total cpu time spent up to now is      663.7 secs

     total energy              =   -2920.42399620 Ry
     estimated scf accuracy    <       0.00000210 Ry

     iteration # 52     ecut=    29.40 Ry     beta= 0.05
     Davidson diagonalization with overlap
     ethr =  4.08E-10,  avg # of iterations =  7.4

     negative rho (up, down):  1.815E-02 0.000E+00
 
     Adding external electric field

     Computed dipole along edir(3) : 
        Dipole                0.6853 Ry au,          1.7418 Debye
        Dipole field          0.0013 Ry au, 
 
        Potential amp.       -0.1199 Ry
        Total length         46.3494 bohr
 

     total cpu time spent up to now is      673.0 secs

     total energy              =   -2920.42400540 Ry
     estimated scf accuracy    <       0.00000046 Ry

     iteration # 53     ecut=    29.40 Ry     beta= 0.05
     Davidson diagonalization with overlap
     ethr =  1.18E-10,  avg # of iterations = 12.9

     negative rho (up, down):  1.815E-02 0.000E+00
 
     Adding external electric field

     Computed dipole along edir(3) : 
        Dipole                0.6852 Ry au,          1.7416 Debye
        Dipole field          0.0013 Ry au, 
 
        Potential amp.       -0.1199 Ry
        Total length         46.3494 bohr
 

     total cpu time spent up to now is      686.6 secs

     total energy              =   -2920.42401373 Ry
     estimated scf accuracy    <       0.00000041 Ry

     iteration # 54     ecut=    29.40 Ry     beta= 0.05
     Davidson diagonalization with overlap
     ethr =  1.06E-10,  avg # of iterations = 12.4

     negative rho (up, down):  1.813E-02 0.000E+00
 
     Adding external electric field

     Computed dipole along edir(3) : 
        Dipole                0.6846 Ry au,          1.7400 Debye
        Dipole field          0.0013 Ry au, 
 
        Potential amp.       -0.1198 Ry
        Total length         46.3494 bohr
 

     total cpu time spent up to now is      700.2 secs

     total energy              =   -2920.42402126 Ry
     estimated scf accuracy    <       0.00000034 Ry

     iteration # 55     ecut=    29.40 Ry     beta= 0.05
     Davidson diagonalization with overlap
     ethr =  8.65E-11,  avg # of iterations =  7.5

     negative rho (up, down):  1.814E-02 0.000E+00
 
     Adding external electric field

     Computed dipole along edir(3) : 
        Dipole                0.6848 Ry au,          1.7405 Debye
        Dipole field          0.0013 Ry au, 
 
        Potential amp.       -0.1198 Ry
        Total length         46.3494 bohr
 

     total cpu time spent up to now is      709.6 secs

     End of self-consistent calculation

          k = 0.0000 0.0000 0.0000 ( 18029 PWs)   bands (ev):

   -55.9957 -55.9885 -55.9617 -55.9524 -55.9029 -55.8385 -55.8384 -55.8041
   -55.7998 -55.7658 -55.7601 -55.7264 -55.5400 -55.2729 -54.9680 -54.9340
   -32.5474 -32.4771 -32.3503 -32.3402 -32.3158 -32.2991 -32.2889 -32.2512
   -32.2369 -32.2362 -32.2122 -32.2048 -32.1712 -32.1479 -32.1405 -32.1344
   -32.1309 -32.0990 -32.0782 -32.0530 -32.0490 -32.0415 -32.0259 -31.9990
   -31.9920 -31.9914 -31.9861 -31.9781 -31.9633 -31.9577 -31.9542 -31.9443
   -31.9365 -31.9295 -31.9133 -31.9071 -31.8727 -31.8093 -31.7113 -31.5477
   -31.5428 -31.4681 -31.3749 -31.2872 -31.2647 -31.1917 -31.1052 -30.9941
   -16.7565 -16.4730 -16.2935 -16.1505 -16.1185 -16.0329 -15.8319 -15.7051
   -15.6931 -15.5894 -15.5564 -15.5299 -15.5233 -15.4969 -15.4919 -15.4311
   -15.4292 -15.4155 -15.4062 -15.3492 -15.3248 -15.2715 -15.1919 -15.1590
   -15.1536 -15.1258 -15.0441 -15.0390 -14.5854 -14.1748 -13.4707 -13.3544
    -8.9353  -4.3579  -4.1275  -3.9532  -3.9142  -3.8982  -3.8484  -3.5942
    -3.5792  -3.3316  -3.2320  -3.1938  -3.1787  -3.1692  -3.1494  -3.1384
    -2.8921  -2.8255  -2.8100  -2.7879  -2.7803  -2.7741  -2.7620  -2.7615
    -2.7219  -2.6592  -2.5335  -2.4967  -2.4203  -2.3833  -2.3517  -2.3052
    -2.2612  -2.2541  -2.2429  -2.2244  -2.2114  -2.1879  -2.1717  -2.0378
    -1.9716  -1.8370  -1.8018  -1.7820  -1.5962  -1.5379  -1.4730  -1.4341
    -1.4210  -1.4139  -1.3821  -1.3004  -1.2089  -1.1529  -1.1423  -1.0863
    -1.0089  -0.9975  -0.8896  -0.8843  -0.8569  -0.7668  -0.7564  -0.7452
    -0.7264  -0.6576  -0.5574  -0.4805  -0.4355  -0.4054  -0.3747  -0.3053
    -0.2751  -0.1728  -0.1572  -0.1093  -0.1041  -0.0623  -0.0171  -0.0078
     0.0011   0.0088   0.0341   0.1766   0.2876   0.3424   0.3826   0.3885
     0.5432   0.5707   0.6677   0.7562   0.9808   1.0537   1.1469   1.2466
     1.3198   1.6247   1.6701   3.1474   3.2260   3.2798   3.2886   3.3911
     3.3966   3.5971   3.6066   3.6195   3.6870

          k = 0.0000 0.0419 0.0000 ( 17933 PWs)   bands (ev):

   -55.9907 -55.9832 -55.9666 -55.9575 -55.9005 -55.8407 -55.8334 -55.8090
   -55.7947 -55.7707 -55.7551 -55.7313 -55.5394 -55.2733 -54.9629 -54.9389
   -32.4899 -32.4231 -32.3038 -32.2964 -32.2855 -32.2842 -32.2749 -32.2435
   -32.2235 -32.2130 -32.1991 -32.1983 -32.1770 -32.1727 -32.1557 -32.1497
   -32.1341 -32.1229 -32.0669 -32.0650 -32.0446 -32.0385 -32.0318 -32.0142
   -32.0100 -32.0065 -31.9999 -31.9887 -31.9867 -31.9763 -31.9669 -31.9585
   -31.9376 -31.9327 -31.9289 -31.9186 -31.9161 -31.8085 -31.7083 -31.5740
   -31.5429 -31.4820 -31.3208 -31.2837 -31.2678 -31.1791 -31.1178 -31.0512
   -16.6208 -16.3535 -16.1831 -16.0431 -16.0207 -15.9948 -15.8811 -15.7779
   -15.7457 -15.6115 -15.6053 -15.5301 -15.5113 -15.5012 -15.4721 -15.4670
   -15.4480 -15.4449 -15.3732 -15.3682 -15.3306 -15.2461 -15.2418 -15.2089
   -15.1844 -15.1786 -15.1005 -15.0516 -14.6544 -14.1895 -13.4749 -13.3940
    -8.9353  -4.3630  -3.9369  -3.7882  -3.7466  -3.7220  -3.6896  -3.4351
    -3.3572  -3.2879  -3.2597  -3.1834  -3.1357  -3.0842  -3.0461  -3.0267
    -2.9684  -2.9643  -2.9378  -2.8791  -2.8617  -2.8398  -2.7873  -2.7433
    -2.7299  -2.6806  -2.6671  -2.6425  -2.6255  -2.4935  -2.4843  -2.4484
    -2.4104  -2.3355  -2.2681  -2.2451  -2.2249  -2.1431  -2.0696  -1.9690
    -1.9181  -1.7704  -1.7147  -1.6650  -1.6401  -1.5856  -1.4685  -1.3586
    -1.3328  -1.3062  -1.2274  -1.2056  -1.1076  -1.0496  -1.0184  -0.9460
    -0.9382  -0.9134  -0.8903  -0.8827  -0.8497  -0.8037  -0.7549  -0.7371
    -0.6886  -0.6549  -0.5814  -0.5528  -0.4978  -0.4903  -0.4682  -0.4446
    -0.2988  -0.2579  -0.2361  -0.2064  -0.1755  -0.1443  -0.1217  -0.0831
    -0.0222   0.0290   0.0513   0.1213   0.2051   0.2575   0.2888   0.3440
     0.3559   0.3907   0.5301   0.6730   0.6884   1.0163   1.2332   1.2433
     1.3277   1.5786   1.5821   3.3367   3.3637   3.3968   3.4414   3.4970
     3.5462   3.5871   3.6181   3.6762   3.6934

          k = 0.0000-0.0839 0.0000 ( 17884 PWs)   bands (ev):

   -55.9790 -55.9782 -55.9716 -55.9690 -55.8978 -55.8432 -55.8219 -55.8204
   -55.7836 -55.7818 -55.7437 -55.7426 -55.5389 -55.2737 -54.9509 -54.9508
   -32.3518 -32.3482 -32.2912 -32.2906 -32.2815 -32.2746 -32.2737 -32.2605
   -32.1978 -32.1968 -32.1756 -32.1725 -32.1636 -32.1541 -32.1485 -32.1312
   -32.1062 -32.1009 -32.1001 -32.0993 -32.0940 -32.0655 -32.0627 -32.0540
   -32.0329 -32.0327 -32.0244 -32.0230 -32.0107 -31.9999 -31.9769 -31.9761
   -31.9563 -31.9536 -31.9241 -31.9239 -31.8790 -31.8077 -31.7067 -31.6124
   -31.5428 -31.4926 -31.2755 -31.2755 -31.1878 -31.1877 -31.1485 -31.1484
   -16.2845 -16.2695 -16.0779 -16.0710 -15.9368 -15.9237 -15.8285 -15.8087
   -15.7797 -15.7579 -15.7173 -15.7161 -15.5538 -15.5494 -15.3789 -15.3752
   -15.3743 -15.3670 -15.3442 -15.3373 -15.3343 -15.3269 -15.3251 -15.2426
   -15.2362 -15.2313 -15.1984 -15.0321 -14.7536 -14.2029 -13.4567 -13.4566
    -8.9354  -4.3699  -3.5110  -3.4720  -3.3942  -3.3880  -3.3774  -3.3707
    -3.3565  -3.3474  -3.2838  -3.2836  -3.2148  -3.1167  -3.1122  -3.0986
    -3.0783  -3.0453  -3.0333  -2.9747  -2.9397  -2.9354  -2.8339  -2.7996
    -2.7876  -2.7436  -2.7183  -2.6569  -2.6291  -2.5949  -2.5568  -2.4554
    -2.3776  -2.3673  -2.3404  -2.3180  -2.0534  -1.9971  -1.8931  -1.8565
    -1.8066  -1.7133  -1.6865  -1.6413  -1.5978  -1.4966  -1.4318  -1.4229
    -1.3966  -1.3724  -1.3483  -1.3136  -1.2177  -1.1796  -1.1665  -1.1102
    -1.0811  -0.8638  -0.8008  -0.7155  -0.6768  -0.6475  -0.6258  -0.6138
    -0.6005  -0.5752  -0.5537  -0.5179  -0.4779  -0.4399  -0.4251  -0.4103
    -0.3772  -0.3509  -0.3089  -0.2765  -0.2628  -0.2448  -0.1952  -0.1795
    -0.1497  -0.1244  -0.0919  -0.0413   0.0048   0.0872   0.2524   0.2539
     0.2596   0.2850   0.6003   0.6449   0.7095   0.7413   1.2022   1.3867
     1.3870   1.5158   1.5163   3.4206   3.4490   3.4792   3.4999   3.5765
     3.5863   3.6578   3.6870   3.7372   3.7442

          k = 0.0380 0.0000 0.0000 ( 17913 PWs)   bands (ev):

   -55.9956 -55.9883 -55.9616 -55.9522 -55.9028 -55.8384 -55.8383 -55.8040
   -55.7995 -55.7657 -55.7601 -55.7263 -55.5399 -55.2728 -54.9679 -54.9339
   -32.5475 -32.4780 -32.3517 -32.3463 -32.3157 -32.2993 -32.2887 -32.2559
   -32.2369 -32.2360 -32.2077 -32.1931 -32.1711 -32.1450 -32.1332 -32.1305
   -32.1299 -32.0988 -32.0656 -32.0578 -32.0528 -32.0412 -32.0275 -31.9983
   -31.9914 -31.9900 -31.9792 -31.9782 -31.9632 -31.9575 -31.9574 -31.9540
   -31.9433 -31.9294 -31.9134 -31.9061 -31.8729 -31.8115 -31.7111 -31.5476
   -31.5431 -31.4679 -31.3744 -31.2905 -31.2627 -31.1915 -31.1051 -30.9939
   -16.6885 -16.3863 -16.2126 -16.1302 -16.0484 -16.0317 -15.8763 -15.7027
   -15.6994 -15.6902 -15.6847 -15.6505 -15.6051 -15.5841 -15.5369 -15.5056
   -15.3765 -15.3511 -15.2929 -15.2613 -15.2457 -15.2380 -15.1939 -15.1819
   -15.1746 -15.1653 -15.1160 -15.0272 -14.5825 -14.1704 -13.4675 -13.3541
    -8.9388  -4.4139  -4.0602  -3.7402  -3.6873  -3.6306  -3.6178  -3.5641
    -3.5250  -3.4689  -3.3280  -3.2463  -3.2303  -3.1916  -3.1107  -3.0698
    -3.0010  -2.9654  -2.8609  -2.7704  -2.7667  -2.7247  -2.7056  -2.6345
    -2.5975  -2.5713  -2.5226  -2.5000  -2.4477  -2.3831  -2.3403  -2.3242
    -2.2655  -2.2248  -2.1988  -2.1603  -2.0399  -2.0019  -1.9775  -1.9241
    -1.8762  -1.8609  -1.8073  -1.7773  -1.6583  -1.5926  -1.5640  -1.5472
    -1.4482  -1.4275  -1.3986  -1.2920  -1.2783  -1.2707  -1.2384  -1.1683
    -1.1320  -1.0217  -0.9057  -0.8692  -0.8597  -0.8214  -0.8040  -0.7629
    -0.7422  -0.6728  -0.5754  -0.5240  -0.4757  -0.4252  -0.3630  -0.3423
    -0.2818  -0.2577  -0.2338  -0.2007  -0.1718  -0.1450  -0.1309  -0.1146
    -0.1005  -0.0773   0.0867   0.1446   0.1948   0.2128   0.3074   0.3703
     0.4118   0.4668   0.6405   0.7015   0.9839   1.0125   1.0656   1.2161
     1.3191   1.5133   1.5872   3.1854   3.2014   3.4844   3.5031   3.5229
     3.5596   3.5723   3.5967   3.6201   3.6500

          k = 0.0380 0.0419 0.0000 ( 17878 PWs)   bands (ev):

   -55.9906 -55.9830 -55.9666 -55.9575 -55.9004 -55.8406 -55.8333 -55.8090
   -55.7945 -55.7707 -55.7551 -55.7313 -55.5394 -55.2732 -54.9629 -54.9388
   -32.4900 -32.4240 -32.3037 -32.2977 -32.2931 -32.2840 -32.2750 -32.2435
   -32.2234 -32.2133 -32.2034 -32.1863 -32.1768 -32.1731 -32.1558 -32.1391
   -32.1316 -32.1192 -32.0665 -32.0592 -32.0476 -32.0379 -32.0315 -32.0147
   -32.0094 -32.0078 -31.9888 -31.9882 -31.9866 -31.9764 -31.9669 -31.9593
   -31.9539 -31.9375 -31.9243 -31.9207 -31.9179 -31.8105 -31.7083 -31.5739
   -31.5435 -31.4819 -31.3204 -31.2863 -31.2668 -31.1789 -31.1178 -31.0511
   -16.5596 -16.2735 -16.1088 -16.0251 -15.9967 -15.9459 -15.8812 -15.8120
   -15.7473 -15.6491 -15.6478 -15.6129 -15.6042 -15.5713 -15.4840 -15.4701
   -15.4420 -15.4064 -15.3740 -15.3183 -15.3037 -15.2730 -15.2390 -15.2340
   -15.2165 -15.1864 -15.1465 -15.0420 -14.6524 -14.1860 -13.4726 -13.3943
    -8.9382  -4.3923  -3.8839  -3.5718  -3.5273  -3.4790  -3.4464  -3.3716
    -3.3549  -3.3103  -3.2809  -3.1891  -3.1311  -3.0828  -3.0297  -3.0057
    -2.9725  -2.8829  -2.8764  -2.8547  -2.8002  -2.7727  -2.7553  -2.7171
    -2.7024  -2.7001  -2.6441  -2.6182  -2.6073  -2.5369  -2.4773  -2.4502
    -2.3496  -2.2978  -2.2669  -2.1951  -2.1379  -2.0588  -1.9984  -1.9763
    -1.9434  -1.7630  -1.7208  -1.6919  -1.5987  -1.5334  -1.4469  -1.4376
    -1.4099  -1.3215  -1.2960  -1.2734  -1.2338  -1.1622  -1.1294  -1.1126
    -1.0581  -0.9869  -0.9504  -0.9262  -0.8896  -0.8439  -0.7983  -0.7614
    -0.7153  -0.6888  -0.6759  -0.6646  -0.6182  -0.5801  -0.5578  -0.4987
    -0.4551  -0.4205  -0.3228  -0.2939  -0.2870  -0.2392  -0.1920  -0.1024
    -0.0610  -0.0225   0.0832   0.1456   0.2011   0.2451   0.3165   0.3672
     0.4004   0.4345   0.4584   0.5967   0.6612   0.9552   1.2469   1.2545
     1.3323   1.5011   1.5629   3.3256   3.3955   3.4296   3.5005   3.5652
     3.5862   3.6562   3.6835   3.7125   3.7449

          k = 0.0380-0.0839 0.0000 ( 17916 PWs)   bands (ev):

   -55.9790 -55.9782 -55.9716 -55.9690 -55.8978 -55.8433 -55.8220 -55.8204
   -55.7836 -55.7817 -55.7438 -55.7427 -55.5389 -55.2737 -54.9509 -54.9508
   -32.3520 -32.3484 -32.2920 -32.2913 -32.2816 -32.2746 -32.2738 -32.2606
   -32.1983 -32.1974 -32.1868 -32.1827 -32.1646 -32.1351 -32.1327 -32.1305
   -32.1039 -32.1000 -32.0997 -32.0990 -32.0947 -32.0764 -32.0740 -32.0517
   -32.0322 -32.0308 -32.0114 -32.0094 -32.0092 -31.9999 -31.9769 -31.9760
   -31.9564 -31.9537 -31.9358 -31.9356 -31.8788 -31.8097 -31.7067 -31.6123
   -31.5437 -31.4926 -31.2765 -31.2764 -31.1878 -31.1876 -31.1485 -31.1485
   -16.2494 -16.2269 -16.0268 -16.0197 -15.8996 -15.8908 -15.7936 -15.7809
   -15.7636 -15.7505 -15.6896 -15.6832 -15.5679 -15.5635 -15.4691 -15.4536
   -15.4182 -15.4137 -15.4026 -15.3999 -15.3533 -15.3460 -15.3024 -15.2899
   -15.2819 -15.2201 -15.1748 -15.0257 -14.7502 -14.2005 -13.4565 -13.4564
    -8.9377  -4.3701  -3.5052  -3.4636  -3.3106  -3.2695  -3.2458  -3.2302
    -3.1796  -3.1653  -3.1196  -3.0940  -3.0718  -3.0607  -3.0458  -3.0041
    -2.9957  -2.9626  -2.9329  -2.9042  -2.8356  -2.8268  -2.8164  -2.7972
    -2.7580  -2.7099  -2.7028  -2.6782  -2.6378  -2.6108  -2.5802  -2.5243
    -2.4599  -2.2875  -2.1113  -2.0857  -2.0781  -1.9666  -1.9097  -1.8897
    -1.8412  -1.8257  -1.7814  -1.7511  -1.7146  -1.6909  -1.6483  -1.6238
    -1.5802  -1.4899  -1.4626  -1.4222  -1.2667  -1.1955  -1.1463  -1.1210
    -1.0163  -0.9994  -0.9402  -0.9121  -0.8442  -0.7905  -0.7607  -0.7483
    -0.7299  -0.7057  -0.6806  -0.6462  -0.6064  -0.5925  -0.5665  -0.5423
    -0.5327  -0.4526  -0.4262  -0.3700  -0.3462  -0.2591  -0.1645  -0.1396
    -0.0654   0.0216   0.0967   0.1062   0.1440   0.1579   0.1843   0.2260
     0.3658   0.3870   0.5464   0.5620   0.6917   0.7420   1.2312   1.3998
     1.4003   1.5047   1.5054   3.3999   3.4156   3.4926   3.5144   3.5615
     3.5698   3.7149   3.7441   3.7697   3.7741

          k = 0.0380-0.0419 0.0000 ( 17876 PWs)   bands (ev):

   -55.9906 -55.9830 -55.9666 -55.9575 -55.9004 -55.8406 -55.8333 -55.8090
   -55.7945 -55.7707 -55.7551 -55.7313 -55.5394 -55.2732 -54.9629 -54.9388
   -32.4900 -32.4239 -32.3036 -32.2977 -32.2931 -32.2840 -32.2750 -32.2435
   -32.2234 -32.2132 -32.2034 -32.1868 -32.1764 -32.1730 -32.1558 -32.1393
   -32.1316 -32.1191 -32.0665 -32.0588 -32.0476 -32.0383 -32.0314 -32.0145
   -32.0094 -32.0080 -31.9889 -31.9881 -31.9866 -31.9764 -31.9669 -31.9590
   -31.9541 -31.9375 -31.9243 -31.9207 -31.9178 -31.8106 -31.7083 -31.5738
   -31.5435 -31.4819 -31.3204 -31.2863 -31.2667 -31.1789 -31.1178 -31.0511
   -16.5594 -16.2735 -16.1092 -16.0240 -15.9972 -15.9454 -15.8826 -15.8121
   -15.7478 -15.6483 -15.6448 -15.6130 -15.6053 -15.5717 -15.4843 -15.4701
   -15.4462 -15.4042 -15.3737 -15.3180 -15.3061 -15.2703 -15.2391 -15.2325
   -15.2167 -15.1870 -15.1467 -15.0423 -14.6521 -14.1863 -13.4726 -13.3943
    -8.9383  -4.3881  -3.8846  -3.5700  -3.5288  -3.4811  -3.4457  -3.3711
    -3.3492  -3.3179  -3.2829  -3.1888  -3.1282  -3.0864  -3.0321  -3.0075
    -2.9719  -2.8851  -2.8739  -2.8387  -2.8077  -2.7789  -2.7378  -2.7165
    -2.7019  -2.6951  -2.6457  -2.6248  -2.5978  -2.5392  -2.4774  -2.4515
    -2.3680  -2.3095  -2.2455  -2.1924  -2.1317  -2.0379  -1.9922  -1.9826
    -1.9348  -1.7860  -1.7368  -1.6972  -1.6117  -1.5382  -1.4526  -1.4315
    -1.4110  -1.3248  -1.3051  -1.2759  -1.2262  -1.1610  -1.1315  -1.1101
    -1.0635  -1.0004  -0.9534  -0.9254  -0.8901  -0.8476  -0.8013  -0.7809
    -0.7206  -0.6989  -0.6879  -0.6486  -0.6245  -0.5922  -0.5330  -0.4886
    -0.4433  -0.4109  -0.3267  -0.2953  -0.2855  -0.2344  -0.1905  -0.0700
    -0.0574  -0.0208   0.1123   0.1418   0.1909   0.2497   0.3255   0.3535
     0.4006   0.4291   0.4604   0.5990   0.6630   0.9562   1.2461   1.2544
     1.3321   1.5009   1.5635   3.3265   3.3945   3.4253   3.5194   3.5469
     3.5739   3.6412   3.6894   3.7047   3.7286

          k =-0.0760-0.0000 0.0000 ( 17886 PWs)   bands (ev):

   -55.9956 -55.9882 -55.9616 -55.9522 -55.9028 -55.8384 -55.8382 -55.8040
   -55.7993 -55.7657 -55.7602 -55.7263 -55.5399 -55.2727 -54.9678 -54.9338
   -32.5476 -32.4789 -32.3531 -32.3521 -32.3155 -32.2994 -32.2886 -32.2604
   -32.2370 -32.2359 -32.2072 -32.1716 -32.1711 -32.1422 -32.1304 -32.1270
   -32.1253 -32.0987 -32.0880 -32.0531 -32.0411 -32.0293 -32.0132 -32.0034
   -31.9982 -31.9904 -31.9888 -31.9784 -31.9730 -31.9630 -31.9574 -31.9540
   -31.9424 -31.9293 -31.9143 -31.9054 -31.8735 -31.8142 -31.7111 -31.5476
   -31.5437 -31.4679 -31.3740 -31.2937 -31.2614 -31.1914 -31.1050 -30.9939
   -16.6035 -16.2881 -16.1347 -16.0811 -16.0341 -15.9864 -15.8447 -15.7799
   -15.7678 -15.7070 -15.6992 -15.6891 -15.6876 -15.6728 -15.6406 -15.5597
   -15.3537 -15.3377 -15.3232 -15.2980 -15.2652 -15.2389 -15.1837 -15.1689
   -15.1486 -15.1340 -15.0773 -15.0241 -14.5801 -14.1662 -13.4645 -13.3538
    -8.9424  -4.4508  -4.0412  -3.6618  -3.5990  -3.5487  -3.3928  -3.3865
    -3.3532  -3.3205  -3.2582  -3.2532  -3.2382  -3.2086  -3.1953  -3.0296
    -2.9827  -2.8690  -2.7919  -2.7518  -2.7475  -2.6447  -2.6328  -2.5576
    -2.5562  -2.4950  -2.4865  -2.4114  -2.3742  -2.3180  -2.3007  -2.2905
    -2.2575  -2.2230  -2.2202  -2.1624  -2.1587  -2.1171  -2.0821  -2.0080
    -1.8101  -1.8016  -1.7686  -1.6445  -1.6241  -1.6023  -1.5860  -1.5758
    -1.5633  -1.4688  -1.4573  -1.3665  -1.3472  -1.3202  -1.2691  -1.2231
    -1.1924  -1.1527  -1.1490  -1.0778  -0.8799  -0.8335  -0.8269  -0.7578
    -0.7346  -0.6712  -0.6445  -0.6145  -0.5387  -0.5207  -0.4944  -0.4272
    -0.3931  -0.3100  -0.2720  -0.2535  -0.2090  -0.1941  -0.1765  -0.1487
    -0.0784  -0.0218   0.0219   0.0608   0.1270   0.2589   0.2758   0.3226
     0.4948   0.5073   0.6274   0.7015   0.7500   0.9959   1.0867   1.1918
     1.3155   1.3839   1.5315   3.1847   3.1920   3.3047   3.4275   3.4752
     3.5591   3.5961   3.6509   3.6703   3.6780

          k =-0.0760 0.0419 0.0000 ( 17914 PWs)   bands (ev):

   -55.9906 -55.9830 -55.9666 -55.9575 -55.9004 -55.8407 -55.8334 -55.8090
   -55.7944 -55.7707 -55.7553 -55.7313 -55.5394 -55.2732 -54.9629 -54.9389
   -32.4904 -32.4250 -32.3038 -32.3001 -32.2991 -32.2840 -32.2752 -32.2435
   -32.2234 -32.2134 -32.2084 -32.1776 -32.1736 -32.1696 -32.1560 -32.1295
   -32.1294 -32.1157 -32.0765 -32.0664 -32.0379 -32.0314 -32.0154 -32.0146
   -32.0113 -32.0080 -31.9933 -31.9877 -31.9860 -31.9764 -31.9751 -31.9667
   -31.9563 -31.9374 -31.9273 -31.9242 -31.9172 -31.8129 -31.7083 -31.5739
   -31.5444 -31.4819 -31.3202 -31.2891 -31.2661 -31.1789 -31.1178 -31.0511
   -16.4842 -16.1749 -16.0462 -15.9958 -15.9741 -15.8974 -15.8831 -15.7478
   -15.7406 -15.7296 -15.6763 -15.6571 -15.6494 -15.6195 -15.5979 -15.5537
   -15.4258 -15.3996 -15.3907 -15.3730 -15.3188 -15.2759 -15.2581 -15.2398
   -15.1846 -15.1685 -15.1443 -15.0387 -14.6505 -14.1830 -13.4705 -13.3946
    -8.9412  -4.4096  -3.8711  -3.4990  -3.3630  -3.3271  -3.2969  -3.2561
    -3.1939  -3.1480  -3.1075  -3.0854  -3.0656  -3.0386  -2.9947  -2.9805
    -2.9556  -2.9363  -2.8564  -2.7907  -2.7693  -2.7492  -2.7139  -2.6964
    -2.6807  -2.6586  -2.5998  -2.5749  -2.4810  -2.4700  -2.4655  -2.4492
    -2.3504  -2.2491  -2.2000  -2.1231  -2.1168  -2.0757  -2.0281  -1.9553
    -1.9421  -1.7793  -1.7279  -1.6376  -1.6013  -1.5540  -1.5444  -1.4808
    -1.4632  -1.4196  -1.4006  -1.3210  -1.3066  -1.2738  -1.2313  -1.2173
    -1.2010  -1.1551  -1.1327  -1.0938  -1.0442  -1.0120  -0.9860  -0.9337
    -0.8363  -0.7984  -0.7641  -0.7354  -0.7266  -0.6926  -0.6198  -0.5852
    -0.5499  -0.5138  -0.4037  -0.3361  -0.3040  -0.2809  -0.1592  -0.0944
    -0.0001   0.0481   0.0870   0.1977   0.2463   0.3130   0.3549   0.3967
     0.4581   0.4696   0.5315   0.5802   0.6059   0.8033   1.2584   1.2692
     1.3355   1.4246   1.5522   3.3119   3.3680   3.3927   3.4613   3.4763
     3.5044   3.6301   3.6713   3.7175   3.7733

          k =-0.0760-0.0839 0.0000 ( 17948 PWs)   bands (ev):

   -55.9790 -55.9782 -55.9716 -55.9690 -55.8979 -55.8433 -55.8220 -55.8204
   -55.7835 -55.7816 -55.7439 -55.7428 -55.5390 -55.2738 -54.9510 -54.9509
   -32.3523 -32.3487 -32.2927 -32.2921 -32.2817 -32.2747 -32.2738 -32.2608
   -32.1990 -32.1979 -32.1930 -32.1886 -32.1651 -32.1340 -32.1193 -32.1151
   -32.1019 -32.0999 -32.0985 -32.0978 -32.0947 -32.0836 -32.0813 -32.0494
   -32.0416 -32.0405 -32.0110 -31.9999 -31.9805 -31.9801 -31.9765 -31.9755
   -31.9588 -31.9581 -31.9566 -31.9536 -31.8785 -31.8117 -31.7067 -31.6122
   -31.5446 -31.4927 -31.2775 -31.2774 -31.1877 -31.1876 -31.1485 -31.1485
   -16.2102 -16.1751 -15.9383 -15.9270 -15.9203 -15.9046 -15.7589 -15.7120
   -15.7004 -15.6932 -15.6704 -15.6473 -15.5897 -15.5607 -15.5320 -15.5233
   -15.5172 -15.5152 -15.4534 -15.4482 -15.4251 -15.4182 -15.3045 -15.3007
   -15.2915 -15.2155 -15.1610 -15.0213 -14.7471 -14.1982 -13.4563 -13.4562
    -8.9402  -4.3698  -3.5042  -3.4641  -3.2911  -3.2394  -3.1789  -3.1624
    -3.1385  -3.0695  -2.9058  -2.8889  -2.8777  -2.8621  -2.8202  -2.8139
    -2.8035  -2.7912  -2.7843  -2.7652  -2.7319  -2.6991  -2.6603  -2.6530
    -2.6444  -2.6197  -2.6085  -2.5869  -2.5750  -2.5442  -2.5351  -2.5176
    -2.4881  -2.2265  -2.2067  -2.1956  -2.1245  -2.1179  -2.0842  -2.0665
    -2.0566  -2.0435  -1.9863  -1.8825  -1.7258  -1.6941  -1.6825  -1.6690
    -1.5851  -1.5762  -1.4230  -1.4017  -1.3816  -1.3442  -1.2901  -1.2679
    -1.2275  -1.1683  -1.1514  -1.0876  -1.0707  -1.0116  -0.9561  -0.9543
    -0.9333  -0.8579  -0.7762  -0.7609  -0.7476  -0.7085  -0.6985  -0.6116
    -0.5879  -0.4946  -0.4804  -0.4221  -0.3974  -0.2961  -0.1366  -0.0117
     0.0420   0.0679   0.1254   0.2240   0.2680   0.2800   0.3242   0.3304
     0.3920   0.4323   0.5455   0.5514   0.6261   0.7174   1.2570   1.4181
     1.4187   1.4898   1.4899   3.4105   3.4157   3.4629   3.4922   3.6474
     3.6520   3.6741   3.6753   3.8003   3.8172

     the Fermi energy is     3.1403 ev

!    total energy              =   -2920.42408944 Ry
     estimated scf accuracy    <       0.00000006 Ry
     smearing contrib. (-TS)   =      -0.02203146 Ry
     internal energy E=F+TS    =   -2920.40205798 Ry

     The total energy is F=E-TS. E is the sum of the following terms:
     one-electron contribution =  -24701.74187728 Ry
     hartree contribution      =   12435.46879023 Ry
     xc contribution           =    -480.87165370 Ry
     ewald contribution        =    9826.74179789 Ry
     electric field correction =       0.00088488 Ry

     convergence has been achieved in  55 iterations

     Forces acting on atoms (cartesian axes, Ry/au):

     atom    1 type  1   force =     0.00012904   -0.00026708    0.09690451
     atom    2 type  1   force =     0.00002619   -0.00053348   -0.17505406
     atom    3 type  2   force =     0.00013459   -0.00007589   -0.02545510
     atom    4 type  2   force =    -0.00000887   -0.00136631    0.05233167
     atom    5 type  2   force =    -0.01237952   -0.00013929    0.00301343
     atom    6 type  2   force =     0.01381308    0.00023190    0.00237556
     atom    7 type  1   force =     0.00057451    0.00033254   -0.01265385
     atom    8 type  1   force =     0.00045861    0.00595578    0.03108734
     atom    9 type  2   force =    -0.00033244    0.00023955    0.00038690
     atom   10 type  2   force =    -0.00269342    0.00069272   -0.01624047
     atom   11 type  2   force =    -0.00042106    0.00012701    0.00016800
     atom   12 type  2   force =     0.00014053    0.00013619    0.00019769
     atom   13 type  1   force =    -0.00012220    0.00025078    0.00020893
     atom   14 type  1   force =    -0.00003699   -0.00021793   -0.00015378
     atom   15 type  2   force =     0.00021417    0.00009472    0.00036487
     atom   16 type  2   force =    -0.00006860    0.00027505    0.00021847
     atom   17 type  2   force =    -0.00007802   -0.00021734   -0.00026969
     atom   18 type  2   force =     0.00033710   -0.00011762    0.00021172
     atom   19 type  1   force =    -0.00005247    0.00020672    0.00001694
     atom   20 type  1   force =    -0.00002654   -0.00009205   -0.00039316
     atom   21 type  2   force =     0.00007117   -0.00005719    0.10307799
     atom   22 type  2   force =    -0.00011009   -0.00001060    0.00022200
     atom   23 type  2   force =    -0.07162912   -0.00016068   -0.02782138
     atom   24 type  2   force =     0.07154833    0.00032535   -0.02787764
     atom   25 type  1   force =     0.00011181   -0.00024054    0.09671541
     atom   26 type  1   force =     0.00011962   -0.00028249   -0.17522222
     atom   27 type  2   force =     0.00013327   -0.00023301   -0.02452638
     atom   28 type  2   force =     0.00002899   -0.00112678    0.05224701
     atom   29 type  2   force =    -0.01249981    0.00013779    0.00267002
     atom   30 type  2   force =     0.01382096    0.00069092    0.00200925
     atom   31 type  1   force =     0.00051551    0.00291979   -0.01340986
     atom   32 type  1   force =     0.00028110   -0.00822427    0.03148192
     atom   33 type  2   force =    -0.00005632   -0.00006667   -0.00012313
     atom   34 type  2   force =    -0.00184048    0.00056475   -0.02455314
     atom   35 type  2   force =    -0.00014804    0.00010144    0.00004487
     atom   36 type  2   force =    -0.00024390    0.00019727    0.00012039
     atom   37 type  1   force =    -0.00004893    0.00031728    0.00022291
     atom   38 type  1   force =    -0.00023604   -0.00006341   -0.00016268
     atom   39 type  2   force =     0.00005438    0.00020167   -0.00011587
     atom   40 type  2   force =    -0.00017287    0.00026812   -0.00015631
     atom   41 type  2   force =     0.00006524    0.00006555    0.00021384
     atom   42 type  2   force =    -0.00009505    0.00001461    0.00032483
     atom   43 type  1   force =    -0.00022574   -0.00022599    0.00052012
     atom   44 type  1   force =     0.00034112   -0.00020829    0.00013429
     atom   45 type  2   force =     0.00005204   -0.00006827    0.10309266
     atom   46 type  2   force =    -0.07163539   -0.00008730   -0.02781820
     atom   47 type  2   force =     0.07156792    0.00033459   -0.02789888
     atom   48 type  3   force =    -0.00055252    0.00017813    0.00000446
     atom   49 type  4   force =     0.00037399   -0.00109496    0.00031888
     atom   50 type  5   force =     0.00346841    0.00170100   -0.00103283
     atom   51 type  3   force =    -0.00062222   -0.00144669   -0.00024903
     atom   52 type  3   force =    -0.00185077   -0.00076535    0.00056962
     atom   53 type  3   force =    -0.00019424    0.00082826   -0.00028881

     Total force =     0.368385     Total SCF correction =     0.000638
  @ DRIVER MODE: Message from server: STATUS
  @ DRIVER MODE: Message from server: GETFORCE
  @ DRIVER MODE: Returning v,forces,stress,ensemble 

     Writing output data file ./calc.save/
  @ DRIVER MODE: Message from server: EXIT
  @ DRIVE MODE: Exiting  
 
     init_run     :     13.12s CPU     13.24s WALL (       1 calls)
     electrons    :    676.51s CPU    685.32s WALL (       1 calls)
     forces       :      1.66s CPU      1.69s WALL (       1 calls)

     Called by init_run:
     wfcinit      :      3.69s CPU      3.72s WALL (       1 calls)
     potinit      :      7.70s CPU      7.75s WALL (       1 calls)
     hinit0       :      0.88s CPU      0.89s WALL (       1 calls)

     Called by electrons:
     c_bands      :    573.57s CPU    576.99s WALL (      55 calls)
     sum_band     :     69.82s CPU     71.40s WALL (      55 calls)
     v_of_rho     :     27.73s CPU     28.32s WALL (      56 calls)
     newd         :      8.78s CPU     10.62s WALL (      56 calls)
     mix_rho      :      3.28s CPU      4.56s WALL (      55 calls)
     vdW_kernel   :      6.12s CPU      6.14s WALL (       1 calls)

     Called by c_bands:
     init_us_2    :      3.46s CPU      3.48s WALL (    1120 calls)
     cegterg      :    563.66s CPU    566.86s WALL (     550 calls)

     Called by *egterg:
     cdiaghg      :    132.93s CPU    133.42s WALL (    5869 calls)
     h_psi        :    270.76s CPU    272.95s WALL (    5879 calls)
     s_psi        :     33.06s CPU     33.17s WALL (    5879 calls)
     g_psi        :      0.82s CPU      0.83s WALL (    5319 calls)

     Called by h_psi:
     h_psi:calbec :     33.66s CPU     33.79s WALL (    5879 calls)
     vloc_psi     :    202.00s CPU    203.94s WALL (    5879 calls)
     add_vuspsi   :     33.53s CPU     33.64s WALL (    5879 calls)

     General routines
     calbec       :     45.05s CPU     45.23s WALL (    6469 calls)
     fft          :     14.12s CPU     14.25s WALL (    3528 calls)
     ffts         :      0.16s CPU      0.16s WALL (     111 calls)
     fftw         :    237.45s CPU    239.64s WALL (  722616 calls)
     interpolate  :      0.39s CPU      0.40s WALL (      56 calls)
     davcio       :      0.00s CPU      0.12s WALL (      10 calls)
 
     Parallel routines
 
     PWSCF        :  11m42.66s CPU  11m52.20s WALL

 
   This run was terminated on:  19:41:32   2Aug2021            

=------------------------------------------------------------------------------=
   JOB DONE.
=------------------------------------------------------------------------------=
