
     Program PWSCF v.6.7GPU starts on 15Sep2021 at 17:40:36 

     This program is part of the open-source Quantum ESPRESSO suite
     for quantum simulation of materials; please cite
         "P. Giannozzi et al., J. Phys.:Condens. Matter 21 395502 (2009);
         "P. Giannozzi et al., J. Phys.:Condens. Matter 29 465901 (2017);
         "P. Giannozzi et al., J. Chem. Phys. 152 154105 (2020);
          URL http://www.quantum-espresso.org", 
     in publications or presentations arising from this work. More details at
     http://www.quantum-espresso.org/quote

     Parallel version (MPI), running on    10 processors

     MPI processes distributed on     1 nodes
     R & G space division:  proc/nbgrp/npool/nimage =      10
     Reading input from /storage/home/hcoda1/3/ntian30/research/carbon/CxH_vib/H2O_calc/ads_slab/CHN2HH2O_a/out_0007/pw.inp
Warning: card &CELL ignored
Warning: card   CELL_DYNAMICS='IPI', ignored
Warning: card / ignored

     Current dimensions of program PWSCF are:
     Max number of different atomic species (ntypx) = 10
     Max number of k-points (npk) =  40000
     Max angular momentum in pseudopotentials (lmaxx) =  3
     Presently no symmetry can be used with electric field

     Message from routine cell_base_init:
     DEPRECATED: use true lattice parameter, not A to a.u. conversion factor

     **************************************************************************
     Initializing libbeef V0.1.2 with the BEEF-vdW functional.
     Citation: Wellendorff et al., PRB 85, 235149 (2012).
     **************************************************************************


     IMPORTANT: XC functional enforced from input :
     Exchange-correlation= BEEF-VDW
                           (   1   4  43  14   2   0   0)
     Any further DFT definition will be discarded
     Please, verify this is what you really want


     Subspace diagonalization in iterative solution of the eigenvalue problem:
     one sub-group per band group will be used
     scalapack distributed-memory algorithm (size of sub-group:  3*  3 procs)

  @ DRIVER MODE: Connecting to 
 qe_1139763_2852626.sched-torque.pace.gatech.eduqrv_kvb1_scratch
  using UNIX socket
  @ DRIVER MODE: Message from server: STATUS
  @ DRIVER MODE: Message from server: INIT
  @ DRIVER MODE: Receiving replica           0          -1
  @ DRIVER MODE: Receiving encoded integer          25
  @ DRIVER MODE:  SCF:  T  FORCE:  T  STRESS:  F  VC:  F  ENSEMBLE:  F
  @ DRIVER MODE:  SCF:  T  FORCE:  T  STRESS:  F  VC:  F  ENSEMBLE:  F
 
     Parallelization info
     --------------------
     sticks:   dense  smooth     PW     G-vecs:    dense   smooth      PW
     Min         327     131     37                56683    14340    2191
     Max         328     133     38                56694    14346    2206
     Sum        3275    1317    379               566857   143421   21985
 
     Using Slab Decomposition
 


     bravais-lattice index     =            0
     lattice parameter (alat)  =       1.8897  a.u.
     unit-cell volume          =    6658.9804 (a.u.)^3
     number of atoms/cell      =           55
     number of atomic types    =            5
     number of electrons       =       402.00
     number of Kohn-Sham states=          211
     kinetic-energy cutoff     =      29.3995  Ry
     charge density cutoff     =     293.9946  Ry
     scf convergence threshold =      7.3E-08
     mixing beta               =       0.0500
     number of iterations used =            8  plain     mixing
     Exchange-correlation= BEEF-VDW
                           (   1   4  43  14   2   0   0)

     celldm(1)=   1.889726  celldm(2)=   0.000000  celldm(3)=   0.000000
     celldm(4)=   0.000000  celldm(5)=   0.000000  celldm(6)=   0.000000

     crystal axes: (cart. coord. in units of alat)
               a(1) = (   6.579727   0.000000   0.000000 )  
               a(2) = (  -0.000775   5.961596   0.000000 )  
               a(3) = (   0.000000   0.000000  25.155947 )  

     reciprocal axes: (cart. coord. in units 2 pi/alat)
               b(1) = (  0.151982  0.000020  0.000000 )  
               b(2) = (  0.000000  0.167740  0.000000 )  
               b(3) = (  0.000000  0.000000  0.039752 )  


     PseudoPot. # 1 for Ti read from file:
     /storage/coda1/p-amedford6/0/shared/rich_project_chbe-medford/medford-share/data/pseudos_module/espresso/nninc/pbe/van/Ti.UPF
     MD5 check sum: 8e4df49b7f0d34bbd5052bf3f5ea0213
     Pseudo is Ultrasoft, Zval = 12.0
     Generated by new atomic code, or converted to UPF format
     Using radial grid of  851 points,  6 beta functions with: 
                l(1) =   0
                l(2) =   0
                l(3) =   1
                l(4) =   1
                l(5) =   2
                l(6) =   2
     Q(r) pseudized with  8 coefficients,  rinner =    1.000   1.000   1.000
                                                       1.000   1.000

     PseudoPot. # 2 for O  read from file:
     /storage/coda1/p-amedford6/0/shared/rich_project_chbe-medford/medford-share/data/pseudos_module/espresso/nninc/pbe/van/O.UPF
     MD5 check sum: 78c19812648e8988a0fe644b0f25305e
     Pseudo is Ultrasoft, Zval =  6.0
     Generated by new atomic code, or converted to UPF format
     Using radial grid of  737 points,  4 beta functions with: 
                l(1) =   0
                l(2) =   0
                l(3) =   1
                l(4) =   1
     Q(r) pseudized with  8 coefficients,  rinner =    0.800   0.800   0.800


     PseudoPot. # 3 for N  read from file:
     /storage/coda1/p-amedford6/0/shared/rich_project_chbe-medford/medford-share/data/pseudos_module/espresso/nninc/pbe/van/N.UPF
     MD5 check sum: 90d10febe142ad51ac9d5be1deb811c4
     Pseudo is Ultrasoft, Zval =  5.0
     Generated by new atomic code, or converted to UPF format
     Using radial grid of  729 points,  4 beta functions with: 
                l(1) =   0
                l(2) =   0
                l(3) =   1
                l(4) =   1
     Q(r) pseudized with  8 coefficients,  rinner =    0.800   0.800   0.800


     PseudoPot. # 4 for C  read from file:
     /storage/coda1/p-amedford6/0/shared/rich_project_chbe-medford/medford-share/data/pseudos_module/espresso/nninc/pbe/van/C.UPF
     MD5 check sum: 1a69bf6b8db32088f5b2163dbdb77a27
     Pseudo is Ultrasoft, Zval =  4.0
     Generated by new atomic code, or converted to UPF format
     Using radial grid of  721 points,  4 beta functions with: 
                l(1) =   0
                l(2) =   0
                l(3) =   1
                l(4) =   1
     Q(r) pseudized with  8 coefficients,  rinner =    0.800   0.800   0.800


     PseudoPot. # 5 for H  read from file:
     /storage/coda1/p-amedford6/0/shared/rich_project_chbe-medford/medford-share/data/pseudos_module/espresso/nninc/pbe/van/H.UPF
     MD5 check sum: b5ee9d7bfd3a09ee7748110bda690ff7
     Pseudo is Ultrasoft, Zval =  1.0
     Generated by new atomic code, or converted to UPF format
     Using radial grid of  615 points,  1 beta functions with: 
                l(1) =   0
     Q(r) pseudized with  8 coefficients,  rinner =    0.800

     atomic species   valence    mass     pseudopotential
        Ti1           12.00    47.86700     Ti( 1.00)
        O1             6.00    15.99900     O ( 1.00)
        N1             5.00    14.00700     N ( 1.00)
        C1             4.00    12.01100     C ( 1.00)
        H1             1.00     1.00800     H ( 1.00)

     No symmetry found



   Cartesian axes

     site n.     atom                  positions (alat units)
         1           Ti1 tau(   1) = (   0.0004258   2.9801865   6.0000000  )
         2           Ti1 tau(   2) = (   3.2906075   1.4906267   6.0002472  )
         3           O1  tau(   3) = (   0.0006271   0.0005054   7.9858123  )
         4           O1  tau(   4) = (   3.2906025   0.0005020   7.3038282  )
         5           O1  tau(   5) = (   4.5942328   1.4918067   9.2879030  )
         6           O1  tau(   6) = (   1.9868534   1.4903216   9.2879459  )
         7           Ti1 tau(   7) = (   3.2907910   2.8959150   9.1758416  )
         8           Ti1 tau(   8) = (   0.0015273   1.4827037   9.2680791  )
         9           O1  tau(   9) = (   3.2768631   0.0039008  11.3091060  )
        10           O1  tau(  10) = (   0.0116148   5.9584955  10.6183126  )
        11           O1  tau(  11) = (   1.2710838   1.4709840  12.6395574  )
        12           O1  tau(  12) = (   5.2772223   1.5075092  12.6020671  )
        13           Ti1 tau(  13) = (   0.0276258   2.9086511  12.7028215  )
        14           Ti1 tau(  14) = (   3.3492493   1.4375301  12.4845766  )
        15           O1  tau(  15) = (   6.5006329   5.9509897  14.6081112  )
        16           O1  tau(  16) = (   3.3450391   0.0041935  13.9069437  )
        17           O1  tau(  17) = (   4.5555219   1.5659029  16.0522165  )
        18           O1  tau(  18) = (   1.9836904   1.4119734  15.8927236  )
        19           Ti1 tau(  19) = (   3.2827818   2.9316656  15.8555152  )
        20           Ti1 tau(  20) = (   6.5629331   1.3437128  15.9803530  )
        21           O1  tau(  21) = (   3.2904802   0.0005063   4.7018136  )
        22           O1  tau(  22) = (   6.5074089   5.9525318  17.1494500  )
        23           O1  tau(  23) = (   1.3043587   1.4918075   6.0039043  )
        24           O1  tau(  24) = (   5.2767064   1.4903225   6.0039473  )
        25           Ti1 tau(  25) = (   0.0000382   5.9609847   6.0000000  )
        26           Ti1 tau(  26) = (   3.2902200   4.4714249   6.0002472  )
        27           O1  tau(  27) = (   0.0002396   2.9813036   7.9858123  )
        28           O1  tau(  28) = (   3.2902150   2.9813002   7.3038282  )
        29           O1  tau(  29) = (   4.5938453   4.4726049   9.2879030  )
        30           O1  tau(  30) = (   1.9864658   4.4711199   9.2879459  )
        31           Ti1 tau(  31) = (   3.2891106   5.8743827   9.1763621  )
        32           Ti1 tau(  32) = (   0.0006254   4.4649316   9.2693709  )
        33           O1  tau(  33) = (   3.2854303   2.9668816  11.2996989  )
        34           O1  tau(  34) = (   0.0092240   2.9805883  10.6323155  )
        35           O1  tau(  35) = (   1.2743094   4.4851408  12.6236879  )
        36           O1  tau(  36) = (   5.2782958   4.4707264  12.5946799  )
        37           Ti1 tau(  37) = (   0.0481499   5.8920156  12.5607908  )
        38           Ti1 tau(  38) = (   3.3544845   4.3749597  12.5572158  )
        39           O1  tau(  39) = (   6.5410016   3.0017514  14.6365314  )
        40           O1  tau(  40) = (   3.2441134   3.0029108  13.8718978  )
        41           O1  tau(  41) = (   4.5385932   4.4028810  16.0550583  )
        42           O1  tau(  42) = (   1.9619458   4.5383001  15.8611175  )
        43           Ti1 tau(  43) = (   3.2178196   5.9097812  15.7399460  )
        44           Ti1 tau(  44) = (   6.5330930   4.4908980  15.8705378  )
        45           O1  tau(  45) = (   3.2900926   2.9813045   4.7018136  )
        46           O1  tau(  46) = (   1.3039711   4.4726057   6.0039043  )
        47           O1  tau(  47) = (   5.2763189   4.4711207   6.0039473  )
        48           N1  tau(  48) = (   1.2867840   3.0293760  18.3347772  )
        49           C1  tau(  49) = (   2.4903166   3.0326976  17.9707196  )
        50           H1  tau(  50) = (   3.2053588   3.1791635  18.8000936  )
        51           N1  tau(  51) = (   0.2138509   2.9871109  17.4421441  )
        52           H1  tau(  52) = (   5.9621615   2.9869774  18.0311354  )
        53           O1  tau(  53) = (   3.4290693   5.9360351  18.0748810  )
        54           H1  tau(  54) = (   4.3780305   0.1327944  18.2306609  )
        55           H1  tau(  55) = (   2.9458904   0.7245148  18.4607207  )

     number of k points=    10  Fermi-Dirac smearing, width (Ry)=  0.0073
                       cart. coord. in units 2pi/alat
        k(    1) = (   0.0000000   0.0000000   0.0000000), wk =   0.1250000
        k(    2) = (   0.0000000   0.0419351   0.0000000), wk =   0.2500000
        k(    3) = (   0.0000000  -0.0838702   0.0000000), wk =   0.1250000
        k(    4) = (   0.0379955   0.0000049   0.0000000), wk =   0.2500000
        k(    5) = (   0.0379955   0.0419400   0.0000000), wk =   0.2500000
        k(    6) = (   0.0379955  -0.0838652   0.0000000), wk =   0.2500000
        k(    7) = (   0.0379955  -0.0419301   0.0000000), wk =   0.2500000
        k(    8) = (  -0.0759910  -0.0000099   0.0000000), wk =   0.1250000
        k(    9) = (  -0.0759910   0.0419252   0.0000000), wk =   0.2500000
        k(   10) = (  -0.0759910  -0.0838800   0.0000000), wk =   0.1250000

     Dense  grid:   566857 G-vectors     FFT dimensions: (  72,  64, 270)

     Smooth grid:   143421 G-vectors     FFT dimensions: (  45,  40, 180)

     Estimated max dynamical RAM per process >     367.45 MB

     Estimated total dynamical RAM >       3.59 GB
     Cannot read rho : file not found

     Initial potential from superposition of free atoms

     starting charge  385.99915, renormalised to  402.00000

     negative rho (up, down):  1.831E-02 0.000E+00


     %%%%%%%%%%%%%%%%%%%%%%%%%%%%%%%%%%%%%%%%%%%%%%%%%%%%%%%%%%%%%%%%%%%%%%%%
     %                                                                      %
     % You are using vdW-DF, which was implemented by the Thonhauser group. %
     % Please cite the following two papers that made this development      %
     % possible and the two reviews that describe the various versions:     %
     %                                                                      %
     %   T. Thonhauser et al., PRL 115, 136402 (2015).                      %
     %   T. Thonhauser et al., PRB 76, 125112 (2007).                       %
     %   K. Berland et al., Rep. Prog. Phys. 78, 066501 (2015).             %
     %   D.C. Langreth et al., J. Phys.: Condens. Matter 21, 084203 (2009). %
     %                                                                      %
     %                                                                      %
     % If you are calculating the stress with vdW-DF, please also cite:     %
     %                                                                      %
     %   R. Sabatini et al., J. Phys.: Condens. Matter 24, 424209 (2012).   %
     %                                                                      %
     %%%%%%%%%%%%%%%%%%%%%%%%%%%%%%%%%%%%%%%%%%%%%%%%%%%%%%%%%%%%%%%%%%%%%%%%


 
     Adding external electric field

     Computed dipole along edir(3) : 
        Dipole              -11.0899 Ry au,        -28.1877 Debye
        Dipole field         -0.0209 Ry au, 
 
        Potential amp.        1.9400 Ry
        Total length         46.3494 bohr
 
     Starting wfcs are  304 atomic wfcs
  @ DRIVER MODE: Message from server: STATUS
  @ DRIVER MODE: Message from server: POSDATA
  @ DRIVER MODE: Reading and sharing cell 
  @ DRIVER MODE: Reading and sharing positions 
  @ DRIVER MODE: Received positions 

     total cpu time spent up to now is       11.3 secs

     Self-consistent Calculation

     iteration #  1     ecut=    29.40 Ry     beta= 0.05
     Davidson diagonalization with overlap
     c_bands:  4 eigenvalues not converged
     c_bands:  1 eigenvalues not converged
     c_bands:  3 eigenvalues not converged
     c_bands:  4 eigenvalues not converged
     c_bands:  1 eigenvalues not converged
     c_bands:  2 eigenvalues not converged
     c_bands:  1 eigenvalues not converged
     c_bands:  1 eigenvalues not converged
     c_bands:  5 eigenvalues not converged
     c_bands:  5 eigenvalues not converged
     ethr =  1.00E-05,  avg # of iterations = 26.0

     negative rho (up, down):  1.066E-02 0.000E+00
 
     Adding external electric field

     Computed dipole along edir(3) : 
        Dipole               51.3621 Ry au,        130.5495 Debye
        Dipole field          0.0969 Ry au, 
 
        Potential amp.       -8.9850 Ry
        Total length         46.3494 bohr
 

     total cpu time spent up to now is       57.3 secs

     total energy              =   -2403.81917897 Ry
     estimated scf accuracy    <    6374.04121217 Ry

     iteration #  2     ecut=    29.40 Ry     beta= 0.05
     Davidson diagonalization with overlap
     ethr =  1.00E-02,  avg # of iterations = 25.2

     negative rho (up, down):  9.068E-04 0.000E+00
 
     Adding external electric field

     Computed dipole along edir(3) : 
        Dipole                0.0774 Ry au,          0.1968 Debye
        Dipole field          0.0001 Ry au, 
 
        Potential amp.       -0.0135 Ry
        Total length         46.3494 bohr
 

     total cpu time spent up to now is      134.0 secs

     total energy              =   -2484.10730931 Ry
     estimated scf accuracy    <   69609.21713326 Ry

     iteration #  3     ecut=    29.40 Ry     beta= 0.05
     Davidson diagonalization with overlap
     ethr =  1.00E-02,  avg # of iterations = 15.3

     negative rho (up, down):  9.778E-04 0.000E+00
 
     Adding external electric field

     Computed dipole along edir(3) : 
        Dipole               -3.1504 Ry au,         -8.0076 Debye
        Dipole field         -0.0059 Ry au, 
 
        Potential amp.        0.5511 Ry
        Total length         46.3494 bohr
 

     total cpu time spent up to now is      182.0 secs

     total energy              =   -2959.88138036 Ry
     estimated scf accuracy    <    5543.00269959 Ry

     iteration #  4     ecut=    29.40 Ry     beta= 0.05
     Davidson diagonalization with overlap
     ethr =  1.00E-02,  avg # of iterations = 10.1

     negative rho (up, down):  1.023E-03 0.000E+00
 
     Adding external electric field

     Computed dipole along edir(3) : 
        Dipole               -5.1667 Ry au,        -13.1323 Debye
        Dipole field         -0.0098 Ry au, 
 
        Potential amp.        0.9038 Ry
        Total length         46.3494 bohr
 

     total cpu time spent up to now is      200.8 secs

     total energy              =   -2955.26081893 Ry
     estimated scf accuracy    <    2242.49926142 Ry

     iteration #  5     ecut=    29.40 Ry     beta= 0.05
     Davidson diagonalization with overlap
     c_bands:  3 eigenvalues not converged
     c_bands:  2 eigenvalues not converged
     c_bands:  3 eigenvalues not converged
     c_bands:  5 eigenvalues not converged
     ethr =  1.00E-02,  avg # of iterations = 15.2

     negative rho (up, down):  1.050E-03 0.000E+00
 
     Adding external electric field

     Computed dipole along edir(3) : 
        Dipole               -5.0401 Ry au,        -12.8107 Debye
        Dipole field         -0.0095 Ry au, 
 
        Potential amp.        0.8817 Ry
        Total length         46.3494 bohr
 

     total cpu time spent up to now is      219.1 secs

     total energy              =   -2970.75230287 Ry
     estimated scf accuracy    <     258.09997282 Ry

     iteration #  6     ecut=    29.40 Ry     beta= 0.05
     Davidson diagonalization with overlap
     ethr =  1.00E-02,  avg # of iterations =  4.3

     negative rho (up, down):  1.051E-03 0.000E+00
 
     Adding external electric field

     Computed dipole along edir(3) : 
        Dipole               -4.8773 Ry au,        -12.3968 Debye
        Dipole field         -0.0092 Ry au, 
 
        Potential amp.        0.8532 Ry
        Total length         46.3494 bohr
 

     total cpu time spent up to now is      230.7 secs

     total energy              =   -2973.40879918 Ry
     estimated scf accuracy    <     100.68184710 Ry

     iteration #  7     ecut=    29.40 Ry     beta= 0.05
     Davidson diagonalization with overlap
     ethr =  1.00E-02,  avg # of iterations =  1.4

     negative rho (up, down):  1.117E-03 0.000E+00
 
     Adding external electric field

     Computed dipole along edir(3) : 
        Dipole               -4.0864 Ry au,        -10.3866 Debye
        Dipole field         -0.0077 Ry au, 
 
        Potential amp.        0.7149 Ry
        Total length         46.3494 bohr
 

     total cpu time spent up to now is      240.8 secs

     total energy              =   -2973.01731415 Ry
     estimated scf accuracy    <      97.97015022 Ry

     iteration #  8     ecut=    29.40 Ry     beta= 0.05
     Davidson diagonalization with overlap
     ethr =  1.00E-02,  avg # of iterations =  1.0

     negative rho (up, down):  1.405E-03 0.000E+00
 
     Adding external electric field

     Computed dipole along edir(3) : 
        Dipole               -2.2419 Ry au,         -5.6983 Debye
        Dipole field         -0.0042 Ry au, 
 
        Potential amp.        0.3922 Ry
        Total length         46.3494 bohr
 

     total cpu time spent up to now is      250.6 secs

     total energy              =   -2972.56540232 Ry
     estimated scf accuracy    <     100.77472488 Ry

     iteration #  9     ecut=    29.40 Ry     beta= 0.05
     Davidson diagonalization with overlap
     ethr =  1.00E-02,  avg # of iterations =  2.0

     negative rho (up, down):  1.405E-03 0.000E+00
 
     Adding external electric field

     Computed dipole along edir(3) : 
        Dipole               -2.9356 Ry au,         -7.4617 Debye
        Dipole field         -0.0055 Ry au, 
 
        Potential amp.        0.5135 Ry
        Total length         46.3494 bohr
 

     total cpu time spent up to now is      261.4 secs

     total energy              =   -2970.48407384 Ry
     estimated scf accuracy    <     790.78100636 Ry

     iteration # 10     ecut=    29.40 Ry     beta= 0.05
     Davidson diagonalization with overlap
     ethr =  1.00E-02,  avg # of iterations =  1.0

     negative rho (up, down):  1.625E-03 0.000E+00
 
     Adding external electric field

     Computed dipole along edir(3) : 
        Dipole               -3.6245 Ry au,         -9.2125 Debye
        Dipole field         -0.0068 Ry au, 
 
        Potential amp.        0.6340 Ry
        Total length         46.3494 bohr
 

     total cpu time spent up to now is      271.3 secs

     total energy              =   -2968.52442472 Ry
     estimated scf accuracy    <     144.33149323 Ry

     iteration # 11     ecut=    29.40 Ry     beta= 0.05
     Davidson diagonalization with overlap
     ethr =  1.00E-02,  avg # of iterations =  1.4

     negative rho (up, down):  1.872E-03 0.000E+00
 
     Adding external electric field

     Computed dipole along edir(3) : 
        Dipole               -4.1443 Ry au,        -10.5337 Debye
        Dipole field         -0.0078 Ry au, 
 
        Potential amp.        0.7250 Ry
        Total length         46.3494 bohr
 

     total cpu time spent up to now is      281.4 secs

     total energy              =   -2967.43498057 Ry
     estimated scf accuracy    <      80.00967606 Ry

     iteration # 12     ecut=    29.40 Ry     beta= 0.05
     Davidson diagonalization with overlap
     ethr =  1.00E-02,  avg # of iterations =  3.8

     negative rho (up, down):  1.842E-03 0.000E+00
 
     Adding external electric field

     Computed dipole along edir(3) : 
        Dipole               -4.1456 Ry au,        -10.5371 Debye
        Dipole field         -0.0078 Ry au, 
 
        Potential amp.        0.7252 Ry
        Total length         46.3494 bohr
 

     total cpu time spent up to now is      293.8 secs

     total energy              =   -2972.70091768 Ry
     estimated scf accuracy    <       7.46654356 Ry

     iteration # 13     ecut=    29.40 Ry     beta= 0.05
     Davidson diagonalization with overlap
     c_bands:  5 eigenvalues not converged
     c_bands:  1 eigenvalues not converged
     ethr =  1.86E-03,  avg # of iterations = 16.2

     negative rho (up, down):  2.002E-03 0.000E+00
 
     Adding external electric field

     Computed dipole along edir(3) : 
        Dipole               -3.8905 Ry au,         -9.8887 Debye
        Dipole field         -0.0073 Ry au, 
 
        Potential amp.        0.6806 Ry
        Total length         46.3494 bohr
 

     total cpu time spent up to now is      316.4 secs

     total energy              =   -2977.89319150 Ry
     estimated scf accuracy    <     564.93549578 Ry

     iteration # 14     ecut=    29.40 Ry     beta= 0.05
     Davidson diagonalization with overlap
     ethr =  1.86E-03,  avg # of iterations =  1.4

     negative rho (up, down):  1.999E-03 0.000E+00
 
     Adding external electric field

     Computed dipole along edir(3) : 
        Dipole               -3.6525 Ry au,         -9.2837 Debye
        Dipole field         -0.0069 Ry au, 
 
        Potential amp.        0.6389 Ry
        Total length         46.3494 bohr
 

     total cpu time spent up to now is      326.6 secs

     total energy              =   -2976.55280628 Ry
     estimated scf accuracy    <     654.90561899 Ry

     iteration # 15     ecut=    29.40 Ry     beta= 0.05
     Davidson diagonalization with overlap
     ethr =  1.86E-03,  avg # of iterations =  1.0

     negative rho (up, down):  2.051E-03 0.000E+00
 
     Adding external electric field

     Computed dipole along edir(3) : 
        Dipole               -3.5898 Ry au,         -9.1245 Debye
        Dipole field         -0.0068 Ry au, 
 
        Potential amp.        0.6280 Ry
        Total length         46.3494 bohr
 

     total cpu time spent up to now is      336.5 secs

     total energy              =   -2976.63686890 Ry
     estimated scf accuracy    <     492.17644057 Ry

     iteration # 16     ecut=    29.40 Ry     beta= 0.05
     Davidson diagonalization with overlap
     ethr =  1.86E-03,  avg # of iterations =  1.0

     negative rho (up, down):  2.116E-03 0.000E+00
 
     Adding external electric field

     Computed dipole along edir(3) : 
        Dipole               -3.4735 Ry au,         -8.8286 Debye
        Dipole field         -0.0066 Ry au, 
 
        Potential amp.        0.6076 Ry
        Total length         46.3494 bohr
 

     total cpu time spent up to now is      346.4 secs

     total energy              =   -2975.74098434 Ry
     estimated scf accuracy    <     485.57869896 Ry

     iteration # 17     ecut=    29.40 Ry     beta= 0.05
     Davidson diagonalization with overlap
     ethr =  1.86E-03,  avg # of iterations =  1.0

     negative rho (up, down):  2.286E-03 0.000E+00
 
     Adding external electric field

     Computed dipole along edir(3) : 
        Dipole               -3.4436 Ry au,         -8.7528 Debye
        Dipole field         -0.0065 Ry au, 
 
        Potential amp.        0.6024 Ry
        Total length         46.3494 bohr
 

     total cpu time spent up to now is      356.2 secs

     total energy              =   -2976.65176765 Ry
     estimated scf accuracy    <     404.67352558 Ry

     iteration # 18     ecut=    29.40 Ry     beta= 0.05
     Davidson diagonalization with overlap
     ethr =  1.86E-03,  avg # of iterations =  1.0

     negative rho (up, down):  2.814E-03 0.000E+00
 
     Adding external electric field

     Computed dipole along edir(3) : 
        Dipole               -3.4846 Ry au,         -8.8569 Debye
        Dipole field         -0.0066 Ry au, 
 
        Potential amp.        0.6096 Ry
        Total length         46.3494 bohr
 

     total cpu time spent up to now is      366.1 secs

     total energy              =   -2980.01747659 Ry
     estimated scf accuracy    <     515.05328107 Ry

     iteration # 19     ecut=    29.40 Ry     beta= 0.05
     Davidson diagonalization with overlap
     ethr =  1.86E-03,  avg # of iterations =  3.3

     negative rho (up, down):  2.907E-03 0.000E+00
 
     Adding external electric field

     Computed dipole along edir(3) : 
        Dipole               -3.4381 Ry au,         -8.7388 Debye
        Dipole field         -0.0065 Ry au, 
 
        Potential amp.        0.6014 Ry
        Total length         46.3494 bohr
 

     total cpu time spent up to now is      376.9 secs

     total energy              =   -2980.70443330 Ry
     estimated scf accuracy    <     767.97268899 Ry

     iteration # 20     ecut=    29.40 Ry     beta= 0.05
     Davidson diagonalization with overlap
     ethr =  1.86E-03,  avg # of iterations =  1.5

     negative rho (up, down):  2.751E-03 0.000E+00
 
     Adding external electric field

     Computed dipole along edir(3) : 
        Dipole               -3.5575 Ry au,         -9.0422 Debye
        Dipole field         -0.0067 Ry au, 
 
        Potential amp.        0.6223 Ry
        Total length         46.3494 bohr
 

     total cpu time spent up to now is      387.2 secs

     total energy              =   -2980.83327047 Ry
     estimated scf accuracy    <     762.48237406 Ry

     iteration # 21     ecut=    29.40 Ry     beta= 0.05
     Davidson diagonalization with overlap
     ethr =  1.86E-03,  avg # of iterations =  1.2

     negative rho (up, down):  4.404E-02 0.000E+00
 
     Adding external electric field

     Computed dipole along edir(3) : 
        Dipole               -2.8924 Ry au,         -7.3517 Debye
        Dipole field         -0.0055 Ry au, 
 
        Potential amp.        0.5060 Ry
        Total length         46.3494 bohr
 

     total cpu time spent up to now is      397.2 secs

     total energy              =   -2968.87271532 Ry
     estimated scf accuracy    <     760.69978453 Ry

     iteration # 22     ecut=    29.40 Ry     beta= 0.05
     Davidson diagonalization with overlap
     c_bands:  2 eigenvalues not converged
     c_bands:  3 eigenvalues not converged
     ethr =  1.86E-03,  avg # of iterations = 17.0

     negative rho (up, down):  3.207E-03 0.000E+00
 
     Adding external electric field

     Computed dipole along edir(3) : 
        Dipole               -3.9984 Ry au,        -10.1629 Debye
        Dipole field         -0.0075 Ry au, 
 
        Potential amp.        0.6995 Ry
        Total length         46.3494 bohr
 

     total cpu time spent up to now is      417.1 secs

     total energy              =   -2970.70309154 Ry
     estimated scf accuracy    <      18.04375361 Ry

     iteration # 23     ecut=    29.40 Ry     beta= 0.05
     Davidson diagonalization with overlap
     ethr =  1.86E-03,  avg # of iterations =  6.6

     negative rho (up, down):  2.187E-03 0.000E+00
 
     Adding external electric field

     Computed dipole along edir(3) : 
        Dipole               -3.6050 Ry au,         -9.1631 Debye
        Dipole field         -0.0068 Ry au, 
 
        Potential amp.        0.6306 Ry
        Total length         46.3494 bohr
 

     total cpu time spent up to now is      431.7 secs

     total energy              =   -2972.82639752 Ry
     estimated scf accuracy    <       3.23001729 Ry

     iteration # 24     ecut=    29.40 Ry     beta= 0.05
     Davidson diagonalization with overlap
     ethr =  8.03E-04,  avg # of iterations =  8.2

     negative rho (up, down):  4.906E-03 0.000E+00
 
     Adding external electric field

     Computed dipole along edir(3) : 
        Dipole               -2.8837 Ry au,         -7.3297 Debye
        Dipole field         -0.0054 Ry au, 
 
        Potential amp.        0.5045 Ry
        Total length         46.3494 bohr
 

     total cpu time spent up to now is      447.6 secs

     total energy              =   -2972.58034437 Ry
     estimated scf accuracy    <       3.78996777 Ry

     iteration # 25     ecut=    29.40 Ry     beta= 0.05
     Davidson diagonalization with overlap
     ethr =  8.03E-04,  avg # of iterations =  4.2

     negative rho (up, down):  1.403E-02 0.000E+00
 
     Adding external electric field

     Computed dipole along edir(3) : 
        Dipole               -1.4841 Ry au,         -3.7722 Debye
        Dipole field         -0.0028 Ry au, 
 
        Potential amp.        0.2596 Ry
        Total length         46.3494 bohr
 

     total cpu time spent up to now is      459.1 secs

     total energy              =   -2972.30492339 Ry
     estimated scf accuracy    <       1.75893153 Ry

     iteration # 26     ecut=    29.40 Ry     beta= 0.05
     Davidson diagonalization with overlap
     ethr =  4.38E-04,  avg # of iterations = 15.4

     negative rho (up, down):  3.989E-03 0.000E+00
 
     Adding external electric field

     Computed dipole along edir(3) : 
        Dipole               -1.7052 Ry au,         -4.3342 Debye
        Dipole field         -0.0032 Ry au, 
 
        Potential amp.        0.2983 Ry
        Total length         46.3494 bohr
 

     total cpu time spent up to now is      484.2 secs

     total energy              =   -2972.23270948 Ry
     estimated scf accuracy    <       8.71173664 Ry

     iteration # 27     ecut=    29.40 Ry     beta= 0.05
     Davidson diagonalization with overlap
     ethr =  4.38E-04,  avg # of iterations =  6.1

     negative rho (up, down):  8.233E-03 0.000E+00
 
     Adding external electric field

     Computed dipole along edir(3) : 
        Dipole               -0.7884 Ry au,         -2.0040 Debye
        Dipole field         -0.0015 Ry au, 
 
        Potential amp.        0.1379 Ry
        Total length         46.3494 bohr
 

     total cpu time spent up to now is      499.4 secs

     total energy              =   -2973.01855646 Ry
     estimated scf accuracy    <       2.06624722 Ry

     iteration # 28     ecut=    29.40 Ry     beta= 0.05
     Davidson diagonalization with overlap
     ethr =  4.38E-04,  avg # of iterations =  1.8

     negative rho (up, down):  5.418E-03 0.000E+00
 
     Adding external electric field

     Computed dipole along edir(3) : 
        Dipole               -0.7818 Ry au,         -1.9871 Debye
        Dipole field         -0.0015 Ry au, 
 
        Potential amp.        0.1368 Ry
        Total length         46.3494 bohr
 

     total cpu time spent up to now is      510.0 secs

     total energy              =   -2972.63962669 Ry
     estimated scf accuracy    <       2.90897038 Ry

     iteration # 29     ecut=    29.40 Ry     beta= 0.05
     Davidson diagonalization with overlap
     ethr =  4.38E-04,  avg # of iterations =  2.7

     negative rho (up, down):  5.312E-03 0.000E+00
 
     Adding external electric field

     Computed dipole along edir(3) : 
        Dipole               -0.6718 Ry au,         -1.7075 Debye
        Dipole field         -0.0013 Ry au, 
 
        Potential amp.        0.1175 Ry
        Total length         46.3494 bohr
 

     total cpu time spent up to now is      520.9 secs

     total energy              =   -2972.69425226 Ry
     estimated scf accuracy    <       1.23641355 Ry

     iteration # 30     ecut=    29.40 Ry     beta= 0.05
     Davidson diagonalization with overlap
     ethr =  3.08E-04,  avg # of iterations =  1.4

     negative rho (up, down):  4.648E-03 0.000E+00
 
     Adding external electric field

     Computed dipole along edir(3) : 
        Dipole               -0.4612 Ry au,         -1.1722 Debye
        Dipole field         -0.0009 Ry au, 
 
        Potential amp.        0.0807 Ry
        Total length         46.3494 bohr
 

     total cpu time spent up to now is      531.1 secs

     total energy              =   -2972.49447234 Ry
     estimated scf accuracy    <       0.96124998 Ry

     iteration # 31     ecut=    29.40 Ry     beta= 0.05
     Davidson diagonalization with overlap
     c_bands:  1 eigenvalues not converged
     ethr =  2.39E-04,  avg # of iterations =  9.7

     negative rho (up, down):  4.491E-03 0.000E+00
 
     Adding external electric field

     Computed dipole along edir(3) : 
        Dipole               -0.3164 Ry au,         -0.8042 Debye
        Dipole field         -0.0006 Ry au, 
 
        Potential amp.        0.0553 Ry
        Total length         46.3494 bohr
 

     total cpu time spent up to now is      547.6 secs

     total energy              =   -2972.67531326 Ry
     estimated scf accuracy    <       0.16727751 Ry

     iteration # 32     ecut=    29.40 Ry     beta= 0.05
     Davidson diagonalization with overlap
     c_bands:  2 eigenvalues not converged
     c_bands:  3 eigenvalues not converged
     c_bands:  1 eigenvalues not converged
     c_bands:  1 eigenvalues not converged
     c_bands:  1 eigenvalues not converged
     ethr =  4.16E-05,  avg # of iterations = 16.4

     negative rho (up, down):  5.928E-03 0.000E+00
 
     Adding external electric field

     Computed dipole along edir(3) : 
        Dipole                0.0377 Ry au,          0.0959 Debye
        Dipole field          0.0001 Ry au, 
 
        Potential amp.       -0.0066 Ry
        Total length         46.3494 bohr
 

     total cpu time spent up to now is      568.7 secs

     total energy              =   -2972.66001409 Ry
     estimated scf accuracy    <       0.25914127 Ry

     iteration # 33     ecut=    29.40 Ry     beta= 0.05
     Davidson diagonalization with overlap
     c_bands:  1 eigenvalues not converged
     ethr =  4.16E-05,  avg # of iterations =  5.4

     negative rho (up, down):  6.637E-03 0.000E+00
 
     Adding external electric field

     Computed dipole along edir(3) : 
        Dipole                0.2170 Ry au,          0.5517 Debye
        Dipole field          0.0004 Ry au, 
 
        Potential amp.       -0.0380 Ry
        Total length         46.3494 bohr
 

     total cpu time spent up to now is      581.9 secs

     total energy              =   -2972.66938327 Ry
     estimated scf accuracy    <       0.15975390 Ry

     iteration # 34     ecut=    29.40 Ry     beta= 0.05
     Davidson diagonalization with overlap
     ethr =  3.97E-05,  avg # of iterations =  4.3

     negative rho (up, down):  6.783E-03 0.000E+00
 
     Adding external electric field

     Computed dipole along edir(3) : 
        Dipole                0.1430 Ry au,          0.3634 Debye
        Dipole field          0.0003 Ry au, 
 
        Potential amp.       -0.0250 Ry
        Total length         46.3494 bohr
 

     total cpu time spent up to now is      593.6 secs

     total energy              =   -2972.67438197 Ry
     estimated scf accuracy    <       0.07647720 Ry

     iteration # 35     ecut=    29.40 Ry     beta= 0.05
     Davidson diagonalization with overlap
     c_bands:  2 eigenvalues not converged
     c_bands:  1 eigenvalues not converged
     c_bands:  1 eigenvalues not converged
     ethr =  1.90E-05,  avg # of iterations = 15.5

     negative rho (up, down):  6.800E-03 0.000E+00
 
     Adding external electric field

     Computed dipole along edir(3) : 
        Dipole                0.1571 Ry au,          0.3994 Debye
        Dipole field          0.0003 Ry au, 
 
        Potential amp.       -0.0275 Ry
        Total length         46.3494 bohr
 

     total cpu time spent up to now is      613.6 secs

     total energy              =   -2972.69659124 Ry
     estimated scf accuracy    <       0.05882506 Ry

     iteration # 36     ecut=    29.40 Ry     beta= 0.05
     Davidson diagonalization with overlap
     c_bands:  1 eigenvalues not converged
     ethr =  1.46E-05,  avg # of iterations =  6.8

     negative rho (up, down):  8.688E-03 0.000E+00
 
     Adding external electric field

     Computed dipole along edir(3) : 
        Dipole                0.2978 Ry au,          0.7569 Debye
        Dipole field          0.0006 Ry au, 
 
        Potential amp.       -0.0521 Ry
        Total length         46.3494 bohr
 

     total cpu time spent up to now is      625.5 secs

     total energy              =   -2972.68839757 Ry
     estimated scf accuracy    <       0.07126218 Ry

     iteration # 37     ecut=    29.40 Ry     beta= 0.05
     Davidson diagonalization with overlap
     c_bands:  1 eigenvalues not converged
     ethr =  1.46E-05,  avg # of iterations =  4.7

     negative rho (up, down):  1.084E-02 0.000E+00
 
     Adding external electric field

     Computed dipole along edir(3) : 
        Dipole                0.3175 Ry au,          0.8071 Debye
        Dipole field          0.0006 Ry au, 
 
        Potential amp.       -0.0556 Ry
        Total length         46.3494 bohr
 

     total cpu time spent up to now is      636.9 secs

     total energy              =   -2972.68150260 Ry
     estimated scf accuracy    <       0.03961098 Ry

     iteration # 38     ecut=    29.40 Ry     beta= 0.05
     Davidson diagonalization with overlap
     c_bands:  1 eigenvalues not converged
     c_bands:  1 eigenvalues not converged
     c_bands:  1 eigenvalues not converged
     ethr =  9.85E-06,  avg # of iterations = 14.1

     negative rho (up, down):  1.118E-02 0.000E+00
 
     Adding external electric field

     Computed dipole along edir(3) : 
        Dipole                0.3382 Ry au,          0.8596 Debye
        Dipole field          0.0006 Ry au, 
 
        Potential amp.       -0.0592 Ry
        Total length         46.3494 bohr
 

     total cpu time spent up to now is      655.9 secs

     total energy              =   -2972.69286879 Ry
     estimated scf accuracy    <       0.03502493 Ry

     iteration # 39     ecut=    29.40 Ry     beta= 0.05
     Davidson diagonalization with overlap
     ethr =  8.71E-06,  avg # of iterations =  1.4

     negative rho (up, down):  1.181E-02 0.000E+00
 
     Adding external electric field

     Computed dipole along edir(3) : 
        Dipole                0.3578 Ry au,          0.9095 Debye
        Dipole field          0.0007 Ry au, 
 
        Potential amp.       -0.0626 Ry
        Total length         46.3494 bohr
 

     total cpu time spent up to now is      666.1 secs

     total energy              =   -2972.68864799 Ry
     estimated scf accuracy    <       0.02870728 Ry

     iteration # 40     ecut=    29.40 Ry     beta= 0.05
     Davidson diagonalization with overlap
     ethr =  7.14E-06,  avg # of iterations =  3.9

     negative rho (up, down):  1.336E-02 0.000E+00
 
     Adding external electric field

     Computed dipole along edir(3) : 
        Dipole                0.4046 Ry au,          1.0285 Debye
        Dipole field          0.0008 Ry au, 
 
        Potential amp.       -0.0708 Ry
        Total length         46.3494 bohr
 

     total cpu time spent up to now is      677.5 secs

     total energy              =   -2972.68971921 Ry
     estimated scf accuracy    <       0.01255616 Ry

     iteration # 41     ecut=    29.40 Ry     beta= 0.05
     Davidson diagonalization with overlap
     c_bands:  3 eigenvalues not converged
     c_bands:  2 eigenvalues not converged
     c_bands:  2 eigenvalues not converged
     ethr =  3.12E-06,  avg # of iterations = 10.5

     negative rho (up, down):  1.445E-02 0.000E+00
 
     Adding external electric field

     Computed dipole along edir(3) : 
        Dipole                0.3698 Ry au,          0.9398 Debye
        Dipole field          0.0007 Ry au, 
 
        Potential amp.       -0.0647 Ry
        Total length         46.3494 bohr
 

     total cpu time spent up to now is      690.8 secs

     total energy              =   -2972.69025363 Ry
     estimated scf accuracy    <       0.00990209 Ry

     iteration # 42     ecut=    29.40 Ry     beta= 0.05
     Davidson diagonalization with overlap
     c_bands:  1 eigenvalues not converged
     c_bands:  2 eigenvalues not converged
     ethr =  2.46E-06,  avg # of iterations = 13.6

     negative rho (up, down):  1.512E-02 0.000E+00
 
     Adding external electric field

     Computed dipole along edir(3) : 
        Dipole                0.3710 Ry au,          0.9429 Debye
        Dipole field          0.0007 Ry au, 
 
        Potential amp.       -0.0649 Ry
        Total length         46.3494 bohr
 

     total cpu time spent up to now is      705.1 secs

     total energy              =   -2972.68947828 Ry
     estimated scf accuracy    <       0.00684650 Ry

     iteration # 43     ecut=    29.40 Ry     beta= 0.05
     Davidson diagonalization with overlap
     ethr =  1.70E-06,  avg # of iterations =  8.7

     negative rho (up, down):  1.558E-02 0.000E+00
 
     Adding external electric field

     Computed dipole along edir(3) : 
        Dipole                0.3799 Ry au,          0.9657 Debye
        Dipole field          0.0007 Ry au, 
 
        Potential amp.       -0.0665 Ry
        Total length         46.3494 bohr
 

     total cpu time spent up to now is      719.5 secs

     total energy              =   -2972.69066732 Ry
     estimated scf accuracy    <       0.00238398 Ry

     iteration # 44     ecut=    29.40 Ry     beta= 0.05
     Davidson diagonalization with overlap
     ethr =  5.93E-07,  avg # of iterations =  4.1

     negative rho (up, down):  1.684E-02 0.000E+00
 
     Adding external electric field

     Computed dipole along edir(3) : 
        Dipole                0.3660 Ry au,          0.9303 Debye
        Dipole field          0.0007 Ry au, 
 
        Potential amp.       -0.0640 Ry
        Total length         46.3494 bohr
 

     total cpu time spent up to now is      730.9 secs

     total energy              =   -2972.68969998 Ry
     estimated scf accuracy    <       0.00311601 Ry

     iteration # 45     ecut=    29.40 Ry     beta= 0.05
     Davidson diagonalization with overlap
     c_bands:  1 eigenvalues not converged
     c_bands:  1 eigenvalues not converged
     c_bands:  1 eigenvalues not converged
     ethr =  5.93E-07,  avg # of iterations = 11.8

     negative rho (up, down):  1.716E-02 0.000E+00
 
     Adding external electric field

     Computed dipole along edir(3) : 
        Dipole                0.3679 Ry au,          0.9352 Debye
        Dipole field          0.0007 Ry au, 
 
        Potential amp.       -0.0644 Ry
        Total length         46.3494 bohr
 

     total cpu time spent up to now is      753.1 secs

     total energy              =   -2972.69094882 Ry
     estimated scf accuracy    <       0.00412328 Ry

     iteration # 46     ecut=    29.40 Ry     beta= 0.05
     Davidson diagonalization with overlap
     c_bands:  1 eigenvalues not converged
     ethr =  5.93E-07,  avg # of iterations =  5.4

     negative rho (up, down):  1.629E-02 0.000E+00
 
     Adding external electric field

     Computed dipole along edir(3) : 
        Dipole                0.3747 Ry au,          0.9525 Debye
        Dipole field          0.0007 Ry au, 
 
        Potential amp.       -0.0656 Ry
        Total length         46.3494 bohr
 

     total cpu time spent up to now is      764.1 secs

     total energy              =   -2972.69018275 Ry
     estimated scf accuracy    <       0.00350859 Ry

     iteration # 47     ecut=    29.40 Ry     beta= 0.05
     Davidson diagonalization with overlap
     ethr =  5.93E-07,  avg # of iterations =  6.0

     negative rho (up, down):  1.650E-02 0.000E+00
 
     Adding external electric field

     Computed dipole along edir(3) : 
        Dipole                0.3769 Ry au,          0.9579 Debye
        Dipole field          0.0007 Ry au, 
 
        Potential amp.       -0.0659 Ry
        Total length         46.3494 bohr
 

     total cpu time spent up to now is      777.6 secs

     total energy              =   -2972.69066593 Ry
     estimated scf accuracy    <       0.00104935 Ry

     iteration # 48     ecut=    29.40 Ry     beta= 0.05
     Davidson diagonalization with overlap
     ethr =  2.61E-07,  avg # of iterations =  1.0

     negative rho (up, down):  1.624E-02 0.000E+00
 
     Adding external electric field

     Computed dipole along edir(3) : 
        Dipole                0.3703 Ry au,          0.9412 Debye
        Dipole field          0.0007 Ry au, 
 
        Potential amp.       -0.0648 Ry
        Total length         46.3494 bohr
 

     total cpu time spent up to now is      787.5 secs

     total energy              =   -2972.69065082 Ry
     estimated scf accuracy    <       0.00130192 Ry

     iteration # 49     ecut=    29.40 Ry     beta= 0.05
     Davidson diagonalization with overlap
     ethr =  2.61E-07,  avg # of iterations =  1.0

     negative rho (up, down):  1.665E-02 0.000E+00
 
     Adding external electric field

     Computed dipole along edir(3) : 
        Dipole                0.3772 Ry au,          0.9588 Debye
        Dipole field          0.0007 Ry au, 
 
        Potential amp.       -0.0660 Ry
        Total length         46.3494 bohr
 

     total cpu time spent up to now is      797.4 secs

     total energy              =   -2972.69060763 Ry
     estimated scf accuracy    <       0.00105190 Ry

     iteration # 50     ecut=    29.40 Ry     beta= 0.05
     Davidson diagonalization with overlap
     ethr =  2.61E-07,  avg # of iterations =  2.0

     negative rho (up, down):  1.720E-02 0.000E+00
 
     Adding external electric field

     Computed dipole along edir(3) : 
        Dipole                0.3788 Ry au,          0.9629 Debye
        Dipole field          0.0007 Ry au, 
 
        Potential amp.       -0.0663 Ry
        Total length         46.3494 bohr
 

     total cpu time spent up to now is      808.2 secs

     total energy              =   -2972.69049600 Ry
     estimated scf accuracy    <       0.00068967 Ry

     iteration # 51     ecut=    29.40 Ry     beta= 0.05
     Davidson diagonalization with overlap
     ethr =  1.72E-07,  avg # of iterations =  8.3

     negative rho (up, down):  1.726E-02 0.000E+00
 
     Adding external electric field

     Computed dipole along edir(3) : 
        Dipole                0.3696 Ry au,          0.9395 Debye
        Dipole field          0.0007 Ry au, 
 
        Potential amp.       -0.0647 Ry
        Total length         46.3494 bohr
 

     total cpu time spent up to now is      826.0 secs

     total energy              =   -2972.69058103 Ry
     estimated scf accuracy    <       0.00058232 Ry

     iteration # 52     ecut=    29.40 Ry     beta= 0.05
     Davidson diagonalization with overlap
     ethr =  1.45E-07,  avg # of iterations =  6.5

     negative rho (up, down):  1.742E-02 0.000E+00
 
     Adding external electric field

     Computed dipole along edir(3) : 
        Dipole                0.3686 Ry au,          0.9370 Debye
        Dipole field          0.0007 Ry au, 
 
        Potential amp.       -0.0645 Ry
        Total length         46.3494 bohr
 

     total cpu time spent up to now is      842.4 secs

     total energy              =   -2972.69077397 Ry
     estimated scf accuracy    <       0.00047404 Ry

     iteration # 53     ecut=    29.40 Ry     beta= 0.05
     Davidson diagonalization with overlap
     ethr =  1.18E-07,  avg # of iterations =  1.4

     negative rho (up, down):  1.805E-02 0.000E+00
 
     Adding external electric field

     Computed dipole along edir(3) : 
        Dipole                0.3769 Ry au,          0.9580 Debye
        Dipole field          0.0007 Ry au, 
 
        Potential amp.       -0.0659 Ry
        Total length         46.3494 bohr
 

     total cpu time spent up to now is      852.7 secs

     total energy              =   -2972.69058035 Ry
     estimated scf accuracy    <       0.00046894 Ry

     iteration # 54     ecut=    29.40 Ry     beta= 0.05
     Davidson diagonalization with overlap
     ethr =  1.17E-07,  avg # of iterations =  6.3

     negative rho (up, down):  1.816E-02 0.000E+00
 
     Adding external electric field

     Computed dipole along edir(3) : 
        Dipole                0.3795 Ry au,          0.9645 Debye
        Dipole field          0.0007 Ry au, 
 
        Potential amp.       -0.0664 Ry
        Total length         46.3494 bohr
 

     total cpu time spent up to now is      872.4 secs

     total energy              =   -2972.69081120 Ry
     estimated scf accuracy    <       0.00067549 Ry

     iteration # 55     ecut=    29.40 Ry     beta= 0.05
     Davidson diagonalization with overlap
     ethr =  1.17E-07,  avg # of iterations =  1.0

     negative rho (up, down):  1.828E-02 0.000E+00
 
     Adding external electric field

     Computed dipole along edir(3) : 
        Dipole                0.3826 Ry au,          0.9724 Debye
        Dipole field          0.0007 Ry au, 
 
        Potential amp.       -0.0669 Ry
        Total length         46.3494 bohr
 

     total cpu time spent up to now is      882.2 secs

     total energy              =   -2972.69075567 Ry
     estimated scf accuracy    <       0.00050706 Ry

     iteration # 56     ecut=    29.40 Ry     beta= 0.05
     Davidson diagonalization with overlap
     ethr =  1.17E-07,  avg # of iterations =  2.4

     negative rho (up, down):  1.818E-02 0.000E+00
 
     Adding external electric field

     Computed dipole along edir(3) : 
        Dipole                0.3778 Ry au,          0.9604 Debye
        Dipole field          0.0007 Ry au, 
 
        Potential amp.       -0.0661 Ry
        Total length         46.3494 bohr
 

     total cpu time spent up to now is      893.8 secs

     total energy              =   -2972.69074120 Ry
     estimated scf accuracy    <       0.00017750 Ry

     iteration # 57     ecut=    29.40 Ry     beta= 0.05
     Davidson diagonalization with overlap
     ethr =  4.42E-08,  avg # of iterations =  8.4

     negative rho (up, down):  1.827E-02 0.000E+00
 
     Adding external electric field

     Computed dipole along edir(3) : 
        Dipole                0.3791 Ry au,          0.9635 Debye
        Dipole field          0.0007 Ry au, 
 
        Potential amp.       -0.0663 Ry
        Total length         46.3494 bohr
 

     total cpu time spent up to now is      911.6 secs

     total energy              =   -2972.69080464 Ry
     estimated scf accuracy    <       0.00007079 Ry

     iteration # 58     ecut=    29.40 Ry     beta= 0.05
     Davidson diagonalization with overlap
     ethr =  1.76E-08,  avg # of iterations =  2.0

     negative rho (up, down):  1.818E-02 0.000E+00
 
     Adding external electric field

     Computed dipole along edir(3) : 
        Dipole                0.3801 Ry au,          0.9662 Debye
        Dipole field          0.0007 Ry au, 
 
        Potential amp.       -0.0665 Ry
        Total length         46.3494 bohr
 

     total cpu time spent up to now is      922.3 secs

     total energy              =   -2972.69079734 Ry
     estimated scf accuracy    <       0.00004308 Ry

     iteration # 59     ecut=    29.40 Ry     beta= 0.05
     Davidson diagonalization with overlap
     ethr =  1.07E-08,  avg # of iterations = 10.2

     negative rho (up, down):  1.813E-02 0.000E+00
 
     Adding external electric field

     Computed dipole along edir(3) : 
        Dipole                0.3783 Ry au,          0.9615 Debye
        Dipole field          0.0007 Ry au, 
 
        Potential amp.       -0.0662 Ry
        Total length         46.3494 bohr
 

     total cpu time spent up to now is      944.8 secs

     total energy              =   -2972.69079289 Ry
     estimated scf accuracy    <       0.00022647 Ry

     iteration # 60     ecut=    29.40 Ry     beta= 0.05
     Davidson diagonalization with overlap
     ethr =  1.07E-08,  avg # of iterations =  6.0

     negative rho (up, down):  1.806E-02 0.000E+00
 
     Adding external electric field

     Computed dipole along edir(3) : 
        Dipole                0.3783 Ry au,          0.9616 Debye
        Dipole field          0.0007 Ry au, 
 
        Potential amp.       -0.0662 Ry
        Total length         46.3494 bohr
 

     total cpu time spent up to now is      964.7 secs

     total energy              =   -2972.69083132 Ry
     estimated scf accuracy    <       0.00001343 Ry

     iteration # 61     ecut=    29.40 Ry     beta= 0.05
     Davidson diagonalization with overlap
     ethr =  3.34E-09,  avg # of iterations =  2.0

     negative rho (up, down):  1.806E-02 0.000E+00
 
     Adding external electric field

     Computed dipole along edir(3) : 
        Dipole                0.3785 Ry au,          0.9621 Debye
        Dipole field          0.0007 Ry au, 
 
        Potential amp.       -0.0662 Ry
        Total length         46.3494 bohr
 

     total cpu time spent up to now is      975.5 secs

     total energy              =   -2972.69084023 Ry
     estimated scf accuracy    <       0.00000887 Ry

     iteration # 62     ecut=    29.40 Ry     beta= 0.05
     Davidson diagonalization with overlap
     ethr =  2.21E-09,  avg # of iterations =  6.2

     negative rho (up, down):  1.803E-02 0.000E+00
 
     Adding external electric field

     Computed dipole along edir(3) : 
        Dipole                0.3781 Ry au,          0.9610 Debye
        Dipole field          0.0007 Ry au, 
 
        Potential amp.       -0.0661 Ry
        Total length         46.3494 bohr
 

     total cpu time spent up to now is      990.5 secs

     total energy              =   -2972.69085172 Ry
     estimated scf accuracy    <       0.00001809 Ry

     iteration # 63     ecut=    29.40 Ry     beta= 0.05
     Davidson diagonalization with overlap
     ethr =  2.21E-09,  avg # of iterations =  2.2

     negative rho (up, down):  1.810E-02 0.000E+00
 
     Adding external electric field

     Computed dipole along edir(3) : 
        Dipole                0.3766 Ry au,          0.9573 Debye
        Dipole field          0.0007 Ry au, 
 
        Potential amp.       -0.0659 Ry
        Total length         46.3494 bohr
 

     total cpu time spent up to now is     1001.5 secs

     total energy              =   -2972.69085045 Ry
     estimated scf accuracy    <       0.00002625 Ry

     iteration # 64     ecut=    29.40 Ry     beta= 0.05
     Davidson diagonalization with overlap
     ethr =  2.21E-09,  avg # of iterations =  5.8

     negative rho (up, down):  1.803E-02 0.000E+00
 
     Adding external electric field

     Computed dipole along edir(3) : 
        Dipole                0.3753 Ry au,          0.9539 Debye
        Dipole field          0.0007 Ry au, 
 
        Potential amp.       -0.0656 Ry
        Total length         46.3494 bohr
 

     total cpu time spent up to now is     1018.8 secs

     total energy              =   -2972.69085867 Ry
     estimated scf accuracy    <       0.00000474 Ry

     iteration # 65     ecut=    29.40 Ry     beta= 0.05
     Davidson diagonalization with overlap
     ethr =  1.18E-09,  avg # of iterations =  6.5

     negative rho (up, down):  1.800E-02 0.000E+00
 
     Adding external electric field

     Computed dipole along edir(3) : 
        Dipole                0.3743 Ry au,          0.9513 Debye
        Dipole field          0.0007 Ry au, 
 
        Potential amp.       -0.0655 Ry
        Total length         46.3494 bohr
 

     total cpu time spent up to now is     1032.3 secs

     total energy              =   -2972.69086419 Ry
     estimated scf accuracy    <       0.00000193 Ry

     iteration # 66     ecut=    29.40 Ry     beta= 0.05
     Davidson diagonalization with overlap
     ethr =  4.80E-10,  avg # of iterations =  6.3

     negative rho (up, down):  1.798E-02 0.000E+00
 
     Adding external electric field

     Computed dipole along edir(3) : 
        Dipole                0.3739 Ry au,          0.9502 Debye
        Dipole field          0.0007 Ry au, 
 
        Potential amp.       -0.0654 Ry
        Total length         46.3494 bohr
 

     total cpu time spent up to now is     1048.5 secs

     total energy              =   -2972.69086924 Ry
     estimated scf accuracy    <       0.00000155 Ry

     iteration # 67     ecut=    29.40 Ry     beta= 0.05
     Davidson diagonalization with overlap
     ethr =  3.86E-10,  avg # of iterations =  2.5

     negative rho (up, down):  1.795E-02 0.000E+00
 
     Adding external electric field

     Computed dipole along edir(3) : 
        Dipole                0.3727 Ry au,          0.9474 Debye
        Dipole field          0.0007 Ry au, 
 
        Potential amp.       -0.0652 Ry
        Total length         46.3494 bohr
 

     total cpu time spent up to now is     1059.2 secs

     total energy              =   -2972.69087334 Ry
     estimated scf accuracy    <       0.00000091 Ry

     iteration # 68     ecut=    29.40 Ry     beta= 0.05
     Davidson diagonalization with overlap
     ethr =  2.27E-10,  avg # of iterations =  6.2

     negative rho (up, down):  1.795E-02 0.000E+00
 
     Adding external electric field

     Computed dipole along edir(3) : 
        Dipole                0.3728 Ry au,          0.9476 Debye
        Dipole field          0.0007 Ry au, 
 
        Potential amp.       -0.0652 Ry
        Total length         46.3494 bohr
 

     total cpu time spent up to now is     1075.3 secs

     total energy              =   -2972.69087745 Ry
     estimated scf accuracy    <       0.00000049 Ry

     iteration # 69     ecut=    29.40 Ry     beta= 0.05
     Davidson diagonalization with overlap
     ethr =  1.21E-10,  avg # of iterations =  1.5

     negative rho (up, down):  1.795E-02 0.000E+00
 
     Adding external electric field

     Computed dipole along edir(3) : 
        Dipole                0.3728 Ry au,          0.9475 Debye
        Dipole field          0.0007 Ry au, 
 
        Potential amp.       -0.0652 Ry
        Total length         46.3494 bohr
 

     total cpu time spent up to now is     1085.6 secs

     total energy              =   -2972.69088097 Ry
     estimated scf accuracy    <       0.00000035 Ry

     iteration # 70     ecut=    29.40 Ry     beta= 0.05
     Davidson diagonalization with overlap
     ethr =  8.82E-11,  avg # of iterations =  1.0

     negative rho (up, down):  1.794E-02 0.000E+00
 
     Adding external electric field

     Computed dipole along edir(3) : 
        Dipole                0.3726 Ry au,          0.9471 Debye
        Dipole field          0.0007 Ry au, 
 
        Potential amp.       -0.0652 Ry
        Total length         46.3494 bohr
 

     total cpu time spent up to now is     1095.5 secs

     total energy              =   -2972.69088408 Ry
     estimated scf accuracy    <       0.00000043 Ry

     iteration # 71     ecut=    29.40 Ry     beta= 0.05
     Davidson diagonalization with overlap
     ethr =  8.82E-11,  avg # of iterations =  2.6

     negative rho (up, down):  1.794E-02 0.000E+00
 
     Adding external electric field

     Computed dipole along edir(3) : 
        Dipole                0.3724 Ry au,          0.9466 Debye
        Dipole field          0.0007 Ry au, 
 
        Potential amp.       -0.0651 Ry
        Total length         46.3494 bohr
 

     total cpu time spent up to now is     1106.5 secs

     total energy              =   -2972.69088694 Ry
     estimated scf accuracy    <       0.00000030 Ry

     iteration # 72     ecut=    29.40 Ry     beta= 0.05
     Davidson diagonalization with overlap
     ethr =  7.40E-11,  avg # of iterations =  2.0

     negative rho (up, down):  1.794E-02 0.000E+00
 
     Adding external electric field

     Computed dipole along edir(3) : 
        Dipole                0.3725 Ry au,          0.9468 Debye
        Dipole field          0.0007 Ry au, 
 
        Potential amp.       -0.0652 Ry
        Total length         46.3494 bohr
 

     total cpu time spent up to now is     1117.3 secs

     total energy              =   -2972.69088948 Ry
     estimated scf accuracy    <       0.00000025 Ry

     iteration # 73     ecut=    29.40 Ry     beta= 0.05
     Davidson diagonalization with overlap
     ethr =  6.19E-11,  avg # of iterations =  3.5

     negative rho (up, down):  1.794E-02 0.000E+00
 
     Adding external electric field

     Computed dipole along edir(3) : 
        Dipole                0.3726 Ry au,          0.9469 Debye
        Dipole field          0.0007 Ry au, 
 
        Potential amp.       -0.0652 Ry
        Total length         46.3494 bohr
 

     total cpu time spent up to now is     1128.3 secs

     total energy              =   -2972.69089179 Ry
     estimated scf accuracy    <       0.00000017 Ry

     iteration # 74     ecut=    29.40 Ry     beta= 0.05
     Davidson diagonalization with overlap
     ethr =  4.19E-11,  avg # of iterations =  6.2

     negative rho (up, down):  1.794E-02 0.000E+00
 
     Adding external electric field

     Computed dipole along edir(3) : 
        Dipole                0.3726 Ry au,          0.9470 Debye
        Dipole field          0.0007 Ry au, 
 
        Potential amp.       -0.0652 Ry
        Total length         46.3494 bohr
 

     total cpu time spent up to now is     1141.4 secs

     total energy              =   -2972.69089388 Ry
     estimated scf accuracy    <       0.00000009 Ry

     iteration # 75     ecut=    29.40 Ry     beta= 0.05
     Davidson diagonalization with overlap
     ethr =  2.16E-11,  avg # of iterations =  5.8

     negative rho (up, down):  1.793E-02 0.000E+00
 
     Adding external electric field

     Computed dipole along edir(3) : 
        Dipole                0.3724 Ry au,          0.9466 Debye
        Dipole field          0.0007 Ry au, 
 
        Potential amp.       -0.0652 Ry
        Total length         46.3494 bohr
 

     total cpu time spent up to now is     1155.8 secs

     total energy              =   -2972.69089578 Ry
     estimated scf accuracy    <       0.00000009 Ry

     iteration # 76     ecut=    29.40 Ry     beta= 0.05
     Davidson diagonalization with overlap
     ethr =  2.16E-11,  avg # of iterations =  2.5

     negative rho (up, down):  1.793E-02 0.000E+00
 
     Adding external electric field

     Computed dipole along edir(3) : 
        Dipole                0.3720 Ry au,          0.9455 Debye
        Dipole field          0.0007 Ry au, 
 
        Potential amp.       -0.0651 Ry
        Total length         46.3494 bohr
 

     total cpu time spent up to now is     1166.7 secs

     End of self-consistent calculation

          k = 0.0000 0.0000 0.0000 ( 18029 PWs)   bands (ev):

   -56.3330 -56.2991 -55.9332 -55.8995 -55.7457 -55.7092 -55.5592 -55.5561
   -55.5447 -55.5218 -55.5113 -55.4521 -55.2539 -55.2412 -55.1380 -55.1041
   -32.7867 -32.6256 -32.5988 -32.4910 -32.4105 -32.4083 -32.3981 -32.2346
   -32.1507 -32.1467 -32.0881 -32.0754 -32.0660 -32.0385 -32.0330 -31.9799
   -31.9686 -31.9599 -31.9269 -31.9097 -31.9029 -31.8596 -31.8488 -31.8424
   -31.8190 -31.7800 -31.7566 -31.7295 -31.7267 -31.7072 -31.7055 -31.7028
   -31.6900 -31.6675 -31.6503 -31.6392 -31.5525 -31.5367 -31.5141 -31.4995
   -31.4705 -31.4685 -31.4451 -31.4415 -31.3549 -31.3345 -31.2699 -31.1582
   -18.7570 -16.9906 -16.6514 -16.3418 -16.1442 -15.9567 -15.8993 -15.8325
   -15.7788 -15.6580 -15.6023 -15.5693 -15.4984 -15.3930 -15.3712 -15.3517
   -15.2953 -15.2863 -15.2660 -15.2373 -15.1824 -15.1532 -15.1294 -15.0552
   -15.0335 -15.0176 -14.9017 -14.8305 -14.8027 -14.7701 -14.5216 -13.6366
   -13.5236 -12.3380  -6.7190  -6.5351  -4.1524  -4.0919  -3.9005  -3.7809
    -3.6623  -3.6146  -3.4718  -3.4121  -3.3580  -3.2722  -3.1141  -3.0812
    -3.0067  -2.9580  -2.9195  -2.8589  -2.8020  -2.7538  -2.7177  -2.6376
    -2.6272  -2.6143  -2.5965  -2.5716  -2.5605  -2.4483  -2.3567  -2.3400
    -2.3115  -2.2672  -2.2478  -2.2373  -2.1845  -2.1602  -2.0753  -2.0648
    -2.0201  -1.9615  -1.9177  -1.8059  -1.7963  -1.7204  -1.6951  -1.6520
    -1.5264  -1.4000  -1.3683  -1.3244  -1.3110  -1.2268  -1.1974  -1.1740
    -1.0761  -1.0609  -1.0184  -0.9971  -0.8707  -0.8464  -0.7961  -0.7921
    -0.7661  -0.6732  -0.6304  -0.5168  -0.4749  -0.4283  -0.4181  -0.3454
    -0.3128  -0.2673  -0.2187  -0.1671  -0.1639  -0.1362  -0.0565  -0.0128
     0.0322   0.0802   0.1167   0.2069   0.2572   0.2901   0.3060   0.3966
     0.4421   0.4567   0.5216   0.5907   0.6404   0.7069   0.7517   0.8662
     0.8858   0.9018   0.9787   1.1076   1.4122   1.4390   1.4793   1.6379
     2.6576   2.8898   3.0104   3.1731   3.3199   3.3673   3.6293   3.6879
     3.7350   3.7688   3.8391

          k = 0.0000 0.0419 0.0000 ( 17933 PWs)   bands (ev):

   -56.3280 -56.3040 -55.9283 -55.9043 -55.7412 -55.7136 -55.5575 -55.5522
   -55.5398 -55.5267 -55.5161 -55.4513 -55.2546 -55.2416 -55.1330 -55.1090
   -32.7330 -32.6212 -32.6016 -32.4775 -32.4668 -32.4117 -32.3572 -32.1812
   -32.1386 -32.1374 -32.1064 -32.0959 -32.0697 -32.0146 -31.9831 -31.9631
   -31.9524 -31.9390 -31.9292 -31.9154 -31.9115 -31.8717 -31.8362 -31.8333
   -31.8118 -31.7826 -31.7547 -31.7517 -31.7378 -31.7220 -31.7123 -31.7036
   -31.7002 -31.6961 -31.6918 -31.6368 -31.5613 -31.5527 -31.4997 -31.4868
   -31.4831 -31.4677 -31.4649 -31.4483 -31.3425 -31.3345 -31.2822 -31.2151
   -18.7561 -16.9828 -16.5274 -16.2196 -16.0340 -15.9174 -15.8766 -15.7906
   -15.7261 -15.7190 -15.5805 -15.5245 -15.5010 -15.4389 -15.4308 -15.3685
   -15.3374 -15.2601 -15.2393 -15.2131 -15.2007 -15.1754 -15.1230 -15.0997
   -15.0722 -15.0589 -14.9534 -14.8920 -14.8334 -14.8155 -14.6062 -13.6424
   -13.5640 -12.3432  -6.7550  -6.5075  -4.0372  -3.9705  -3.7586  -3.7159
    -3.5050  -3.4575  -3.4026  -3.2787  -3.2400  -3.1373  -3.0604  -3.0386
    -3.0297  -2.9172  -2.8469  -2.8134  -2.7665  -2.7467  -2.7356  -2.6931
    -2.6798  -2.6544  -2.6152  -2.6032  -2.5732  -2.5464  -2.5151  -2.5005
    -2.4729  -2.4110  -2.3761  -2.3397  -2.2593  -2.2023  -2.1578  -2.1333
    -2.0484  -1.9537  -1.8452  -1.8017  -1.7551  -1.7076  -1.5998  -1.5147
    -1.4300  -1.4032  -1.2836  -1.2570  -1.1915  -1.1610  -1.0904  -1.0139
    -0.9845  -0.9541  -0.9391  -0.8963  -0.8609  -0.8162  -0.7825  -0.7391
    -0.7189  -0.6741  -0.6428  -0.5863  -0.5352  -0.5028  -0.4776  -0.4228
    -0.3581  -0.3397  -0.2627  -0.2530  -0.2160  -0.1381  -0.0820  -0.0645
    -0.0497   0.0232   0.0758   0.1331   0.1520   0.2064   0.2305   0.2513
     0.2794   0.3490   0.4321   0.5159   0.5444   0.5796   0.5890   0.6275
     0.7956   0.8633   1.0943   1.2085   1.2845   1.3918   1.4127   1.5577
     2.6557   3.1160   3.1625   3.2767   3.4645   3.5701   3.6139   3.7021
     3.7385   3.7722   3.8124

          k = 0.0000-0.0839 0.0000 ( 17884 PWs)   bands (ev):

   -56.3165 -56.3154 -55.9181 -55.9144 -55.7342 -55.7205 -55.5567 -55.5427
   -55.5366 -55.5292 -55.5263 -55.4506 -55.2553 -55.2419 -55.1210 -55.1209
   -32.6116 -32.6103 -32.6015 -32.6009 -32.4452 -32.4439 -32.2331 -32.2289
   -32.1169 -32.1151 -32.1105 -32.1032 -32.0563 -32.0436 -31.9626 -31.9408
   -31.9371 -31.9278 -31.8949 -31.8839 -31.8587 -31.8520 -31.8489 -31.8244
   -31.8146 -31.8004 -31.7968 -31.7938 -31.7707 -31.7471 -31.7425 -31.7129
   -31.6982 -31.6961 -31.6943 -31.6352 -31.6119 -31.5630 -31.5337 -31.4995
   -31.4726 -31.4564 -31.4564 -31.3511 -31.3509 -31.3346 -31.3125 -31.3124
   -18.7552 -16.9754 -16.2232 -16.2191 -15.9344 -15.9111 -15.8074 -15.7654
   -15.7012 -15.6636 -15.5751 -15.5749 -15.5395 -15.5100 -15.4509 -15.4381
   -15.3901 -15.2528 -15.2101 -15.2006 -15.1920 -15.1792 -15.0980 -15.0925
   -15.0622 -15.0474 -14.9863 -14.9822 -14.9685 -14.8151 -14.7471 -13.6270
   -13.6266 -12.3482  -6.7843  -6.4866  -3.9876  -3.7511  -3.5234  -3.5233
    -3.3034  -3.2914  -3.1930  -3.1777  -3.1253  -3.0845  -3.0805  -3.0645
    -3.0353  -3.0124  -2.9751  -2.9165  -2.9129  -2.8272  -2.8224  -2.8067
    -2.7834  -2.7291  -2.6828  -2.6266  -2.5906  -2.5631  -2.5116  -2.5000
    -2.4257  -2.3721  -2.3412  -2.2986  -2.2679  -2.1506  -2.0631  -2.0307
    -1.9762  -1.8170  -1.7880  -1.7447  -1.7108  -1.6998  -1.5636  -1.5319
    -1.4811  -1.3910  -1.3377  -1.2976  -1.2760  -1.2262  -1.1803  -1.1273
    -1.0627  -1.0375  -1.0293  -0.9696  -0.7969  -0.7762  -0.6921  -0.6577
    -0.6555  -0.6371  -0.5686  -0.5509  -0.4683  -0.4605  -0.4060  -0.3989
    -0.3558  -0.3492  -0.3177  -0.2829  -0.2050  -0.1917  -0.1586  -0.1255
    -0.1140  -0.0716  -0.0494   0.0265   0.0677   0.1049   0.1627   0.2001
     0.2056   0.2433   0.2606   0.3035   0.3497   0.3980   0.4292   0.7554
     0.7959   1.0041   1.0769   1.2389   1.2414   1.3318   1.3367   1.5215
     2.6447   3.3495   3.3514   3.4947   3.4969   3.6061   3.6086   3.6840
     3.7431   3.7462   3.8872

          k = 0.0380 0.0000 0.0000 ( 17913 PWs)   bands (ev):

   -56.3329 -56.2990 -55.9331 -55.8994 -55.7456 -55.7091 -55.5589 -55.5557
   -55.5450 -55.5217 -55.5112 -55.4520 -55.2537 -55.2412 -55.1379 -55.1040
   -32.7874 -32.6254 -32.5987 -32.4887 -32.4102 -32.4084 -32.3979 -32.2430
   -32.1504 -32.1328 -32.0783 -32.0754 -32.0662 -32.0414 -32.0335 -31.9831
   -31.9744 -31.9682 -31.9268 -31.9102 -31.9026 -31.8593 -31.8422 -31.8299
   -31.8083 -31.7793 -31.7566 -31.7267 -31.7259 -31.7222 -31.7057 -31.7047
   -31.6939 -31.6657 -31.6515 -31.6392 -31.5479 -31.5363 -31.5171 -31.5012
   -31.4713 -31.4707 -31.4432 -31.4415 -31.3547 -31.3348 -31.2698 -31.1580
   -18.7565 -16.9857 -16.5548 -16.2446 -16.0668 -15.9949 -15.9365 -15.8316
   -15.8095 -15.6740 -15.6180 -15.5664 -15.5041 -15.4844 -15.4210 -15.4030
   -15.3596 -15.3320 -15.2853 -15.2634 -15.1567 -15.1209 -15.0888 -15.0494
   -15.0048 -14.9509 -14.8939 -14.8508 -14.8250 -14.7884 -14.5215 -13.6337
   -13.5233 -12.3440  -6.6897  -6.5097  -4.0767  -3.8707  -3.7652  -3.6948
    -3.5763  -3.4690  -3.3659  -3.3457  -3.3246  -3.3051  -3.2642  -3.1964
    -3.1191  -2.9686  -2.9128  -2.8798  -2.8186  -2.7897  -2.7321  -2.6631
    -2.6221  -2.5825  -2.5485  -2.5327  -2.4683  -2.4011  -2.3535  -2.3210
    -2.3109  -2.2672  -2.2443  -2.1403  -2.1060  -2.0521  -2.0294  -1.9482
    -1.9441  -1.8551  -1.7869  -1.7479  -1.7349  -1.6903  -1.6797  -1.6709
    -1.6052  -1.5407  -1.4918  -1.3846  -1.3306  -1.2767  -1.2418  -1.1796
    -1.1574  -1.0901  -1.0301  -1.0124  -1.0051  -0.9357  -0.8520  -0.8146
    -0.7965  -0.7123  -0.6570  -0.6243  -0.4928  -0.4524  -0.4172  -0.3841
    -0.3509  -0.3097  -0.2831  -0.1756  -0.1185  -0.0783  -0.0599  -0.0246
     0.0108   0.0460   0.0787   0.1143   0.1689   0.2057   0.2407   0.2692
     0.3053   0.3987   0.4865   0.5566   0.5912   0.6774   0.7056   0.7413
     0.8560   0.8977   0.9185   1.0783   1.2928   1.3314   1.3979   1.6455
     2.6719   2.9855   3.0047   3.3085   3.3215   3.4494   3.5821   3.6352
     3.7510   3.8058   3.8643

          k = 0.0380 0.0419 0.0000 ( 17878 PWs)   bands (ev):

   -56.3279 -56.3040 -55.9282 -55.9042 -55.7411 -55.7136 -55.5574 -55.5518
   -55.5401 -55.5266 -55.5161 -55.4513 -55.2544 -55.2416 -55.1329 -55.1090
   -32.7337 -32.6209 -32.6017 -32.4756 -32.4668 -32.4114 -32.3574 -32.1927
   -32.1384 -32.1267 -32.1063 -32.0816 -32.0698 -32.0148 -31.9874 -31.9654
   -31.9624 -31.9423 -31.9293 -31.9142 -31.9132 -31.8725 -31.8351 -31.8173
   -31.8018 -31.7819 -31.7524 -31.7441 -31.7377 -31.7309 -31.7152 -31.7083
   -31.7026 -31.6991 -31.6947 -31.6368 -31.5655 -31.5455 -31.5037 -31.4865
   -31.4828 -31.4683 -31.4671 -31.4473 -31.3423 -31.3350 -31.2823 -31.2150
   -18.7557 -16.9792 -16.4376 -16.1289 -15.9728 -15.9397 -15.9014 -15.8449
   -15.7070 -15.6232 -15.5896 -15.5671 -15.5453 -15.4946 -15.4442 -15.4304
   -15.3597 -15.2880 -15.2629 -15.2394 -15.1861 -15.1727 -15.1285 -15.0978
   -15.0815 -15.0067 -14.9550 -14.9063 -14.8859 -14.8029 -14.6070 -13.6403
   -13.5643 -12.3488  -6.7119  -6.4973  -4.0325  -3.7673  -3.6930  -3.5470
    -3.4248  -3.3400  -3.2222  -3.2073  -3.1781  -3.1496  -3.1149  -3.0126
    -2.9412  -2.8992  -2.8596  -2.8212  -2.7903  -2.7619  -2.7313  -2.6993
    -2.6817  -2.6194  -2.6040  -2.5643  -2.5303  -2.5218  -2.5005  -2.4763
    -2.4012  -2.3833  -2.2901  -2.2760  -2.2100  -2.1908  -2.1447  -2.1056
    -2.0291  -1.9717  -1.8159  -1.7653  -1.7244  -1.6828  -1.5814  -1.5149
    -1.4791  -1.4607  -1.3695  -1.3383  -1.2770  -1.1878  -1.1581  -1.0914
    -1.0710  -1.0136  -0.9973  -0.9432  -0.9267  -0.8975  -0.8434  -0.8030
    -0.7654  -0.7392  -0.6769  -0.6633  -0.6143  -0.5882  -0.5320  -0.5115
    -0.4813  -0.4317  -0.4076  -0.3716  -0.2806  -0.2128  -0.1707  -0.1236
    -0.0626  -0.0386  -0.0019   0.0548   0.1424   0.1790   0.2179   0.2627
     0.3028   0.3337   0.4625   0.4920   0.5210   0.5811   0.6514   0.6768
     0.7421   0.8595   1.1047   1.1956   1.2440   1.3157   1.3728   1.5840
     2.6656   3.1038   3.2224   3.3892   3.5134   3.5182   3.6156   3.6926
     3.7562   3.8227   3.8724

          k = 0.0380-0.0839 0.0000 ( 17916 PWs)   bands (ev):

   -56.3166 -56.3154 -55.9181 -55.9144 -55.7342 -55.7205 -55.5567 -55.5426
   -55.5363 -55.5296 -55.5265 -55.4506 -55.2552 -55.2421 -55.1210 -55.1209
   -32.6116 -32.6104 -32.6022 -32.6015 -32.4443 -32.4430 -32.2334 -32.2293
   -32.1203 -32.1180 -32.1105 -32.1032 -32.0456 -32.0346 -31.9627 -31.9440
   -31.9409 -31.9345 -31.8957 -31.8864 -31.8610 -31.8582 -31.8539 -31.8270
   -31.8121 -31.7925 -31.7803 -31.7769 -31.7697 -31.7467 -31.7430 -31.7135
   -31.7089 -31.7060 -31.6990 -31.6355 -31.6123 -31.5593 -31.5314 -31.5042
   -31.4739 -31.4572 -31.4572 -31.3510 -31.3508 -31.3353 -31.3125 -31.3124
   -18.7549 -16.9732 -16.1611 -16.1557 -15.8915 -15.8716 -15.7890 -15.7810
   -15.7008 -15.6393 -15.6081 -15.5935 -15.5029 -15.4680 -15.4542 -15.4343
   -15.4075 -15.3145 -15.2735 -15.2399 -15.1961 -15.1749 -15.1623 -15.1310
   -15.0814 -15.0557 -15.0096 -15.0038 -14.9573 -14.8093 -14.7437 -13.6268
   -13.6264 -12.3536  -6.7454  -6.4706  -3.9998  -3.7895  -3.3175  -3.3163
    -3.2170  -3.1857  -3.1464  -3.0695  -3.0555  -2.9824  -2.9759  -2.9380
    -2.9178  -2.8895  -2.8527  -2.8359  -2.7868  -2.7780  -2.7656  -2.7176
    -2.7015  -2.6863  -2.6563  -2.6296  -2.6164  -2.5633  -2.5164  -2.4996
    -2.4344  -2.3932  -2.3768  -2.2252  -2.1210  -2.0681  -2.0327  -1.9987
    -1.9578  -1.9370  -1.8765  -1.8515  -1.6982  -1.6603  -1.6421  -1.6183
    -1.5618  -1.5328  -1.5055  -1.4836  -1.4144  -1.3712  -1.3543  -1.2680
    -1.1233  -1.0744  -1.0299  -0.9924  -0.9516  -0.8611  -0.8126  -0.8051
    -0.7368  -0.7013  -0.6590  -0.6328  -0.5948  -0.5778  -0.5536  -0.5184
    -0.4995  -0.4707  -0.4089  -0.3750  -0.3519  -0.2964  -0.2329  -0.1300
    -0.1184  -0.0689  -0.0326  -0.0046   0.0125   0.1024   0.1246   0.1629
     0.2690   0.3252   0.3424   0.4254   0.4509   0.5515   0.5734   0.7150
     0.7715   0.9676   1.0639   1.2502   1.2528   1.3184   1.3214   1.5566
     2.6401   3.3511   3.3535   3.5246   3.5271   3.6882   3.7112   3.7245
     3.7574   3.7920   3.8033

          k = 0.0380-0.0419 0.0000 ( 17876 PWs)   bands (ev):

   -56.3279 -56.3040 -55.9282 -55.9042 -55.7411 -55.7136 -55.5574 -55.5518
   -55.5401 -55.5266 -55.5161 -55.4513 -55.2544 -55.2416 -55.1329 -55.1089
   -32.7337 -32.6209 -32.6017 -32.4755 -32.4668 -32.4114 -32.3574 -32.1927
   -32.1384 -32.1267 -32.1063 -32.0815 -32.0697 -32.0149 -31.9873 -31.9654
   -31.9624 -31.9418 -31.9293 -31.9139 -31.9134 -31.8728 -31.8350 -31.8173
   -31.8027 -31.7818 -31.7525 -31.7433 -31.7374 -31.7311 -31.7173 -31.7082
   -31.7042 -31.6970 -31.6944 -31.6367 -31.5595 -31.5503 -31.5047 -31.4868
   -31.4828 -31.4677 -31.4671 -31.4473 -31.3423 -31.3350 -31.2823 -31.2150
   -18.7557 -16.9793 -16.4375 -16.1290 -15.9730 -15.9405 -15.9017 -15.8448
   -15.7084 -15.6225 -15.5896 -15.5665 -15.5456 -15.4945 -15.4392 -15.4308
   -15.3545 -15.2990 -15.2619 -15.2387 -15.1853 -15.1715 -15.1324 -15.0944
   -15.0786 -15.0081 -14.9594 -14.9054 -14.8841 -14.8028 -14.6072 -13.6403
   -13.5643 -12.3488  -6.7276  -6.4787  -4.0365  -3.7820  -3.6923  -3.5471
    -3.4191  -3.3211  -3.2110  -3.2072  -3.1818  -3.1695  -3.1214  -3.0143
    -2.9401  -2.8983  -2.8543  -2.8220  -2.7924  -2.7721  -2.7298  -2.7010
    -2.6835  -2.6191  -2.5968  -2.5587  -2.5474  -2.5073  -2.5015  -2.4664
    -2.4191  -2.3839  -2.3022  -2.2648  -2.2194  -2.1970  -2.1469  -2.0991
    -2.0179  -1.9657  -1.8590  -1.7609  -1.7223  -1.6764  -1.5678  -1.5106
    -1.4755  -1.4294  -1.3645  -1.3396  -1.2728  -1.1940  -1.1232  -1.0858
    -1.0692  -1.0203  -0.9997  -0.9357  -0.9277  -0.9074  -0.8454  -0.8217
    -0.7578  -0.7055  -0.6994  -0.6576  -0.6342  -0.5837  -0.5444  -0.5019
    -0.4549  -0.4271  -0.3991  -0.3731  -0.2551  -0.2425  -0.1959  -0.1235
    -0.0873  -0.0263   0.0189   0.0869   0.1401   0.1662   0.2180   0.2556
     0.2899   0.3240   0.4382   0.4755   0.5174   0.5781   0.6629   0.6912
     0.7332   0.8431   1.1048   1.1958   1.2460   1.3154   1.3734   1.5799
     2.6524   3.1045   3.2226   3.3890   3.5130   3.5192   3.6192   3.6966
     3.7607   3.8180   3.8877

          k =-0.0760-0.0000 0.0000 ( 17886 PWs)   bands (ev):

   -56.3328 -56.2991 -55.9330 -55.8994 -55.7456 -55.7091 -55.5587 -55.5554
   -55.5454 -55.5216 -55.5112 -55.4520 -55.2537 -55.2412 -55.1379 -55.1040
   -32.7882 -32.6252 -32.5985 -32.4863 -32.4102 -32.4086 -32.3982 -32.2505
   -32.1503 -32.1158 -32.0754 -32.0699 -32.0665 -32.0447 -32.0337 -31.9916
   -31.9862 -31.9682 -31.9267 -31.9108 -31.9029 -31.8594 -31.8417 -31.7996
   -31.7967 -31.7778 -31.7568 -31.7553 -31.7266 -31.7184 -31.7073 -31.7064
   -31.6980 -31.6638 -31.6534 -31.6393 -31.5417 -31.5360 -31.5240 -31.5018
   -31.4741 -31.4709 -31.4420 -31.4418 -31.3546 -31.3352 -31.2697 -31.1581
   -18.7561 -16.9810 -16.4064 -16.1433 -16.0644 -16.0196 -15.9087 -15.8301
   -15.8100 -15.7487 -15.6444 -15.6269 -15.5062 -15.4924 -15.4570 -15.4097
   -15.4093 -15.4002 -15.3006 -15.2830 -15.2429 -15.1036 -15.0533 -15.0321
   -14.9933 -14.9205 -14.9184 -14.8259 -14.8114 -14.7854 -14.5219 -13.6309
   -13.5230 -12.3501  -6.6653  -6.4766  -4.0901  -3.7933  -3.6744  -3.5037
    -3.4854  -3.4786  -3.3648  -3.2976  -3.2736  -3.1661  -3.1370  -3.1346
    -3.0722  -3.0108  -2.8829  -2.8317  -2.7954  -2.7631  -2.6949  -2.6096
    -2.5478  -2.5110  -2.4912  -2.4876  -2.4523  -2.3610  -2.3383  -2.2765
    -2.2614  -2.2413  -2.2250  -2.1489  -2.1088  -2.0636  -2.0325  -2.0029
    -1.9732  -1.8766  -1.8600  -1.8254  -1.8127  -1.7165  -1.6835  -1.6683
    -1.5627  -1.5534  -1.5184  -1.4674  -1.4007  -1.3026  -1.2853  -1.2318
    -1.2078  -1.1275  -1.0711  -1.0561  -0.9992  -0.9787  -0.9193  -0.8344
    -0.8181  -0.7575  -0.6921  -0.6424  -0.5711  -0.5230  -0.5101  -0.4565
    -0.3889  -0.3608  -0.2695  -0.2620  -0.1935  -0.1711  -0.1291  -0.0771
    -0.0552  -0.0068   0.0223   0.1035   0.1508   0.1898   0.2545   0.3224
     0.3494   0.3913   0.4926   0.5193   0.5582   0.5714   0.6491   0.7224
     0.9063   0.9178   1.0065   1.0342   1.0608   1.2080   1.3376   1.6529
     2.6898   2.9635   3.0350   3.2085   3.3200   3.3858   3.4513   3.6553
     3.7467   3.7655   3.8088

          k =-0.0760 0.0419 0.0000 ( 17914 PWs)   bands (ev):

   -56.3279 -56.3040 -55.9282 -55.9043 -55.7411 -55.7136 -55.5573 -55.5514
   -55.5405 -55.5266 -55.5162 -55.4513 -55.2544 -55.2417 -55.1329 -55.1090
   -32.7346 -32.6210 -32.6017 -32.4738 -32.4671 -32.4113 -32.3577 -32.2022
   -32.1383 -32.1141 -32.1066 -32.0702 -32.0691 -32.0152 -31.9916 -31.9789
   -31.9629 -31.9453 -31.9293 -31.9158 -31.9131 -31.8736 -31.8346 -31.7927
   -31.7874 -31.7804 -31.7616 -31.7521 -31.7376 -31.7265 -31.7182 -31.7123
   -31.7102 -31.7022 -31.6969 -31.6369 -31.5612 -31.5455 -31.5090 -31.4868
   -31.4826 -31.4695 -31.4685 -31.4466 -31.3423 -31.3356 -31.2823 -31.2151
   -18.7554 -16.9760 -16.2978 -16.0469 -15.9775 -15.9645 -15.8675 -15.8297
   -15.7326 -15.6875 -15.5900 -15.5510 -15.5239 -15.5043 -15.4654 -15.4127
   -15.3977 -15.3913 -15.3115 -15.2784 -15.2626 -15.1502 -15.1251 -15.0920
   -15.0396 -15.0064 -14.9656 -14.9156 -14.8883 -14.7941 -14.6086 -13.6384
   -13.5646 -12.3546  -6.6882  -6.4622  -4.0461  -3.8199  -3.5287  -3.3634
    -3.2743  -3.1868  -3.1844  -3.1143  -3.1103  -2.9892  -2.9581  -2.8951
    -2.8832  -2.8610  -2.8503  -2.8337  -2.8208  -2.7387  -2.6953  -2.6723
    -2.6607  -2.6143  -2.5715  -2.5389  -2.5151  -2.4750  -2.4475  -2.4284
    -2.3740  -2.3520  -2.3092  -2.2541  -2.2215  -2.1533  -2.0283  -2.0160
    -2.0070  -1.9470  -1.9056  -1.8475  -1.7722  -1.6555  -1.6094  -1.5751
    -1.4819  -1.4598  -1.4093  -1.3653  -1.3041  -1.2902  -1.2626  -1.2258
    -1.1869  -1.1208  -1.1058  -1.0599  -1.0265  -0.9775  -0.9516  -0.9014
    -0.8799  -0.8462  -0.7777  -0.7469  -0.7322  -0.6934  -0.6645  -0.6065
    -0.5636  -0.4863  -0.4415  -0.3823  -0.3450  -0.3072  -0.2604  -0.2059
    -0.1409  -0.0956  -0.0516   0.0219   0.1357   0.2017   0.2474   0.3075
     0.3806   0.3897   0.4343   0.4650   0.5841   0.6473   0.6935   0.7493
     0.7833   0.8990   1.0227   1.1169   1.2275   1.2426   1.3601   1.6062
     2.6619   3.1034   3.2307   3.2890   3.4123   3.5224   3.6497   3.7294
     3.7806   3.7990   3.8786

          k =-0.0760-0.0839 0.0000 ( 17948 PWs)   bands (ev):

   -56.3166 -56.3154 -55.9181 -55.9144 -55.7343 -55.7205 -55.5567 -55.5424
   -55.5359 -55.5300 -55.5267 -55.4507 -55.2551 -55.2422 -55.1210 -55.1210
   -32.6117 -32.6104 -32.6028 -32.6022 -32.4433 -32.4421 -32.2337 -32.2296
   -32.1237 -32.1203 -32.1105 -32.1032 -32.0344 -32.0243 -31.9628 -31.9524
   -31.9430 -31.9404 -31.8965 -31.8885 -31.8641 -31.8627 -31.8569 -31.8283
   -31.8118 -31.7824 -31.7723 -31.7553 -31.7529 -31.7458 -31.7434 -31.7282
   -31.7235 -31.7147 -31.7051 -31.6361 -31.6102 -31.5568 -31.5268 -31.5115
   -31.4750 -31.4580 -31.4579 -31.3510 -31.3509 -31.3360 -31.3125 -31.3124
   -18.7546 -16.9710 -16.0559 -16.0434 -15.9254 -15.9203 -15.7422 -15.7232
   -15.6920 -15.6673 -15.6333 -15.5472 -15.4825 -15.4731 -15.4662 -15.4048
   -15.3591 -15.3482 -15.3286 -15.3022 -15.2790 -15.2532 -15.1587 -15.1325
   -15.1300 -15.0995 -15.0172 -15.0070 -14.9466 -14.8056 -14.7411 -13.6266
   -13.6262 -12.3590  -6.7081  -6.4503  -4.0090  -3.8451  -3.2274  -3.1906
    -3.1670  -3.0579  -3.0317  -2.9584  -2.8632  -2.8463  -2.8288  -2.7966
    -2.7691  -2.7610  -2.7470  -2.7072  -2.6553  -2.6350  -2.6197  -2.6102
    -2.6042  -2.6002  -2.5641  -2.5359  -2.4775  -2.4702  -2.4405  -2.4157
    -2.3905  -2.3129  -2.3053  -2.2807  -2.2802  -2.2337  -2.1285  -2.1107
    -2.1026  -2.0603  -2.0052  -1.9293  -1.8404  -1.7994  -1.7348  -1.6778
    -1.6181  -1.5899  -1.5786  -1.4787  -1.4184  -1.4105  -1.3589  -1.3097
    -1.2338  -1.1923  -1.1545  -1.1407  -1.1274  -1.0958  -1.0462  -0.9823
    -0.8687  -0.8442  -0.8315  -0.7669  -0.7623  -0.7530  -0.6484  -0.6162
    -0.5634  -0.5392  -0.5182  -0.4819  -0.4501  -0.3805  -0.2870  -0.2407
    -0.1135  -0.1018  -0.0427   0.0090   0.0203   0.0986   0.2017   0.2260
     0.3614   0.3751   0.4072   0.5368   0.6104   0.6590   0.6777   0.7996
     0.8202   0.8550   1.0238   1.2720   1.2764   1.2957   1.2968   1.5891
     2.6364   3.4288   3.4310   3.4606   3.4627   3.6717   3.6853   3.7617
     3.7967   3.8872   3.9088

     the Fermi energy is     2.8316 ev

!    total energy              =   -2972.69091318 Ry
     estimated scf accuracy    <       0.00000005 Ry
     smearing contrib. (-TS)   =      -0.01351872 Ry
     internal energy E=F+TS    =   -2972.67739446 Ry

     The total energy is F=E-TS. E is the sum of the following terms:
     one-electron contribution =  -24587.00233807 Ry
     hartree contribution      =   12385.55814385 Ry
     xc contribution           =    -493.18393738 Ry
     ewald contribution        =    9721.95047601 Ry
     electric field correction =       0.00026114 Ry

     convergence has been achieved in  76 iterations

     Forces acting on atoms (cartesian axes, Ry/au):

     atom    1 type  1   force =    -0.00000957   -0.00028279    0.10598052
     atom    2 type  1   force =    -0.00022545   -0.00076707   -0.16699365
     atom    3 type  2   force =    -0.00002439   -0.00013615   -0.03875379
     atom    4 type  2   force =    -0.00009908   -0.00038286    0.03660126
     atom    5 type  2   force =    -0.00758228   -0.00013199   -0.00571973
     atom    6 type  2   force =     0.00859577    0.00077650   -0.00740757
     atom    7 type  1   force =    -0.00079351   -0.00145155    0.01949750
     atom    8 type  1   force =     0.00110059    0.01829065    0.06290063
     atom    9 type  2   force =    -0.00008064   -0.00018906    0.00056081
     atom   10 type  2   force =    -0.00264804    0.00202856   -0.04734799
     atom   11 type  2   force =    -0.00022599   -0.00000744    0.00018048
     atom   12 type  2   force =     0.00035577   -0.00012498    0.00014139
     atom   13 type  1   force =     0.00006858   -0.00012177   -0.00078104
     atom   14 type  1   force =    -0.00049036   -0.00003877   -0.00022271
     atom   15 type  2   force =     0.00022143    0.00007182   -0.00014285
     atom   16 type  2   force =    -0.00014754   -0.00030285    0.00084755
     atom   17 type  2   force =    -0.00004892   -0.00023229    0.00061787
     atom   18 type  2   force =     0.00015583   -0.00002245   -0.00015666
     atom   19 type  1   force =    -0.00029086    0.00028907    0.00065947
     atom   20 type  1   force =     0.00026899    0.00041884   -0.00011468
     atom   21 type  2   force =     0.00004937   -0.00002062    0.10089172
     atom   22 type  2   force =     0.00030015    0.00024533    0.00072380
     atom   23 type  2   force =    -0.07576642   -0.00011785   -0.02984713
     atom   24 type  2   force =     0.07565673    0.00033707   -0.02985786
     atom   25 type  1   force =     0.00020067   -0.00055950    0.10634096
     atom   26 type  1   force =    -0.00006690   -0.00026639   -0.16741994
     atom   27 type  2   force =    -0.00006438   -0.00031910   -0.03740674
     atom   28 type  2   force =     0.00007170   -0.00046160    0.03706017
     atom   29 type  2   force =    -0.00855258    0.00126119   -0.00511495
     atom   30 type  2   force =     0.00950724    0.00122330   -0.00683293
     atom   31 type  1   force =    -0.00129902   -0.00008027    0.02581517
     atom   32 type  1   force =     0.00115787   -0.02139090    0.06347428
     atom   33 type  2   force =    -0.00001677    0.00026457    0.00018490
     atom   34 type  2   force =    -0.00008084    0.00090381   -0.05917304
     atom   35 type  2   force =    -0.00007537    0.00008387   -0.00007646
     atom   36 type  2   force =    -0.00013990    0.00035721   -0.00009276
     atom   37 type  1   force =     0.00002816   -0.00030874   -0.00030492
     atom   38 type  1   force =    -0.00041771   -0.00002999   -0.00042227
     atom   39 type  2   force =    -0.00021185    0.00041430    0.00076368
     atom   40 type  2   force =     0.00040876    0.00004747    0.00022673
     atom   41 type  2   force =    -0.00021927    0.00030520    0.00012230
     atom   42 type  2   force =     0.00049518    0.00026443    0.00016583
     atom   43 type  1   force =    -0.00035759   -0.00000847   -0.00054523
     atom   44 type  1   force =     0.00050891   -0.00008701   -0.00048446
     atom   45 type  2   force =     0.00002550   -0.00000052    0.10091974
     atom   46 type  2   force =    -0.07577648   -0.00010706   -0.02980489
     atom   47 type  2   force =     0.07564557    0.00032263   -0.02984065
     atom   48 type  3   force =    -0.01909438    0.00024268    0.00491848
     atom   49 type  4   force =     0.02776093    0.00201346    0.00116195
     atom   50 type  5   force =    -0.00461459   -0.00234619   -0.00539865
     atom   51 type  3   force =    -0.00278674   -0.00010817   -0.00063573
     atom   52 type  5   force =    -0.00006943    0.00033038    0.00005032
     atom   53 type  2   force =    -0.00070436    0.00018878   -0.00067964
     atom   54 type  5   force =    -0.00021316    0.00011256    0.00040041
     atom   55 type  5   force =     0.00061069   -0.00038929    0.00037100

     Total force =     0.384982     Total SCF correction =     0.000469
  @ DRIVER MODE: Message from server: STATUS
  @ DRIVER MODE: Message from server: GETFORCE
  @ DRIVER MODE: Returning v,forces,stress,ensemble 

     Writing output data file ./calc.save/
  @ DRIVER MODE: Message from server: EXIT
  @ DRIVE MODE: Exiting  
 
     init_run     :     10.76s CPU     10.98s WALL (       1 calls)
     electrons    :   1138.77s CPU   1155.38s WALL (       1 calls)
     forces       :      2.37s CPU      2.46s WALL (       1 calls)

     Called by init_run:
     wfcinit      :      4.81s CPU      4.88s WALL (       1 calls)
     potinit      :      5.31s CPU      5.37s WALL (       1 calls)
     hinit0       :      0.29s CPU      0.30s WALL (       1 calls)

     Called by electrons:
     c_bands      :    960.18s CPU    966.75s WALL (      76 calls)
     sum_band     :    121.95s CPU    126.00s WALL (      76 calls)
     v_of_rho     :     42.17s CPU     44.29s WALL (      77 calls)
     newd         :     17.42s CPU     21.30s WALL (      77 calls)
     mix_rho      :      1.56s CPU      1.59s WALL (      76 calls)
     vdW_kernel   :      4.54s CPU      4.56s WALL (       1 calls)

     Called by c_bands:
     init_us_2    :      7.07s CPU      7.10s WALL (    1540 calls)
     cegterg      :    939.33s CPU    945.61s WALL (     775 calls)

     Called by *egterg:
     cdiaghg      :    125.94s CPU    126.47s WALL (    5365 calls)
     h_psi        :    528.21s CPU    532.72s WALL (    5378 calls)
     s_psi        :     65.33s CPU     65.52s WALL (    5378 calls)
     g_psi        :      1.98s CPU      1.99s WALL (    4593 calls)

     Called by h_psi:
     h_psi:calbec :     62.79s CPU     63.08s WALL (    5378 calls)
     vloc_psi     :    396.35s CPU    400.03s WALL (    5378 calls)
     add_vuspsi   :     65.56s CPU     65.85s WALL (    5378 calls)

     General routines
     calbec       :     84.19s CPU     84.54s WALL (    6178 calls)
     fft          :     21.49s CPU     21.65s WALL (    4851 calls)
     ffts         :      0.13s CPU      0.13s WALL (     153 calls)
     fftw         :    443.70s CPU    447.85s WALL ( 1061422 calls)
     interpolate  :      0.44s CPU      0.44s WALL (      77 calls)
     davcio       :      0.00s CPU      0.22s WALL (      10 calls)
 
     Parallel routines
 
     PWSCF        :  19m12.18s CPU  19m29.67s WALL

 
   This run was terminated on:  18: 0: 6  15Sep2021            

=------------------------------------------------------------------------------=
   JOB DONE.
=------------------------------------------------------------------------------=
