
     Program PWSCF v.6.7GPU starts on 22Sep2021 at 15:38: 5 

     This program is part of the open-source Quantum ESPRESSO suite
     for quantum simulation of materials; please cite
         "P. Giannozzi et al., J. Phys.:Condens. Matter 21 395502 (2009);
         "P. Giannozzi et al., J. Phys.:Condens. Matter 29 465901 (2017);
         "P. Giannozzi et al., J. Chem. Phys. 152 154105 (2020);
          URL http://www.quantum-espresso.org", 
     in publications or presentations arising from this work. More details at
     http://www.quantum-espresso.org/quote

     Parallel version (MPI), running on    10 processors

     MPI processes distributed on     1 nodes
     R & G space division:  proc/nbgrp/npool/nimage =      10
     Reading input from /storage/home/hcoda1/3/ntian30/research/carbon/CxH_vib/CH_calc/ads_slab/CHN2OH_a/out_0015/pw.inp
Warning: card &CELL ignored
Warning: card   CELL_DYNAMICS='IPI', ignored
Warning: card / ignored

     Current dimensions of program PWSCF are:
     Max number of different atomic species (ntypx) = 10
     Max number of k-points (npk) =  40000
     Max angular momentum in pseudopotentials (lmaxx) =  3
     Presently no symmetry can be used with electric field

     Message from routine cell_base_init:
     DEPRECATED: use true lattice parameter, not A to a.u. conversion factor

     **************************************************************************
     Initializing libbeef V0.1.2 with the BEEF-vdW functional.
     Citation: Wellendorff et al., PRB 85, 235149 (2012).
     **************************************************************************


     IMPORTANT: XC functional enforced from input :
     Exchange-correlation= BEEF-VDW
                           (   1   4  43  14   2   0   0)
     Any further DFT definition will be discarded
     Please, verify this is what you really want


     Subspace diagonalization in iterative solution of the eigenvalue problem:
     one sub-group per band group will be used
     scalapack distributed-memory algorithm (size of sub-group:  3*  3 procs)

  @ DRIVER MODE: Connecting to 
 qe_1139763_2934093.sched-torque.pace.gatech.edud2k28emy_scratch
  using UNIX socket
  @ DRIVER MODE: Message from server: STATUS
  @ DRIVER MODE: Message from server: INIT
  @ DRIVER MODE: Receiving replica           0          -1
  @ DRIVER MODE: Receiving encoded integer          25
  @ DRIVER MODE:  SCF:  T  FORCE:  T  STRESS:  F  VC:  F  ENSEMBLE:  F
  @ DRIVER MODE:  SCF:  T  FORCE:  T  STRESS:  F  VC:  F  ENSEMBLE:  F
 
     Parallelization info
     --------------------
     sticks:   dense  smooth     PW     G-vecs:    dense   smooth      PW
     Min         327     131     37                56683    14340    2191
     Max         328     133     38                56694    14346    2206
     Sum        3275    1317    379               566857   143421   21985
 
     Using Slab Decomposition
 


     bravais-lattice index     =            0
     lattice parameter (alat)  =       1.8897  a.u.
     unit-cell volume          =    6658.9804 (a.u.)^3
     number of atoms/cell      =           53
     number of atomic types    =            5
     number of electrons       =       400.00
     number of Kohn-Sham states=          210
     kinetic-energy cutoff     =      29.3995  Ry
     charge density cutoff     =     293.9946  Ry
     scf convergence threshold =      7.3E-08
     mixing beta               =       0.0500
     number of iterations used =            8  plain     mixing
     Exchange-correlation= BEEF-VDW
                           (   1   4  43  14   2   0   0)

     celldm(1)=   1.889726  celldm(2)=   0.000000  celldm(3)=   0.000000
     celldm(4)=   0.000000  celldm(5)=   0.000000  celldm(6)=   0.000000

     crystal axes: (cart. coord. in units of alat)
               a(1) = (   6.579727   0.000000   0.000000 )  
               a(2) = (  -0.000775   5.961596   0.000000 )  
               a(3) = (   0.000000   0.000000  25.155947 )  

     reciprocal axes: (cart. coord. in units 2 pi/alat)
               b(1) = (  0.151982  0.000020  0.000000 )  
               b(2) = (  0.000000  0.167740  0.000000 )  
               b(3) = (  0.000000  0.000000  0.039752 )  


     PseudoPot. # 1 for Ti read from file:
     /storage/coda1/p-amedford6/0/shared/rich_project_chbe-medford/medford-share/data/pseudos_module/espresso/nninc/pbe/van/Ti.UPF
     MD5 check sum: 8e4df49b7f0d34bbd5052bf3f5ea0213
     Pseudo is Ultrasoft, Zval = 12.0
     Generated by new atomic code, or converted to UPF format
     Using radial grid of  851 points,  6 beta functions with: 
                l(1) =   0
                l(2) =   0
                l(3) =   1
                l(4) =   1
                l(5) =   2
                l(6) =   2
     Q(r) pseudized with  8 coefficients,  rinner =    1.000   1.000   1.000
                                                       1.000   1.000

     PseudoPot. # 2 for O  read from file:
     /storage/coda1/p-amedford6/0/shared/rich_project_chbe-medford/medford-share/data/pseudos_module/espresso/nninc/pbe/van/O.UPF
     MD5 check sum: 78c19812648e8988a0fe644b0f25305e
     Pseudo is Ultrasoft, Zval =  6.0
     Generated by new atomic code, or converted to UPF format
     Using radial grid of  737 points,  4 beta functions with: 
                l(1) =   0
                l(2) =   0
                l(3) =   1
                l(4) =   1
     Q(r) pseudized with  8 coefficients,  rinner =    0.800   0.800   0.800


     PseudoPot. # 3 for N  read from file:
     /storage/coda1/p-amedford6/0/shared/rich_project_chbe-medford/medford-share/data/pseudos_module/espresso/nninc/pbe/van/N.UPF
     MD5 check sum: 90d10febe142ad51ac9d5be1deb811c4
     Pseudo is Ultrasoft, Zval =  5.0
     Generated by new atomic code, or converted to UPF format
     Using radial grid of  729 points,  4 beta functions with: 
                l(1) =   0
                l(2) =   0
                l(3) =   1
                l(4) =   1
     Q(r) pseudized with  8 coefficients,  rinner =    0.800   0.800   0.800


     PseudoPot. # 4 for C  read from file:
     /storage/coda1/p-amedford6/0/shared/rich_project_chbe-medford/medford-share/data/pseudos_module/espresso/nninc/pbe/van/C.UPF
     MD5 check sum: 1a69bf6b8db32088f5b2163dbdb77a27
     Pseudo is Ultrasoft, Zval =  4.0
     Generated by new atomic code, or converted to UPF format
     Using radial grid of  721 points,  4 beta functions with: 
                l(1) =   0
                l(2) =   0
                l(3) =   1
                l(4) =   1
     Q(r) pseudized with  8 coefficients,  rinner =    0.800   0.800   0.800


     PseudoPot. # 5 for H  read from file:
     /storage/coda1/p-amedford6/0/shared/rich_project_chbe-medford/medford-share/data/pseudos_module/espresso/nninc/pbe/van/H.UPF
     MD5 check sum: b5ee9d7bfd3a09ee7748110bda690ff7
     Pseudo is Ultrasoft, Zval =  1.0
     Generated by new atomic code, or converted to UPF format
     Using radial grid of  615 points,  1 beta functions with: 
                l(1) =   0
     Q(r) pseudized with  8 coefficients,  rinner =    0.800

     atomic species   valence    mass     pseudopotential
        Ti1           12.00    47.86700     Ti( 1.00)
        O1             6.00    15.99900     O ( 1.00)
        N1             5.00    14.00700     N ( 1.00)
        C1             4.00    12.01100     C ( 1.00)
        H1             1.00     1.00800     H ( 1.00)

     No symmetry found



   Cartesian axes

     site n.     atom                  positions (alat units)
         1           Ti1 tau(   1) = (   0.0004258   2.9801865   6.0000000  )
         2           Ti1 tau(   2) = (   3.2906075   1.4906267   6.0002472  )
         3           O1  tau(   3) = (   0.0006271   0.0005054   7.9858123  )
         4           O1  tau(   4) = (   3.2906025   0.0005020   7.3038282  )
         5           O1  tau(   5) = (   4.5942328   1.4918067   9.2879030  )
         6           O1  tau(   6) = (   1.9868534   1.4903216   9.2879459  )
         7           Ti1 tau(   7) = (   3.2907910   2.8959150   9.1758416  )
         8           Ti1 tau(   8) = (   0.0015273   1.4827037   9.2680791  )
         9           O1  tau(   9) = (   3.2947431   5.9554071  11.2675382  )
        10           O1  tau(  10) = (   0.0116148   5.9584955  10.6183126  )
        11           O1  tau(  11) = (   1.2939190   1.5012022  12.6324650  )
        12           O1  tau(  12) = (   5.3075194   1.4952059  12.6199201  )
        13           Ti1 tau(  13) = (   0.0106221   2.8553259  12.7114016  )
        14           Ti1 tau(  14) = (   3.3038960   1.3182849  12.6556579  )
        15           O1  tau(  15) = (   6.5780848   0.0092190  14.6493773  )
        16           O1  tau(  16) = (   3.3025004   0.0387551  13.8658611  )
        17           O1  tau(  17) = (   4.5583283   1.5306594  16.0644060  )
        18           O1  tau(  18) = (   2.0361898   1.5392772  16.0217891  )
        19           Ti1 tau(  19) = (   3.3091865   3.0111069  15.6373089  )
        20           Ti1 tau(  20) = (   0.0377650   1.3505479  16.0707495  )
        21           O1  tau(  21) = (   3.2904802   0.0005063   4.7018136  )
        22           O1  tau(  22) = (   0.0439016   5.9493915  17.1867805  )
        23           O1  tau(  23) = (   1.3043587   1.4918075   6.0039043  )
        24           O1  tau(  24) = (   5.2767064   1.4903225   6.0039473  )
        25           Ti1 tau(  25) = (   0.0000382   5.9609847   6.0000000  )
        26           Ti1 tau(  26) = (   3.2902200   4.4714249   6.0002472  )
        27           O1  tau(  27) = (   0.0002396   2.9813036   7.9858123  )
        28           O1  tau(  28) = (   3.2902150   2.9813002   7.3038282  )
        29           O1  tau(  29) = (   4.5938453   4.4726049   9.2879030  )
        30           O1  tau(  30) = (   1.9864658   4.4711199   9.2879459  )
        31           Ti1 tau(  31) = (   3.2891106   5.8743827   9.1763621  )
        32           Ti1 tau(  32) = (   0.0006254   4.4649316   9.2693709  )
        33           O1  tau(  33) = (   3.2958776   3.0336607  11.2353185  )
        34           O1  tau(  34) = (   0.0092240   2.9805883  10.6323155  )
        35           O1  tau(  35) = (   1.3000586   4.4853303  12.6229424  )
        36           O1  tau(  36) = (   5.2993189   4.4901910  12.6110906  )
        37           Ti1 tau(  37) = (   0.0093010   5.8444503  12.6145921  )
        38           Ti1 tau(  38) = (   3.2999333   4.4129019  12.4053696  )
        39           O1  tau(  39) = (   6.5685983   3.0141634  14.6646344  )
        40           O1  tau(  40) = (   3.3157979   2.9893391  13.8470085  )
        41           O1  tau(  41) = (   4.5469136   4.4558096  16.0384726  )
        42           O1  tau(  42) = (   2.0285042   4.4377151  15.9822253  )
        43           Ti1 tau(  43) = (   3.3362675   0.0317196  16.2890182  )
        44           Ti1 tau(  44) = (   0.0499865   4.4862307  15.8577502  )
        45           O1  tau(  45) = (   3.2900926   2.9813045   4.7018136  )
        46           O1  tau(  46) = (   1.3039711   4.4726057   6.0039043  )
        47           O1  tau(  47) = (   5.2763189   4.4711207   6.0039473  )
        48           N1  tau(  48) = (   0.0045878   3.1533891  18.5964175  )
        49           N1  tau(  49) = (   0.0147781   3.0160983  17.3860304  )
        50           C1  tau(  50) = (   0.1535999   3.2996653  19.7680592  )
        51           H1  tau(  51) = (   6.1193577   3.4501394  20.6313668  )
        52           O1  tau(  52) = (   3.1701150   5.9596689  18.1025665  )
        53           H1  tau(  53) = (   2.2867615   0.0439400  18.5018857  )

     number of k points=    10  Fermi-Dirac smearing, width (Ry)=  0.0073
                       cart. coord. in units 2pi/alat
        k(    1) = (   0.0000000   0.0000000   0.0000000), wk =   0.1250000
        k(    2) = (   0.0000000   0.0419351   0.0000000), wk =   0.2500000
        k(    3) = (   0.0000000  -0.0838702   0.0000000), wk =   0.1250000
        k(    4) = (   0.0379955   0.0000049   0.0000000), wk =   0.2500000
        k(    5) = (   0.0379955   0.0419400   0.0000000), wk =   0.2500000
        k(    6) = (   0.0379955  -0.0838652   0.0000000), wk =   0.2500000
        k(    7) = (   0.0379955  -0.0419301   0.0000000), wk =   0.2500000
        k(    8) = (  -0.0759910  -0.0000099   0.0000000), wk =   0.1250000
        k(    9) = (  -0.0759910   0.0419252   0.0000000), wk =   0.2500000
        k(   10) = (  -0.0759910  -0.0838800   0.0000000), wk =   0.1250000

     Dense  grid:   566857 G-vectors     FFT dimensions: (  72,  64, 270)

     Smooth grid:   143421 G-vectors     FFT dimensions: (  45,  40, 180)

     Estimated max dynamical RAM per process >     367.10 MB

     Estimated total dynamical RAM >       3.58 GB
     Cannot read rho : file not found

     Initial potential from superposition of free atoms

     starting charge  383.99917, renormalised to  400.00000

     negative rho (up, down):  1.461E-02 0.000E+00


     %%%%%%%%%%%%%%%%%%%%%%%%%%%%%%%%%%%%%%%%%%%%%%%%%%%%%%%%%%%%%%%%%%%%%%%%
     %                                                                      %
     % You are using vdW-DF, which was implemented by the Thonhauser group. %
     % Please cite the following two papers that made this development      %
     % possible and the two reviews that describe the various versions:     %
     %                                                                      %
     %   T. Thonhauser et al., PRL 115, 136402 (2015).                      %
     %   T. Thonhauser et al., PRB 76, 125112 (2007).                       %
     %   K. Berland et al., Rep. Prog. Phys. 78, 066501 (2015).             %
     %   D.C. Langreth et al., J. Phys.: Condens. Matter 21, 084203 (2009). %
     %                                                                      %
     %                                                                      %
     % If you are calculating the stress with vdW-DF, please also cite:     %
     %                                                                      %
     %   R. Sabatini et al., J. Phys.: Condens. Matter 24, 424209 (2012).   %
     %                                                                      %
     %%%%%%%%%%%%%%%%%%%%%%%%%%%%%%%%%%%%%%%%%%%%%%%%%%%%%%%%%%%%%%%%%%%%%%%%


 
     Adding external electric field

     Computed dipole along edir(3) : 
        Dipole              -10.4151 Ry au,        -26.4725 Debye
        Dipole field         -0.0197 Ry au, 
 
        Potential amp.        1.8220 Ry
        Total length         46.3494 bohr
 
     Starting wfcs are  302 atomic wfcs
  @ DRIVER MODE: Message from server: STATUS
  @ DRIVER MODE: Message from server: POSDATA
  @ DRIVER MODE: Reading and sharing cell 
  @ DRIVER MODE: Reading and sharing positions 
  @ DRIVER MODE: Received positions 

     total cpu time spent up to now is       19.0 secs

     Self-consistent Calculation

     iteration #  1     ecut=    29.40 Ry     beta= 0.05
     Davidson diagonalization with overlap
     c_bands:  1 eigenvalues not converged
     c_bands:  1 eigenvalues not converged
     c_bands:  1 eigenvalues not converged
     c_bands:  1 eigenvalues not converged
     c_bands:  3 eigenvalues not converged
     c_bands:  2 eigenvalues not converged
     c_bands:  3 eigenvalues not converged
     c_bands:  2 eigenvalues not converged
     c_bands:  4 eigenvalues not converged
     c_bands:  2 eigenvalues not converged
     ethr =  1.00E-05,  avg # of iterations = 20.0

     negative rho (up, down):  1.077E-02 0.000E+00
 
     Adding external electric field

     Computed dipole along edir(3) : 
        Dipole               47.4695 Ry au,        120.6554 Debye
        Dipole field          0.0896 Ry au, 
 
        Potential amp.       -8.3041 Ry
        Total length         46.3494 bohr
 

     total cpu time spent up to now is       65.0 secs

     total energy              =   -2482.75371305 Ry
     estimated scf accuracy    <    5425.63296100 Ry

     iteration #  2     ecut=    29.40 Ry     beta= 0.05
     Davidson diagonalization with overlap
     ethr =  1.00E-02,  avg # of iterations = 23.0

     negative rho (up, down):  1.801E-03 0.000E+00
 
     Adding external electric field

     Computed dipole along edir(3) : 
        Dipole               -1.8082 Ry au,         -4.5960 Debye
        Dipole field         -0.0034 Ry au, 
 
        Potential amp.        0.3163 Ry
        Total length         46.3494 bohr
 

     total cpu time spent up to now is      154.0 secs

     total energy              =   -2462.85346649 Ry
     estimated scf accuracy    <   71747.32379173 Ry

     iteration #  3     ecut=    29.40 Ry     beta= 0.05
     Davidson diagonalization with overlap
     ethr =  1.00E-02,  avg # of iterations = 15.4

     negative rho (up, down):  1.875E-03 0.000E+00
 
     Adding external electric field

     Computed dipole along edir(3) : 
        Dipole               -4.2831 Ry au,        -10.8865 Debye
        Dipole field         -0.0081 Ry au, 
 
        Potential amp.        0.7493 Ry
        Total length         46.3494 bohr
 

     total cpu time spent up to now is      215.6 secs

     total energy              =   -2955.23697374 Ry
     estimated scf accuracy    <    4958.08402214 Ry

     iteration #  4     ecut=    29.40 Ry     beta= 0.05
     Davidson diagonalization with overlap
     ethr =  1.00E-02,  avg # of iterations = 11.2

     negative rho (up, down):  1.931E-03 0.000E+00
 
     Adding external electric field

     Computed dipole along edir(3) : 
        Dipole               -6.0856 Ry au,        -15.4680 Debye
        Dipole field         -0.0115 Ry au, 
 
        Potential amp.        1.0646 Ry
        Total length         46.3494 bohr
 

     total cpu time spent up to now is      236.4 secs

     total energy              =   -2952.58214332 Ry
     estimated scf accuracy    <    2038.34926912 Ry

     iteration #  5     ecut=    29.40 Ry     beta= 0.05
     Davidson diagonalization with overlap
     ethr =  1.00E-02,  avg # of iterations = 13.2

     negative rho (up, down):  1.947E-03 0.000E+00
 
     Adding external electric field

     Computed dipole along edir(3) : 
        Dipole               -5.5373 Ry au,        -14.0743 Debye
        Dipole field         -0.0104 Ry au, 
 
        Potential amp.        0.9687 Ry
        Total length         46.3494 bohr
 

     total cpu time spent up to now is      255.8 secs

     total energy              =   -2971.20884098 Ry
     estimated scf accuracy    <      94.99017452 Ry

     iteration #  6     ecut=    29.40 Ry     beta= 0.05
     Davidson diagonalization with overlap
     ethr =  1.00E-02,  avg # of iterations =  2.5

     negative rho (up, down):  1.949E-03 0.000E+00
 
     Adding external electric field

     Computed dipole along edir(3) : 
        Dipole               -5.3141 Ry au,        -13.5070 Debye
        Dipole field         -0.0100 Ry au, 
 
        Potential amp.        0.9296 Ry
        Total length         46.3494 bohr
 

     total cpu time spent up to now is      266.7 secs

     total energy              =   -2971.95978180 Ry
     estimated scf accuracy    <      54.34108704 Ry

     iteration #  7     ecut=    29.40 Ry     beta= 0.05
     Davidson diagonalization with overlap
     ethr =  1.00E-02,  avg # of iterations =  1.3

     negative rho (up, down):  2.044E-03 0.000E+00
 
     Adding external electric field

     Computed dipole along edir(3) : 
        Dipole               -3.8697 Ry au,         -9.8357 Debye
        Dipole field         -0.0073 Ry au, 
 
        Potential amp.        0.6769 Ry
        Total length         46.3494 bohr
 

     total cpu time spent up to now is      277.5 secs

     total energy              =   -2971.14975082 Ry
     estimated scf accuracy    <      52.57978408 Ry

     iteration #  8     ecut=    29.40 Ry     beta= 0.05
     Davidson diagonalization with overlap
     ethr =  1.00E-02,  avg # of iterations =  1.0

     negative rho (up, down):  2.405E-03 0.000E+00
 
     Adding external electric field

     Computed dipole along edir(3) : 
        Dipole               -0.8659 Ry au,         -2.2010 Debye
        Dipole field         -0.0016 Ry au, 
 
        Potential amp.        0.1515 Ry
        Total length         46.3494 bohr
 

     total cpu time spent up to now is      287.7 secs

     total energy              =   -2970.46495007 Ry
     estimated scf accuracy    <      51.39669175 Ry

     iteration #  9     ecut=    29.40 Ry     beta= 0.05
     Davidson diagonalization with overlap
     ethr =  1.00E-02,  avg # of iterations =  3.1

     negative rho (up, down):  2.469E-03 0.000E+00
 
     Adding external electric field

     Computed dipole along edir(3) : 
        Dipole               -0.8911 Ry au,         -2.2649 Debye
        Dipole field         -0.0017 Ry au, 
 
        Potential amp.        0.1559 Ry
        Total length         46.3494 bohr
 

     total cpu time spent up to now is      299.4 secs

     total energy              =   -2976.09726921 Ry
     estimated scf accuracy    <     948.69631188 Ry

     iteration # 10     ecut=    29.40 Ry     beta= 0.05
     Davidson diagonalization with overlap
     ethr =  1.00E-02,  avg # of iterations =  2.3

     negative rho (up, down):  2.842E-03 0.000E+00
 
     Adding external electric field

     Computed dipole along edir(3) : 
        Dipole               -0.3008 Ry au,         -0.7646 Debye
        Dipole field         -0.0006 Ry au, 
 
        Potential amp.        0.0526 Ry
        Total length         46.3494 bohr
 

     total cpu time spent up to now is      310.5 secs

     total energy              =   -2975.35372467 Ry
     estimated scf accuracy    <     988.68207700 Ry

     iteration # 11     ecut=    29.40 Ry     beta= 0.05
     Davidson diagonalization with overlap
     ethr =  1.00E-02,  avg # of iterations =  1.2

     negative rho (up, down):  2.735E-03 0.000E+00
 
     Adding external electric field

     Computed dipole along edir(3) : 
        Dipole               -1.9300 Ry au,         -4.9056 Debye
        Dipole field         -0.0036 Ry au, 
 
        Potential amp.        0.3376 Ry
        Total length         46.3494 bohr
 

     total cpu time spent up to now is      321.8 secs

     total energy              =   -2964.88943752 Ry
     estimated scf accuracy    <     923.82516662 Ry

     iteration # 12     ecut=    29.40 Ry     beta= 0.05
     Davidson diagonalization with overlap
     ethr =  1.00E-02,  avg # of iterations =  1.1

     negative rho (up, down):  2.686E-03 0.000E+00
 
     Adding external electric field

     Computed dipole along edir(3) : 
        Dipole               -2.4072 Ry au,         -6.1184 Debye
        Dipole field         -0.0045 Ry au, 
 
        Potential amp.        0.4211 Ry
        Total length         46.3494 bohr
 

     total cpu time spent up to now is      332.2 secs

     total energy              =   -2968.13673334 Ry
     estimated scf accuracy    <      99.79593298 Ry

     iteration # 13     ecut=    29.40 Ry     beta= 0.05
     Davidson diagonalization with overlap
     ethr =  1.00E-02,  avg # of iterations =  1.2

     negative rho (up, down):  2.633E-03 0.000E+00
 
     Adding external electric field

     Computed dipole along edir(3) : 
        Dipole               -3.1144 Ry au,         -7.9160 Debye
        Dipole field         -0.0059 Ry au, 
 
        Potential amp.        0.5448 Ry
        Total length         46.3494 bohr
 

     total cpu time spent up to now is      343.3 secs

     total energy              =   -2966.57267169 Ry
     estimated scf accuracy    <      85.93312385 Ry

     iteration # 14     ecut=    29.40 Ry     beta= 0.05
     Davidson diagonalization with overlap
     ethr =  1.00E-02,  avg # of iterations =  2.2

     negative rho (up, down):  2.747E-03 0.000E+00
 
     Adding external electric field

     Computed dipole along edir(3) : 
        Dipole               -2.7184 Ry au,         -6.9095 Debye
        Dipole field         -0.0051 Ry au, 
 
        Potential amp.        0.4755 Ry
        Total length         46.3494 bohr
 

     total cpu time spent up to now is      354.7 secs

     total energy              =   -2968.09254399 Ry
     estimated scf accuracy    <      33.76293360 Ry

     iteration # 15     ecut=    29.40 Ry     beta= 0.05
     Davidson diagonalization with overlap
     ethr =  8.44E-03,  avg # of iterations =  2.5

     negative rho (up, down):  2.817E-03 0.000E+00
 
     Adding external electric field

     Computed dipole along edir(3) : 
        Dipole               -2.7975 Ry au,         -7.1104 Debye
        Dipole field         -0.0053 Ry au, 
 
        Potential amp.        0.4894 Ry
        Total length         46.3494 bohr
 

     total cpu time spent up to now is      365.7 secs

     total energy              =   -2968.56547096 Ry
     estimated scf accuracy    <      18.85191902 Ry

     iteration # 16     ecut=    29.40 Ry     beta= 0.05
     Davidson diagonalization with overlap
     ethr =  4.71E-03,  avg # of iterations =  4.4

     negative rho (up, down):  2.874E-03 0.000E+00
 
     Adding external electric field

     Computed dipole along edir(3) : 
        Dipole               -2.5537 Ry au,         -6.4909 Debye
        Dipole field         -0.0048 Ry au, 
 
        Potential amp.        0.4467 Ry
        Total length         46.3494 bohr
 

     total cpu time spent up to now is      378.2 secs

     total energy              =   -2969.66164779 Ry
     estimated scf accuracy    <       1.52436117 Ry

     iteration # 17     ecut=    29.40 Ry     beta= 0.05
     Davidson diagonalization with overlap
     c_bands:  1 eigenvalues not converged
     c_bands:  4 eigenvalues not converged
     c_bands:  2 eigenvalues not converged
     c_bands:  2 eigenvalues not converged
     c_bands:  2 eigenvalues not converged
     c_bands:  1 eigenvalues not converged
     ethr =  3.81E-04,  avg # of iterations = 19.6

     negative rho (up, down):  2.815E-03 0.000E+00
 
     Adding external electric field

     Computed dipole along edir(3) : 
        Dipole               -2.5315 Ry au,         -6.4345 Debye
        Dipole field         -0.0048 Ry au, 
 
        Potential amp.        0.4429 Ry
        Total length         46.3494 bohr
 

     total cpu time spent up to now is      401.5 secs

     total energy              =   -2970.45481169 Ry
     estimated scf accuracy    <       2.31603681 Ry

     iteration # 18     ecut=    29.40 Ry     beta= 0.05
     Davidson diagonalization with overlap
     ethr =  3.81E-04,  avg # of iterations =  2.8

     negative rho (up, down):  2.807E-03 0.000E+00
 
     Adding external electric field

     Computed dipole along edir(3) : 
        Dipole               -2.5090 Ry au,         -6.3774 Debye
        Dipole field         -0.0047 Ry au, 
 
        Potential amp.        0.4389 Ry
        Total length         46.3494 bohr
 

     total cpu time spent up to now is      413.6 secs

     total energy              =   -2970.44539525 Ry
     estimated scf accuracy    <       1.64110912 Ry

     iteration # 19     ecut=    29.40 Ry     beta= 0.05
     Davidson diagonalization with overlap
     ethr =  3.81E-04,  avg # of iterations =  1.1

     negative rho (up, down):  2.848E-03 0.000E+00
 
     Adding external electric field

     Computed dipole along edir(3) : 
        Dipole               -2.6944 Ry au,         -6.8485 Debye
        Dipole field         -0.0051 Ry au, 
 
        Potential amp.        0.4713 Ry
        Total length         46.3494 bohr
 

     total cpu time spent up to now is      424.0 secs

     total energy              =   -2970.56924031 Ry
     estimated scf accuracy    <       1.65927182 Ry

     iteration # 20     ecut=    29.40 Ry     beta= 0.05
     Davidson diagonalization with overlap
     ethr =  3.81E-04,  avg # of iterations =  1.0

     negative rho (up, down):  3.012E-03 0.000E+00
 
     Adding external electric field

     Computed dipole along edir(3) : 
        Dipole               -2.0908 Ry au,         -5.3144 Debye
        Dipole field         -0.0039 Ry au, 
 
        Potential amp.        0.3658 Ry
        Total length         46.3494 bohr
 

     total cpu time spent up to now is      434.1 secs

     total energy              =   -2970.36718328 Ry
     estimated scf accuracy    <       3.73337889 Ry

     iteration # 21     ecut=    29.40 Ry     beta= 0.05
     Davidson diagonalization with overlap
     ethr =  3.81E-04,  avg # of iterations =  1.1

     negative rho (up, down):  4.062E-03 0.000E+00
 
     Adding external electric field

     Computed dipole along edir(3) : 
        Dipole               -0.8066 Ry au,         -2.0501 Debye
        Dipole field         -0.0015 Ry au, 
 
        Potential amp.        0.1411 Ry
        Total length         46.3494 bohr
 

     total cpu time spent up to now is      444.2 secs

     total energy              =   -2970.24647432 Ry
     estimated scf accuracy    <       2.02069145 Ry

     iteration # 22     ecut=    29.40 Ry     beta= 0.05
     Davidson diagonalization with overlap
     ethr =  3.81E-04,  avg # of iterations =  3.2

     negative rho (up, down):  3.830E-03 0.000E+00
 
     Adding external electric field

     Computed dipole along edir(3) : 
        Dipole               -0.9457 Ry au,         -2.4038 Debye
        Dipole field         -0.0018 Ry au, 
 
        Potential amp.        0.1654 Ry
        Total length         46.3494 bohr
 

     total cpu time spent up to now is      457.3 secs

     total energy              =   -2970.30423675 Ry
     estimated scf accuracy    <      10.26124043 Ry

     iteration # 23     ecut=    29.40 Ry     beta= 0.05
     Davidson diagonalization with overlap
     ethr =  3.81E-04,  avg # of iterations =  1.1

     negative rho (up, down):  3.790E-03 0.000E+00
 
     Adding external electric field

     Computed dipole along edir(3) : 
        Dipole               -1.1132 Ry au,         -2.8294 Debye
        Dipole field         -0.0021 Ry au, 
 
        Potential amp.        0.1947 Ry
        Total length         46.3494 bohr
 

     total cpu time spent up to now is      467.6 secs

     total energy              =   -2970.36599672 Ry
     estimated scf accuracy    <       2.51661810 Ry

     iteration # 24     ecut=    29.40 Ry     beta= 0.05
     Davidson diagonalization with overlap
     ethr =  3.81E-04,  avg # of iterations =  1.1

     negative rho (up, down):  3.586E-03 0.000E+00
 
     Adding external electric field

     Computed dipole along edir(3) : 
        Dipole               -1.1578 Ry au,         -2.9428 Debye
        Dipole field         -0.0022 Ry au, 
 
        Potential amp.        0.2025 Ry
        Total length         46.3494 bohr
 

     total cpu time spent up to now is      478.0 secs

     total energy              =   -2970.25699548 Ry
     estimated scf accuracy    <       5.42284066 Ry

     iteration # 25     ecut=    29.40 Ry     beta= 0.05
     Davidson diagonalization with overlap
     ethr =  3.81E-04,  avg # of iterations =  1.0

     negative rho (up, down):  4.321E-03 0.000E+00
 
     Adding external electric field

     Computed dipole along edir(3) : 
        Dipole               -0.1828 Ry au,         -0.4647 Debye
        Dipole field         -0.0003 Ry au, 
 
        Potential amp.        0.0320 Ry
        Total length         46.3494 bohr
 

     total cpu time spent up to now is      489.4 secs

     total energy              =   -2970.15984218 Ry
     estimated scf accuracy    <       0.90648115 Ry

     iteration # 26     ecut=    29.40 Ry     beta= 0.05
     Davidson diagonalization with overlap
     ethr =  2.27E-04,  avg # of iterations = 12.6

     negative rho (up, down):  4.105E-03 0.000E+00
 
     Adding external electric field

     Computed dipole along edir(3) : 
        Dipole               -0.1910 Ry au,         -0.4855 Debye
        Dipole field         -0.0004 Ry au, 
 
        Potential amp.        0.0334 Ry
        Total length         46.3494 bohr
 

     total cpu time spent up to now is      506.9 secs

     total energy              =   -2970.28191066 Ry
     estimated scf accuracy    <       2.08793574 Ry

     iteration # 27     ecut=    29.40 Ry     beta= 0.05
     Davidson diagonalization with overlap
     ethr =  2.27E-04,  avg # of iterations =  1.9

     negative rho (up, down):  3.923E-03 0.000E+00
 
     Adding external electric field

     Computed dipole along edir(3) : 
        Dipole               -0.3810 Ry au,         -0.9685 Debye
        Dipole field         -0.0007 Ry au, 
 
        Potential amp.        0.0667 Ry
        Total length         46.3494 bohr
 

     total cpu time spent up to now is      519.0 secs

     total energy              =   -2970.31759796 Ry
     estimated scf accuracy    <       0.87891663 Ry

     iteration # 28     ecut=    29.40 Ry     beta= 0.05
     Davidson diagonalization with overlap
     ethr =  2.20E-04,  avg # of iterations =  1.0

     negative rho (up, down):  3.916E-03 0.000E+00
 
     Adding external electric field

     Computed dipole along edir(3) : 
        Dipole               -0.3314 Ry au,         -0.8423 Debye
        Dipole field         -0.0006 Ry au, 
 
        Potential amp.        0.0580 Ry
        Total length         46.3494 bohr
 

     total cpu time spent up to now is      529.7 secs

     total energy              =   -2970.30040828 Ry
     estimated scf accuracy    <       1.00581925 Ry

     iteration # 29     ecut=    29.40 Ry     beta= 0.05
     Davidson diagonalization with overlap
     ethr =  2.20E-04,  avg # of iterations =  2.1

     negative rho (up, down):  3.879E-03 0.000E+00
 
     Adding external electric field

     Computed dipole along edir(3) : 
        Dipole               -0.7655 Ry au,         -1.9457 Debye
        Dipole field         -0.0014 Ry au, 
 
        Potential amp.        0.1339 Ry
        Total length         46.3494 bohr
 

     total cpu time spent up to now is      540.5 secs

     total energy              =   -2970.10677735 Ry
     estimated scf accuracy    <       0.98778136 Ry

     iteration # 30     ecut=    29.40 Ry     beta= 0.05
     Davidson diagonalization with overlap
     ethr =  2.20E-04,  avg # of iterations =  8.6

     negative rho (up, down):  4.087E-03 0.000E+00
 
     Adding external electric field

     Computed dipole along edir(3) : 
        Dipole               -0.6992 Ry au,         -1.7772 Debye
        Dipole field         -0.0013 Ry au, 
 
        Potential amp.        0.1223 Ry
        Total length         46.3494 bohr
 

     total cpu time spent up to now is      559.1 secs

     total energy              =   -2970.15772239 Ry
     estimated scf accuracy    <       2.65603325 Ry

     iteration # 31     ecut=    29.40 Ry     beta= 0.05
     Davidson diagonalization with overlap
     ethr =  2.20E-04,  avg # of iterations =  2.0

     negative rho (up, down):  4.635E-03 0.000E+00
 
     Adding external electric field

     Computed dipole along edir(3) : 
        Dipole               -0.1834 Ry au,         -0.4661 Debye
        Dipole field         -0.0003 Ry au, 
 
        Potential amp.        0.0321 Ry
        Total length         46.3494 bohr
 

     total cpu time spent up to now is      570.2 secs

     total energy              =   -2970.18822359 Ry
     estimated scf accuracy    <       0.37692195 Ry

     iteration # 32     ecut=    29.40 Ry     beta= 0.05
     Davidson diagonalization with overlap
     ethr =  9.42E-05,  avg # of iterations =  9.7

     negative rho (up, down):  4.840E-03 0.000E+00
 
     Adding external electric field

     Computed dipole along edir(3) : 
        Dipole               -0.1136 Ry au,         -0.2886 Debye
        Dipole field         -0.0002 Ry au, 
 
        Potential amp.        0.0199 Ry
        Total length         46.3494 bohr
 

     total cpu time spent up to now is      584.8 secs

     total energy              =   -2970.21873033 Ry
     estimated scf accuracy    <       0.13357056 Ry

     iteration # 33     ecut=    29.40 Ry     beta= 0.05
     Davidson diagonalization with overlap
     ethr =  3.34E-05,  avg # of iterations =  7.3

     negative rho (up, down):  5.026E-03 0.000E+00
 
     Adding external electric field

     Computed dipole along edir(3) : 
        Dipole               -0.0438 Ry au,         -0.1114 Debye
        Dipole field         -0.0001 Ry au, 
 
        Potential amp.        0.0077 Ry
        Total length         46.3494 bohr
 

     total cpu time spent up to now is      597.7 secs

     total energy              =   -2970.22270139 Ry
     estimated scf accuracy    <       0.15450715 Ry

     iteration # 34     ecut=    29.40 Ry     beta= 0.05
     Davidson diagonalization with overlap
     ethr =  3.34E-05,  avg # of iterations =  2.4

     negative rho (up, down):  6.691E-03 0.000E+00
 
     Adding external electric field

     Computed dipole along edir(3) : 
        Dipole                0.1956 Ry au,          0.4971 Debye
        Dipole field          0.0004 Ry au, 
 
        Potential amp.       -0.0342 Ry
        Total length         46.3494 bohr
 

     total cpu time spent up to now is      608.5 secs

     total energy              =   -2970.21646869 Ry
     estimated scf accuracy    <       0.11133714 Ry

     iteration # 35     ecut=    29.40 Ry     beta= 0.05
     Davidson diagonalization with overlap
     c_bands:  1 eigenvalues not converged
     c_bands:  3 eigenvalues not converged
     c_bands:  1 eigenvalues not converged
     c_bands:  1 eigenvalues not converged
     c_bands:  1 eigenvalues not converged
     ethr =  2.78E-05,  avg # of iterations = 16.3

     negative rho (up, down):  7.938E-03 0.000E+00
 
     Adding external electric field

     Computed dipole along edir(3) : 
        Dipole                0.2379 Ry au,          0.6048 Debye
        Dipole field          0.0004 Ry au, 
 
        Potential amp.       -0.0416 Ry
        Total length         46.3494 bohr
 

     total cpu time spent up to now is      626.8 secs

     total energy              =   -2970.22113511 Ry
     estimated scf accuracy    <       0.02810972 Ry

     iteration # 36     ecut=    29.40 Ry     beta= 0.05
     Davidson diagonalization with overlap
     c_bands:  2 eigenvalues not converged
     c_bands:  1 eigenvalues not converged
     c_bands:  1 eigenvalues not converged
     c_bands:  1 eigenvalues not converged
     ethr =  7.03E-06,  avg # of iterations = 14.5

     negative rho (up, down):  8.177E-03 0.000E+00
 
     Adding external electric field

     Computed dipole along edir(3) : 
        Dipole                0.2591 Ry au,          0.6586 Debye
        Dipole field          0.0005 Ry au, 
 
        Potential amp.       -0.0453 Ry
        Total length         46.3494 bohr
 

     total cpu time spent up to now is      646.7 secs

     total energy              =   -2970.22537240 Ry
     estimated scf accuracy    <       0.02373993 Ry

     iteration # 37     ecut=    29.40 Ry     beta= 0.05
     Davidson diagonalization with overlap
     ethr =  5.93E-06,  avg # of iterations =  2.9

     negative rho (up, down):  7.658E-03 0.000E+00
 
     Adding external electric field

     Computed dipole along edir(3) : 
        Dipole                0.1776 Ry au,          0.4514 Debye
        Dipole field          0.0003 Ry au, 
 
        Potential amp.       -0.0311 Ry
        Total length         46.3494 bohr
 

     total cpu time spent up to now is      658.3 secs

     total energy              =   -2970.22472895 Ry
     estimated scf accuracy    <       0.02320180 Ry

     iteration # 38     ecut=    29.40 Ry     beta= 0.05
     Davidson diagonalization with overlap
     ethr =  5.80E-06,  avg # of iterations =  2.4

     negative rho (up, down):  8.409E-03 0.000E+00
 
     Adding external electric field

     Computed dipole along edir(3) : 
        Dipole                0.2293 Ry au,          0.5829 Debye
        Dipole field          0.0004 Ry au, 
 
        Potential amp.       -0.0401 Ry
        Total length         46.3494 bohr
 

     total cpu time spent up to now is      669.5 secs

     total energy              =   -2970.22571825 Ry
     estimated scf accuracy    <       0.02522467 Ry

     iteration # 39     ecut=    29.40 Ry     beta= 0.05
     Davidson diagonalization with overlap
     ethr =  5.80E-06,  avg # of iterations =  1.0

     negative rho (up, down):  1.076E-02 0.000E+00
 
     Adding external electric field

     Computed dipole along edir(3) : 
        Dipole                0.3554 Ry au,          0.9033 Debye
        Dipole field          0.0007 Ry au, 
 
        Potential amp.       -0.0622 Ry
        Total length         46.3494 bohr
 

     total cpu time spent up to now is      679.9 secs

     total energy              =   -2970.22629128 Ry
     estimated scf accuracy    <       0.02431379 Ry

     iteration # 40     ecut=    29.40 Ry     beta= 0.05
     Davidson diagonalization with overlap
     ethr =  5.80E-06,  avg # of iterations =  4.2

     negative rho (up, down):  9.606E-03 0.000E+00
 
     Adding external electric field

     Computed dipole along edir(3) : 
        Dipole                0.3929 Ry au,          0.9986 Debye
        Dipole field          0.0007 Ry au, 
 
        Potential amp.       -0.0687 Ry
        Total length         46.3494 bohr
 

     total cpu time spent up to now is      691.9 secs

     total energy              =   -2970.22854056 Ry
     estimated scf accuracy    <       0.02103844 Ry

     iteration # 41     ecut=    29.40 Ry     beta= 0.05
     Davidson diagonalization with overlap
     c_bands:  2 eigenvalues not converged
     c_bands:  1 eigenvalues not converged
     c_bands:  1 eigenvalues not converged
     c_bands:  1 eigenvalues not converged
     c_bands:  1 eigenvalues not converged
     c_bands:  1 eigenvalues not converged
     c_bands:  1 eigenvalues not converged
     ethr =  5.26E-06,  avg # of iterations = 17.5

     negative rho (up, down):  8.012E-03 0.000E+00
 
     Adding external electric field

     Computed dipole along edir(3) : 
        Dipole                0.3764 Ry au,          0.9567 Debye
        Dipole field          0.0007 Ry au, 
 
        Potential amp.       -0.0658 Ry
        Total length         46.3494 bohr
 

     total cpu time spent up to now is      714.8 secs

     total energy              =   -2970.21989350 Ry
     estimated scf accuracy    <       0.05223878 Ry

     iteration # 42     ecut=    29.40 Ry     beta= 0.05
     Davidson diagonalization with overlap
     c_bands:  2 eigenvalues not converged
     c_bands:  1 eigenvalues not converged
     c_bands:  1 eigenvalues not converged
     c_bands:  1 eigenvalues not converged
     c_bands:  1 eigenvalues not converged
     c_bands:  1 eigenvalues not converged
     ethr =  5.26E-06,  avg # of iterations = 15.9

     negative rho (up, down):  7.625E-03 0.000E+00
 
     Adding external electric field

     Computed dipole along edir(3) : 
        Dipole                0.3296 Ry au,          0.8377 Debye
        Dipole field          0.0006 Ry au, 
 
        Potential amp.       -0.0577 Ry
        Total length         46.3494 bohr
 

     total cpu time spent up to now is      737.2 secs

     total energy              =   -2970.22427976 Ry
     estimated scf accuracy    <       0.02583494 Ry

     iteration # 43     ecut=    29.40 Ry     beta= 0.05
     Davidson diagonalization with overlap
     ethr =  5.26E-06,  avg # of iterations =  4.3

     negative rho (up, down):  7.603E-03 0.000E+00
 
     Adding external electric field

     Computed dipole along edir(3) : 
        Dipole                0.3455 Ry au,          0.8781 Debye
        Dipole field          0.0007 Ry au, 
 
        Potential amp.       -0.0604 Ry
        Total length         46.3494 bohr
 

     total cpu time spent up to now is      749.1 secs

     total energy              =   -2970.22500521 Ry
     estimated scf accuracy    <       0.02180178 Ry

     iteration # 44     ecut=    29.40 Ry     beta= 0.05
     Davidson diagonalization with overlap
     ethr =  5.26E-06,  avg # of iterations =  1.5

     negative rho (up, down):  7.550E-03 0.000E+00
 
     Adding external electric field

     Computed dipole along edir(3) : 
        Dipole                0.1676 Ry au,          0.4261 Debye
        Dipole field          0.0003 Ry au, 
 
        Potential amp.       -0.0293 Ry
        Total length         46.3494 bohr
 

     total cpu time spent up to now is      759.5 secs

     total energy              =   -2970.22086985 Ry
     estimated scf accuracy    <       0.02444235 Ry

     iteration # 45     ecut=    29.40 Ry     beta= 0.05
     Davidson diagonalization with overlap
     c_bands:  1 eigenvalues not converged
     c_bands:  1 eigenvalues not converged
     c_bands:  1 eigenvalues not converged
     ethr =  5.26E-06,  avg # of iterations = 13.2

     negative rho (up, down):  7.718E-03 0.000E+00
 
     Adding external electric field

     Computed dipole along edir(3) : 
        Dipole                0.1938 Ry au,          0.4926 Debye
        Dipole field          0.0004 Ry au, 
 
        Potential amp.       -0.0339 Ry
        Total length         46.3494 bohr
 

     total cpu time spent up to now is      774.7 secs

     total energy              =   -2970.22205873 Ry
     estimated scf accuracy    <       0.01393148 Ry

     iteration # 46     ecut=    29.40 Ry     beta= 0.05
     Davidson diagonalization with overlap
     ethr =  3.48E-06,  avg # of iterations =  9.5

     negative rho (up, down):  8.875E-03 0.000E+00
 
     Adding external electric field

     Computed dipole along edir(3) : 
        Dipole                0.2369 Ry au,          0.6023 Debye
        Dipole field          0.0004 Ry au, 
 
        Potential amp.       -0.0415 Ry
        Total length         46.3494 bohr
 

     total cpu time spent up to now is      793.6 secs

     total energy              =   -2970.22311034 Ry
     estimated scf accuracy    <       0.00904392 Ry

     iteration # 47     ecut=    29.40 Ry     beta= 0.05
     Davidson diagonalization with overlap
     c_bands:  1 eigenvalues not converged
     ethr =  2.26E-06,  avg # of iterations =  6.5

     negative rho (up, down):  1.001E-02 0.000E+00
 
     Adding external electric field

     Computed dipole along edir(3) : 
        Dipole                0.2383 Ry au,          0.6057 Debye
        Dipole field          0.0004 Ry au, 
 
        Potential amp.       -0.0417 Ry
        Total length         46.3494 bohr
 

     total cpu time spent up to now is      805.9 secs

     total energy              =   -2970.22274436 Ry
     estimated scf accuracy    <       0.00577279 Ry

     iteration # 48     ecut=    29.40 Ry     beta= 0.05
     Davidson diagonalization with overlap
     c_bands:  1 eigenvalues not converged
     ethr =  1.44E-06,  avg # of iterations =  8.3

     negative rho (up, down):  1.185E-02 0.000E+00
 
     Adding external electric field

     Computed dipole along edir(3) : 
        Dipole                0.2640 Ry au,          0.6709 Debye
        Dipole field          0.0005 Ry au, 
 
        Potential amp.       -0.0462 Ry
        Total length         46.3494 bohr
 

     total cpu time spent up to now is      821.2 secs

     total energy              =   -2970.22334277 Ry
     estimated scf accuracy    <       0.00437229 Ry

     iteration # 49     ecut=    29.40 Ry     beta= 0.05
     Davidson diagonalization with overlap
     ethr =  1.09E-06,  avg # of iterations =  6.0

     negative rho (up, down):  1.263E-02 0.000E+00
 
     Adding external electric field

     Computed dipole along edir(3) : 
        Dipole                0.2793 Ry au,          0.7100 Debye
        Dipole field          0.0005 Ry au, 
 
        Potential amp.       -0.0489 Ry
        Total length         46.3494 bohr
 

     total cpu time spent up to now is      834.7 secs

     total energy              =   -2970.22381456 Ry
     estimated scf accuracy    <       0.00145836 Ry

     iteration # 50     ecut=    29.40 Ry     beta= 0.05
     Davidson diagonalization with overlap
     ethr =  3.65E-07,  avg # of iterations =  3.4

     negative rho (up, down):  1.415E-02 0.000E+00
 
     Adding external electric field

     Computed dipole along edir(3) : 
        Dipole                0.3156 Ry au,          0.8022 Debye
        Dipole field          0.0006 Ry au, 
 
        Potential amp.       -0.0552 Ry
        Total length         46.3494 bohr
 

     total cpu time spent up to now is      846.6 secs

     total energy              =   -2970.22392305 Ry
     estimated scf accuracy    <       0.00123989 Ry

     iteration # 51     ecut=    29.40 Ry     beta= 0.05
     Davidson diagonalization with overlap
     ethr =  3.10E-07,  avg # of iterations =  5.0

     negative rho (up, down):  1.490E-02 0.000E+00
 
     Adding external electric field

     Computed dipole along edir(3) : 
        Dipole                0.3236 Ry au,          0.8225 Debye
        Dipole field          0.0006 Ry au, 
 
        Potential amp.       -0.0566 Ry
        Total length         46.3494 bohr
 

     total cpu time spent up to now is      859.2 secs

     total energy              =   -2970.22398050 Ry
     estimated scf accuracy    <       0.00063070 Ry

     iteration # 52     ecut=    29.40 Ry     beta= 0.05
     Davidson diagonalization with overlap
     ethr =  1.58E-07,  avg # of iterations =  5.3

     negative rho (up, down):  1.467E-02 0.000E+00
 
     Adding external electric field

     Computed dipole along edir(3) : 
        Dipole                0.3084 Ry au,          0.7840 Debye
        Dipole field          0.0006 Ry au, 
 
        Potential amp.       -0.0540 Ry
        Total length         46.3494 bohr
 

     total cpu time spent up to now is      872.6 secs

     total energy              =   -2970.22392166 Ry
     estimated scf accuracy    <       0.00042536 Ry

     iteration # 53     ecut=    29.40 Ry     beta= 0.05
     Davidson diagonalization with overlap
     ethr =  1.06E-07,  avg # of iterations =  4.9

     negative rho (up, down):  1.481E-02 0.000E+00
 
     Adding external electric field

     Computed dipole along edir(3) : 
        Dipole                0.3085 Ry au,          0.7842 Debye
        Dipole field          0.0006 Ry au, 
 
        Potential amp.       -0.0540 Ry
        Total length         46.3494 bohr
 

     total cpu time spent up to now is      886.3 secs

     total energy              =   -2970.22391448 Ry
     estimated scf accuracy    <       0.00024428 Ry

     iteration # 54     ecut=    29.40 Ry     beta= 0.05
     Davidson diagonalization with overlap
     ethr =  6.11E-08,  avg # of iterations =  5.5

     negative rho (up, down):  1.486E-02 0.000E+00
 
     Adding external electric field

     Computed dipole along edir(3) : 
        Dipole                0.3063 Ry au,          0.7786 Debye
        Dipole field          0.0006 Ry au, 
 
        Potential amp.       -0.0536 Ry
        Total length         46.3494 bohr
 

     total cpu time spent up to now is      901.3 secs

     total energy              =   -2970.22395570 Ry
     estimated scf accuracy    <       0.00012462 Ry

     iteration # 55     ecut=    29.40 Ry     beta= 0.05
     Davidson diagonalization with overlap
     ethr =  3.12E-08,  avg # of iterations =  2.0

     negative rho (up, down):  1.488E-02 0.000E+00
 
     Adding external electric field

     Computed dipole along edir(3) : 
        Dipole                0.3029 Ry au,          0.7700 Debye
        Dipole field          0.0006 Ry au, 
 
        Potential amp.       -0.0530 Ry
        Total length         46.3494 bohr
 

     total cpu time spent up to now is      912.5 secs

     total energy              =   -2970.22394285 Ry
     estimated scf accuracy    <       0.00009107 Ry

     iteration # 56     ecut=    29.40 Ry     beta= 0.05
     Davidson diagonalization with overlap
     ethr =  2.28E-08,  avg # of iterations =  6.8

     negative rho (up, down):  1.508E-02 0.000E+00
 
     Adding external electric field

     Computed dipole along edir(3) : 
        Dipole                0.3091 Ry au,          0.7857 Debye
        Dipole field          0.0006 Ry au, 
 
        Potential amp.       -0.0541 Ry
        Total length         46.3494 bohr
 

     total cpu time spent up to now is      930.4 secs

     total energy              =   -2970.22395048 Ry
     estimated scf accuracy    <       0.00008990 Ry

     iteration # 57     ecut=    29.40 Ry     beta= 0.05
     Davidson diagonalization with overlap
     ethr =  2.25E-08,  avg # of iterations =  7.0

     negative rho (up, down):  1.509E-02 0.000E+00
 
     Adding external electric field

     Computed dipole along edir(3) : 
        Dipole                0.3082 Ry au,          0.7833 Debye
        Dipole field          0.0006 Ry au, 
 
        Potential amp.       -0.0539 Ry
        Total length         46.3494 bohr
 

     total cpu time spent up to now is      947.0 secs

     total energy              =   -2970.22397472 Ry
     estimated scf accuracy    <       0.00006136 Ry

     iteration # 58     ecut=    29.40 Ry     beta= 0.05
     Davidson diagonalization with overlap
     ethr =  1.53E-08,  avg # of iterations =  4.6

     negative rho (up, down):  1.512E-02 0.000E+00
 
     Adding external electric field

     Computed dipole along edir(3) : 
        Dipole                0.3078 Ry au,          0.7824 Debye
        Dipole field          0.0006 Ry au, 
 
        Potential amp.       -0.0538 Ry
        Total length         46.3494 bohr
 

     total cpu time spent up to now is      959.1 secs

     total energy              =   -2970.22397578 Ry
     estimated scf accuracy    <       0.00002912 Ry

     iteration # 59     ecut=    29.40 Ry     beta= 0.05
     Davidson diagonalization with overlap
     ethr =  7.28E-09,  avg # of iterations =  7.5

     negative rho (up, down):  1.514E-02 0.000E+00
 
     Adding external electric field

     Computed dipole along edir(3) : 
        Dipole                0.3077 Ry au,          0.7820 Debye
        Dipole field          0.0006 Ry au, 
 
        Potential amp.       -0.0538 Ry
        Total length         46.3494 bohr
 

     total cpu time spent up to now is      979.4 secs

     total energy              =   -2970.22398835 Ry
     estimated scf accuracy    <       0.00003010 Ry

     iteration # 60     ecut=    29.40 Ry     beta= 0.05
     Davidson diagonalization with overlap
     ethr =  7.28E-09,  avg # of iterations =  3.2

     negative rho (up, down):  1.514E-02 0.000E+00
 
     Adding external electric field

     Computed dipole along edir(3) : 
        Dipole                0.3076 Ry au,          0.7818 Debye
        Dipole field          0.0006 Ry au, 
 
        Potential amp.       -0.0538 Ry
        Total length         46.3494 bohr
 

     total cpu time spent up to now is      991.1 secs

     total energy              =   -2970.22399347 Ry
     estimated scf accuracy    <       0.00001342 Ry

     iteration # 61     ecut=    29.40 Ry     beta= 0.05
     Davidson diagonalization with overlap
     ethr =  3.35E-09,  avg # of iterations =  4.7

     negative rho (up, down):  1.516E-02 0.000E+00
 
     Adding external electric field

     Computed dipole along edir(3) : 
        Dipole                0.3087 Ry au,          0.7846 Debye
        Dipole field          0.0006 Ry au, 
 
        Potential amp.       -0.0540 Ry
        Total length         46.3494 bohr
 

     total cpu time spent up to now is     1004.5 secs

     total energy              =   -2970.22399880 Ry
     estimated scf accuracy    <       0.00000629 Ry

     iteration # 62     ecut=    29.40 Ry     beta= 0.05
     Davidson diagonalization with overlap
     ethr =  1.57E-09,  avg # of iterations =  5.6

     negative rho (up, down):  1.519E-02 0.000E+00
 
     Adding external electric field

     Computed dipole along edir(3) : 
        Dipole                0.3096 Ry au,          0.7869 Debye
        Dipole field          0.0006 Ry au, 
 
        Potential amp.       -0.0542 Ry
        Total length         46.3494 bohr
 

     total cpu time spent up to now is     1018.4 secs

     total energy              =   -2970.22400285 Ry
     estimated scf accuracy    <       0.00000378 Ry

     iteration # 63     ecut=    29.40 Ry     beta= 0.05
     Davidson diagonalization with overlap
     ethr =  9.44E-10,  avg # of iterations =  5.0

     negative rho (up, down):  1.520E-02 0.000E+00
 
     Adding external electric field

     Computed dipole along edir(3) : 
        Dipole                0.3105 Ry au,          0.7891 Debye
        Dipole field          0.0006 Ry au, 
 
        Potential amp.       -0.0543 Ry
        Total length         46.3494 bohr
 

     total cpu time spent up to now is     1032.1 secs

     total energy              =   -2970.22400677 Ry
     estimated scf accuracy    <       0.00000179 Ry

     iteration # 64     ecut=    29.40 Ry     beta= 0.05
     Davidson diagonalization with overlap
     ethr =  4.47E-10,  avg # of iterations =  5.0

     negative rho (up, down):  1.518E-02 0.000E+00
 
     Adding external electric field

     Computed dipole along edir(3) : 
        Dipole                0.3098 Ry au,          0.7874 Debye
        Dipole field          0.0006 Ry au, 
 
        Potential amp.       -0.0542 Ry
        Total length         46.3494 bohr
 

     total cpu time spent up to now is     1046.9 secs

     total energy              =   -2970.22401025 Ry
     estimated scf accuracy    <       0.00000139 Ry

     iteration # 65     ecut=    29.40 Ry     beta= 0.05
     Davidson diagonalization with overlap
     ethr =  3.48E-10,  avg # of iterations =  5.0

     negative rho (up, down):  1.516E-02 0.000E+00
 
     Adding external electric field

     Computed dipole along edir(3) : 
        Dipole                0.3092 Ry au,          0.7859 Debye
        Dipole field          0.0006 Ry au, 
 
        Potential amp.       -0.0541 Ry
        Total length         46.3494 bohr
 

     total cpu time spent up to now is     1060.7 secs

     total energy              =   -2970.22401336 Ry
     estimated scf accuracy    <       0.00000082 Ry

     iteration # 66     ecut=    29.40 Ry     beta= 0.05
     Davidson diagonalization with overlap
     ethr =  2.05E-10,  avg # of iterations =  5.0

     negative rho (up, down):  1.516E-02 0.000E+00
 
     Adding external electric field

     Computed dipole along edir(3) : 
        Dipole                0.3096 Ry au,          0.7869 Debye
        Dipole field          0.0006 Ry au, 
 
        Potential amp.       -0.0542 Ry
        Total length         46.3494 bohr
 

     total cpu time spent up to now is     1075.0 secs

     total energy              =   -2970.22401615 Ry
     estimated scf accuracy    <       0.00000038 Ry

     iteration # 67     ecut=    29.40 Ry     beta= 0.05
     Davidson diagonalization with overlap
     ethr =  9.52E-11,  avg # of iterations =  5.9

     negative rho (up, down):  1.516E-02 0.000E+00
 
     Adding external electric field

     Computed dipole along edir(3) : 
        Dipole                0.3095 Ry au,          0.7868 Debye
        Dipole field          0.0006 Ry au, 
 
        Potential amp.       -0.0541 Ry
        Total length         46.3494 bohr
 

     total cpu time spent up to now is     1089.2 secs

     total energy              =   -2970.22401868 Ry
     estimated scf accuracy    <       0.00000017 Ry

     iteration # 68     ecut=    29.40 Ry     beta= 0.05
     Davidson diagonalization with overlap
     ethr =  4.36E-11,  avg # of iterations =  4.5

     negative rho (up, down):  1.516E-02 0.000E+00
 
     Adding external electric field

     Computed dipole along edir(3) : 
        Dipole                0.3095 Ry au,          0.7866 Debye
        Dipole field          0.0006 Ry au, 
 
        Potential amp.       -0.0541 Ry
        Total length         46.3494 bohr
 

     total cpu time spent up to now is     1101.7 secs

     total energy              =   -2970.22402090 Ry
     estimated scf accuracy    <       0.00000019 Ry

     iteration # 69     ecut=    29.40 Ry     beta= 0.05
     Davidson diagonalization with overlap
     ethr =  4.36E-11,  avg # of iterations =  4.9

     negative rho (up, down):  1.516E-02 0.000E+00
 
     Adding external electric field

     Computed dipole along edir(3) : 
        Dipole                0.3094 Ry au,          0.7863 Debye
        Dipole field          0.0006 Ry au, 
 
        Potential amp.       -0.0541 Ry
        Total length         46.3494 bohr
 

     total cpu time spent up to now is     1114.7 secs

     total energy              =   -2970.22402292 Ry
     estimated scf accuracy    <       0.00000009 Ry

     iteration # 70     ecut=    29.40 Ry     beta= 0.05
     Davidson diagonalization with overlap
     ethr =  2.17E-11,  avg # of iterations =  5.7

     negative rho (up, down):  1.516E-02 0.000E+00
 
     Adding external electric field

     Computed dipole along edir(3) : 
        Dipole                0.3093 Ry au,          0.7863 Debye
        Dipole field          0.0006 Ry au, 
 
        Potential amp.       -0.0541 Ry
        Total length         46.3494 bohr
 

     total cpu time spent up to now is     1133.1 secs

     total energy              =   -2970.22402474 Ry
     estimated scf accuracy    <       0.00000012 Ry

     iteration # 71     ecut=    29.40 Ry     beta= 0.05
     Davidson diagonalization with overlap
     ethr =  2.17E-11,  avg # of iterations =  1.0

     negative rho (up, down):  1.516E-02 0.000E+00
 
     Adding external electric field

     Computed dipole along edir(3) : 
        Dipole                0.3093 Ry au,          0.7863 Debye
        Dipole field          0.0006 Ry au, 
 
        Potential amp.       -0.0541 Ry
        Total length         46.3494 bohr
 

     total cpu time spent up to now is     1143.3 secs

     total energy              =   -2970.22402637 Ry
     estimated scf accuracy    <       0.00000010 Ry

     iteration # 72     ecut=    29.40 Ry     beta= 0.05
     Davidson diagonalization with overlap
     ethr =  2.17E-11,  avg # of iterations =  1.0

     negative rho (up, down):  1.517E-02 0.000E+00
 
     Adding external electric field

     Computed dipole along edir(3) : 
        Dipole                0.3094 Ry au,          0.7863 Debye
        Dipole field          0.0006 Ry au, 
 
        Potential amp.       -0.0541 Ry
        Total length         46.3494 bohr
 

     total cpu time spent up to now is     1153.6 secs

     total energy              =   -2970.22402783 Ry
     estimated scf accuracy    <       0.00000012 Ry

     iteration # 73     ecut=    29.40 Ry     beta= 0.05
     Davidson diagonalization with overlap
     ethr =  2.17E-11,  avg # of iterations =  1.0

     negative rho (up, down):  1.517E-02 0.000E+00
 
     Adding external electric field

     Computed dipole along edir(3) : 
        Dipole                0.3094 Ry au,          0.7865 Debye
        Dipole field          0.0006 Ry au, 
 
        Potential amp.       -0.0541 Ry
        Total length         46.3494 bohr
 

     total cpu time spent up to now is     1163.7 secs

     total energy              =   -2970.22402914 Ry
     estimated scf accuracy    <       0.00000011 Ry

     iteration # 74     ecut=    29.40 Ry     beta= 0.05
     Davidson diagonalization with overlap
     ethr =  2.17E-11,  avg # of iterations =  4.1

     negative rho (up, down):  1.522E-02 0.000E+00
 
     Adding external electric field

     Computed dipole along edir(3) : 
        Dipole                0.3087 Ry au,          0.7845 Debye
        Dipole field          0.0006 Ry au, 
 
        Potential amp.       -0.0540 Ry
        Total length         46.3494 bohr
 

     total cpu time spent up to now is     1175.9 secs

     End of self-consistent calculation

          k = 0.0000 0.0000 0.0000 ( 18029 PWs)   bands (ev):

   -56.8416 -56.8080 -56.0012 -55.9661 -55.7416 -55.6772 -55.4109 -55.3865
   -55.3771 -55.3712 -55.3066 -55.2546 -55.2524 -55.2427 -55.0616 -55.0542
   -33.2631 -33.1170 -33.0889 -33.0173 -32.9268 -32.8898 -32.4856 -32.2219
   -32.2196 -32.1912 -32.1422 -32.1402 -32.1115 -31.9732 -31.9612 -31.9088
   -31.8822 -31.8674 -31.8415 -31.7922 -31.7570 -31.7408 -31.7352 -31.7326
   -31.7190 -31.6543 -31.6499 -31.6207 -31.6160 -31.6060 -31.5973 -31.5354
   -31.5233 -31.5054 -31.5033 -31.4785 -31.4746 -31.4573 -31.4455 -31.4237
   -31.4172 -31.3971 -31.3221 -31.3051 -31.3048 -31.2727 -31.2707 -31.2588
   -19.0069 -16.9628 -16.4389 -16.1856 -16.1693 -16.0767 -16.0469 -16.0356
   -15.9551 -15.7604 -15.6987 -15.6268 -15.6057 -15.5109 -15.3861 -15.2896
   -15.1603 -15.0852 -15.0216 -15.0122 -15.0020 -14.9820 -14.8681 -14.8643
   -14.8596 -14.8167 -14.7708 -14.6124 -14.5251 -14.3644 -14.3304 -13.9085
   -13.8011 -13.6386  -6.2776  -5.0456  -4.5322  -3.9497  -3.9115  -3.8444
    -3.7381  -3.5782  -3.5676  -3.4389  -3.3719  -3.2486  -3.2378  -3.2217
    -3.1545  -3.1360  -2.9892  -2.9407  -2.9251  -2.8205  -2.7897  -2.6362
    -2.6101  -2.5153  -2.4661  -2.4320  -2.3761  -2.3497  -2.2748  -2.2678
    -2.2489  -2.1616  -2.1610  -2.1286  -2.0493  -2.0373  -1.9685  -1.9208
    -1.8818  -1.8231  -1.7980  -1.7241  -1.7206  -1.5993  -1.5174  -1.4761
    -1.4325  -1.4234  -1.3633  -1.3082  -1.1983  -1.1721  -1.0822  -1.0370
    -1.0243  -0.9741  -0.8853  -0.8574  -0.7885  -0.7158  -0.6976  -0.6121
    -0.5832  -0.5595  -0.4533  -0.4344  -0.3796  -0.3537  -0.3228  -0.3110
    -0.2332  -0.1165  -0.1020  -0.0375   0.0121   0.0405   0.1327   0.2250
     0.2720   0.3224   0.3516   0.3701   0.4462   0.4737   0.4960   0.5478
     0.5772   0.6106   0.6156   0.7198   0.7508   0.8141   0.8725   0.8925
     1.0013   1.0388   1.0975   1.1476   1.1886   1.5311   1.6318   1.8784
     2.4461   2.6125   2.8886   3.0210   3.3457   3.4326   3.4409   3.4469
     3.6841   3.8211

          k = 0.0000 0.0419 0.0000 ( 17933 PWs)   bands (ev):

   -56.8366 -56.8129 -55.9966 -55.9706 -55.7392 -55.6795 -55.4059 -55.3846
   -55.3819 -55.3704 -55.3085 -55.2539 -55.2517 -55.2432 -55.0622 -55.0548
   -33.2098 -33.1128 -33.0927 -33.0041 -32.9457 -32.9400 -32.4334 -32.2102
   -32.1834 -32.1767 -32.1668 -32.1472 -32.1431 -31.9702 -31.9543 -31.9062
   -31.8964 -31.8899 -31.8142 -31.7533 -31.7431 -31.7359 -31.7022 -31.7004
   -31.6803 -31.6489 -31.6380 -31.6136 -31.6050 -31.6043 -31.5946 -31.5472
   -31.5384 -31.5374 -31.5024 -31.5009 -31.4802 -31.4797 -31.4558 -31.4433
   -31.4369 -31.4177 -31.3539 -31.3353 -31.3212 -31.2863 -31.2701 -31.2583
   -19.0056 -16.8422 -16.3331 -16.2229 -16.1764 -16.1095 -16.0083 -15.9999
   -15.8479 -15.8204 -15.6600 -15.6412 -15.5050 -15.4621 -15.4005 -15.3312
   -15.1818 -15.0960 -15.0664 -15.0559 -14.9994 -14.9616 -14.9351 -14.8868
   -14.8137 -14.8059 -14.7763 -14.6719 -14.5752 -14.4463 -14.3874 -13.9170
   -13.8428 -13.6413  -6.2774  -5.0321  -4.3503  -3.9347  -3.8305  -3.7360
    -3.5978  -3.5773  -3.5137  -3.3322  -3.2909  -3.2805  -3.2786  -3.1292
    -3.0684  -3.0370  -2.9449  -2.9302  -2.8804  -2.8094  -2.7951  -2.7500
    -2.6505  -2.5644  -2.5614  -2.5328  -2.4350  -2.4063  -2.3778  -2.3327
    -2.2884  -2.2641  -2.2148  -2.0936  -2.0856  -2.0241  -1.9423  -1.9049
    -1.8928  -1.7339  -1.7241  -1.6957  -1.6080  -1.5424  -1.5198  -1.4931
    -1.3940  -1.3771  -1.2963  -1.2353  -1.1912  -1.1298  -1.0734  -1.0102
    -0.9768  -0.9303  -0.9215  -0.7923  -0.7739  -0.7224  -0.6268  -0.5600
    -0.5083  -0.4998  -0.4533  -0.4246  -0.4137  -0.3789  -0.2852  -0.2742
    -0.2446  -0.2236  -0.1613  -0.1140  -0.0323   0.0043   0.0400   0.0694
     0.1766   0.1882   0.2118   0.2780   0.2904   0.3022   0.4026   0.4381
     0.4639   0.5220   0.5879   0.6237   0.6825   0.8416   0.8566   0.9096
     0.9342   0.9929   1.0139   1.0971   1.1119   1.4315   1.5505   1.8757
     2.7099   2.7209   2.9015   3.2208   3.2749   3.3137   3.3973   3.5604
     3.7172   3.8009

          k = 0.0000-0.0839 0.0000 ( 17884 PWs)   bands (ev):

   -56.8253 -56.8241 -55.9888 -55.9782 -55.7367 -55.6819 -55.3945 -55.3933
   -55.3826 -55.3697 -55.3104 -55.2531 -55.2511 -55.2438 -55.0629 -55.0555
   -33.1032 -33.1021 -33.0797 -33.0784 -32.9724 -32.9716 -32.3098 -32.3012
   -32.1839 -32.1718 -32.1683 -32.1610 -32.0576 -32.0098 -31.9665 -31.9451
   -31.9045 -31.8998 -31.7448 -31.7440 -31.7095 -31.6596 -31.6534 -31.6497
   -31.6460 -31.6219 -31.6215 -31.6154 -31.6135 -31.6130 -31.5876 -31.5765
   -31.5756 -31.5725 -31.5562 -31.5132 -31.5061 -31.4937 -31.4837 -31.4580
   -31.4414 -31.4183 -31.4116 -31.3804 -31.3267 -31.2938 -31.2696 -31.2577
   -19.0044 -16.5437 -16.5419 -16.1702 -16.1191 -16.1087 -15.9650 -15.9650
   -15.8346 -15.8052 -15.6286 -15.5815 -15.5237 -15.4861 -15.2649 -15.2423
   -15.2228 -15.2092 -15.1875 -15.1623 -15.0314 -15.0046 -14.8622 -14.8234
   -14.8093 -14.7695 -14.7217 -14.6978 -14.6915 -14.5709 -14.4706 -13.9060
   -13.9052 -13.6440  -6.2771  -5.0184  -3.9260  -3.8963  -3.8962  -3.8165
    -3.5827  -3.3916  -3.3891  -3.3710  -3.3515  -3.2910  -3.2588  -3.0281
    -3.0041  -2.9449  -2.8792  -2.8619  -2.8331  -2.7971  -2.7518  -2.7308
    -2.6832  -2.6264  -2.5539  -2.5362  -2.5317  -2.4406  -2.3856  -2.3537
    -2.3045  -2.2305  -2.2126  -2.1358  -2.1192  -2.0777  -2.0580  -2.0190
    -2.0145  -1.7745  -1.6697  -1.5939  -1.5645  -1.4837  -1.4295  -1.3961
    -1.3169  -1.2450  -1.1678  -1.1334  -1.1087  -1.1037  -1.0844  -0.9669
    -0.9399  -0.9214  -0.8912  -0.8563  -0.8416  -0.7115  -0.6967  -0.6543
    -0.6396  -0.6181  -0.5804  -0.5116  -0.4438  -0.3969  -0.3394  -0.3177
    -0.2703  -0.2172  -0.1483  -0.1380  -0.0866   0.0048   0.0249   0.0498
     0.0894   0.1234   0.1621   0.1951   0.2105   0.2566   0.2868   0.3201
     0.3671   0.4131   0.4569   0.5631   0.5998   0.7681   0.8240   0.9384
     0.9927   1.0026   1.0269   1.0564   1.1314   1.2662   1.4988   1.8760
     2.9647   2.9666   3.0866   3.0877   3.1570   3.1577   3.4934   3.5005
     3.7203   3.7953

          k = 0.0380 0.0000 0.0000 ( 17913 PWs)   bands (ev):

   -56.8415 -56.8079 -56.0011 -55.9660 -55.7415 -55.6771 -55.4108 -55.3864
   -55.3769 -55.3711 -55.3065 -55.2546 -55.2522 -55.2427 -55.0615 -55.0541
   -33.2637 -33.1168 -33.0888 -33.0154 -32.9265 -32.8895 -32.4857 -32.2336
   -32.2217 -32.1805 -32.1418 -32.1250 -32.1112 -31.9732 -31.9715 -31.9086
   -31.8825 -31.8696 -31.8412 -31.7919 -31.7593 -31.7412 -31.7359 -31.7308
   -31.7218 -31.6498 -31.6410 -31.6200 -31.6157 -31.6045 -31.5972 -31.5353
   -31.5214 -31.5053 -31.5032 -31.4785 -31.4679 -31.4572 -31.4502 -31.4245
   -31.4235 -31.3962 -31.3219 -31.3051 -31.3047 -31.2726 -31.2723 -31.2598
   -19.0068 -16.8617 -16.3689 -16.3266 -16.1788 -16.1355 -16.0335 -15.9176
   -15.8844 -15.8406 -15.6410 -15.6234 -15.5511 -15.5506 -15.5169 -15.1728
   -15.1626 -15.1528 -15.1091 -15.0877 -14.9970 -14.9845 -14.9825 -14.8922
   -14.7740 -14.7158 -14.6929 -14.6592 -14.5875 -14.3611 -14.3281 -13.9059
   -13.8008 -13.6376  -6.2761  -5.0342  -4.2480  -3.9483  -3.8329  -3.8139
    -3.6913  -3.6053  -3.5697  -3.5292  -3.3153  -3.2498  -3.2195  -3.1383
    -3.0574  -2.9931  -2.9507  -2.9005  -2.8388  -2.7858  -2.7588  -2.7312
    -2.6340  -2.5897  -2.5408  -2.4184  -2.3823  -2.3615  -2.2506  -2.2167
    -2.1655  -2.1389  -2.1055  -2.0622  -2.0358  -1.9550  -1.9362  -1.8804
    -1.8763  -1.7642  -1.7463  -1.7275  -1.6896  -1.6653  -1.5802  -1.5203
    -1.4968  -1.3978  -1.2702  -1.2609  -1.1647  -1.1450  -1.1085  -1.0932
    -1.0021  -0.9676  -0.8942  -0.8629  -0.8245  -0.8108  -0.7910  -0.7773
    -0.6569  -0.6345  -0.5694  -0.5405  -0.4988  -0.3563  -0.3128  -0.2541
    -0.1880  -0.1420  -0.1229  -0.0638  -0.0124   0.0928   0.1445   0.1579
     0.2017   0.2316   0.2753   0.3120   0.3663   0.3974   0.4087   0.4815
     0.5481   0.5770   0.6222   0.7199   0.7638   0.7777   0.7986   0.8539
     0.9056   0.9629   0.9835   1.0459   1.0999   1.4017   1.6475   1.8193
     2.5857   2.6087   2.8878   3.0877   3.1006   3.4476   3.5255   3.5712
     3.5946   3.9163

          k = 0.0380 0.0419 0.0000 ( 17878 PWs)   bands (ev):

   -56.8365 -56.8128 -55.9965 -55.9706 -55.7392 -55.6794 -55.4058 -55.3845
   -55.3819 -55.3703 -55.3084 -55.2538 -55.2515 -55.2433 -55.0622 -55.0548
   -33.2103 -33.1126 -33.0928 -33.0025 -32.9456 -32.9397 -32.4335 -32.2100
   -32.1918 -32.1772 -32.1743 -32.1432 -32.1201 -31.9701 -31.9630 -31.9061
   -31.8955 -31.8918 -31.8165 -31.7551 -31.7428 -31.7350 -31.7029 -31.7016
   -31.6823 -31.6455 -31.6302 -31.6135 -31.6044 -31.6029 -31.5945 -31.5472
   -31.5401 -31.5336 -31.5024 -31.5009 -31.4801 -31.4740 -31.4557 -31.4481
   -31.4358 -31.4240 -31.3536 -31.3351 -31.3211 -31.2863 -31.2722 -31.2597
   -19.0055 -16.7468 -16.3074 -16.2764 -16.1725 -16.0960 -16.0754 -15.9325
   -15.8880 -15.7709 -15.6568 -15.6000 -15.5216 -15.4895 -15.4187 -15.2410
   -15.1910 -15.1622 -15.1326 -15.0681 -15.0276 -15.0051 -14.9436 -14.8586
   -14.8207 -14.7687 -14.7541 -14.7024 -14.6341 -14.4410 -14.3861 -13.9151
   -13.8431 -13.6406  -6.2764  -5.0252  -4.0703  -3.9415  -3.8121  -3.6631
    -3.5967  -3.5240  -3.4323  -3.4167  -3.2298  -3.1865  -3.1491  -3.0768
    -2.9971  -2.9805  -2.9099  -2.8921  -2.7929  -2.7800  -2.7352  -2.6920
    -2.6311  -2.5972  -2.5407  -2.4868  -2.4705  -2.4214  -2.3404  -2.3033
    -2.2795  -2.1958  -2.1513  -2.0937  -2.0722  -2.0066  -1.9433  -1.9002
    -1.8439  -1.7272  -1.7049  -1.6910  -1.6575  -1.5842  -1.5397  -1.5005
    -1.4285  -1.3849  -1.3440  -1.3116  -1.2794  -1.2018  -1.0984  -1.0375
    -0.9937  -0.9525  -0.9220  -0.8806  -0.7891  -0.7639  -0.7220  -0.6956
    -0.6376  -0.6001  -0.5832  -0.5194  -0.4973  -0.4430  -0.3831  -0.3455
    -0.2781  -0.2408  -0.2109  -0.1435  -0.0886  -0.0490  -0.0145   0.0412
     0.0869   0.1561   0.2100   0.2307   0.2641   0.3081   0.3408   0.3924
     0.4898   0.5247   0.5991   0.6633   0.7276   0.8047   0.8682   0.8935
     0.9186   0.9601   1.0215   1.0257   1.0769   1.3449   1.5696   1.8253
     2.7019   2.8486   2.9542   3.1347   3.2571   3.3778   3.4337   3.6202
     3.7329   3.8651

          k = 0.0380-0.0839 0.0000 ( 17916 PWs)   bands (ev):

   -56.8253 -56.8241 -55.9889 -55.9783 -55.7367 -55.6820 -55.3945 -55.3933
   -55.3826 -55.3697 -55.3104 -55.2532 -55.2509 -55.2440 -55.0629 -55.0555
   -33.1033 -33.1021 -33.0802 -33.0790 -32.9717 -32.9710 -32.3100 -32.3015
   -32.1839 -32.1718 -32.1683 -32.1618 -32.0510 -32.0056 -31.9666 -31.9507
   -31.9047 -31.9044 -31.7455 -31.7446 -31.7118 -31.6607 -31.6571 -31.6494
   -31.6447 -31.6274 -31.6154 -31.6139 -31.6114 -31.6089 -31.5876 -31.5765
   -31.5757 -31.5741 -31.5512 -31.5173 -31.5061 -31.4945 -31.4711 -31.4579
   -31.4469 -31.4262 -31.4108 -31.3793 -31.3267 -31.2939 -31.2721 -31.2596
   -19.0044 -16.4753 -16.4733 -16.1680 -16.1355 -16.1303 -16.0222 -16.0171
   -15.8039 -15.7750 -15.5947 -15.5575 -15.5036 -15.4425 -15.3019 -15.2718
   -15.2272 -15.2159 -15.1675 -15.1491 -15.0165 -15.0020 -14.9297 -14.8593
   -14.8281 -14.7911 -14.7740 -14.7302 -14.7047 -14.5523 -14.4669 -13.9058
   -13.9050 -13.6436  -6.2767  -5.0159  -3.9405  -3.7919  -3.6855  -3.6841
    -3.5928  -3.3721  -3.3537  -3.2914  -3.2868  -3.1057  -3.0642  -3.0044
    -2.9845  -2.9166  -2.8543  -2.8235  -2.7715  -2.7239  -2.6642  -2.6319
    -2.5633  -2.5463  -2.5090  -2.4690  -2.4216  -2.3865  -2.3401  -2.3246
    -2.3108  -2.2695  -2.2414  -2.1655  -2.1138  -2.0908  -2.0244  -1.9933
    -1.9238  -1.8259  -1.7180  -1.6794  -1.6348  -1.5370  -1.5037  -1.4173
    -1.3557  -1.3456  -1.3068  -1.2803  -1.2572  -1.2312  -1.1673  -1.1518
    -1.1287  -1.0410  -1.0331  -1.0031  -0.8976  -0.7799  -0.7505  -0.7262
    -0.7144  -0.7089  -0.5868  -0.5466  -0.5064  -0.4388  -0.4082  -0.3754
    -0.2822  -0.2671  -0.2407  -0.1965  -0.1710  -0.1004  -0.0869  -0.0705
     0.0217   0.0625   0.1138   0.2092   0.2522   0.2932   0.3446   0.3703
     0.4334   0.4650   0.5980   0.6589   0.7247   0.7550   0.8714   0.8767
     0.9913   0.9963   1.0215   1.0390   1.1300   1.1913   1.5304   1.8321
     2.9725   2.9747   3.1215   3.1234   3.3244   3.3253   3.4663   3.4724
     3.7565   3.7995

          k = 0.0380-0.0419 0.0000 ( 17876 PWs)   bands (ev):

   -56.8365 -56.8128 -55.9965 -55.9706 -55.7392 -55.6794 -55.4058 -55.3845
   -55.3819 -55.3703 -55.3084 -55.2538 -55.2515 -55.2433 -55.0622 -55.0548
   -33.2103 -33.1126 -33.0928 -33.0025 -32.9456 -32.9397 -32.4335 -32.2100
   -32.1918 -32.1772 -32.1742 -32.1432 -32.1200 -31.9701 -31.9631 -31.9061
   -31.8956 -31.8917 -31.8165 -31.7551 -31.7428 -31.7350 -31.7030 -31.7017
   -31.6826 -31.6448 -31.6303 -31.6131 -31.6045 -31.6036 -31.5945 -31.5472
   -31.5397 -31.5339 -31.5024 -31.5009 -31.4801 -31.4715 -31.4558 -31.4481
   -31.4406 -31.4215 -31.3536 -31.3351 -31.3211 -31.2862 -31.2722 -31.2596
   -19.0055 -16.7466 -16.3081 -16.2763 -16.1725 -16.0955 -16.0754 -15.9321
   -15.8882 -15.7707 -15.6569 -15.5999 -15.5219 -15.4901 -15.4173 -15.2403
   -15.1913 -15.1630 -15.1355 -15.0684 -15.0235 -15.0047 -14.9489 -14.8569
   -14.8204 -14.7677 -14.7540 -14.7019 -14.6330 -14.4422 -14.3859 -13.9151
   -13.8431 -13.6405  -6.2764  -5.0252  -4.0697  -3.9411  -3.8110  -3.6633
    -3.5979  -3.5250  -3.4323  -3.4159  -3.2298  -3.1867  -3.1485  -3.0768
    -2.9965  -2.9812  -2.9101  -2.8921  -2.7910  -2.7801  -2.7340  -2.6926
    -2.6308  -2.6000  -2.5386  -2.4859  -2.4718  -2.4238  -2.3427  -2.3070
    -2.2747  -2.1954  -2.1533  -2.1114  -2.0729  -2.0045  -1.9437  -1.9020
    -1.8443  -1.7283  -1.7063  -1.6885  -1.6632  -1.5852  -1.5368  -1.4995
    -1.4070  -1.3713  -1.3471  -1.3107  -1.2802  -1.1926  -1.0970  -1.0395
    -0.9901  -0.9530  -0.9181  -0.8685  -0.7937  -0.7600  -0.7232  -0.7044
    -0.6504  -0.6021  -0.5854  -0.5341  -0.4874  -0.4427  -0.3905  -0.3511
    -0.2825  -0.2433  -0.1859  -0.1236  -0.0907  -0.0666   0.0006   0.0377
     0.0749   0.1686   0.2125   0.2242   0.2608   0.2922   0.3508   0.3992
     0.4756   0.5187   0.5918   0.6643   0.7332   0.8028   0.8647   0.8964
     0.9068   0.9725   1.0206   1.0256   1.0772   1.3457   1.5746   1.8285
     2.7023   2.8489   2.9542   3.1338   3.2570   3.3785   3.4333   3.6195
     3.7324   3.8647

          k =-0.0760-0.0000 0.0000 ( 17886 PWs)   bands (ev):

   -56.8414 -56.8079 -56.0010 -55.9660 -55.7415 -55.6771 -55.4108 -55.3863
   -55.3769 -55.3710 -55.3065 -55.2545 -55.2521 -55.2428 -55.0615 -55.0541
   -33.2643 -33.1167 -33.0887 -33.0135 -32.9268 -32.8895 -32.4858 -32.2445
   -32.2216 -32.1687 -32.1417 -32.1134 -32.1111 -31.9834 -31.9729 -31.9085
   -31.8832 -31.8718 -31.8412 -31.7917 -31.7615 -31.7418 -31.7366 -31.7298
   -31.7246 -31.6459 -31.6319 -31.6191 -31.6156 -31.6028 -31.5971 -31.5352
   -31.5199 -31.5053 -31.5032 -31.4790 -31.4583 -31.4567 -31.4549 -31.4373
   -31.4236 -31.3958 -31.3218 -31.3051 -31.3048 -31.2741 -31.2726 -31.2609
   -19.0066 -16.7125 -16.4095 -16.2792 -16.2769 -16.1724 -16.0313 -15.9578
   -15.7973 -15.7283 -15.6601 -15.6323 -15.6242 -15.5860 -15.3448 -15.2969
   -15.2380 -15.2319 -15.1041 -15.0582 -15.0289 -15.0103 -14.9691 -14.9381
   -14.7720 -14.6994 -14.6612 -14.6340 -14.6142 -14.3594 -14.3272 -13.9035
   -13.8004 -13.6367  -6.2747  -5.0237  -3.9471  -3.8558  -3.8518  -3.8190
    -3.8023  -3.6295  -3.4806  -3.3890  -3.3323  -3.2306  -3.1775  -3.0703
    -2.9618  -2.9098  -2.8888  -2.8379  -2.7357  -2.7210  -2.6302  -2.6022
    -2.5731  -2.5542  -2.5234  -2.4921  -2.4743  -2.4146  -2.3777  -2.1819
    -2.1462  -2.1344  -2.0870  -2.0681  -2.0334  -1.9415  -1.8779  -1.8671
    -1.8610  -1.8329  -1.8134  -1.7826  -1.7557  -1.5706  -1.5503  -1.5243
    -1.4471  -1.4369  -1.3651  -1.2032  -1.1877  -1.1603  -1.1424  -1.0503
    -1.0191  -0.9480  -0.9206  -0.9013  -0.8856  -0.8747  -0.8297  -0.7564
    -0.6941  -0.6692  -0.6534  -0.5963  -0.5915  -0.5412  -0.3949  -0.2860
    -0.2346  -0.1797  -0.1545  -0.0902  -0.0667  -0.0189   0.0876   0.1238
     0.1669   0.2082   0.2703   0.3062   0.3702   0.3759   0.4030   0.4240
     0.5838   0.5883   0.6403   0.6464   0.7490   0.7657   0.7796   0.8255
     0.8323   0.8551   0.9343   1.0298   1.0972   1.1575   1.6641   1.7803
     2.5621   2.6884   2.8340   2.8872   3.1954   3.3702   3.4596   3.6323
     3.7675   3.8303

          k =-0.0760 0.0419 0.0000 ( 17914 PWs)   bands (ev):

   -56.8365 -56.8129 -55.9965 -55.9706 -55.7392 -55.6795 -55.4059 -55.3845
   -55.3819 -55.3703 -55.3084 -55.2539 -55.2514 -55.2435 -55.0622 -55.0548
   -33.2111 -33.1126 -33.0928 -33.0012 -32.9459 -32.9397 -32.4338 -32.2100
   -32.2050 -32.1767 -32.1663 -32.1432 -32.1049 -31.9727 -31.9701 -31.9060
   -31.8947 -31.8942 -31.8189 -31.7571 -31.7426 -31.7344 -31.7037 -31.7032
   -31.6847 -31.6419 -31.6231 -31.6120 -31.6044 -31.6016 -31.5945 -31.5473
   -31.5417 -31.5306 -31.5025 -31.5009 -31.4802 -31.4638 -31.4559 -31.4536
   -31.4424 -31.4280 -31.3536 -31.3351 -31.3212 -31.2863 -31.2744 -31.2613
   -19.0055 -16.5992 -16.3631 -16.2459 -16.1982 -16.1689 -16.0911 -15.9057
   -15.8766 -15.6682 -15.6407 -15.5912 -15.5687 -15.5366 -15.3212 -15.2514
   -15.2265 -15.1936 -15.1424 -15.1309 -15.0313 -15.0268 -14.9568 -14.9295
   -14.8161 -14.7463 -14.7171 -14.7103 -14.6781 -14.4388 -14.3861 -13.9134
   -13.8434 -13.6399  -6.2755  -5.0189  -3.9463  -3.7932  -3.6614  -3.6483
    -3.6132  -3.5446  -3.3584  -3.3012  -3.2796  -3.1221  -3.1034  -3.0247
    -2.9993  -2.8938  -2.8085  -2.7775  -2.7078  -2.6549  -2.6513  -2.5917
    -2.5646  -2.4880  -2.4566  -2.4514  -2.4455  -2.4306  -2.3867  -2.3148
    -2.2368  -2.1970  -2.1724  -2.1426  -2.0617  -1.9843  -1.9503  -1.8869
    -1.8135  -1.7868  -1.7572  -1.7502  -1.7452  -1.6879  -1.5591  -1.4787
    -1.4140  -1.3712  -1.3435  -1.3147  -1.2946  -1.1880  -1.1822  -1.1359
    -1.1069  -1.0697  -0.9853  -0.9815  -0.8917  -0.8645  -0.7819  -0.7495
    -0.7023  -0.6638  -0.6533  -0.5995  -0.5795  -0.5352  -0.4922  -0.4523
    -0.4228  -0.3849  -0.2937  -0.2281  -0.1590  -0.1075  -0.0493  -0.0143
     0.0500   0.1579   0.2125   0.2396   0.2855   0.3318   0.3535   0.4503
     0.5249   0.5383   0.5921   0.7383   0.7581   0.7953   0.8756   0.8885
     0.9123   0.9566   1.0085   1.0375   1.1152   1.1426   1.5942   1.7899
     2.7168   2.8823   2.9223   2.9975   3.3555   3.4691   3.5014   3.5126
     3.8308   3.8471

          k =-0.0760-0.0839 0.0000 ( 17948 PWs)   bands (ev):

   -56.8253 -56.8242 -55.9889 -55.9783 -55.7367 -55.6820 -55.3945 -55.3933
   -55.3826 -55.3697 -55.3104 -55.2532 -55.2508 -55.2442 -55.0629 -55.0555
   -33.1033 -33.1022 -33.0808 -33.0796 -32.9710 -32.9702 -32.3103 -32.3018
   -32.1839 -32.1718 -32.1690 -32.1620 -32.0440 -32.0003 -31.9666 -31.9574
   -31.9098 -31.9046 -31.7461 -31.7452 -31.7141 -31.6617 -31.6588 -31.6507
   -31.6426 -31.6299 -31.6154 -31.6138 -31.6090 -31.6014 -31.5876 -31.5767
   -31.5760 -31.5750 -31.5462 -31.5208 -31.5063 -31.4946 -31.4601 -31.4529
   -31.4487 -31.4422 -31.4104 -31.3785 -31.3268 -31.2939 -31.2747 -31.2615
   -19.0043 -16.3290 -16.3263 -16.2709 -16.2693 -16.1659 -16.0298 -16.0241
   -15.7763 -15.7465 -15.5514 -15.5110 -15.4620 -15.4083 -15.3701 -15.3678
   -15.2294 -15.2179 -15.1139 -15.0351 -15.0137 -14.9810 -14.9698 -14.9483
   -14.9426 -14.8711 -14.7863 -14.7240 -14.7100 -14.5424 -14.4639 -13.9057
   -13.9049 -13.6431  -6.2762  -5.0136  -3.9511  -3.7711  -3.6017  -3.3942
    -3.3917  -3.3867  -3.3789  -3.1499  -3.1393  -2.9656  -2.9591  -2.9333
    -2.8724  -2.8607  -2.7543  -2.6860  -2.6805  -2.6713  -2.6463  -2.6202
    -2.6146  -2.5509  -2.4942  -2.3868  -2.3634  -2.3284  -2.3081  -2.2940
    -2.1748  -2.1482  -2.1370  -2.1078  -2.0926  -2.0801  -2.0433  -2.0186
    -1.8652  -1.8269  -1.7182  -1.7038  -1.6834  -1.6400  -1.6229  -1.6016
    -1.5755  -1.5411  -1.5366  -1.4500  -1.4264  -1.3695  -1.2866  -1.2089
    -1.1604  -1.1481  -1.0862  -1.0347  -0.9249  -0.9005  -0.8650  -0.8451
    -0.8166  -0.7584  -0.7281  -0.6229  -0.5373  -0.5067  -0.4853  -0.4802
    -0.4455  -0.4121  -0.3897  -0.2753  -0.2631  -0.2481  -0.1493  -0.0544
     0.0291   0.0897   0.1049   0.1834   0.2792   0.3239   0.3889   0.4523
     0.4947   0.5100   0.6826   0.7315   0.8544   0.8789   0.9107   0.9730
     0.9871   0.9916   1.0137   1.0226   1.0519   1.1308   1.5516   1.7939
     3.0333   3.0361   3.0923   3.0984   3.4021   3.4055   3.5109   3.5135
     3.7956   3.8071

     the Fermi energy is     2.2219 ev

!    total energy              =   -2970.22404137 Ry
     estimated scf accuracy    <       0.00000005 Ry
     smearing contrib. (-TS)   =      -0.00327663 Ry
     internal energy E=F+TS    =   -2970.22076474 Ry

     The total energy is F=E-TS. E is the sum of the following terms:
     one-electron contribution =  -23874.94081638 Ry
     hartree contribution      =   12028.65127712 Ry
     xc contribution           =    -491.46079917 Ry
     ewald contribution        =    9367.52939392 Ry
     electric field correction =       0.00017978 Ry

     convergence has been achieved in  74 iterations

     Forces acting on atoms (cartesian axes, Ry/au):

     atom    1 type  1   force =     0.00006165   -0.00042559    0.12337904
     atom    2 type  1   force =    -0.00004364    0.00024959   -0.15538165
     atom    3 type  2   force =     0.00000908   -0.00007034   -0.06316405
     atom    4 type  2   force =     0.00000898    0.00024120    0.01792790
     atom    5 type  2   force =    -0.00300660   -0.00168044   -0.01288343
     atom    6 type  2   force =     0.00468667   -0.00105947   -0.01335449
     atom    7 type  1   force =    -0.00007400   -0.00671257    0.05747323
     atom    8 type  1   force =     0.00032817    0.01201878    0.09290885
     atom    9 type  2   force =    -0.00005534   -0.00007618   -0.00011469
     atom   10 type  2   force =    -0.00146636    0.00206213   -0.05861653
     atom   11 type  2   force =    -0.00001519    0.00037006   -0.00010499
     atom   12 type  2   force =    -0.00008018    0.00058846   -0.00004020
     atom   13 type  1   force =    -0.00017747    0.00091970   -0.00018116
     atom   14 type  1   force =    -0.00008314    0.00063932   -0.00042721
     atom   15 type  2   force =     0.00001044   -0.00063717   -0.00055520
     atom   16 type  2   force =    -0.00013263    0.00008289   -0.00105914
     atom   17 type  2   force =    -0.00010175   -0.00053679   -0.00034441
     atom   18 type  2   force =    -0.00006861    0.00040893   -0.00042055
     atom   19 type  1   force =     0.00039317   -0.00023199    0.00115373
     atom   20 type  1   force =    -0.00043922    0.00079803    0.00026644
     atom   21 type  2   force =     0.00003381    0.00021449    0.09797689
     atom   22 type  2   force =     0.00043772   -0.00007283    0.00090456
     atom   23 type  2   force =    -0.08220119    0.00004449   -0.03274611
     atom   24 type  2   force =     0.08208445    0.00048340   -0.03282069
     atom   25 type  1   force =     0.00009717   -0.00059782    0.12339268
     atom   26 type  1   force =    -0.00015756   -0.00150542   -0.15594120
     atom   27 type  2   force =     0.00006865   -0.00069307   -0.06138995
     atom   28 type  2   force =     0.00002094    0.00205702    0.01318892
     atom   29 type  2   force =    -0.00128957    0.00546857   -0.01605872
     atom   30 type  2   force =     0.00295744    0.00580010   -0.01650435
     atom   31 type  1   force =    -0.00011485    0.00211443    0.04130859
     atom   32 type  1   force =     0.00052764   -0.01544613    0.09259064
     atom   33 type  2   force =    -0.00021117   -0.00073630   -0.00056435
     atom   34 type  2   force =    -0.00141153    0.00202984   -0.07248259
     atom   35 type  2   force =     0.00020189   -0.00081021    0.00005268
     atom   36 type  2   force =    -0.00024713   -0.00092378    0.00009864
     atom   37 type  1   force =    -0.00023457   -0.00111374   -0.00024115
     atom   38 type  1   force =    -0.00008037   -0.00150298    0.00069934
     atom   39 type  2   force =     0.00036246   -0.00048722    0.00003144
     atom   40 type  2   force =    -0.00003576   -0.00068296   -0.00128787
     atom   41 type  2   force =     0.00031297    0.00025690    0.00012724
     atom   42 type  2   force =     0.00004622    0.00037319    0.00058244
     atom   43 type  1   force =    -0.00013268   -0.00003432    0.00071404
     atom   44 type  1   force =    -0.00024785    0.00006847   -0.00070698
     atom   45 type  2   force =     0.00002654    0.00002410    0.09775631
     atom   46 type  2   force =    -0.08226693   -0.00001428   -0.03277950
     atom   47 type  2   force =     0.08211942    0.00043500   -0.03279357
     atom   48 type  3   force =    -0.00069646   -0.00223484   -0.00388015
     atom   49 type  3   force =     0.00022788    0.00096201    0.00000159
     atom   50 type  4   force =     0.00023049    0.00189147    0.00472962
     atom   51 type  5   force =     0.00000691   -0.00094782   -0.00041962
     atom   52 type  2   force =    -0.00038480   -0.00043520   -0.00010654
     atom   53 type  5   force =     0.00019580   -0.00093312    0.00010623

     Total force =     0.412353     Total SCF correction =     0.000522
  @ DRIVER MODE: Message from server: STATUS
  @ DRIVER MODE: Message from server: GETFORCE
  @ DRIVER MODE: Returning v,forces,stress,ensemble 

     Writing output data file ./calc.save/
  @ DRIVER MODE: Message from server: EXIT
  @ DRIVE MODE: Exiting  
 
     init_run     :     13.68s CPU     14.77s WALL (       1 calls)
     electrons    :   1131.33s CPU   1156.87s WALL (       1 calls)
     forces       :      2.50s CPU      2.64s WALL (       1 calls)

     Called by init_run:
     wfcinit      :      6.64s CPU      7.30s WALL (       1 calls)
     potinit      :      6.10s CPU      6.18s WALL (       1 calls)
     hinit0       :      0.30s CPU      0.32s WALL (       1 calls)

     Called by electrons:
     c_bands      :    942.62s CPU    955.21s WALL (      74 calls)
     sum_band     :    128.19s CPU    133.81s WALL (      74 calls)
     v_of_rho     :     42.48s CPU     45.33s WALL (      75 calls)
     newd         :     17.22s CPU     21.00s WALL (      75 calls)
     mix_rho      :      5.21s CPU      5.80s WALL (      74 calls)
     vdW_kernel   :      4.87s CPU      4.88s WALL (       1 calls)

     Called by c_bands:
     init_us_2    :      7.33s CPU      7.43s WALL (    1500 calls)
     cegterg      :    921.04s CPU    932.99s WALL (     751 calls)

     Called by *egterg:
     cdiaghg      :    132.40s CPU    135.05s WALL (    4979 calls)
     h_psi        :    519.24s CPU    526.51s WALL (    4989 calls)
     s_psi        :     61.67s CPU     62.07s WALL (    4989 calls)
     g_psi        :      1.71s CPU      1.73s WALL (    4228 calls)

     Called by h_psi:
     h_psi:calbec :     61.69s CPU     62.21s WALL (    4989 calls)
     vloc_psi     :    392.87s CPU    398.86s WALL (    4989 calls)
     add_vuspsi   :     62.00s CPU     62.53s WALL (    4989 calls)

     General routines
     calbec       :     83.81s CPU     84.68s WALL (    5769 calls)
     fft          :     23.43s CPU     23.99s WALL (    4725 calls)
     ffts         :      0.27s CPU      0.27s WALL (     149 calls)
     fftw         :    448.21s CPU    455.83s WALL (  971372 calls)
     interpolate  :      0.61s CPU      0.62s WALL (      75 calls)
     davcio       :      0.00s CPU      0.37s WALL (      10 calls)
 
     Parallel routines
 
     PWSCF        :  19m11.10s CPU  19m39.93s WALL

 
   This run was terminated on:  15:57:45  22Sep2021            

=------------------------------------------------------------------------------=
   JOB DONE.
=------------------------------------------------------------------------------=
