
     Program PWSCF v.6.7GPU starts on 16Sep2021 at  5:28:53 

     This program is part of the open-source Quantum ESPRESSO suite
     for quantum simulation of materials; please cite
         "P. Giannozzi et al., J. Phys.:Condens. Matter 21 395502 (2009);
         "P. Giannozzi et al., J. Phys.:Condens. Matter 29 465901 (2017);
         "P. Giannozzi et al., J. Chem. Phys. 152 154105 (2020);
          URL http://www.quantum-espresso.org", 
     in publications or presentations arising from this work. More details at
     http://www.quantum-espresso.org/quote

     Parallel version (MPI), running on    10 processors

     MPI processes distributed on     1 nodes
     R & G space division:  proc/nbgrp/npool/nimage =      10
     Reading input from /storage/home/hcoda1/3/ntian30/research/carbon/CxH_vib/H2O_calc/ads_slab/CH3N2HH2O_a/out_0043/pw.inp
Warning: card &CELL ignored
Warning: card   CELL_DYNAMICS='IPI', ignored
Warning: card / ignored

     Current dimensions of program PWSCF are:
     Max number of different atomic species (ntypx) = 10
     Max number of k-points (npk) =  40000
     Max angular momentum in pseudopotentials (lmaxx) =  3
     Presently no symmetry can be used with electric field

     Message from routine cell_base_init:
     DEPRECATED: use true lattice parameter, not A to a.u. conversion factor

     **************************************************************************
     Initializing libbeef V0.1.2 with the BEEF-vdW functional.
     Citation: Wellendorff et al., PRB 85, 235149 (2012).
     **************************************************************************


     IMPORTANT: XC functional enforced from input :
     Exchange-correlation= BEEF-VDW
                           (   1   4  43  14   2   0   0)
     Any further DFT definition will be discarded
     Please, verify this is what you really want


     Subspace diagonalization in iterative solution of the eigenvalue problem:
     one sub-group per band group will be used
     scalapack distributed-memory algorithm (size of sub-group:  3*  3 procs)

  @ DRIVER MODE: Connecting to 
 qe_1139763_2852617.sched-torque.pace.gatech.edukiy26vh0_scratch
  using UNIX socket
  @ DRIVER MODE: Message from server: STATUS
  @ DRIVER MODE: Message from server: INIT
  @ DRIVER MODE: Receiving replica           0          -1
  @ DRIVER MODE: Receiving encoded integer          25
  @ DRIVER MODE:  SCF:  T  FORCE:  T  STRESS:  F  VC:  F  ENSEMBLE:  F
  @ DRIVER MODE:  SCF:  T  FORCE:  T  STRESS:  F  VC:  F  ENSEMBLE:  F
 
     Parallelization info
     --------------------
     sticks:   dense  smooth     PW     G-vecs:    dense   smooth      PW
     Min         327     131     37                56683    14340    2191
     Max         328     133     38                56694    14346    2206
     Sum        3275    1317    379               566857   143421   21985
 
     Using Slab Decomposition
 


     bravais-lattice index     =            0
     lattice parameter (alat)  =       1.8897  a.u.
     unit-cell volume          =    6658.9804 (a.u.)^3
     number of atoms/cell      =           57
     number of atomic types    =            5
     number of electrons       =       404.00
     number of Kohn-Sham states=          212
     kinetic-energy cutoff     =      29.3995  Ry
     charge density cutoff     =     293.9946  Ry
     scf convergence threshold =      7.3E-08
     mixing beta               =       0.0500
     number of iterations used =            8  plain     mixing
     Exchange-correlation= BEEF-VDW
                           (   1   4  43  14   2   0   0)

     celldm(1)=   1.889726  celldm(2)=   0.000000  celldm(3)=   0.000000
     celldm(4)=   0.000000  celldm(5)=   0.000000  celldm(6)=   0.000000

     crystal axes: (cart. coord. in units of alat)
               a(1) = (   6.579727   0.000000   0.000000 )  
               a(2) = (  -0.000775   5.961596   0.000000 )  
               a(3) = (   0.000000   0.000000  25.155947 )  

     reciprocal axes: (cart. coord. in units 2 pi/alat)
               b(1) = (  0.151982  0.000020  0.000000 )  
               b(2) = (  0.000000  0.167740  0.000000 )  
               b(3) = (  0.000000  0.000000  0.039752 )  


     PseudoPot. # 1 for Ti read from file:
     /storage/coda1/p-amedford6/0/shared/rich_project_chbe-medford/medford-share/data/pseudos_module/espresso/nninc/pbe/van/Ti.UPF
     MD5 check sum: 8e4df49b7f0d34bbd5052bf3f5ea0213
     Pseudo is Ultrasoft, Zval = 12.0
     Generated by new atomic code, or converted to UPF format
     Using radial grid of  851 points,  6 beta functions with: 
                l(1) =   0
                l(2) =   0
                l(3) =   1
                l(4) =   1
                l(5) =   2
                l(6) =   2
     Q(r) pseudized with  8 coefficients,  rinner =    1.000   1.000   1.000
                                                       1.000   1.000

     PseudoPot. # 2 for O  read from file:
     /storage/coda1/p-amedford6/0/shared/rich_project_chbe-medford/medford-share/data/pseudos_module/espresso/nninc/pbe/van/O.UPF
     MD5 check sum: 78c19812648e8988a0fe644b0f25305e
     Pseudo is Ultrasoft, Zval =  6.0
     Generated by new atomic code, or converted to UPF format
     Using radial grid of  737 points,  4 beta functions with: 
                l(1) =   0
                l(2) =   0
                l(3) =   1
                l(4) =   1
     Q(r) pseudized with  8 coefficients,  rinner =    0.800   0.800   0.800


     PseudoPot. # 3 for N  read from file:
     /storage/coda1/p-amedford6/0/shared/rich_project_chbe-medford/medford-share/data/pseudos_module/espresso/nninc/pbe/van/N.UPF
     MD5 check sum: 90d10febe142ad51ac9d5be1deb811c4
     Pseudo is Ultrasoft, Zval =  5.0
     Generated by new atomic code, or converted to UPF format
     Using radial grid of  729 points,  4 beta functions with: 
                l(1) =   0
                l(2) =   0
                l(3) =   1
                l(4) =   1
     Q(r) pseudized with  8 coefficients,  rinner =    0.800   0.800   0.800


     PseudoPot. # 4 for C  read from file:
     /storage/coda1/p-amedford6/0/shared/rich_project_chbe-medford/medford-share/data/pseudos_module/espresso/nninc/pbe/van/C.UPF
     MD5 check sum: 1a69bf6b8db32088f5b2163dbdb77a27
     Pseudo is Ultrasoft, Zval =  4.0
     Generated by new atomic code, or converted to UPF format
     Using radial grid of  721 points,  4 beta functions with: 
                l(1) =   0
                l(2) =   0
                l(3) =   1
                l(4) =   1
     Q(r) pseudized with  8 coefficients,  rinner =    0.800   0.800   0.800


     PseudoPot. # 5 for H  read from file:
     /storage/coda1/p-amedford6/0/shared/rich_project_chbe-medford/medford-share/data/pseudos_module/espresso/nninc/pbe/van/H.UPF
     MD5 check sum: b5ee9d7bfd3a09ee7748110bda690ff7
     Pseudo is Ultrasoft, Zval =  1.0
     Generated by new atomic code, or converted to UPF format
     Using radial grid of  615 points,  1 beta functions with: 
                l(1) =   0
     Q(r) pseudized with  8 coefficients,  rinner =    0.800

     atomic species   valence    mass     pseudopotential
        Ti1           12.00    47.86700     Ti( 1.00)
        O1             6.00    15.99900     O ( 1.00)
        N1             5.00    14.00700     N ( 1.00)
        C1             4.00    12.01100     C ( 1.00)
        H1             1.00     1.00800     H ( 1.00)

     No symmetry found



   Cartesian axes

     site n.     atom                  positions (alat units)
         1           Ti1 tau(   1) = (   0.0004258   2.9801865   6.0000000  )
         2           Ti1 tau(   2) = (   3.2906075   1.4906267   6.0002472  )
         3           O1  tau(   3) = (   0.0006271   0.0005054   7.9858123  )
         4           O1  tau(   4) = (   3.2906025   0.0005020   7.3038282  )
         5           O1  tau(   5) = (   4.5942328   1.4918067   9.2879030  )
         6           O1  tau(   6) = (   1.9868534   1.4903216   9.2879459  )
         7           Ti1 tau(   7) = (   3.2907910   2.8959150   9.1758416  )
         8           Ti1 tau(   8) = (   0.0015273   1.4827037   9.2680791  )
         9           O1  tau(   9) = (   3.2846840   0.0164488  11.3171736  )
        10           O1  tau(  10) = (   0.0116148   5.9584955  10.6183126  )
        11           O1  tau(  11) = (   1.2780696   1.4966870  12.6228330  )
        12           O1  tau(  12) = (   5.2671132   1.5021727  12.6038655  )
        13           Ti1 tau(  13) = (   0.0814623   2.9703834  12.6092300  )
        14           Ti1 tau(  14) = (   3.3984034   1.5042134  12.4754612  )
        15           O1  tau(  15) = (   6.5611900   5.9602394  14.6246442  )
        16           O1  tau(  16) = (   3.2847170   0.0117735  13.9091713  )
        17           O1  tau(  17) = (   4.5127615   1.5439160  15.9886145  )
        18           O1  tau(  18) = (   2.0245574   1.5486524  15.9865356  )
        19           Ti1 tau(  19) = (   3.2678410   3.0292036  15.6627315  )
        20           Ti1 tau(  20) = (   6.5437773   1.5790868  15.8036792  )
        21           O1  tau(  21) = (   3.2904802   0.0005063   4.7018136  )
        22           O1  tau(  22) = (   6.5616667   0.0409992  17.2467836  )
        23           O1  tau(  23) = (   1.3043587   1.4918075   6.0039043  )
        24           O1  tau(  24) = (   5.2767064   1.4903225   6.0039473  )
        25           Ti1 tau(  25) = (   0.0000382   5.9609847   6.0000000  )
        26           Ti1 tau(  26) = (   3.2902200   4.4714249   6.0002472  )
        27           O1  tau(  27) = (   0.0002396   2.9813036   7.9858123  )
        28           O1  tau(  28) = (   3.2902150   2.9813002   7.3038282  )
        29           O1  tau(  29) = (   4.5938453   4.4726049   9.2879030  )
        30           O1  tau(  30) = (   1.9864658   4.4711199   9.2879459  )
        31           Ti1 tau(  31) = (   3.2891106   5.8743827   9.1763621  )
        32           Ti1 tau(  32) = (   0.0006254   4.4649316   9.2693709  )
        33           O1  tau(  33) = (   3.2886753   2.9955121  11.3174028  )
        34           O1  tau(  34) = (   0.0092240   2.9805883  10.6323155  )
        35           O1  tau(  35) = (   1.2771457   4.4765085  12.6200386  )
        36           O1  tau(  36) = (   5.2716127   4.4859779  12.5990880  )
        37           Ti1 tau(  37) = (   0.0719143   5.9417653  12.6408960  )
        38           Ti1 tau(  38) = (   3.4009286   4.4967646  12.4819834  )
        39           O1  tau(  39) = (   6.5633752   2.9851081  14.6229342  )
        40           O1  tau(  40) = (   3.2806164   3.0132077  13.8636590  )
        41           O1  tau(  41) = (   4.5054435   4.4842064  16.0752605  )
        42           O1  tau(  42) = (   2.0287922   4.4846499  16.0567397  )
        43           Ti1 tau(  43) = (   3.2585180   0.0608266  15.7494983  )
        44           Ti1 tau(  44) = (   6.5556145   4.6328118  16.1363011  )
        45           O1  tau(  45) = (   3.2900926   2.9813045   4.7018136  )
        46           O1  tau(  46) = (   1.3039711   4.4726057   6.0039043  )
        47           O1  tau(  47) = (   5.2763189   4.4711207   6.0039473  )
        48           N1  tau(  48) = (   6.4582227   2.6263240  18.5734135  )
        49           N1  tau(  49) = (   6.5493832   2.9496485  17.3103279  )
        50           C1  tau(  50) = (   0.1600853   3.5596473  19.6455425  )
        51           H1  tau(  51) = (   6.1911903   4.4878083  19.4849519  )
        52           H1  tau(  52) = (   6.4401482   3.1080517  20.5902855  )
        53           H1  tau(  53) = (   1.2308410   3.8049764  19.6956042  )
        54           H1  tau(  54) = (   6.5044843   1.6253530  18.7706356  )
        55           O1  tau(  55) = (   3.2315852   0.0755412  18.2049893  )
        56           H1  tau(  56) = (   4.0109045   5.4607113  18.3409029  )
        57           H1  tau(  57) = (   2.4534619   5.4803556  18.3240773  )

     number of k points=    10  Fermi-Dirac smearing, width (Ry)=  0.0073
                       cart. coord. in units 2pi/alat
        k(    1) = (   0.0000000   0.0000000   0.0000000), wk =   0.1250000
        k(    2) = (   0.0000000   0.0419351   0.0000000), wk =   0.2500000
        k(    3) = (   0.0000000  -0.0838702   0.0000000), wk =   0.1250000
        k(    4) = (   0.0379955   0.0000049   0.0000000), wk =   0.2500000
        k(    5) = (   0.0379955   0.0419400   0.0000000), wk =   0.2500000
        k(    6) = (   0.0379955  -0.0838652   0.0000000), wk =   0.2500000
        k(    7) = (   0.0379955  -0.0419301   0.0000000), wk =   0.2500000
        k(    8) = (  -0.0759910  -0.0000099   0.0000000), wk =   0.1250000
        k(    9) = (  -0.0759910   0.0419252   0.0000000), wk =   0.2500000
        k(   10) = (  -0.0759910  -0.0838800   0.0000000), wk =   0.1250000

     Dense  grid:   566857 G-vectors     FFT dimensions: (  72,  64, 270)

     Smooth grid:   143421 G-vectors     FFT dimensions: (  45,  40, 180)

     Estimated max dynamical RAM per process >     367.81 MB

     Estimated total dynamical RAM >       3.59 GB
     Cannot read rho : file not found

     Initial potential from superposition of free atoms

     starting charge  387.99913, renormalised to  404.00000

     negative rho (up, down):  1.445E-02 0.000E+00


     %%%%%%%%%%%%%%%%%%%%%%%%%%%%%%%%%%%%%%%%%%%%%%%%%%%%%%%%%%%%%%%%%%%%%%%%
     %                                                                      %
     % You are using vdW-DF, which was implemented by the Thonhauser group. %
     % Please cite the following two papers that made this development      %
     % possible and the two reviews that describe the various versions:     %
     %                                                                      %
     %   T. Thonhauser et al., PRL 115, 136402 (2015).                      %
     %   T. Thonhauser et al., PRB 76, 125112 (2007).                       %
     %   K. Berland et al., Rep. Prog. Phys. 78, 066501 (2015).             %
     %   D.C. Langreth et al., J. Phys.: Condens. Matter 21, 084203 (2009). %
     %                                                                      %
     %                                                                      %
     % If you are calculating the stress with vdW-DF, please also cite:     %
     %                                                                      %
     %   R. Sabatini et al., J. Phys.: Condens. Matter 24, 424209 (2012).   %
     %                                                                      %
     %%%%%%%%%%%%%%%%%%%%%%%%%%%%%%%%%%%%%%%%%%%%%%%%%%%%%%%%%%%%%%%%%%%%%%%%


 
     Adding external electric field

     Computed dipole along edir(3) : 
        Dipole              -13.5668 Ry au,        -34.4835 Debye
        Dipole field         -0.0256 Ry au, 
 
        Potential amp.        2.3733 Ry
        Total length         46.3494 bohr
 
     Starting wfcs are  306 atomic wfcs
  @ DRIVER MODE: Message from server: STATUS
  @ DRIVER MODE: Message from server: POSDATA
  @ DRIVER MODE: Reading and sharing cell 
  @ DRIVER MODE: Reading and sharing positions 
  @ DRIVER MODE: Received positions 

     total cpu time spent up to now is       11.4 secs

     Self-consistent Calculation

     iteration #  1     ecut=    29.40 Ry     beta= 0.05
     Davidson diagonalization with overlap
     c_bands:  4 eigenvalues not converged
     c_bands:  4 eigenvalues not converged
     c_bands:  4 eigenvalues not converged
     c_bands:  4 eigenvalues not converged
     c_bands:  3 eigenvalues not converged
     c_bands:  3 eigenvalues not converged
     ethr =  1.00E-05,  avg # of iterations = 25.3

     negative rho (up, down):  8.773E-03 0.000E+00
 
     Adding external electric field

     Computed dipole along edir(3) : 
        Dipole               54.4964 Ry au,        138.5160 Debye
        Dipole field          0.1028 Ry au, 
 
        Potential amp.       -9.5333 Ry
        Total length         46.3494 bohr
 

     total cpu time spent up to now is       60.0 secs

     total energy              =   -2339.22395604 Ry
     estimated scf accuracy    <    7249.84988031 Ry

     iteration #  2     ecut=    29.40 Ry     beta= 0.05
     Davidson diagonalization with overlap
     ethr =  1.00E-02,  avg # of iterations = 23.8

     negative rho (up, down):  4.014E-04 0.000E+00
 
     Adding external electric field

     Computed dipole along edir(3) : 
        Dipole               -0.8684 Ry au,         -2.2072 Debye
        Dipole field         -0.0016 Ry au, 
 
        Potential amp.        0.1519 Ry
        Total length         46.3494 bohr
 

     total cpu time spent up to now is      143.5 secs

     total energy              =   -2465.96404263 Ry
     estimated scf accuracy    <   72527.26103235 Ry

     iteration #  3     ecut=    29.40 Ry     beta= 0.05
     Davidson diagonalization with overlap
     ethr =  1.00E-02,  avg # of iterations = 15.7

     negative rho (up, down):  4.561E-04 0.000E+00
 
     Adding external electric field

     Computed dipole along edir(3) : 
        Dipole               -3.9241 Ry au,         -9.9740 Debye
        Dipole field         -0.0074 Ry au, 
 
        Potential amp.        0.6865 Ry
        Total length         46.3494 bohr
 

     total cpu time spent up to now is      194.1 secs

     total energy              =   -2960.66047550 Ry
     estimated scf accuracy    <    6370.10274134 Ry

     iteration #  4     ecut=    29.40 Ry     beta= 0.05
     Davidson diagonalization with overlap
     ethr =  1.00E-02,  avg # of iterations = 13.7

     negative rho (up, down):  4.670E-04 0.000E+00
 
     Adding external electric field

     Computed dipole along edir(3) : 
        Dipole               -5.2243 Ry au,        -13.2789 Debye
        Dipole field         -0.0099 Ry au, 
 
        Potential amp.        0.9139 Ry
        Total length         46.3494 bohr
 

     total cpu time spent up to now is      217.7 secs

     total energy              =   -2971.34259021 Ry
     estimated scf accuracy    <    1654.68955027 Ry

     iteration #  5     ecut=    29.40 Ry     beta= 0.05
     Davidson diagonalization with overlap
     ethr =  1.00E-02,  avg # of iterations =  1.2

     negative rho (up, down):  5.057E-04 0.000E+00
 
     Adding external electric field

     Computed dipole along edir(3) : 
        Dipole               -6.9523 Ry au,        -17.6710 Debye
        Dipole field         -0.0131 Ry au, 
 
        Potential amp.        1.2162 Ry
        Total length         46.3494 bohr
 

     total cpu time spent up to now is      227.9 secs

     total energy              =   -2953.18462238 Ry
     estimated scf accuracy    <    1719.43287049 Ry

     iteration #  6     ecut=    29.40 Ry     beta= 0.05
     Davidson diagonalization with overlap
     ethr =  1.00E-02,  avg # of iterations = 12.3

     negative rho (up, down):  5.118E-04 0.000E+00
 
     Adding external electric field

     Computed dipole along edir(3) : 
        Dipole               -6.2132 Ry au,        -15.7924 Debye
        Dipole field         -0.0117 Ry au, 
 
        Potential amp.        1.0869 Ry
        Total length         46.3494 bohr
 

     total cpu time spent up to now is      250.2 secs

     total energy              =   -2979.88384792 Ry
     estimated scf accuracy    <      23.10605987 Ry

     iteration #  7     ecut=    29.40 Ry     beta= 0.05
     Davidson diagonalization with overlap
     ethr =  5.72E-03,  avg # of iterations =  1.4

     negative rho (up, down):  6.045E-04 0.000E+00
 
     Adding external electric field

     Computed dipole along edir(3) : 
        Dipole               -1.6227 Ry au,         -4.1244 Debye
        Dipole field         -0.0031 Ry au, 
 
        Potential amp.        0.2839 Ry
        Total length         46.3494 bohr
 

     total cpu time spent up to now is      260.6 secs

     total energy              =   -2974.86356538 Ry
     estimated scf accuracy    <      20.59428911 Ry

     iteration #  8     ecut=    29.40 Ry     beta= 0.05
     Davidson diagonalization with overlap
     ethr =  5.10E-03,  avg # of iterations =  5.9

     negative rho (up, down):  6.578E-04 0.000E+00
 
     Adding external electric field

     Computed dipole along edir(3) : 
        Dipole               -1.2132 Ry au,         -3.0837 Debye
        Dipole field         -0.0023 Ry au, 
 
        Potential amp.        0.2122 Ry
        Total length         46.3494 bohr
 

     total cpu time spent up to now is      273.2 secs

     total energy              =   -2981.50615420 Ry
     estimated scf accuracy    <     577.58472337 Ry

     iteration #  9     ecut=    29.40 Ry     beta= 0.05
     Davidson diagonalization with overlap
     ethr =  5.10E-03,  avg # of iterations =  2.7

     negative rho (up, down):  7.086E-04 0.000E+00
 
     Adding external electric field

     Computed dipole along edir(3) : 
        Dipole               -2.3610 Ry au,         -6.0011 Debye
        Dipole field         -0.0045 Ry au, 
 
        Potential amp.        0.4130 Ry
        Total length         46.3494 bohr
 

     total cpu time spent up to now is      284.3 secs

     total energy              =   -2975.47498874 Ry
     estimated scf accuracy    <     637.64839126 Ry

     iteration # 10     ecut=    29.40 Ry     beta= 0.05
     Davidson diagonalization with overlap
     ethr =  5.10E-03,  avg # of iterations =  1.6

     negative rho (up, down):  8.837E-04 0.000E+00
 
     Adding external electric field

     Computed dipole along edir(3) : 
        Dipole               -0.0891 Ry au,         -0.2265 Debye
        Dipole field         -0.0002 Ry au, 
 
        Potential amp.        0.0156 Ry
        Total length         46.3494 bohr
 

     total cpu time spent up to now is      294.9 secs

     total energy              =   -2980.40054868 Ry
     estimated scf accuracy    <     194.45232661 Ry

     iteration # 11     ecut=    29.40 Ry     beta= 0.05
     Davidson diagonalization with overlap
     ethr =  5.10E-03,  avg # of iterations = 10.6

     negative rho (up, down):  8.586E-04 0.000E+00
 
     Adding external electric field

     Computed dipole along edir(3) : 
        Dipole               -0.0132 Ry au,         -0.0334 Debye
        Dipole field         -0.0000 Ry au, 
 
        Potential amp.        0.0023 Ry
        Total length         46.3494 bohr
 

     total cpu time spent up to now is      312.9 secs

     total energy              =   -2986.62802684 Ry
     estimated scf accuracy    <    1228.63442467 Ry

     iteration # 12     ecut=    29.40 Ry     beta= 0.05
     Davidson diagonalization with overlap
     ethr =  5.10E-03,  avg # of iterations =  1.1

     negative rho (up, down):  8.618E-04 0.000E+00
 
     Adding external electric field

     Computed dipole along edir(3) : 
        Dipole               -0.1036 Ry au,         -0.2633 Debye
        Dipole field         -0.0002 Ry au, 
 
        Potential amp.        0.0181 Ry
        Total length         46.3494 bohr
 

     total cpu time spent up to now is      323.1 secs

     total energy              =   -2986.06886663 Ry
     estimated scf accuracy    <    1253.96198535 Ry

     iteration # 13     ecut=    29.40 Ry     beta= 0.05
     Davidson diagonalization with overlap
     ethr =  5.10E-03,  avg # of iterations =  1.0

     negative rho (up, down):  8.700E-04 0.000E+00
 
     Adding external electric field

     Computed dipole along edir(3) : 
        Dipole               -1.3837 Ry au,         -3.5170 Debye
        Dipole field         -0.0026 Ry au, 
 
        Potential amp.        0.2421 Ry
        Total length         46.3494 bohr
 

     total cpu time spent up to now is      333.1 secs

     total energy              =   -2978.57263952 Ry
     estimated scf accuracy    <    1193.73559902 Ry

     iteration # 14     ecut=    29.40 Ry     beta= 0.05
     Davidson diagonalization with overlap
     ethr =  5.10E-03,  avg # of iterations =  1.5

     negative rho (up, down):  9.870E-04 0.000E+00
 
     Adding external electric field

     Computed dipole along edir(3) : 
        Dipole               -1.3236 Ry au,         -3.3642 Debye
        Dipole field         -0.0025 Ry au, 
 
        Potential amp.        0.2315 Ry
        Total length         46.3494 bohr
 

     total cpu time spent up to now is      343.7 secs

     total energy              =   -2979.02561310 Ry
     estimated scf accuracy    <     861.32871728 Ry

     iteration # 15     ecut=    29.40 Ry     beta= 0.05
     Davidson diagonalization with overlap
     ethr =  5.10E-03,  avg # of iterations =  1.2

     negative rho (up, down):  1.224E-03 0.000E+00
 
     Adding external electric field

     Computed dipole along edir(3) : 
        Dipole               -6.6051 Ry au,        -16.7886 Debye
        Dipole field         -0.0125 Ry au, 
 
        Potential amp.        1.1555 Ry
        Total length         46.3494 bohr
 

     total cpu time spent up to now is      353.9 secs

     total energy              =   -2951.96192400 Ry
     estimated scf accuracy    <     854.37314589 Ry

     iteration # 16     ecut=    29.40 Ry     beta= 0.05
     Davidson diagonalization with overlap
     ethr =  5.10E-03,  avg # of iterations = 13.0

     negative rho (up, down):  7.236E-04 0.000E+00
 
     Adding external electric field

     Computed dipole along edir(3) : 
        Dipole               -1.9200 Ry au,         -4.8802 Debye
        Dipole field         -0.0036 Ry au, 
 
        Potential amp.        0.3359 Ry
        Total length         46.3494 bohr
 

     total cpu time spent up to now is      382.8 secs

     total energy              =   -2967.30928709 Ry
     estimated scf accuracy    <    1222.41562449 Ry

     iteration # 17     ecut=    29.40 Ry     beta= 0.05
     Davidson diagonalization with overlap
     ethr =  5.10E-03,  avg # of iterations = 12.9

     negative rho (up, down):  6.008E-04 0.000E+00
 
     Adding external electric field

     Computed dipole along edir(3) : 
        Dipole                1.5068 Ry au,          3.8298 Debye
        Dipole field          0.0028 Ry au, 
 
        Potential amp.       -0.2636 Ry
        Total length         46.3494 bohr
 

     total cpu time spent up to now is      401.7 secs

     total energy              =   -2978.45597168 Ry
     estimated scf accuracy    <      44.71658111 Ry

     iteration # 18     ecut=    29.40 Ry     beta= 0.05
     Davidson diagonalization with overlap
     ethr =  5.10E-03,  avg # of iterations = 14.6

     negative rho (up, down):  5.839E-04 0.000E+00
 
     Adding external electric field

     Computed dipole along edir(3) : 
        Dipole                1.6079 Ry au,          4.0869 Debye
        Dipole field          0.0030 Ry au, 
 
        Potential amp.       -0.2813 Ry
        Total length         46.3494 bohr
 

     total cpu time spent up to now is      422.3 secs

     total energy              =   -2999.83872784 Ry
     estimated scf accuracy    <    1822.27093437 Ry

     iteration # 19     ecut=    29.40 Ry     beta= 0.05
     Davidson diagonalization with overlap
     ethr =  5.10E-03,  avg # of iterations =  2.2

     negative rho (up, down):  8.181E-04 0.000E+00
 
     Adding external electric field

     Computed dipole along edir(3) : 
        Dipole               -4.7591 Ry au,        -12.0964 Debye
        Dipole field         -0.0090 Ry au, 
 
        Potential amp.        0.8325 Ry
        Total length         46.3494 bohr
 

     total cpu time spent up to now is      433.1 secs

     total energy              =   -2940.89267068 Ry
     estimated scf accuracy    <    1921.55050114 Ry

     iteration # 20     ecut=    29.40 Ry     beta= 0.05
     Davidson diagonalization with overlap
     ethr =  5.10E-03,  avg # of iterations = 13.5

     negative rho (up, down):  1.395E-03 0.000E+00
 
     Adding external electric field

     Computed dipole along edir(3) : 
        Dipole               -4.0142 Ry au,        -10.2030 Debye
        Dipole field         -0.0076 Ry au, 
 
        Potential amp.        0.7022 Ry
        Total length         46.3494 bohr
 

     total cpu time spent up to now is      461.4 secs

     total energy              =   -2974.63260846 Ry
     estimated scf accuracy    <     104.97553303 Ry

     iteration # 21     ecut=    29.40 Ry     beta= 0.05
     Davidson diagonalization with overlap
     ethr =  5.10E-03,  avg # of iterations =  3.6

     negative rho (up, down):  1.556E-03 0.000E+00
 
     Adding external electric field

     Computed dipole along edir(3) : 
        Dipole               -3.4702 Ry au,         -8.8205 Debye
        Dipole field         -0.0065 Ry au, 
 
        Potential amp.        0.6071 Ry
        Total length         46.3494 bohr
 

     total cpu time spent up to now is      472.8 secs

     total energy              =   -2975.64607582 Ry
     estimated scf accuracy    <       9.92434099 Ry

     iteration # 22     ecut=    29.40 Ry     beta= 0.05
     Davidson diagonalization with overlap
     ethr =  2.46E-03,  avg # of iterations =  2.3

     negative rho (up, down):  2.347E-03 0.000E+00
 
     Adding external electric field

     Computed dipole along edir(3) : 
        Dipole               -1.8333 Ry au,         -4.6597 Debye
        Dipole field         -0.0035 Ry au, 
 
        Potential amp.        0.3207 Ry
        Total length         46.3494 bohr
 

     total cpu time spent up to now is      483.7 secs

     total energy              =   -2975.21255831 Ry
     estimated scf accuracy    <       8.47165682 Ry

     iteration # 23     ecut=    29.40 Ry     beta= 0.05
     Davidson diagonalization with overlap
     ethr =  2.10E-03,  avg # of iterations =  3.5

     negative rho (up, down):  3.065E-03 0.000E+00
 
     Adding external electric field

     Computed dipole along edir(3) : 
        Dipole               -1.2987 Ry au,         -3.3011 Debye
        Dipole field         -0.0025 Ry au, 
 
        Potential amp.        0.2272 Ry
        Total length         46.3494 bohr
 

     total cpu time spent up to now is      495.0 secs

     total energy              =   -2975.17645640 Ry
     estimated scf accuracy    <       5.98519675 Ry

     iteration # 24     ecut=    29.40 Ry     beta= 0.05
     Davidson diagonalization with overlap
     ethr =  1.48E-03,  avg # of iterations =  2.3

     negative rho (up, down):  3.856E-03 0.000E+00
 
     Adding external electric field

     Computed dipole along edir(3) : 
        Dipole               -1.0106 Ry au,         -2.5688 Debye
        Dipole field         -0.0019 Ry au, 
 
        Potential amp.        0.1768 Ry
        Total length         46.3494 bohr
 

     total cpu time spent up to now is      505.8 secs

     total energy              =   -2975.20464140 Ry
     estimated scf accuracy    <       3.76284316 Ry

     iteration # 25     ecut=    29.40 Ry     beta= 0.05
     Davidson diagonalization with overlap
     ethr =  9.31E-04,  avg # of iterations =  4.6

     negative rho (up, down):  3.626E-03 0.000E+00
 
     Adding external electric field

     Computed dipole along edir(3) : 
        Dipole               -0.9964 Ry au,         -2.5327 Debye
        Dipole field         -0.0019 Ry au, 
 
        Potential amp.        0.1743 Ry
        Total length         46.3494 bohr
 

     total cpu time spent up to now is      517.4 secs

     total energy              =   -2975.26602913 Ry
     estimated scf accuracy    <       1.73629928 Ry

     iteration # 26     ecut=    29.40 Ry     beta= 0.05
     Davidson diagonalization with overlap
     c_bands:  1 eigenvalues not converged
     ethr =  4.30E-04,  avg # of iterations = 12.7

     negative rho (up, down):  3.380E-03 0.000E+00
 
     Adding external electric field

     Computed dipole along edir(3) : 
        Dipole               -0.9586 Ry au,         -2.4365 Debye
        Dipole field         -0.0018 Ry au, 
 
        Potential amp.        0.1677 Ry
        Total length         46.3494 bohr
 

     total cpu time spent up to now is      532.2 secs

     total energy              =   -2975.39395322 Ry
     estimated scf accuracy    <       1.50345675 Ry

     iteration # 27     ecut=    29.40 Ry     beta= 0.05
     Davidson diagonalization with overlap
     ethr =  3.72E-04,  avg # of iterations =  1.9

     negative rho (up, down):  1.641E-02 0.000E+00
 
     Adding external electric field

     Computed dipole along edir(3) : 
        Dipole                0.3165 Ry au,          0.8044 Debye
        Dipole field          0.0006 Ry au, 
 
        Potential amp.       -0.0554 Ry
        Total length         46.3494 bohr
 

     total cpu time spent up to now is      542.8 secs

     total energy              =   -2975.49199318 Ry
     estimated scf accuracy    <       1.51075142 Ry

     iteration # 28     ecut=    29.40 Ry     beta= 0.05
     Davidson diagonalization with overlap
     c_bands:  2 eigenvalues not converged
     c_bands:  4 eigenvalues not converged
     c_bands:  5 eigenvalues not converged
     ethr =  3.72E-04,  avg # of iterations = 17.2

     negative rho (up, down):  2.455E-02 0.000E+00
 
     Adding external electric field

     Computed dipole along edir(3) : 
        Dipole                1.5667 Ry au,          3.9821 Debye
        Dipole field          0.0030 Ry au, 
 
        Potential amp.       -0.2741 Ry
        Total length         46.3494 bohr
 

     total cpu time spent up to now is      560.9 secs

     total energy              =   -2975.68361385 Ry
     estimated scf accuracy    <       2.26689941 Ry

     iteration # 29     ecut=    29.40 Ry     beta= 0.05
     Davidson diagonalization with overlap
     c_bands:  1 eigenvalues not converged
     c_bands:  1 eigenvalues not converged
     ethr =  3.72E-04,  avg # of iterations = 17.6

     negative rho (up, down):  1.117E-02 0.000E+00
 
     Adding external electric field

     Computed dipole along edir(3) : 
        Dipole               -0.0361 Ry au,         -0.0918 Debye
        Dipole field         -0.0001 Ry au, 
 
        Potential amp.        0.0063 Ry
        Total length         46.3494 bohr
 

     total cpu time spent up to now is      579.7 secs

     total energy              =   -2974.63158160 Ry
     estimated scf accuracy    <      66.30212730 Ry

     iteration # 30     ecut=    29.40 Ry     beta= 0.05
     Davidson diagonalization with overlap
     ethr =  3.72E-04,  avg # of iterations = 11.6

     negative rho (up, down):  2.738E-02 0.000E+00
 
     Adding external electric field

     Computed dipole along edir(3) : 
        Dipole                1.6444 Ry au,          4.1797 Debye
        Dipole field          0.0031 Ry au, 
 
        Potential amp.       -0.2877 Ry
        Total length         46.3494 bohr
 

     total cpu time spent up to now is      593.6 secs

     total energy              =   -2975.73596217 Ry
     estimated scf accuracy    <       2.59638256 Ry

     iteration # 31     ecut=    29.40 Ry     beta= 0.05
     Davidson diagonalization with overlap
     ethr =  3.72E-04,  avg # of iterations =  9.3

     negative rho (up, down):  3.155E-02 0.000E+00
 
     Adding external electric field

     Computed dipole along edir(3) : 
        Dipole                1.8962 Ry au,          4.8198 Debye
        Dipole field          0.0036 Ry au, 
 
        Potential amp.       -0.3317 Ry
        Total length         46.3494 bohr
 

     total cpu time spent up to now is      607.1 secs

     total energy              =   -2976.89515182 Ry
     estimated scf accuracy    <     219.23497565 Ry

     iteration # 32     ecut=    29.40 Ry     beta= 0.05
     Davidson diagonalization with overlap
     c_bands:  2 eigenvalues not converged
     ethr =  3.72E-04,  avg # of iterations =  8.7

     negative rho (up, down):  1.175E-02 0.000E+00
 
     Adding external electric field

     Computed dipole along edir(3) : 
        Dipole                0.3857 Ry au,          0.9803 Debye
        Dipole field          0.0007 Ry au, 
 
        Potential amp.       -0.0675 Ry
        Total length         46.3494 bohr
 

     total cpu time spent up to now is      620.3 secs

     total energy              =   -2973.98239792 Ry
     estimated scf accuracy    <     250.48706947 Ry

     iteration # 33     ecut=    29.40 Ry     beta= 0.05
     Davidson diagonalization with overlap
     c_bands:  1 eigenvalues not converged
     c_bands:  2 eigenvalues not converged
     ethr =  3.72E-04,  avg # of iterations =  8.3

     negative rho (up, down):  1.571E-02 0.000E+00
 
     Adding external electric field

     Computed dipole along edir(3) : 
        Dipole                0.2540 Ry au,          0.6455 Debye
        Dipole field          0.0005 Ry au, 
 
        Potential amp.       -0.0444 Ry
        Total length         46.3494 bohr
 

     total cpu time spent up to now is      633.7 secs

     total energy              =   -2975.40580677 Ry
     estimated scf accuracy    <       9.11905189 Ry

     iteration # 34     ecut=    29.40 Ry     beta= 0.05
     Davidson diagonalization with overlap
     ethr =  3.72E-04,  avg # of iterations =  2.1

     negative rho (up, down):  1.039E-02 0.000E+00
 
     Adding external electric field

     Computed dipole along edir(3) : 
        Dipole               -0.7463 Ry au,         -1.8970 Debye
        Dipole field         -0.0014 Ry au, 
 
        Potential amp.        0.1306 Ry
        Total length         46.3494 bohr
 

     total cpu time spent up to now is      644.4 secs

     total energy              =   -2974.98406220 Ry
     estimated scf accuracy    <       7.96022373 Ry

     iteration # 35     ecut=    29.40 Ry     beta= 0.05
     Davidson diagonalization with overlap
     c_bands:  1 eigenvalues not converged
     ethr =  3.72E-04,  avg # of iterations = 17.7

     negative rho (up, down):  1.093E-02 0.000E+00
 
     Adding external electric field

     Computed dipole along edir(3) : 
        Dipole               -0.1418 Ry au,         -0.3605 Debye
        Dipole field         -0.0003 Ry au, 
 
        Potential amp.        0.0248 Ry
        Total length         46.3494 bohr
 

     total cpu time spent up to now is      664.2 secs

     total energy              =   -2975.22088511 Ry
     estimated scf accuracy    <       0.83872376 Ry

     iteration # 36     ecut=    29.40 Ry     beta= 0.05
     Davidson diagonalization with overlap
     ethr =  2.08E-04,  avg # of iterations = 14.9

     negative rho (up, down):  1.065E-02 0.000E+00
 
     Adding external electric field

     Computed dipole along edir(3) : 
        Dipole               -0.2482 Ry au,         -0.6310 Debye
        Dipole field         -0.0005 Ry au, 
 
        Potential amp.        0.0434 Ry
        Total length         46.3494 bohr
 

     total cpu time spent up to now is      680.4 secs

     total energy              =   -2975.26536509 Ry
     estimated scf accuracy    <       1.29595718 Ry

     iteration # 37     ecut=    29.40 Ry     beta= 0.05
     Davidson diagonalization with overlap
     ethr =  2.08E-04,  avg # of iterations =  5.8

     negative rho (up, down):  1.316E-02 0.000E+00
 
     Adding external electric field

     Computed dipole along edir(3) : 
        Dipole               -0.3441 Ry au,         -0.8746 Debye
        Dipole field         -0.0006 Ry au, 
 
        Potential amp.        0.0602 Ry
        Total length         46.3494 bohr
 

     total cpu time spent up to now is      692.3 secs

     total energy              =   -2975.24797729 Ry
     estimated scf accuracy    <       0.80230965 Ry

     iteration # 38     ecut=    29.40 Ry     beta= 0.05
     Davidson diagonalization with overlap
     ethr =  1.99E-04,  avg # of iterations =  8.0

     negative rho (up, down):  1.364E-02 0.000E+00
 
     Adding external electric field

     Computed dipole along edir(3) : 
        Dipole               -0.1050 Ry au,         -0.2668 Debye
        Dipole field         -0.0002 Ry au, 
 
        Potential amp.        0.0184 Ry
        Total length         46.3494 bohr
 

     total cpu time spent up to now is      705.0 secs

     total energy              =   -2975.22763352 Ry
     estimated scf accuracy    <       0.81483409 Ry

     iteration # 39     ecut=    29.40 Ry     beta= 0.05
     Davidson diagonalization with overlap
     ethr =  1.99E-04,  avg # of iterations =  5.9

     negative rho (up, down):  1.140E-02 0.000E+00
 
     Adding external electric field

     Computed dipole along edir(3) : 
        Dipole                0.0818 Ry au,          0.2080 Debye
        Dipole field          0.0002 Ry au, 
 
        Potential amp.       -0.0143 Ry
        Total length         46.3494 bohr
 

     total cpu time spent up to now is      716.9 secs

     total energy              =   -2975.24037055 Ry
     estimated scf accuracy    <       0.54231349 Ry

     iteration # 40     ecut=    29.40 Ry     beta= 0.05
     Davidson diagonalization with overlap
     c_bands:  1 eigenvalues not converged
     ethr =  1.34E-04,  avg # of iterations =  7.9

     negative rho (up, down):  9.286E-03 0.000E+00
 
     Adding external electric field

     Computed dipole along edir(3) : 
        Dipole                0.0819 Ry au,          0.2082 Debye
        Dipole field          0.0002 Ry au, 
 
        Potential amp.       -0.0143 Ry
        Total length         46.3494 bohr
 

     total cpu time spent up to now is      730.0 secs

     total energy              =   -2975.24439268 Ry
     estimated scf accuracy    <       0.28954444 Ry

     iteration # 41     ecut=    29.40 Ry     beta= 0.05
     Davidson diagonalization with overlap
     c_bands:  1 eigenvalues not converged
     c_bands:  3 eigenvalues not converged
     c_bands:  2 eigenvalues not converged
     c_bands:  4 eigenvalues not converged
     c_bands:  4 eigenvalues not converged
     c_bands:  3 eigenvalues not converged
     c_bands:  5 eigenvalues not converged
     ethr =  7.17E-05,  avg # of iterations = 16.3

     negative rho (up, down):  1.000E-02 0.000E+00
 
     Adding external electric field

     Computed dipole along edir(3) : 
        Dipole                0.1188 Ry au,          0.3019 Debye
        Dipole field          0.0002 Ry au, 
 
        Potential amp.       -0.0208 Ry
        Total length         46.3494 bohr
 

     total cpu time spent up to now is      746.4 secs

     total energy              =   -2975.23191332 Ry
     estimated scf accuracy    <       0.21011356 Ry

     iteration # 42     ecut=    29.40 Ry     beta= 0.05
     Davidson diagonalization with overlap
     c_bands:  1 eigenvalues not converged
     ethr =  5.20E-05,  avg # of iterations =  7.7

     negative rho (up, down):  6.631E-03 0.000E+00
 
     Adding external electric field

     Computed dipole along edir(3) : 
        Dipole                0.0610 Ry au,          0.1549 Debye
        Dipole field          0.0001 Ry au, 
 
        Potential amp.       -0.0107 Ry
        Total length         46.3494 bohr
 

     total cpu time spent up to now is      759.0 secs

     total energy              =   -2975.20821084 Ry
     estimated scf accuracy    <       0.40690392 Ry

     iteration # 43     ecut=    29.40 Ry     beta= 0.05
     Davidson diagonalization with overlap
     c_bands:  4 eigenvalues not converged
     c_bands:  3 eigenvalues not converged
     c_bands:  1 eigenvalues not converged
     c_bands:  4 eigenvalues not converged
     ethr =  5.20E-05,  avg # of iterations = 14.8

     negative rho (up, down):  7.104E-03 0.000E+00
 
     Adding external electric field

     Computed dipole along edir(3) : 
        Dipole                0.2768 Ry au,          0.7036 Debye
        Dipole field          0.0005 Ry au, 
 
        Potential amp.       -0.0484 Ry
        Total length         46.3494 bohr
 

     total cpu time spent up to now is      774.9 secs

     total energy              =   -2975.22372521 Ry
     estimated scf accuracy    <       2.42815939 Ry

     iteration # 44     ecut=    29.40 Ry     beta= 0.05
     Davidson diagonalization with overlap
     c_bands:  1 eigenvalues not converged
     ethr =  5.20E-05,  avg # of iterations =  8.9

     negative rho (up, down):  6.274E-03 0.000E+00
 
     Adding external electric field

     Computed dipole along edir(3) : 
        Dipole                0.3712 Ry au,          0.9436 Debye
        Dipole field          0.0007 Ry au, 
 
        Potential amp.       -0.0649 Ry
        Total length         46.3494 bohr
 

     total cpu time spent up to now is      788.3 secs

     total energy              =   -2975.23641876 Ry
     estimated scf accuracy    <       0.61602193 Ry

     iteration # 45     ecut=    29.40 Ry     beta= 0.05
     Davidson diagonalization with overlap
     ethr =  5.20E-05,  avg # of iterations =  1.8

     negative rho (up, down):  6.621E-03 0.000E+00
 
     Adding external electric field

     Computed dipole along edir(3) : 
        Dipole                0.7517 Ry au,          1.9105 Debye
        Dipole field          0.0014 Ry au, 
 
        Potential amp.       -0.1315 Ry
        Total length         46.3494 bohr
 

     total cpu time spent up to now is      798.9 secs

     total energy              =   -2975.20899336 Ry
     estimated scf accuracy    <       0.91893063 Ry

     iteration # 46     ecut=    29.40 Ry     beta= 0.05
     Davidson diagonalization with overlap
     ethr =  5.20E-05,  avg # of iterations =  8.1

     negative rho (up, down):  7.331E-03 0.000E+00
 
     Adding external electric field

     Computed dipole along edir(3) : 
        Dipole                0.9081 Ry au,          2.3081 Debye
        Dipole field          0.0017 Ry au, 
 
        Potential amp.       -0.1589 Ry
        Total length         46.3494 bohr
 

     total cpu time spent up to now is      811.6 secs

     total energy              =   -2975.22743054 Ry
     estimated scf accuracy    <       0.04295424 Ry

     iteration # 47     ecut=    29.40 Ry     beta= 0.05
     Davidson diagonalization with overlap
     c_bands:  1 eigenvalues not converged
     c_bands:  3 eigenvalues not converged
     c_bands:  2 eigenvalues not converged
     ethr =  1.06E-05,  avg # of iterations = 11.7

     negative rho (up, down):  9.134E-03 0.000E+00
 
     Adding external electric field

     Computed dipole along edir(3) : 
        Dipole                1.0019 Ry au,          2.5465 Debye
        Dipole field          0.0019 Ry au, 
 
        Potential amp.       -0.1753 Ry
        Total length         46.3494 bohr
 

     total cpu time spent up to now is      825.6 secs

     total energy              =   -2975.22732555 Ry
     estimated scf accuracy    <       0.02571986 Ry

     iteration # 48     ecut=    29.40 Ry     beta= 0.05
     Davidson diagonalization with overlap
     c_bands:  1 eigenvalues not converged
     c_bands:  1 eigenvalues not converged
     ethr =  6.37E-06,  avg # of iterations = 15.8

     negative rho (up, down):  9.213E-03 0.000E+00
 
     Adding external electric field

     Computed dipole along edir(3) : 
        Dipole                1.0589 Ry au,          2.6914 Debye
        Dipole field          0.0020 Ry au, 
 
        Potential amp.       -0.1852 Ry
        Total length         46.3494 bohr
 

     total cpu time spent up to now is      841.4 secs

     total energy              =   -2975.22844804 Ry
     estimated scf accuracy    <       0.03584230 Ry

     iteration # 49     ecut=    29.40 Ry     beta= 0.05
     Davidson diagonalization with overlap
     ethr =  6.37E-06,  avg # of iterations = 10.3

     negative rho (up, down):  1.039E-02 0.000E+00
 
     Adding external electric field

     Computed dipole along edir(3) : 
        Dipole                1.1533 Ry au,          2.9315 Debye
        Dipole field          0.0022 Ry au, 
 
        Potential amp.       -0.2018 Ry
        Total length         46.3494 bohr
 

     total cpu time spent up to now is      854.8 secs

     total energy              =   -2975.22920097 Ry
     estimated scf accuracy    <       0.00759480 Ry

     iteration # 50     ecut=    29.40 Ry     beta= 0.05
     Davidson diagonalization with overlap
     c_bands:  2 eigenvalues not converged
     c_bands:  1 eigenvalues not converged
     c_bands:  1 eigenvalues not converged
     ethr =  1.88E-06,  avg # of iterations = 17.6

     negative rho (up, down):  1.073E-02 0.000E+00
 
     Adding external electric field

     Computed dipole along edir(3) : 
        Dipole                1.1232 Ry au,          2.8549 Debye
        Dipole field          0.0021 Ry au, 
 
        Potential amp.       -0.1965 Ry
        Total length         46.3494 bohr
 

     total cpu time spent up to now is      874.7 secs

     total energy              =   -2975.22966817 Ry
     estimated scf accuracy    <       0.00629171 Ry

     iteration # 51     ecut=    29.40 Ry     beta= 0.05
     Davidson diagonalization with overlap
     c_bands:  1 eigenvalues not converged
     ethr =  1.56E-06,  avg # of iterations =  7.4

     negative rho (up, down):  1.191E-02 0.000E+00
 
     Adding external electric field

     Computed dipole along edir(3) : 
        Dipole                1.1090 Ry au,          2.8188 Debye
        Dipole field          0.0021 Ry au, 
 
        Potential amp.       -0.1940 Ry
        Total length         46.3494 bohr
 

     total cpu time spent up to now is      887.1 secs

     total energy              =   -2975.22950227 Ry
     estimated scf accuracy    <       0.00294349 Ry

     iteration # 52     ecut=    29.40 Ry     beta= 0.05
     Davidson diagonalization with overlap
     ethr =  7.29E-07,  avg # of iterations = 12.5

     negative rho (up, down):  1.194E-02 0.000E+00
 
     Adding external electric field

     Computed dipole along edir(3) : 
        Dipole                1.1321 Ry au,          2.8775 Debye
        Dipole field          0.0021 Ry au, 
 
        Potential amp.       -0.1980 Ry
        Total length         46.3494 bohr
 

     total cpu time spent up to now is      903.6 secs

     total energy              =   -2975.22984229 Ry
     estimated scf accuracy    <       0.00376789 Ry

     iteration # 53     ecut=    29.40 Ry     beta= 0.05
     Davidson diagonalization with overlap
     ethr =  7.29E-07,  avg # of iterations =  5.8

     negative rho (up, down):  1.249E-02 0.000E+00
 
     Adding external electric field

     Computed dipole along edir(3) : 
        Dipole                1.1740 Ry au,          2.9840 Debye
        Dipole field          0.0022 Ry au, 
 
        Potential amp.       -0.2054 Ry
        Total length         46.3494 bohr
 

     total cpu time spent up to now is      915.5 secs

     total energy              =   -2975.22982995 Ry
     estimated scf accuracy    <       0.00101925 Ry

     iteration # 54     ecut=    29.40 Ry     beta= 0.05
     Davidson diagonalization with overlap
     ethr =  2.52E-07,  avg # of iterations =  9.3

     negative rho (up, down):  1.264E-02 0.000E+00
 
     Adding external electric field

     Computed dipole along edir(3) : 
        Dipole                1.1621 Ry au,          2.9538 Debye
        Dipole field          0.0022 Ry au, 
 
        Potential amp.       -0.2033 Ry
        Total length         46.3494 bohr
 

     total cpu time spent up to now is      931.2 secs

     total energy              =   -2975.23018682 Ry
     estimated scf accuracy    <       0.00290430 Ry

     iteration # 55     ecut=    29.40 Ry     beta= 0.05
     Davidson diagonalization with overlap
     ethr =  2.52E-07,  avg # of iterations =  4.4

     negative rho (up, down):  1.372E-02 0.000E+00
 
     Adding external electric field

     Computed dipole along edir(3) : 
        Dipole                1.1050 Ry au,          2.8087 Debye
        Dipole field          0.0021 Ry au, 
 
        Potential amp.       -0.1933 Ry
        Total length         46.3494 bohr
 

     total cpu time spent up to now is      942.8 secs

     total energy              =   -2975.22938472 Ry
     estimated scf accuracy    <       0.00240169 Ry

     iteration # 56     ecut=    29.40 Ry     beta= 0.05
     Davidson diagonalization with overlap
     ethr =  2.52E-07,  avg # of iterations = 12.1

     negative rho (up, down):  1.361E-02 0.000E+00
 
     Adding external electric field

     Computed dipole along edir(3) : 
        Dipole                1.1178 Ry au,          2.8412 Debye
        Dipole field          0.0021 Ry au, 
 
        Potential amp.       -0.1955 Ry
        Total length         46.3494 bohr
 

     total cpu time spent up to now is      963.1 secs

     total energy              =   -2975.23017645 Ry
     estimated scf accuracy    <       0.00318560 Ry

     iteration # 57     ecut=    29.40 Ry     beta= 0.05
     Davidson diagonalization with overlap
     ethr =  2.52E-07,  avg # of iterations =  5.7

     negative rho (up, down):  1.410E-02 0.000E+00
 
     Adding external electric field

     Computed dipole along edir(3) : 
        Dipole                1.1543 Ry au,          2.9339 Debye
        Dipole field          0.0022 Ry au, 
 
        Potential amp.       -0.2019 Ry
        Total length         46.3494 bohr
 

     total cpu time spent up to now is      975.5 secs

     total energy              =   -2975.22990384 Ry
     estimated scf accuracy    <       0.00152595 Ry

     iteration # 58     ecut=    29.40 Ry     beta= 0.05
     Davidson diagonalization with overlap
     ethr =  2.52E-07,  avg # of iterations =  9.1

     negative rho (up, down):  1.467E-02 0.000E+00
 
     Adding external electric field

     Computed dipole along edir(3) : 
        Dipole                1.1627 Ry au,          2.9552 Debye
        Dipole field          0.0022 Ry au, 
 
        Potential amp.       -0.2034 Ry
        Total length         46.3494 bohr
 

     total cpu time spent up to now is      991.2 secs

     total energy              =   -2975.23015785 Ry
     estimated scf accuracy    <       0.00022412 Ry

     iteration # 59     ecut=    29.40 Ry     beta= 0.05
     Davidson diagonalization with overlap
     ethr =  5.55E-08,  avg # of iterations =  6.2

     negative rho (up, down):  1.477E-02 0.000E+00
 
     Adding external electric field

     Computed dipole along edir(3) : 
        Dipole                1.1588 Ry au,          2.9454 Debye
        Dipole field          0.0022 Ry au, 
 
        Potential amp.       -0.2027 Ry
        Total length         46.3494 bohr
 

     total cpu time spent up to now is     1003.4 secs

     total energy              =   -2975.23016932 Ry
     estimated scf accuracy    <       0.00008870 Ry

     iteration # 60     ecut=    29.40 Ry     beta= 0.05
     Davidson diagonalization with overlap
     ethr =  2.20E-08,  avg # of iterations =  7.6

     negative rho (up, down):  1.474E-02 0.000E+00
 
     Adding external electric field

     Computed dipole along edir(3) : 
        Dipole                1.1561 Ry au,          2.9385 Debye
        Dipole field          0.0022 Ry au, 
 
        Potential amp.       -0.2022 Ry
        Total length         46.3494 bohr
 

     total cpu time spent up to now is     1016.8 secs

     total energy              =   -2975.23018421 Ry
     estimated scf accuracy    <       0.00002699 Ry

     iteration # 61     ecut=    29.40 Ry     beta= 0.05
     Davidson diagonalization with overlap
     ethr =  6.68E-09,  avg # of iterations =  6.4

     negative rho (up, down):  1.486E-02 0.000E+00
 
     Adding external electric field

     Computed dipole along edir(3) : 
        Dipole                1.1554 Ry au,          2.9368 Debye
        Dipole field          0.0022 Ry au, 
 
        Potential amp.       -0.2021 Ry
        Total length         46.3494 bohr
 

     total cpu time spent up to now is     1029.8 secs

     total energy              =   -2975.23019464 Ry
     estimated scf accuracy    <       0.00001798 Ry

     iteration # 62     ecut=    29.40 Ry     beta= 0.05
     Davidson diagonalization with overlap
     ethr =  4.45E-09,  avg # of iterations =  7.7

     negative rho (up, down):  1.496E-02 0.000E+00
 
     Adding external electric field

     Computed dipole along edir(3) : 
        Dipole                1.1571 Ry au,          2.9410 Debye
        Dipole field          0.0022 Ry au, 
 
        Potential amp.       -0.2024 Ry
        Total length         46.3494 bohr
 

     total cpu time spent up to now is     1043.9 secs

     total energy              =   -2975.23020485 Ry
     estimated scf accuracy    <       0.00000760 Ry

     iteration # 63     ecut=    29.40 Ry     beta= 0.05
     Davidson diagonalization with overlap
     ethr =  1.88E-09,  avg # of iterations =  6.7

     negative rho (up, down):  1.501E-02 0.000E+00
 
     Adding external electric field

     Computed dipole along edir(3) : 
        Dipole                1.1591 Ry au,          2.9462 Debye
        Dipole field          0.0022 Ry au, 
 
        Potential amp.       -0.2028 Ry
        Total length         46.3494 bohr
 

     total cpu time spent up to now is     1058.2 secs

     total energy              =   -2975.23021289 Ry
     estimated scf accuracy    <       0.00000497 Ry

     iteration # 64     ecut=    29.40 Ry     beta= 0.05
     Davidson diagonalization with overlap
     ethr =  1.23E-09,  avg # of iterations =  6.3

     negative rho (up, down):  1.513E-02 0.000E+00
 
     Adding external electric field

     Computed dipole along edir(3) : 
        Dipole                1.1613 Ry au,          2.9518 Debye
        Dipole field          0.0022 Ry au, 
 
        Potential amp.       -0.2032 Ry
        Total length         46.3494 bohr
 

     total cpu time spent up to now is     1070.7 secs

     total energy              =   -2975.23021998 Ry
     estimated scf accuracy    <       0.00000357 Ry

     iteration # 65     ecut=    29.40 Ry     beta= 0.05
     Davidson diagonalization with overlap
     ethr =  8.84E-10,  avg # of iterations =  6.5

     negative rho (up, down):  1.514E-02 0.000E+00
 
     Adding external electric field

     Computed dipole along edir(3) : 
        Dipole                1.1620 Ry au,          2.9536 Debye
        Dipole field          0.0022 Ry au, 
 
        Potential amp.       -0.2033 Ry
        Total length         46.3494 bohr
 

     total cpu time spent up to now is     1083.2 secs

     total energy              =   -2975.23022589 Ry
     estimated scf accuracy    <       0.00000193 Ry

     iteration # 66     ecut=    29.40 Ry     beta= 0.05
     Davidson diagonalization with overlap
     ethr =  4.77E-10,  avg # of iterations =  7.4

     negative rho (up, down):  1.506E-02 0.000E+00
 
     Adding external electric field

     Computed dipole along edir(3) : 
        Dipole                1.1606 Ry au,          2.9500 Debye
        Dipole field          0.0022 Ry au, 
 
        Potential amp.       -0.2030 Ry
        Total length         46.3494 bohr
 

     total cpu time spent up to now is     1098.6 secs

     total energy              =   -2975.23023129 Ry
     estimated scf accuracy    <       0.00000117 Ry

     iteration # 67     ecut=    29.40 Ry     beta= 0.05
     Davidson diagonalization with overlap
     ethr =  2.89E-10,  avg # of iterations =  6.2

     negative rho (up, down):  1.506E-02 0.000E+00
 
     Adding external electric field

     Computed dipole along edir(3) : 
        Dipole                1.1609 Ry au,          2.9508 Debye
        Dipole field          0.0022 Ry au, 
 
        Potential amp.       -0.2031 Ry
        Total length         46.3494 bohr
 

     total cpu time spent up to now is     1111.5 secs

     total energy              =   -2975.23023611 Ry
     estimated scf accuracy    <       0.00000045 Ry

     iteration # 68     ecut=    29.40 Ry     beta= 0.05
     Davidson diagonalization with overlap
     ethr =  1.12E-10,  avg # of iterations =  6.3

     negative rho (up, down):  1.503E-02 0.000E+00
 
     Adding external electric field

     Computed dipole along edir(3) : 
        Dipole                1.1606 Ry au,          2.9501 Debye
        Dipole field          0.0022 Ry au, 
 
        Potential amp.       -0.2030 Ry
        Total length         46.3494 bohr
 

     total cpu time spent up to now is     1124.1 secs

     total energy              =   -2975.23024039 Ry
     estimated scf accuracy    <       0.00000034 Ry

     iteration # 69     ecut=    29.40 Ry     beta= 0.05
     Davidson diagonalization with overlap
     ethr =  8.32E-11,  avg # of iterations =  7.2

     negative rho (up, down):  1.505E-02 0.000E+00
 
     Adding external electric field

     Computed dipole along edir(3) : 
        Dipole                1.1610 Ry au,          2.9511 Debye
        Dipole field          0.0022 Ry au, 
 
        Potential amp.       -0.2031 Ry
        Total length         46.3494 bohr
 

     total cpu time spent up to now is     1138.4 secs

     total energy              =   -2975.23024429 Ry
     estimated scf accuracy    <       0.00000032 Ry

     iteration # 70     ecut=    29.40 Ry     beta= 0.05
     Davidson diagonalization with overlap
     ethr =  7.94E-11,  avg # of iterations =  7.4

     negative rho (up, down):  1.503E-02 0.000E+00
 
     Adding external electric field

     Computed dipole along edir(3) : 
        Dipole                1.1609 Ry au,          2.9507 Debye
        Dipole field          0.0022 Ry au, 
 
        Potential amp.       -0.2031 Ry
        Total length         46.3494 bohr
 

     total cpu time spent up to now is     1152.3 secs

     total energy              =   -2975.23024781 Ry
     estimated scf accuracy    <       0.00000020 Ry

     iteration # 71     ecut=    29.40 Ry     beta= 0.05
     Davidson diagonalization with overlap
     ethr =  4.86E-11,  avg # of iterations =  5.6

     negative rho (up, down):  1.504E-02 0.000E+00
 
     Adding external electric field

     Computed dipole along edir(3) : 
        Dipole                1.1610 Ry au,          2.9511 Debye
        Dipole field          0.0022 Ry au, 
 
        Potential amp.       -0.2031 Ry
        Total length         46.3494 bohr
 

     total cpu time spent up to now is     1164.6 secs

     total energy              =   -2975.23025098 Ry
     estimated scf accuracy    <       0.00000008 Ry

     iteration # 72     ecut=    29.40 Ry     beta= 0.05
     Davidson diagonalization with overlap
     ethr =  1.90E-11,  avg # of iterations =  7.9

     negative rho (up, down):  1.503E-02 0.000E+00
 
     Adding external electric field

     Computed dipole along edir(3) : 
        Dipole                1.1610 Ry au,          2.9510 Debye
        Dipole field          0.0022 Ry au, 
 
        Potential amp.       -0.2031 Ry
        Total length         46.3494 bohr
 

     total cpu time spent up to now is     1181.1 secs

     total energy              =   -2975.23025382 Ry
     estimated scf accuracy    <       0.00000010 Ry

     iteration # 73     ecut=    29.40 Ry     beta= 0.05
     Davidson diagonalization with overlap
     ethr =  1.90E-11,  avg # of iterations =  6.1

     negative rho (up, down):  1.507E-02 0.000E+00
 
     Adding external electric field

     Computed dipole along edir(3) : 
        Dipole                1.1600 Ry au,          2.9485 Debye
        Dipole field          0.0022 Ry au, 
 
        Potential amp.       -0.2029 Ry
        Total length         46.3494 bohr
 

     total cpu time spent up to now is     1193.5 secs

     End of self-consistent calculation

          k = 0.0000 0.0000 0.0000 ( 18029 PWs)   bands (ev):

   -55.5056 -55.4716 -55.3325 -55.2960 -55.2626 -55.2289 -55.2024 -55.1987
   -55.1878 -55.1648 -55.1535 -55.0142 -54.5527 -54.4360 -54.4020 -54.3889
   -31.9786 -31.8678 -31.7999 -31.7848 -31.7216 -31.7124 -31.6769 -31.6589
   -31.6215 -31.6043 -31.6010 -31.5738 -31.5645 -31.5201 -31.5118 -31.5007
   -31.4821 -31.4801 -31.4556 -31.4385 -31.4252 -31.4169 -31.4140 -31.3959
   -31.3927 -31.3849 -31.3753 -31.3681 -31.3658 -31.3636 -31.3416 -31.3301
   -31.3175 -31.3003 -31.2064 -31.1792 -31.0465 -30.8410 -30.7769 -30.7627
   -30.7579 -30.7351 -30.7239 -30.6580 -30.5993 -30.5718 -30.5685 -30.4607
   -18.7911 -17.7491 -16.0739 -15.8820 -15.6097 -15.4860 -15.4590 -15.2752
   -15.1988 -15.1476 -15.0154 -14.9681 -14.9389 -14.9085 -14.8963 -14.8390
   -14.8114 -14.7845 -14.7547 -14.7505 -14.7310 -14.7085 -14.6676 -14.6103
   -14.5849 -14.5236 -14.4736 -14.4520 -14.3585 -14.3539 -13.9284 -12.9374
   -12.8219 -11.9020  -8.8053  -6.5599  -5.6083  -4.3228  -4.0891  -3.4587
    -3.3832  -3.3242  -3.2082  -3.1292  -2.9900  -2.9507  -2.8818  -2.7767
    -2.6052  -2.5471  -2.5211  -2.4922  -2.4077  -2.2744  -2.2629  -2.2149
    -2.1871  -2.1665  -2.1518  -2.1359  -2.0401  -2.0017  -1.9647  -1.8540
    -1.8184  -1.7957  -1.7785  -1.7701  -1.7531  -1.6891  -1.6572  -1.6386
    -1.6285  -1.5915  -1.5567  -1.5457  -1.4159  -1.3975  -1.2802  -1.1517
    -1.1294  -1.0712  -1.0472  -0.8882  -0.8818  -0.8604  -0.8194  -0.8121
    -0.7399  -0.6671  -0.6244  -0.5505  -0.4318  -0.4226  -0.3876  -0.2412
    -0.2381  -0.2150  -0.1768  -0.1656  -0.1141  -0.1057  -0.0591   0.0024
     0.0963   0.1672   0.2728   0.2755   0.3285   0.3678   0.3808   0.4383
     0.4548   0.5046   0.5162   0.5239   0.5759   0.6108   0.6235   0.6814
     0.7326   0.8496   0.9190   0.9440   0.9907   1.1126   1.1877   1.2357
     1.2407   1.4089   1.5314   1.5612   1.5864   1.7866   1.8182   2.1532
     2.1970   3.6684   3.6852   3.7750   3.8340   3.9481   4.0199   4.1083
     4.1879   4.2576   4.3503   4.3935

          k = 0.0000 0.0419 0.0000 ( 17933 PWs)   bands (ev):

   -55.5005 -55.4765 -55.3274 -55.3010 -55.2576 -55.2338 -55.1978 -55.1978
   -55.1829 -55.1692 -55.1582 -55.0150 -54.5519 -54.4309 -54.4069 -54.3896
   -31.9247 -31.8109 -31.7953 -31.7793 -31.6789 -31.6575 -31.6569 -31.6452
   -31.6235 -31.6080 -31.5783 -31.5630 -31.5561 -31.5321 -31.5178 -31.5103
   -31.5078 -31.4722 -31.4691 -31.4499 -31.4260 -31.4201 -31.4138 -31.4094
   -31.4048 -31.3940 -31.3877 -31.3759 -31.3713 -31.3705 -31.3593 -31.3561
   -31.3467 -31.3297 -31.2323 -31.2114 -31.0088 -30.7870 -30.7763 -30.7619
   -30.7544 -30.7410 -30.7382 -30.6455 -30.6008 -30.5908 -30.5843 -30.5178
   -18.7908 -17.7462 -15.9381 -15.7613 -15.5002 -15.3756 -15.3610 -15.2511
   -15.2069 -15.1599 -15.1155 -14.9841 -14.9559 -14.9030 -14.8786 -14.8560
   -14.8460 -14.8200 -14.7888 -14.7820 -14.7509 -14.6991 -14.6694 -14.6589
   -14.5795 -14.5781 -14.5104 -14.4799 -14.4135 -14.3793 -13.9872 -12.9420
   -12.8617 -11.9028  -8.8098  -6.5595  -5.6049  -4.2976  -4.0880  -3.2668
    -3.2057  -3.1595  -3.0623  -3.0331  -2.8978  -2.8275  -2.7936  -2.6416
    -2.5261  -2.4809  -2.4590  -2.4273  -2.3879  -2.3540  -2.3182  -2.2898
    -2.2484  -2.1925  -2.1868  -2.1437  -2.1215  -2.0952  -2.0506  -2.0090
    -1.9978  -1.9627  -1.9005  -1.8908  -1.8807  -1.8243  -1.7902  -1.6852
    -1.6566  -1.6334  -1.5079  -1.4764  -1.3426  -1.3261  -1.1449  -1.1246
    -1.0692  -1.0339  -0.9492  -0.8899  -0.8042  -0.7204  -0.6749  -0.6287
    -0.6052  -0.5393  -0.5177  -0.4381  -0.4241  -0.3339  -0.3179  -0.2907
    -0.2414  -0.2228  -0.2120  -0.1591  -0.1455  -0.0728  -0.0478   0.0045
     0.0588   0.1083   0.1431   0.1914   0.2395   0.2686   0.3588   0.3874
     0.3984   0.4492   0.4683   0.4817   0.5256   0.5617   0.6017   0.6571
     0.7440   0.7915   0.8209   0.8372   0.9108   0.9516   0.9753   1.0641
     1.1950   1.2128   1.3593   1.4115   1.6919   1.7805   1.8714   2.1066
     2.1110   3.5619   3.8784   3.9320   4.0160   4.0559   4.1103   4.1754
     4.2263   4.2418   4.3018   4.3465

          k = 0.0000-0.0839 0.0000 ( 17884 PWs)   bands (ev):

   -55.4887 -55.4883 -55.3180 -55.3103 -55.2458 -55.2455 -55.1970 -55.1908
   -55.1762 -55.1738 -55.1673 -55.0158 -54.5511 -54.4189 -54.4188 -54.3903
   -31.7927 -31.7926 -31.7850 -31.7850 -31.6804 -31.6630 -31.6120 -31.6115
   -31.5695 -31.5651 -31.5570 -31.5541 -31.5415 -31.5308 -31.5276 -31.5137
   -31.4940 -31.4879 -31.4798 -31.4790 -31.4771 -31.4707 -31.4388 -31.4368
   -31.4146 -31.4018 -31.3974 -31.3949 -31.3884 -31.3831 -31.3612 -31.3566
   -31.3559 -31.3317 -31.3143 -31.2170 -30.9563 -30.8005 -30.7637 -30.7461
   -30.7460 -30.7453 -30.6542 -30.6541 -30.6180 -30.6149 -30.6149 -30.5981
   -18.7905 -17.7434 -15.6066 -15.5828 -15.4839 -15.4415 -15.2617 -15.2373
   -15.1563 -15.1398 -15.1098 -15.0912 -15.0452 -14.9832 -14.9180 -14.9149
   -14.8128 -14.8124 -14.8065 -14.8034 -14.7305 -14.7009 -14.6544 -14.6395
   -14.6133 -14.5997 -14.5910 -14.5173 -14.4438 -14.4309 -14.0587 -12.9244
   -12.9243 -11.9038  -8.8144  -6.5590  -5.6014  -4.2741  -4.0866  -2.9972
    -2.8936  -2.8061  -2.7734  -2.7725  -2.7663  -2.7663  -2.7532  -2.7232
    -2.6421  -2.4858  -2.4826  -2.4716  -2.4613  -2.4369  -2.4018  -2.3944
    -2.3839  -2.3717  -2.3443  -2.2291  -2.2019  -2.1391  -2.1090  -2.0828
    -2.0363  -1.9757  -1.9417  -1.9323  -1.8726  -1.7661  -1.7526  -1.7139
    -1.5880  -1.4607  -1.3775  -1.2936  -1.2696  -1.2455  -1.1348  -1.0988
    -1.0337  -0.9729  -0.9386  -0.8895  -0.8555  -0.8334  -0.8078  -0.7774
    -0.7051  -0.6393  -0.5255  -0.4950  -0.4814  -0.3911  -0.2817  -0.2591
    -0.1946  -0.0910  -0.0578  -0.0304  -0.0259  -0.0136   0.0794   0.0934
     0.1226   0.1570   0.1849   0.1889   0.2447   0.2888   0.2935   0.2975
     0.3192   0.3697   0.3875   0.4131   0.4257   0.4821   0.4929   0.5130
     0.5191   0.6406   0.6629   0.7633   0.8164   0.8302   0.8699   0.8960
     1.2233   1.3000   1.3289   1.3523   1.4442   1.9242   1.9252   2.0449
     2.0458   3.4335   4.0859   4.0911   4.1681   4.1851   4.2020   4.2192
     4.2615   4.2683   4.3183   4.3329

          k = 0.0380 0.0000 0.0000 ( 17913 PWs)   bands (ev):

   -55.5055 -55.4715 -55.3324 -55.2959 -55.2624 -55.2288 -55.2023 -55.1986
   -55.1878 -55.1647 -55.1534 -55.0141 -54.5526 -54.4359 -54.4019 -54.3888
   -31.9794 -31.8680 -31.7997 -31.7848 -31.7217 -31.7182 -31.6821 -31.6562
   -31.6212 -31.6052 -31.6007 -31.5643 -31.5575 -31.5113 -31.5006 -31.4942
   -31.4817 -31.4800 -31.4551 -31.4333 -31.4313 -31.4232 -31.4140 -31.3960
   -31.3952 -31.3925 -31.3848 -31.3675 -31.3652 -31.3635 -31.3416 -31.3299
   -31.3175 -31.3002 -31.2055 -31.1790 -31.0456 -30.8406 -30.7770 -30.7638
   -30.7610 -30.7332 -30.7238 -30.6578 -30.5993 -30.5717 -30.5683 -30.4605
   -18.7908 -17.7489 -15.9914 -15.7974 -15.5124 -15.4898 -15.3996 -15.2946
   -15.2243 -15.1723 -15.1451 -15.0522 -15.0143 -14.9813 -14.9637 -14.8720
   -14.8169 -14.7705 -14.7464 -14.7252 -14.6664 -14.6163 -14.6056 -14.5909
   -14.5733 -14.5602 -14.5562 -14.4619 -14.3827 -14.3523 -13.9257 -12.9343
   -12.8216 -11.9013  -8.8044  -6.5538  -5.6059  -4.3084  -4.1045  -3.3500
    -3.1180  -3.0961  -3.0580  -3.0137  -2.9319  -2.9262  -2.8051  -2.7988
    -2.7564  -2.6405  -2.6108  -2.5309  -2.4657  -2.3727  -2.3548  -2.1725
    -2.1650  -2.1368  -2.0874  -2.0217  -2.0031  -1.9901  -1.9295  -1.8608
    -1.8484  -1.8161  -1.7563  -1.7359  -1.7320  -1.6839  -1.6181  -1.5751
    -1.5291  -1.5105  -1.3873  -1.3497  -1.2881  -1.2585  -1.2251  -1.2134
    -1.1281  -1.0693  -1.0414  -0.9256  -0.9118  -0.9025  -0.8492  -0.8101
    -0.7450  -0.6884  -0.6600  -0.6499  -0.6196  -0.5917  -0.4620  -0.3990
    -0.2882  -0.2740  -0.1562  -0.1398  -0.1024  -0.0922  -0.0571  -0.0068
     0.0431   0.1904   0.2391   0.2474   0.2606   0.2993   0.3177   0.3569
     0.4105   0.4163   0.4429   0.4803   0.5264   0.5451   0.5765   0.6375
     0.7335   0.7553   0.8056   0.9109   0.9724   1.0352   1.0467   1.0894
     1.2571   1.3084   1.5372   1.5572   1.5982   1.6838   1.7570   2.0426
     2.1141   3.5893   3.7327   3.7495   4.0335   4.1077   4.1337   4.1486
     4.1911   4.2371   4.3146   4.3430

          k = 0.0380 0.0419 0.0000 ( 17878 PWs)   bands (ev):

   -55.5004 -55.4765 -55.3273 -55.3010 -55.2575 -55.2337 -55.1978 -55.1977
   -55.1829 -55.1692 -55.1582 -55.0149 -54.5518 -54.4308 -54.4068 -54.3895
   -31.9255 -31.8110 -31.7951 -31.7794 -31.6792 -31.6639 -31.6577 -31.6428
   -31.6296 -31.6077 -31.5780 -31.5570 -31.5501 -31.5319 -31.5173 -31.5007
   -31.4917 -31.4721 -31.4689 -31.4390 -31.4283 -31.4255 -31.4185 -31.4094
   -31.4048 -31.3940 -31.3901 -31.3878 -31.3761 -31.3722 -31.3589 -31.3532
   -31.3503 -31.3297 -31.2326 -31.2101 -31.0082 -30.7866 -30.7766 -30.7627
   -30.7568 -30.7410 -30.7372 -30.6453 -30.6010 -30.5908 -30.5844 -30.5176
   -18.7905 -17.7460 -15.8619 -15.6844 -15.4106 -15.3849 -15.2955 -15.2512
   -15.2188 -15.1697 -15.1439 -15.1231 -14.9755 -14.9453 -14.9296 -14.8633
   -14.8463 -14.8142 -14.7805 -14.7467 -14.7257 -14.7133 -14.6528 -14.6446
   -14.6383 -14.6115 -14.5548 -14.4948 -14.4149 -14.3804 -13.9849 -12.9398
   -12.8619 -11.9024  -8.8095  -6.5534  -5.6027  -4.2902  -4.1016  -3.1757
    -2.9877  -2.9421  -2.9246  -2.8965  -2.8744  -2.7730  -2.6575  -2.6407
    -2.6073  -2.5148  -2.4266  -2.4088  -2.3392  -2.3191  -2.3073  -2.2277
    -2.2050  -2.1778  -2.1545  -2.1323  -2.1000  -2.0885  -2.0569  -2.0491
    -2.0093  -1.9615  -1.8930  -1.8667  -1.8351  -1.7569  -1.6962  -1.6424
    -1.6082  -1.5520  -1.4457  -1.4207  -1.3468  -1.2554  -1.1737  -1.1428
    -1.0585  -1.0009  -0.9318  -0.8814  -0.8298  -0.7911  -0.7371  -0.6993
    -0.6404  -0.6170  -0.5906  -0.5555  -0.5259  -0.4748  -0.4170  -0.3609
    -0.3552  -0.2809  -0.2347  -0.1868  -0.1799  -0.1430  -0.1219  -0.0620
    -0.0333  -0.0047   0.0517   0.0897   0.1162   0.1901   0.2096   0.2727
     0.3168   0.3312   0.3602   0.3885   0.4656   0.5635   0.5933   0.6869
     0.7275   0.7903   0.8385   0.9082   0.9615   0.9716   0.9844   1.0648
     1.1195   1.1705   1.3195   1.4411   1.6209   1.7914   1.8770   2.0293
     2.0900   3.5504   3.8664   3.9457   4.1415   4.1531   4.1691   4.2178
     4.2390   4.2719   4.3068   4.3296

          k = 0.0380-0.0839 0.0000 ( 17916 PWs)   bands (ev):

   -55.4887 -55.4883 -55.3180 -55.3103 -55.2458 -55.2455 -55.1970 -55.1908
   -55.1762 -55.1738 -55.1673 -55.0158 -54.5511 -54.4189 -54.4188 -54.3903
   -31.7934 -31.7933 -31.7851 -31.7850 -31.6806 -31.6634 -31.6109 -31.6104
   -31.5698 -31.5653 -31.5578 -31.5552 -31.5545 -31.5431 -31.5094 -31.5057
   -31.5045 -31.4944 -31.4798 -31.4711 -31.4529 -31.4502 -31.4388 -31.4367
   -31.4136 -31.4051 -31.4019 -31.3950 -31.3905 -31.3885 -31.3719 -31.3671
   -31.3559 -31.3317 -31.3152 -31.2155 -30.9562 -30.8004 -30.7647 -30.7470
   -30.7469 -30.7454 -30.6541 -30.6540 -30.6181 -30.6149 -30.6149 -30.5988
   -18.7903 -17.7433 -15.5581 -15.5256 -15.4353 -15.3928 -15.2134 -15.1877
   -15.1703 -15.1684 -15.0816 -15.0437 -15.0167 -14.9991 -14.9291 -14.9150
   -14.8699 -14.8673 -14.7963 -14.7925 -14.7901 -14.7659 -14.7047 -14.6944
   -14.6770 -14.6248 -14.5812 -14.5537 -14.4343 -14.4169 -14.0554 -12.9242
   -12.9241 -11.9035  -8.8150  -6.5514  -5.6008  -4.2733  -4.0982  -2.9723
    -2.8917  -2.7887  -2.6755  -2.5976  -2.5915  -2.5604  -2.5582  -2.5371
    -2.5254  -2.4845  -2.4705  -2.3761  -2.3564  -2.3339  -2.3103  -2.2863
    -2.2536  -2.2462  -2.2175  -2.2021  -2.1795  -2.1045  -2.0985  -2.0781
    -2.0452  -2.0081  -1.9868  -1.9131  -1.8583  -1.8326  -1.7072  -1.5123
    -1.4664  -1.4453  -1.3502  -1.3065  -1.2712  -1.2494  -1.2332  -1.2056
    -1.1552  -1.1070  -1.0921  -1.0455  -1.0315  -1.0152  -0.9576  -0.8596
    -0.7850  -0.7595  -0.5924  -0.4800  -0.4170  -0.3928  -0.3683  -0.3200
    -0.2812  -0.2024  -0.1791  -0.1612  -0.1484  -0.1313  -0.0965  -0.0756
    -0.0448  -0.0249  -0.0127   0.0399   0.0527   0.1028   0.1215   0.1623
     0.2237   0.2742   0.3009   0.3936   0.4180   0.5457   0.5931   0.6704
     0.6757   0.7206   0.7540   0.8006   0.8784   0.9128   0.9769   1.0046
     1.1786   1.2434   1.3370   1.3527   1.4544   1.9372   1.9381   2.0328
     2.0336   3.4826   4.0847   4.0877   4.1339   4.1539   4.2356   4.2547
     4.2917   4.2952   4.3728   4.3873

          k = 0.0380-0.0419 0.0000 ( 17876 PWs)   bands (ev):

   -55.5004 -55.4765 -55.3273 -55.3010 -55.2575 -55.2337 -55.1978 -55.1977
   -55.1829 -55.1692 -55.1582 -55.0149 -54.5518 -54.4308 -54.4068 -54.3895
   -31.9255 -31.8110 -31.7951 -31.7794 -31.6792 -31.6639 -31.6576 -31.6428
   -31.6296 -31.6077 -31.5779 -31.5569 -31.5502 -31.5321 -31.5170 -31.5007
   -31.4916 -31.4721 -31.4689 -31.4389 -31.4283 -31.4256 -31.4185 -31.4094
   -31.4048 -31.3940 -31.3903 -31.3878 -31.3764 -31.3719 -31.3590 -31.3531
   -31.3503 -31.3296 -31.2325 -31.2103 -31.0082 -30.7866 -30.7761 -30.7631
   -30.7568 -30.7411 -30.7372 -30.6453 -30.6011 -30.5907 -30.5844 -30.5176
   -18.7905 -17.7460 -15.8621 -15.6843 -15.4098 -15.3860 -15.2959 -15.2513
   -15.2185 -15.1690 -15.1428 -15.1234 -14.9760 -14.9447 -14.9296 -14.8648
   -14.8454 -14.8134 -14.7826 -14.7482 -14.7236 -14.7136 -14.6532 -14.6442
   -14.6380 -14.6112 -14.5542 -14.4955 -14.4146 -14.3804 -13.9852 -12.9398
   -12.8619 -11.9023  -8.8098  -6.5518  -5.6040  -4.2896  -4.1013  -3.1754
    -2.9863  -2.9409  -2.9243  -2.8976  -2.8788  -2.7722  -2.6620  -2.6481
    -2.5943  -2.5102  -2.4247  -2.4057  -2.3395  -2.3268  -2.3049  -2.2344
    -2.2073  -2.1634  -2.1538  -2.1331  -2.1057  -2.0895  -2.0563  -2.0456
    -2.0146  -1.9604  -1.8879  -1.8656  -1.8242  -1.7770  -1.7106  -1.6513
    -1.6106  -1.5541  -1.4443  -1.4235  -1.3441  -1.2776  -1.1533  -1.1333
    -1.0498  -0.9856  -0.9307  -0.8717  -0.8286  -0.7973  -0.7231  -0.7146
    -0.6496  -0.6210  -0.5892  -0.5534  -0.5224  -0.4548  -0.4183  -0.3638
    -0.3442  -0.2902  -0.2263  -0.1838  -0.1792  -0.1394  -0.1073  -0.0533
    -0.0351  -0.0118   0.0366   0.0778   0.1100   0.1879   0.2019   0.2507
     0.3197   0.3413   0.3656   0.3890   0.4550   0.5645   0.6012   0.6639
     0.7226   0.7871   0.8463   0.9093   0.9548   0.9744   0.9969   1.0708
     1.1165   1.1696   1.3144   1.4536   1.6191   1.7915   1.8773   2.0291
     2.0907   3.5387   3.8661   3.9459   4.1441   4.1576   4.1689   4.2210
     4.2409   4.2638   4.3142   4.3321

          k =-0.0760-0.0000 0.0000 ( 17886 PWs)   bands (ev):

   -55.5054 -55.4715 -55.3323 -55.2959 -55.2623 -55.2288 -55.2023 -55.1986
   -55.1878 -55.1647 -55.1534 -55.0141 -54.5526 -54.4358 -54.4018 -54.3888
   -31.9803 -31.8681 -31.7995 -31.7848 -31.7236 -31.7220 -31.6871 -31.6535
   -31.6210 -31.6062 -31.6007 -31.5646 -31.5350 -31.5111 -31.4883 -31.4811
   -31.4802 -31.4660 -31.4563 -31.4547 -31.4311 -31.4250 -31.4214 -31.4137
   -31.3958 -31.3924 -31.3848 -31.3671 -31.3652 -31.3634 -31.3422 -31.3298
   -31.3176 -31.3004 -31.2051 -31.1790 -31.0449 -30.8402 -30.7772 -30.7650
   -30.7641 -30.7319 -30.7238 -30.6577 -30.5996 -30.5716 -30.5683 -30.4605
   -18.7905 -17.7487 -15.8700 -15.7148 -15.4744 -15.4585 -15.2867 -15.2823
   -15.2554 -15.2437 -15.1424 -15.1319 -15.1009 -15.0963 -14.9605 -14.9380
   -14.8709 -14.8047 -14.7519 -14.7060 -14.6837 -14.6719 -14.6363 -14.5930
   -14.5274 -14.4972 -14.4857 -14.4743 -14.3941 -14.3523 -13.9237 -12.9313
   -12.8213 -11.9006  -8.8036  -6.5477  -5.6035  -4.2958  -4.1189  -3.3237
    -3.0538  -2.9441  -2.9326  -2.9243  -2.7902  -2.7455  -2.7382  -2.7358
    -2.7112  -2.6244  -2.6228  -2.6136  -2.4934  -2.3702  -2.2192  -2.1798
    -2.1123  -2.0015  -1.9982  -1.9923  -1.9722  -1.9665  -1.9234  -1.8373
    -1.7884  -1.7738  -1.7309  -1.7148  -1.7089  -1.6912  -1.6378  -1.6053
    -1.5661  -1.5266  -1.4449  -1.3995  -1.3484  -1.2213  -1.0841  -1.0600
    -1.0437  -1.0259  -1.0228  -0.9881  -0.9806  -0.9434  -0.9342  -0.8642
    -0.7926  -0.7344  -0.7228  -0.6961  -0.5803  -0.5629  -0.5299  -0.5144
    -0.4705  -0.4561  -0.3112  -0.2643  -0.0849  -0.0606  -0.0403  -0.0073
     0.0014   0.0469   0.0823   0.1603   0.1823   0.1965   0.2555   0.2753
     0.3495   0.3802   0.3873   0.4139   0.4614   0.5190   0.6454   0.6635
     0.7038   0.7488   0.8256   0.8866   0.9591   0.9967   1.1049   1.1465
     1.2347   1.2686   1.4160   1.5489   1.5546   1.6192   1.7330   1.9143
     2.0577   3.5202   3.7371   3.7438   3.9358   3.9823   4.0808   4.1075
     4.1985   4.2041   4.2916   4.3708

          k =-0.0760 0.0419 0.0000 ( 17914 PWs)   bands (ev):

   -55.5005 -55.4765 -55.3272 -55.3010 -55.2574 -55.2337 -55.1978 -55.1978
   -55.1830 -55.1692 -55.1582 -55.0149 -54.5518 -54.4309 -54.4069 -54.3896
   -31.9265 -31.8114 -31.7951 -31.7794 -31.6795 -31.6705 -31.6579 -31.6408
   -31.6355 -31.6077 -31.5779 -31.5580 -31.5348 -31.5309 -31.5171 -31.4913
   -31.4723 -31.4688 -31.4660 -31.4456 -31.4303 -31.4279 -31.4172 -31.4139
   -31.4090 -31.4044 -31.3940 -31.3879 -31.3781 -31.3724 -31.3589 -31.3551
   -31.3523 -31.3297 -31.2330 -31.2093 -31.0078 -30.7864 -30.7766 -30.7641
   -30.7595 -30.7411 -30.7365 -30.6453 -30.6015 -30.5908 -30.5844 -30.5177
   -18.7903 -17.7459 -15.7517 -15.6051 -15.3787 -15.3574 -15.2360 -15.2004
   -15.1948 -15.1868 -15.1788 -15.1687 -15.0508 -15.0296 -14.9720 -14.9053
   -14.8345 -14.8199 -14.7836 -14.7481 -14.7426 -14.7364 -14.7275 -14.7205
   -14.6065 -14.5777 -14.5333 -14.5063 -14.4139 -14.3825 -13.9835 -12.9377
   -12.8623 -11.9019  -8.8096  -6.5458  -5.6020  -4.2836  -4.1140  -3.1564
    -2.9508  -2.8981  -2.8688  -2.6729  -2.6080  -2.5477  -2.5146  -2.4892
    -2.4590  -2.4492  -2.4251  -2.3986  -2.3686  -2.3145  -2.2537  -2.2419
    -2.2103  -2.1890  -2.1362  -2.1228  -2.0794  -2.0575  -2.0323  -1.9985
    -1.9754  -1.9464  -1.8888  -1.8703  -1.7628  -1.7183  -1.6641  -1.5581
    -1.5087  -1.4929  -1.4056  -1.3490  -1.3017  -1.2615  -1.2120  -1.1136
    -1.0637  -1.0090  -0.9769  -0.9236  -0.9127  -0.8290  -0.7654  -0.7546
    -0.7114  -0.6985  -0.6843  -0.6739  -0.6141  -0.5944  -0.5382  -0.5199
    -0.5050  -0.4592  -0.3799  -0.3348  -0.3214  -0.2476  -0.1937  -0.1565
    -0.1290  -0.1261  -0.0862  -0.0048   0.0275   0.0568   0.0965   0.1472
     0.2401   0.3023   0.3206   0.3442   0.3914   0.5412   0.6411   0.7398
     0.8047   0.8649   0.9237   0.9569   0.9928   1.0304   1.0933   1.1178
     1.1307   1.1932   1.2267   1.4485   1.4760   1.8057   1.8814   1.9538
     2.0791   3.5439   3.8481   3.9448   4.0230   4.0705   4.0992   4.1751
     4.1844   4.3634   4.3840   4.4358

          k =-0.0760-0.0839 0.0000 ( 17948 PWs)   bands (ev):

   -55.4887 -55.4883 -55.3180 -55.3103 -55.2457 -55.2455 -55.1970 -55.1909
   -55.1762 -55.1739 -55.1674 -55.0158 -54.5511 -54.4190 -54.4188 -54.3904
   -31.7941 -31.7941 -31.7851 -31.7851 -31.6809 -31.6637 -31.6098 -31.6092
   -31.5702 -31.5656 -31.5623 -31.5577 -31.5551 -31.5492 -31.5169 -31.5119
   -31.4899 -31.4807 -31.4783 -31.4709 -31.4388 -31.4366 -31.4286 -31.4260
   -31.4151 -31.4126 -31.4020 -31.3994 -31.3952 -31.3893 -31.3884 -31.3834
   -31.3559 -31.3317 -31.3162 -31.2141 -30.9560 -30.8003 -30.7658 -30.7479
   -30.7478 -30.7455 -30.6541 -30.6540 -30.6181 -30.6150 -30.6150 -30.5994
   -18.7901 -17.7432 -15.4971 -15.4310 -15.3606 -15.3567 -15.2518 -15.1988
   -15.1040 -15.0932 -15.0860 -15.0830 -14.9826 -14.9793 -14.9131 -14.9042
   -14.8649 -14.8583 -14.8545 -14.8377 -14.8226 -14.8179 -14.8025 -14.7565
   -14.7392 -14.7334 -14.5697 -14.5444 -14.4291 -14.4105 -14.0525 -12.9240
   -12.9239 -11.9033  -8.8157  -6.5438  -5.6003  -4.2726  -4.1096  -2.9313
    -2.9157  -2.7884  -2.6612  -2.5288  -2.5165  -2.4954  -2.4590  -2.2927
    -2.2801  -2.2647  -2.2552  -2.2135  -2.2022  -2.1832  -2.1689  -2.1150
    -2.0976  -2.0792  -2.0745  -2.0634  -2.0572  -2.0474  -2.0382  -2.0302
    -2.0064  -1.9591  -1.9377  -1.8558  -1.7711  -1.7602  -1.6835  -1.5546
    -1.5479  -1.5363  -1.5348  -1.5223  -1.5125  -1.4710  -1.4346  -1.3810
    -1.2699  -1.1524  -1.1019  -1.0837  -1.0289  -1.0099  -0.9214  -0.8408
    -0.8061  -0.7878  -0.7022  -0.6538  -0.5745  -0.5589  -0.5223  -0.4716
    -0.4475  -0.4335  -0.4177  -0.4096  -0.3457  -0.3020  -0.2345  -0.2204
    -0.1649  -0.1339  -0.1061  -0.0818  -0.0409   0.0517   0.0597   0.0879
     0.1149   0.1299   0.2046   0.3554   0.3957   0.6348   0.6440   0.7157
     0.8443   0.8666   0.8737   0.9503   0.9639   1.0014   1.0221   1.1425
     1.1654   1.1904   1.3182   1.3535   1.4458   1.9562   1.9571   2.0160
     2.0165   3.5313   4.1328   4.1428   4.1598   4.1733   4.1987   4.2053
     4.2477   4.2610   4.3945   4.4204

     the Fermi energy is     3.6444 ev

!    total energy              =   -2975.23027974 Ry
     estimated scf accuracy    <       0.00000004 Ry
     smearing contrib. (-TS)   =      -0.02107526 Ry
     internal energy E=F+TS    =   -2975.20920448 Ry

     The total energy is F=E-TS. E is the sum of the following terms:
     one-electron contribution =  -23878.65148060 Ry
     hartree contribution      =   12036.74079196 Ry
     xc contribution           =    -494.92713711 Ry
     ewald contribution        =    9361.62608181 Ry
     electric field correction =       0.00253946 Ry

     convergence has been achieved in  73 iterations

     Forces acting on atoms (cartesian axes, Ry/au):

     atom    1 type  1   force =     0.00016637   -0.00022683    0.09946223
     atom    2 type  1   force =    -0.00014557   -0.00038442   -0.17310148
     atom    3 type  2   force =    -0.00007076   -0.00000564   -0.02912973
     atom    4 type  2   force =     0.00003765   -0.00102631    0.04892561
     atom    5 type  2   force =    -0.01224067    0.00099096    0.00048849
     atom    6 type  2   force =     0.01354444    0.00186306   -0.00110633
     atom    7 type  1   force =    -0.00136077   -0.00052707   -0.00297625
     atom    8 type  1   force =     0.00094328   -0.00608616    0.04543805
     atom    9 type  2   force =    -0.00000198   -0.00023407   -0.00002534
     atom   10 type  2   force =    -0.00155774    0.00261691   -0.03094647
     atom   11 type  2   force =    -0.00017773   -0.00045323    0.00004184
     atom   12 type  2   force =     0.00009062   -0.00023823    0.00014860
     atom   13 type  1   force =    -0.00019249   -0.00054371   -0.00033115
     atom   14 type  1   force =     0.00031259   -0.00017516    0.00024616
     atom   15 type  2   force =    -0.00001138   -0.00012677   -0.00027839
     atom   16 type  2   force =    -0.00021873    0.00004858    0.00013414
     atom   17 type  2   force =     0.00014687   -0.00040303    0.00033284
     atom   18 type  2   force =    -0.00008050   -0.00022854   -0.00018325
     atom   19 type  1   force =    -0.00011420   -0.00016263    0.00032885
     atom   20 type  1   force =     0.00008648   -0.00054164    0.00024484
     atom   21 type  2   force =     0.00008706   -0.00000708    0.10259060
     atom   22 type  2   force =    -0.00004714   -0.00023588   -0.00007535
     atom   23 type  2   force =    -0.07250233   -0.00009218   -0.02847206
     atom   24 type  2   force =     0.07246382    0.00034061   -0.02845357
     atom   25 type  1   force =     0.00009176   -0.00027700    0.09897938
     atom   26 type  1   force =    -0.00006274   -0.00041498   -0.17327683
     atom   27 type  2   force =    -0.00003359    0.00000348   -0.02843249
     atom   28 type  2   force =     0.00009430   -0.00076000    0.04809242
     atom   29 type  2   force =    -0.01260771    0.00062855    0.00052526
     atom   30 type  2   force =     0.01383963    0.00095736   -0.00104477
     atom   31 type  1   force =    -0.00146445    0.00226528   -0.00570537
     atom   32 type  1   force =     0.00112071    0.00383831    0.04593915
     atom   33 type  2   force =    -0.00006428   -0.00026228   -0.00010638
     atom   34 type  2   force =    -0.00096694    0.00133960   -0.03380220
     atom   35 type  2   force =    -0.00028415    0.00004472   -0.00024459
     atom   36 type  2   force =     0.00049486    0.00010138   -0.00003445
     atom   37 type  1   force =    -0.00032508    0.00008011    0.00025383
     atom   38 type  1   force =     0.00018134   -0.00029706    0.00004163
     atom   39 type  2   force =     0.00000058   -0.00050621    0.00038452
     atom   40 type  2   force =    -0.00003646    0.00017210   -0.00026445
     atom   41 type  2   force =    -0.00015051   -0.00010784    0.00023001
     atom   42 type  2   force =     0.00019457   -0.00031573   -0.00023359
     atom   43 type  1   force =    -0.00026406    0.00005211   -0.00017291
     atom   44 type  1   force =     0.00009409   -0.00020029   -0.00001647
     atom   45 type  2   force =     0.00009315   -0.00001336    0.10257718
     atom   46 type  2   force =    -0.07252492   -0.00000549   -0.02846615
     atom   47 type  2   force =     0.07247899    0.00037975   -0.02845841
     atom   48 type  3   force =    -0.00042043   -0.00041245   -0.00032146
     atom   49 type  3   force =     0.00014108   -0.00057932   -0.00023360
     atom   50 type  4   force =     0.00023416   -0.00038692    0.00009155
     atom   51 type  5   force =     0.00017385   -0.00012702    0.00021383
     atom   52 type  5   force =    -0.00011241    0.00024233    0.00022451
     atom   53 type  5   force =     0.00003437   -0.00008486    0.00014587
     atom   54 type  5   force =     0.00036245    0.00009434    0.00019419
     atom   55 type  2   force =     0.02614802    0.00112374   -0.00018097
     atom   56 type  5   force =    -0.01212339    0.00838697   -0.00222058
     atom   57 type  5   force =    -0.01349392   -0.00912086    0.00201945

     Total force =     0.373656     Total SCF correction =     0.000515
  @ DRIVER MODE: Message from server: STATUS
  @ DRIVER MODE: Message from server: GETFORCE
  @ DRIVER MODE: Returning v,forces,stress,ensemble 

     Writing output data file ./calc.save/
  @ DRIVER MODE: Message from server: EXIT
  @ DRIVE MODE: Exiting  
 
     init_run     :     10.94s CPU     11.15s WALL (       1 calls)
     electrons    :   1165.37s CPU   1182.12s WALL (       1 calls)
     forces       :      2.50s CPU      2.58s WALL (       1 calls)

     Called by init_run:
     wfcinit      :      4.91s CPU      4.96s WALL (       1 calls)
     potinit      :      5.37s CPU      5.44s WALL (       1 calls)
     hinit0       :      0.29s CPU      0.30s WALL (       1 calls)

     Called by electrons:
     c_bands      :    987.65s CPU    994.48s WALL (      73 calls)
     sum_band     :    120.71s CPU    124.66s WALL (      73 calls)
     v_of_rho     :     42.53s CPU     44.60s WALL (      74 calls)
     newd         :     17.43s CPU     21.34s WALL (      74 calls)
     mix_rho      :      1.60s CPU      1.64s WALL (      73 calls)
     vdW_kernel   :      4.54s CPU      4.56s WALL (       1 calls)

     Called by c_bands:
     init_us_2    :      8.26s CPU      8.29s WALL (    1480 calls)
     cegterg      :    966.50s CPU    973.07s WALL (     746 calls)

     Called by *egterg:
     cdiaghg      :    141.62s CPU    142.20s WALL (    6961 calls)
     h_psi        :    520.91s CPU    525.63s WALL (    6975 calls)
     s_psi        :     70.38s CPU     70.58s WALL (    6975 calls)
     g_psi        :      2.02s CPU      2.04s WALL (    6219 calls)

     Called by h_psi:
     h_psi:calbec :     66.56s CPU     66.86s WALL (    6975 calls)
     vloc_psi     :    378.95s CPU    382.70s WALL (    6975 calls)
     add_vuspsi   :     71.33s CPU     71.74s WALL (    6975 calls)

     General routines
     calbec       :     87.77s CPU     88.14s WALL (    7745 calls)
     fft          :     22.01s CPU     22.17s WALL (    4662 calls)
     ffts         :      0.14s CPU      0.14s WALL (     147 calls)
     fftw         :    424.82s CPU    429.00s WALL ( 1015346 calls)
     interpolate  :      0.47s CPU      0.47s WALL (      74 calls)
     davcio       :      0.01s CPU      0.26s WALL (      10 calls)
 
     Parallel routines
 
     PWSCF        :  19m39.09s CPU  19m56.76s WALL

 
   This run was terminated on:   5:48:49  16Sep2021            

=------------------------------------------------------------------------------=
   JOB DONE.
=------------------------------------------------------------------------------=
