
     Program PWSCF v.6.7GPU starts on 16Sep2021 at  4: 6:31 

     This program is part of the open-source Quantum ESPRESSO suite
     for quantum simulation of materials; please cite
         "P. Giannozzi et al., J. Phys.:Condens. Matter 21 395502 (2009);
         "P. Giannozzi et al., J. Phys.:Condens. Matter 29 465901 (2017);
         "P. Giannozzi et al., J. Chem. Phys. 152 154105 (2020);
          URL http://www.quantum-espresso.org", 
     in publications or presentations arising from this work. More details at
     http://www.quantum-espresso.org/quote

     Parallel version (MPI), running on    10 processors

     MPI processes distributed on     1 nodes
     R & G space division:  proc/nbgrp/npool/nimage =      10
     Reading input from /storage/home/hcoda1/3/ntian30/research/carbon/CxH_vib/H2O_calc/ads_slab/CH2N2H2O_b/out_0038/pw.inp
Warning: card &CELL ignored
Warning: card   CELL_DYNAMICS='IPI', ignored
Warning: card / ignored

     Current dimensions of program PWSCF are:
     Max number of different atomic species (ntypx) = 10
     Max number of k-points (npk) =  40000
     Max angular momentum in pseudopotentials (lmaxx) =  3
     Presently no symmetry can be used with electric field

     Message from routine cell_base_init:
     DEPRECATED: use true lattice parameter, not A to a.u. conversion factor

     **************************************************************************
     Initializing libbeef V0.1.2 with the BEEF-vdW functional.
     Citation: Wellendorff et al., PRB 85, 235149 (2012).
     **************************************************************************


     IMPORTANT: XC functional enforced from input :
     Exchange-correlation= BEEF-VDW
                           (   1   4  43  14   2   0   0)
     Any further DFT definition will be discarded
     Please, verify this is what you really want


     Subspace diagonalization in iterative solution of the eigenvalue problem:
     one sub-group per band group will be used
     scalapack distributed-memory algorithm (size of sub-group:  3*  3 procs)

  @ DRIVER MODE: Connecting to 
 qe_1139763_2852605.sched-torque.pace.gatech.eduy4wfuxk3_scratch
  using UNIX socket
  @ DRIVER MODE: Message from server: STATUS
  @ DRIVER MODE: Message from server: INIT
  @ DRIVER MODE: Receiving replica           0          -1
  @ DRIVER MODE: Receiving encoded integer          25
  @ DRIVER MODE:  SCF:  T  FORCE:  T  STRESS:  F  VC:  F  ENSEMBLE:  F
  @ DRIVER MODE:  SCF:  T  FORCE:  T  STRESS:  F  VC:  F  ENSEMBLE:  F
 
     Parallelization info
     --------------------
     sticks:   dense  smooth     PW     G-vecs:    dense   smooth      PW
     Min         327     131     37                56683    14340    2191
     Max         328     133     38                56694    14346    2206
     Sum        3275    1317    379               566857   143421   21985
 
     Using Slab Decomposition
 


     bravais-lattice index     =            0
     lattice parameter (alat)  =       1.8897  a.u.
     unit-cell volume          =    6658.9804 (a.u.)^3
     number of atoms/cell      =           55
     number of atomic types    =            5
     number of electrons       =       402.00
     number of Kohn-Sham states=          211
     kinetic-energy cutoff     =      29.3995  Ry
     charge density cutoff     =     293.9946  Ry
     scf convergence threshold =      7.3E-08
     mixing beta               =       0.0500
     number of iterations used =            8  plain     mixing
     Exchange-correlation= BEEF-VDW
                           (   1   4  43  14   2   0   0)

     celldm(1)=   1.889726  celldm(2)=   0.000000  celldm(3)=   0.000000
     celldm(4)=   0.000000  celldm(5)=   0.000000  celldm(6)=   0.000000

     crystal axes: (cart. coord. in units of alat)
               a(1) = (   6.579727   0.000000   0.000000 )  
               a(2) = (  -0.000775   5.961596   0.000000 )  
               a(3) = (   0.000000   0.000000  25.155947 )  

     reciprocal axes: (cart. coord. in units 2 pi/alat)
               b(1) = (  0.151982  0.000020  0.000000 )  
               b(2) = (  0.000000  0.167740  0.000000 )  
               b(3) = (  0.000000  0.000000  0.039752 )  


     PseudoPot. # 1 for Ti read from file:
     /storage/coda1/p-amedford6/0/shared/rich_project_chbe-medford/medford-share/data/pseudos_module/espresso/nninc/pbe/van/Ti.UPF
     MD5 check sum: 8e4df49b7f0d34bbd5052bf3f5ea0213
     Pseudo is Ultrasoft, Zval = 12.0
     Generated by new atomic code, or converted to UPF format
     Using radial grid of  851 points,  6 beta functions with: 
                l(1) =   0
                l(2) =   0
                l(3) =   1
                l(4) =   1
                l(5) =   2
                l(6) =   2
     Q(r) pseudized with  8 coefficients,  rinner =    1.000   1.000   1.000
                                                       1.000   1.000

     PseudoPot. # 2 for O  read from file:
     /storage/coda1/p-amedford6/0/shared/rich_project_chbe-medford/medford-share/data/pseudos_module/espresso/nninc/pbe/van/O.UPF
     MD5 check sum: 78c19812648e8988a0fe644b0f25305e
     Pseudo is Ultrasoft, Zval =  6.0
     Generated by new atomic code, or converted to UPF format
     Using radial grid of  737 points,  4 beta functions with: 
                l(1) =   0
                l(2) =   0
                l(3) =   1
                l(4) =   1
     Q(r) pseudized with  8 coefficients,  rinner =    0.800   0.800   0.800


     PseudoPot. # 3 for N  read from file:
     /storage/coda1/p-amedford6/0/shared/rich_project_chbe-medford/medford-share/data/pseudos_module/espresso/nninc/pbe/van/N.UPF
     MD5 check sum: 90d10febe142ad51ac9d5be1deb811c4
     Pseudo is Ultrasoft, Zval =  5.0
     Generated by new atomic code, or converted to UPF format
     Using radial grid of  729 points,  4 beta functions with: 
                l(1) =   0
                l(2) =   0
                l(3) =   1
                l(4) =   1
     Q(r) pseudized with  8 coefficients,  rinner =    0.800   0.800   0.800


     PseudoPot. # 4 for C  read from file:
     /storage/coda1/p-amedford6/0/shared/rich_project_chbe-medford/medford-share/data/pseudos_module/espresso/nninc/pbe/van/C.UPF
     MD5 check sum: 1a69bf6b8db32088f5b2163dbdb77a27
     Pseudo is Ultrasoft, Zval =  4.0
     Generated by new atomic code, or converted to UPF format
     Using radial grid of  721 points,  4 beta functions with: 
                l(1) =   0
                l(2) =   0
                l(3) =   1
                l(4) =   1
     Q(r) pseudized with  8 coefficients,  rinner =    0.800   0.800   0.800


     PseudoPot. # 5 for H  read from file:
     /storage/coda1/p-amedford6/0/shared/rich_project_chbe-medford/medford-share/data/pseudos_module/espresso/nninc/pbe/van/H.UPF
     MD5 check sum: b5ee9d7bfd3a09ee7748110bda690ff7
     Pseudo is Ultrasoft, Zval =  1.0
     Generated by new atomic code, or converted to UPF format
     Using radial grid of  615 points,  1 beta functions with: 
                l(1) =   0
     Q(r) pseudized with  8 coefficients,  rinner =    0.800

     atomic species   valence    mass     pseudopotential
        Ti1           12.00    47.86700     Ti( 1.00)
        O1             6.00    15.99900     O ( 1.00)
        N1             5.00    14.00700     N ( 1.00)
        C1             4.00    12.01100     C ( 1.00)
        H1             1.00     1.00800     H ( 1.00)

     No symmetry found



   Cartesian axes

     site n.     atom                  positions (alat units)
         1           Ti1 tau(   1) = (   0.0004258   2.9801865   6.0000000  )
         2           Ti1 tau(   2) = (   3.2906075   1.4906267   6.0002472  )
         3           O1  tau(   3) = (   0.0006271   0.0005054   7.9858123  )
         4           O1  tau(   4) = (   3.2906025   0.0005020   7.3038282  )
         5           O1  tau(   5) = (   4.5942328   1.4918067   9.2879030  )
         6           O1  tau(   6) = (   1.9868534   1.4903216   9.2879459  )
         7           Ti1 tau(   7) = (   3.2907910   2.8959150   9.1758416  )
         8           Ti1 tau(   8) = (   0.0015273   1.4827037   9.2680791  )
         9           O1  tau(   9) = (   3.2934429   5.9466490  11.3040654  )
        10           O1  tau(  10) = (   0.0116148   5.9584955  10.6183126  )
        11           O1  tau(  11) = (   1.2867109   1.4782735  12.6190062  )
        12           O1  tau(  12) = (   5.2776945   1.4764076  12.5976694  )
        13           Ti1 tau(  13) = (   0.0846880   2.9559742  12.7004455  )
        14           Ti1 tau(  14) = (   3.4192946   1.4610250  12.4797112  )
        15           O1  tau(  15) = (   0.0040618   5.9510889  14.6015872  )
        16           O1  tau(  16) = (   3.2972055   5.9566395  13.8969661  )
        17           O1  tau(  17) = (   4.5327346   1.5242580  16.0225792  )
        18           O1  tau(  18) = (   2.0474321   1.5095568  15.9818283  )
        19           Ti1 tau(  19) = (   3.2830006   2.9631064  15.6531525  )
        20           Ti1 tau(  20) = (   6.5418150   1.5417905  15.9635021  )
        21           O1  tau(  21) = (   3.2904802   0.0005063   4.7018136  )
        22           O1  tau(  22) = (   0.0063621   0.0138944  17.1794403  )
        23           O1  tau(  23) = (   1.3043587   1.4918075   6.0039043  )
        24           O1  tau(  24) = (   5.2767064   1.4903225   6.0039473  )
        25           Ti1 tau(  25) = (   0.0000382   5.9609847   6.0000000  )
        26           Ti1 tau(  26) = (   3.2902200   4.4714249   6.0002472  )
        27           O1  tau(  27) = (   0.0002396   2.9813036   7.9858123  )
        28           O1  tau(  28) = (   3.2902150   2.9813002   7.3038282  )
        29           O1  tau(  29) = (   4.5938453   4.4726049   9.2879030  )
        30           O1  tau(  30) = (   1.9864658   4.4711199   9.2879459  )
        31           Ti1 tau(  31) = (   3.2891106   5.8743827   9.1763621  )
        32           Ti1 tau(  32) = (   0.0006254   4.4649316   9.2693709  )
        33           O1  tau(  33) = (   3.2987291   2.9703105  11.3060640  )
        34           O1  tau(  34) = (   0.0092240   2.9805883  10.6323155  )
        35           O1  tau(  35) = (   1.2872851   4.4534926  12.6272766  )
        36           O1  tau(  36) = (   5.2800973   4.4624318  12.6062822  )
        37           Ti1 tau(  37) = (   0.1009857   5.9355968  12.6779778  )
        38           Ti1 tau(  38) = (   3.4194502   4.4581092  12.4739500  )
        39           O1  tau(  39) = (   6.5579784   2.9468049  14.6267102  )
        40           O1  tau(  40) = (   3.2950467   2.9662764  13.8528306  )
        41           O1  tau(  41) = (   4.5369278   4.4531499  15.9976687  )
        42           O1  tau(  42) = (   2.0426393   4.4597293  15.9709435  )
        43           Ti1 tau(  43) = (   3.2485613   5.9322867  15.7552632  )
        44           Ti1 tau(  44) = (   6.5504849   4.5932964  16.0494500  )
        45           O1  tau(  45) = (   3.2900926   2.9813045   4.7018136  )
        46           O1  tau(  46) = (   1.3039711   4.4726057   6.0039043  )
        47           O1  tau(  47) = (   5.2763189   4.4711207   6.0039473  )
        48           N1  tau(  48) = (   0.6156314   2.9572148  18.5116157  )
        49           N1  tau(  49) = (   0.0870375   2.9660652  17.3203775  )
        50           C1  tau(  50) = (   6.5561155   3.1780822  19.6039678  )
        51           H1  tau(  51) = (   5.4868456   3.3930584  19.6151425  )
        52           H1  tau(  52) = (   0.5344647   3.1546629  20.5288580  )
        53           O1  tau(  53) = (   3.2552377   5.9566958  18.1335742  )
        54           H1  tau(  54) = (   4.0311122   0.5273114  18.4085372  )
        55           H1  tau(  55) = (   2.4596908   0.4732500  18.4230009  )

     number of k points=    10  Fermi-Dirac smearing, width (Ry)=  0.0073
                       cart. coord. in units 2pi/alat
        k(    1) = (   0.0000000   0.0000000   0.0000000), wk =   0.1250000
        k(    2) = (   0.0000000   0.0419351   0.0000000), wk =   0.2500000
        k(    3) = (   0.0000000  -0.0838702   0.0000000), wk =   0.1250000
        k(    4) = (   0.0379955   0.0000049   0.0000000), wk =   0.2500000
        k(    5) = (   0.0379955   0.0419400   0.0000000), wk =   0.2500000
        k(    6) = (   0.0379955  -0.0838652   0.0000000), wk =   0.2500000
        k(    7) = (   0.0379955  -0.0419301   0.0000000), wk =   0.2500000
        k(    8) = (  -0.0759910  -0.0000099   0.0000000), wk =   0.1250000
        k(    9) = (  -0.0759910   0.0419252   0.0000000), wk =   0.2500000
        k(   10) = (  -0.0759910  -0.0838800   0.0000000), wk =   0.1250000

     Dense  grid:   566857 G-vectors     FFT dimensions: (  72,  64, 270)

     Smooth grid:   143421 G-vectors     FFT dimensions: (  45,  40, 180)

     Estimated max dynamical RAM per process >     367.45 MB

     Estimated total dynamical RAM >       3.59 GB
     Cannot read rho : file not found

     Initial potential from superposition of free atoms

     starting charge  385.99915, renormalised to  402.00000

     negative rho (up, down):  1.463E-02 0.000E+00


     %%%%%%%%%%%%%%%%%%%%%%%%%%%%%%%%%%%%%%%%%%%%%%%%%%%%%%%%%%%%%%%%%%%%%%%%
     %                                                                      %
     % You are using vdW-DF, which was implemented by the Thonhauser group. %
     % Please cite the following two papers that made this development      %
     % possible and the two reviews that describe the various versions:     %
     %                                                                      %
     %   T. Thonhauser et al., PRL 115, 136402 (2015).                      %
     %   T. Thonhauser et al., PRB 76, 125112 (2007).                       %
     %   K. Berland et al., Rep. Prog. Phys. 78, 066501 (2015).             %
     %   D.C. Langreth et al., J. Phys.: Condens. Matter 21, 084203 (2009). %
     %                                                                      %
     %                                                                      %
     % If you are calculating the stress with vdW-DF, please also cite:     %
     %                                                                      %
     %   R. Sabatini et al., J. Phys.: Condens. Matter 24, 424209 (2012).   %
     %                                                                      %
     %%%%%%%%%%%%%%%%%%%%%%%%%%%%%%%%%%%%%%%%%%%%%%%%%%%%%%%%%%%%%%%%%%%%%%%%


 
     Adding external electric field

     Computed dipole along edir(3) : 
        Dipole              -11.9608 Ry au,        -30.4013 Debye
        Dipole field         -0.0226 Ry au, 
 
        Potential amp.        2.0924 Ry
        Total length         46.3494 bohr
 
     Starting wfcs are  304 atomic wfcs
  @ DRIVER MODE: Message from server: STATUS
  @ DRIVER MODE: Message from server: POSDATA
  @ DRIVER MODE: Reading and sharing cell 
  @ DRIVER MODE: Reading and sharing positions 
  @ DRIVER MODE: Received positions 

     total cpu time spent up to now is       11.4 secs

     Self-consistent Calculation

     iteration #  1     ecut=    29.40 Ry     beta= 0.05
     Davidson diagonalization with overlap
     c_bands:  3 eigenvalues not converged
     c_bands:  1 eigenvalues not converged
     c_bands:  5 eigenvalues not converged
     c_bands:  3 eigenvalues not converged
     c_bands:  3 eigenvalues not converged
     c_bands:  2 eigenvalues not converged
     c_bands:  4 eigenvalues not converged
     c_bands:  4 eigenvalues not converged
     c_bands:  3 eigenvalues not converged
     ethr =  1.00E-05,  avg # of iterations = 21.6

     negative rho (up, down):  9.691E-03 0.000E+00
 
     Adding external electric field

     Computed dipole along edir(3) : 
        Dipole               50.6960 Ry au,        128.8564 Debye
        Dipole field          0.0957 Ry au, 
 
        Potential amp.       -8.8685 Ry
        Total length         46.3494 bohr
 

     total cpu time spent up to now is       68.5 secs

     total energy              =   -2415.35310640 Ry
     estimated scf accuracy    <    6284.06654281 Ry

     iteration #  2     ecut=    29.40 Ry     beta= 0.05
     Davidson diagonalization with overlap
     ethr =  1.00E-02,  avg # of iterations = 22.9

     negative rho (up, down):  1.018E-03 0.000E+00
 
     Adding external electric field

     Computed dipole along edir(3) : 
        Dipole               -1.4595 Ry au,         -3.7098 Debye
        Dipole field         -0.0028 Ry au, 
 
        Potential amp.        0.2553 Ry
        Total length         46.3494 bohr
 

     total cpu time spent up to now is      147.4 secs

     total energy              =   -2465.21814273 Ry
     estimated scf accuracy    <   71485.86088600 Ry

     iteration #  3     ecut=    29.40 Ry     beta= 0.05
     Davidson diagonalization with overlap
     ethr =  1.00E-02,  avg # of iterations = 15.4

     negative rho (up, down):  1.085E-03 0.000E+00
 
     Adding external electric field

     Computed dipole along edir(3) : 
        Dipole               -4.1408 Ry au,        -10.5249 Debye
        Dipole field         -0.0078 Ry au, 
 
        Potential amp.        0.7244 Ry
        Total length         46.3494 bohr
 

     total cpu time spent up to now is      202.6 secs

     total energy              =   -2959.81067403 Ry
     estimated scf accuracy    <    5488.68561506 Ry

     iteration #  4     ecut=    29.40 Ry     beta= 0.05
     Davidson diagonalization with overlap
     ethr =  1.00E-02,  avg # of iterations = 12.2

     negative rho (up, down):  1.118E-03 0.000E+00
 
     Adding external electric field

     Computed dipole along edir(3) : 
        Dipole               -5.7961 Ry au,        -14.7322 Debye
        Dipole field         -0.0109 Ry au, 
 
        Potential amp.        1.0139 Ry
        Total length         46.3494 bohr
 

     total cpu time spent up to now is      223.2 secs

     total energy              =   -2960.81350549 Ry
     estimated scf accuracy    <    1947.30435327 Ry

     iteration #  5     ecut=    29.40 Ry     beta= 0.05
     Davidson diagonalization with overlap
     ethr =  1.00E-02,  avg # of iterations =  3.9

     negative rho (up, down):  1.202E-03 0.000E+00
 
     Adding external electric field

     Computed dipole along edir(3) : 
        Dipole               -7.9578 Ry au,        -20.2266 Debye
        Dipole field         -0.0150 Ry au, 
 
        Potential amp.        1.3921 Ry
        Total length         46.3494 bohr
 

     total cpu time spent up to now is      234.6 secs

     total energy              =   -2939.85075456 Ry
     estimated scf accuracy    <    1810.03336533 Ry

     iteration #  6     ecut=    29.40 Ry     beta= 0.05
     Davidson diagonalization with overlap
     c_bands:  1 eigenvalues not converged
     ethr =  1.00E-02,  avg # of iterations = 15.4

     negative rho (up, down):  1.102E-03 0.000E+00
 
     Adding external electric field

     Computed dipole along edir(3) : 
        Dipole               -6.4202 Ry au,        -16.3184 Debye
        Dipole field         -0.0121 Ry au, 
 
        Potential amp.        1.1231 Ry
        Total length         46.3494 bohr
 

     total cpu time spent up to now is      261.6 secs

     total energy              =   -2976.42521689 Ry
     estimated scf accuracy    <     138.79979841 Ry

     iteration #  7     ecut=    29.40 Ry     beta= 0.05
     Davidson diagonalization with overlap
     ethr =  1.00E-02,  avg # of iterations =  1.3

     negative rho (up, down):  1.155E-03 0.000E+00
 
     Adding external electric field

     Computed dipole along edir(3) : 
        Dipole               -5.7092 Ry au,        -14.5113 Debye
        Dipole field         -0.0108 Ry au, 
 
        Potential amp.        0.9987 Ry
        Total length         46.3494 bohr
 

     total cpu time spent up to now is      271.8 secs

     total energy              =   -2976.12158734 Ry
     estimated scf accuracy    <      26.61476430 Ry

     iteration #  8     ecut=    29.40 Ry     beta= 0.05
     Davidson diagonalization with overlap
     ethr =  6.62E-03,  avg # of iterations =  1.0

     negative rho (up, down):  1.216E-03 0.000E+00
 
     Adding external electric field

     Computed dipole along edir(3) : 
        Dipole               -5.6405 Ry au,        -14.3367 Debye
        Dipole field         -0.0106 Ry au, 
 
        Potential amp.        0.9867 Ry
        Total length         46.3494 bohr
 

     total cpu time spent up to now is      281.8 secs

     total energy              =   -2975.83263734 Ry
     estimated scf accuracy    <      19.15971863 Ry

     iteration #  9     ecut=    29.40 Ry     beta= 0.05
     Davidson diagonalization with overlap
     ethr =  4.77E-03,  avg # of iterations =  1.0

     negative rho (up, down):  2.800E-03 0.000E+00
 
     Adding external electric field

     Computed dipole along edir(3) : 
        Dipole               -4.8269 Ry au,        -12.2688 Debye
        Dipole field         -0.0091 Ry au, 
 
        Potential amp.        0.8444 Ry
        Total length         46.3494 bohr
 

     total cpu time spent up to now is      291.8 secs

     total energy              =   -2971.76350302 Ry
     estimated scf accuracy    <      18.76600919 Ry

     iteration # 10     ecut=    29.40 Ry     beta= 0.05
     Davidson diagonalization with overlap
     ethr =  4.67E-03,  avg # of iterations = 10.4

     negative rho (up, down):  3.013E-02 0.000E+00
 
     Adding external electric field

     Computed dipole along edir(3) : 
        Dipole               -3.3601 Ry au,         -8.5405 Debye
        Dipole field         -0.0063 Ry au, 
 
        Potential amp.        0.5878 Ry
        Total length         46.3494 bohr
 

     total cpu time spent up to now is      305.8 secs

     total energy              =   -2973.14265799 Ry
     estimated scf accuracy    <     119.07344886 Ry

     iteration # 11     ecut=    29.40 Ry     beta= 0.05
     Davidson diagonalization with overlap
     ethr =  4.67E-03,  avg # of iterations =  8.9

     negative rho (up, down):  3.125E-02 0.000E+00
 
     Adding external electric field

     Computed dipole along edir(3) : 
        Dipole               -3.4593 Ry au,         -8.7927 Debye
        Dipole field         -0.0065 Ry au, 
 
        Potential amp.        0.6052 Ry
        Total length         46.3494 bohr
 

     total cpu time spent up to now is      322.0 secs

     total energy              =   -2977.46301851 Ry
     estimated scf accuracy    <     101.07143076 Ry

     iteration # 12     ecut=    29.40 Ry     beta= 0.05
     Davidson diagonalization with overlap
     ethr =  4.67E-03,  avg # of iterations =  2.6

     negative rho (up, down):  1.758E-02 0.000E+00
 
     Adding external electric field

     Computed dipole along edir(3) : 
        Dipole               -3.8881 Ry au,         -9.8825 Debye
        Dipole field         -0.0073 Ry au, 
 
        Potential amp.        0.6802 Ry
        Total length         46.3494 bohr
 

     total cpu time spent up to now is      334.6 secs

     total energy              =   -2975.80933990 Ry
     estimated scf accuracy    <     136.49811574 Ry

     iteration # 13     ecut=    29.40 Ry     beta= 0.05
     Davidson diagonalization with overlap
     ethr =  4.67E-03,  avg # of iterations =  1.8

     negative rho (up, down):  4.722E-03 0.000E+00
 
     Adding external electric field

     Computed dipole along edir(3) : 
        Dipole               -3.8611 Ry au,         -9.8139 Debye
        Dipole field         -0.0073 Ry au, 
 
        Potential amp.        0.6754 Ry
        Total length         46.3494 bohr
 

     total cpu time spent up to now is      345.3 secs

     total energy              =   -2972.59326847 Ry
     estimated scf accuracy    <     151.98700611 Ry

     iteration # 14     ecut=    29.40 Ry     beta= 0.05
     Davidson diagonalization with overlap
     ethr =  4.67E-03,  avg # of iterations =  3.8

     negative rho (up, down):  3.062E-03 0.000E+00
 
     Adding external electric field

     Computed dipole along edir(3) : 
        Dipole               -3.7802 Ry au,         -9.6083 Debye
        Dipole field         -0.0071 Ry au, 
 
        Potential amp.        0.6613 Ry
        Total length         46.3494 bohr
 

     total cpu time spent up to now is      356.7 secs

     total energy              =   -2972.50452612 Ry
     estimated scf accuracy    <      75.52157638 Ry

     iteration # 15     ecut=    29.40 Ry     beta= 0.05
     Davidson diagonalization with overlap
     ethr =  4.67E-03,  avg # of iterations =  3.6

     negative rho (up, down):  1.590E-03 0.000E+00
 
     Adding external electric field

     Computed dipole along edir(3) : 
        Dipole               -4.0837 Ry au,        -10.3797 Debye
        Dipole field         -0.0077 Ry au, 
 
        Potential amp.        0.7144 Ry
        Total length         46.3494 bohr
 

     total cpu time spent up to now is      368.0 secs

     total energy              =   -2971.47120861 Ry
     estimated scf accuracy    <      38.48405906 Ry

     iteration # 16     ecut=    29.40 Ry     beta= 0.05
     Davidson diagonalization with overlap
     ethr =  4.67E-03,  avg # of iterations =  6.1

     negative rho (up, down):  1.893E-03 0.000E+00
 
     Adding external electric field

     Computed dipole along edir(3) : 
        Dipole               -3.3548 Ry au,         -8.5272 Debye
        Dipole field         -0.0063 Ry au, 
 
        Potential amp.        0.5869 Ry
        Total length         46.3494 bohr
 

     total cpu time spent up to now is      381.3 secs

     total energy              =   -2973.50563602 Ry
     estimated scf accuracy    <       6.89182343 Ry

     iteration # 17     ecut=    29.40 Ry     beta= 0.05
     Davidson diagonalization with overlap
     ethr =  1.71E-03,  avg # of iterations =  6.5

     negative rho (up, down):  2.585E-03 0.000E+00
 
     Adding external electric field

     Computed dipole along edir(3) : 
        Dipole               -2.9430 Ry au,         -7.4804 Debye
        Dipole field         -0.0056 Ry au, 
 
        Potential amp.        0.5148 Ry
        Total length         46.3494 bohr
 

     total cpu time spent up to now is      394.1 secs

     total energy              =   -2973.21716259 Ry
     estimated scf accuracy    <       5.10550346 Ry

     iteration # 18     ecut=    29.40 Ry     beta= 0.05
     Davidson diagonalization with overlap
     ethr =  1.27E-03,  avg # of iterations =  1.8

     negative rho (up, down):  7.062E-03 0.000E+00
 
     Adding external electric field

     Computed dipole along edir(3) : 
        Dipole               -2.2339 Ry au,         -5.6781 Debye
        Dipole field         -0.0042 Ry au, 
 
        Potential amp.        0.3908 Ry
        Total length         46.3494 bohr
 

     total cpu time spent up to now is      404.8 secs

     total energy              =   -2972.38665607 Ry
     estimated scf accuracy    <       3.21742279 Ry

     iteration # 19     ecut=    29.40 Ry     beta= 0.05
     Davidson diagonalization with overlap
     ethr =  8.00E-04,  avg # of iterations =  6.5

     negative rho (up, down):  1.721E-02 0.000E+00
 
     Adding external electric field

     Computed dipole along edir(3) : 
        Dipole               -1.9855 Ry au,         -5.0466 Debye
        Dipole field         -0.0037 Ry au, 
 
        Potential amp.        0.3473 Ry
        Total length         46.3494 bohr
 

     total cpu time spent up to now is      419.0 secs

     total energy              =   -2973.19152712 Ry
     estimated scf accuracy    <      17.05428048 Ry

     iteration # 20     ecut=    29.40 Ry     beta= 0.05
     Davidson diagonalization with overlap
     ethr =  8.00E-04,  avg # of iterations = 11.1

     negative rho (up, down):  8.015E-03 0.000E+00
 
     Adding external electric field

     Computed dipole along edir(3) : 
        Dipole               -2.1160 Ry au,         -5.3784 Debye
        Dipole field         -0.0040 Ry au, 
 
        Potential amp.        0.3702 Ry
        Total length         46.3494 bohr
 

     total cpu time spent up to now is      436.1 secs

     total energy              =   -2972.78417053 Ry
     estimated scf accuracy    <      32.92138027 Ry

     iteration # 21     ecut=    29.40 Ry     beta= 0.05
     Davidson diagonalization with overlap
     ethr =  8.00E-04,  avg # of iterations =  5.6

     negative rho (up, down):  5.491E-03 0.000E+00
 
     Adding external electric field

     Computed dipole along edir(3) : 
        Dipole               -2.1795 Ry au,         -5.5397 Debye
        Dipole field         -0.0041 Ry au, 
 
        Potential amp.        0.3813 Ry
        Total length         46.3494 bohr
 

     total cpu time spent up to now is      448.1 secs

     total energy              =   -2972.83857248 Ry
     estimated scf accuracy    <      30.34186907 Ry

     iteration # 22     ecut=    29.40 Ry     beta= 0.05
     Davidson diagonalization with overlap
     ethr =  8.00E-04,  avg # of iterations =  3.5

     negative rho (up, down):  3.505E-03 0.000E+00
 
     Adding external electric field

     Computed dipole along edir(3) : 
        Dipole               -1.9942 Ry au,         -5.0688 Debye
        Dipole field         -0.0038 Ry au, 
 
        Potential amp.        0.3489 Ry
        Total length         46.3494 bohr
 

     total cpu time spent up to now is      459.6 secs

     total energy              =   -2972.87444976 Ry
     estimated scf accuracy    <      24.52878666 Ry

     iteration # 23     ecut=    29.40 Ry     beta= 0.05
     Davidson diagonalization with overlap
     ethr =  8.00E-04,  avg # of iterations =  9.2

     negative rho (up, down):  3.935E-03 0.000E+00
 
     Adding external electric field

     Computed dipole along edir(3) : 
        Dipole               -2.0985 Ry au,         -5.3339 Debye
        Dipole field         -0.0040 Ry au, 
 
        Potential amp.        0.3671 Ry
        Total length         46.3494 bohr
 

     total cpu time spent up to now is      475.4 secs

     total energy              =   -2973.29351151 Ry
     estimated scf accuracy    <      11.81643796 Ry

     iteration # 24     ecut=    29.40 Ry     beta= 0.05
     Davidson diagonalization with overlap
     ethr =  8.00E-04,  avg # of iterations =  1.2

     negative rho (up, down):  4.136E-03 0.000E+00
 
     Adding external electric field

     Computed dipole along edir(3) : 
        Dipole               -1.8387 Ry au,         -4.6734 Debye
        Dipole field         -0.0035 Ry au, 
 
        Potential amp.        0.3216 Ry
        Total length         46.3494 bohr
 

     total cpu time spent up to now is      485.6 secs

     total energy              =   -2973.19262380 Ry
     estimated scf accuracy    <      17.08564196 Ry

     iteration # 25     ecut=    29.40 Ry     beta= 0.05
     Davidson diagonalization with overlap
     ethr =  8.00E-04,  avg # of iterations =  3.0

     negative rho (up, down):  4.249E-03 0.000E+00
 
     Adding external electric field

     Computed dipole along edir(3) : 
        Dipole               -1.8695 Ry au,         -4.7517 Debye
        Dipole field         -0.0035 Ry au, 
 
        Potential amp.        0.3270 Ry
        Total length         46.3494 bohr
 

     total cpu time spent up to now is      496.4 secs

     total energy              =   -2972.97271197 Ry
     estimated scf accuracy    <       9.37425909 Ry

     iteration # 26     ecut=    29.40 Ry     beta= 0.05
     Davidson diagonalization with overlap
     ethr =  8.00E-04,  avg # of iterations =  3.5

     negative rho (up, down):  4.125E-03 0.000E+00
 
     Adding external electric field

     Computed dipole along edir(3) : 
        Dipole               -1.7000 Ry au,         -4.3209 Debye
        Dipole field         -0.0032 Ry au, 
 
        Potential amp.        0.2974 Ry
        Total length         46.3494 bohr
 

     total cpu time spent up to now is      507.5 secs

     total energy              =   -2973.02260998 Ry
     estimated scf accuracy    <       3.69537453 Ry

     iteration # 27     ecut=    29.40 Ry     beta= 0.05
     Davidson diagonalization with overlap
     ethr =  8.00E-04,  avg # of iterations =  1.2

     negative rho (up, down):  4.862E-03 0.000E+00
 
     Adding external electric field

     Computed dipole along edir(3) : 
        Dipole               -0.8008 Ry au,         -2.0355 Debye
        Dipole field         -0.0015 Ry au, 
 
        Potential amp.        0.1401 Ry
        Total length         46.3494 bohr
 

     total cpu time spent up to now is      517.7 secs

     total energy              =   -2972.55838060 Ry
     estimated scf accuracy    <       6.00377185 Ry

     iteration # 28     ecut=    29.40 Ry     beta= 0.05
     Davidson diagonalization with overlap
     ethr =  8.00E-04,  avg # of iterations =  6.3

     negative rho (up, down):  4.773E-03 0.000E+00
 
     Adding external electric field

     Computed dipole along edir(3) : 
        Dipole               -0.8156 Ry au,         -2.0730 Debye
        Dipole field         -0.0015 Ry au, 
 
        Potential amp.        0.1427 Ry
        Total length         46.3494 bohr
 

     total cpu time spent up to now is      530.0 secs

     total energy              =   -2972.73298279 Ry
     estimated scf accuracy    <       0.73325858 Ry

     iteration # 29     ecut=    29.40 Ry     beta= 0.05
     Davidson diagonalization with overlap
     c_bands:  3 eigenvalues not converged
     c_bands:  1 eigenvalues not converged
     c_bands:  1 eigenvalues not converged
     c_bands:  1 eigenvalues not converged
     ethr =  1.82E-04,  avg # of iterations = 18.9

     negative rho (up, down):  4.340E-03 0.000E+00
 
     Adding external electric field

     Computed dipole along edir(3) : 
        Dipole               -0.9029 Ry au,         -2.2950 Debye
        Dipole field         -0.0017 Ry au, 
 
        Potential amp.        0.1580 Ry
        Total length         46.3494 bohr
 

     total cpu time spent up to now is      560.0 secs

     total energy              =   -2972.82624509 Ry
     estimated scf accuracy    <       0.51198525 Ry

     iteration # 30     ecut=    29.40 Ry     beta= 0.05
     Davidson diagonalization with overlap
     ethr =  1.27E-04,  avg # of iterations =  5.9

     negative rho (up, down):  5.148E-03 0.000E+00
 
     Adding external electric field

     Computed dipole along edir(3) : 
        Dipole               -0.6802 Ry au,         -1.7290 Debye
        Dipole field         -0.0013 Ry au, 
 
        Potential amp.        0.1190 Ry
        Total length         46.3494 bohr
 

     total cpu time spent up to now is      572.0 secs

     total energy              =   -2972.76420655 Ry
     estimated scf accuracy    <       0.77098458 Ry

     iteration # 31     ecut=    29.40 Ry     beta= 0.05
     Davidson diagonalization with overlap
     ethr =  1.27E-04,  avg # of iterations =  6.7

     negative rho (up, down):  6.252E-03 0.000E+00
 
     Adding external electric field

     Computed dipole along edir(3) : 
        Dipole               -0.6541 Ry au,         -1.6625 Debye
        Dipole field         -0.0012 Ry au, 
 
        Potential amp.        0.1144 Ry
        Total length         46.3494 bohr
 

     total cpu time spent up to now is      584.3 secs

     total energy              =   -2972.67531899 Ry
     estimated scf accuracy    <       0.61396145 Ry

     iteration # 32     ecut=    29.40 Ry     beta= 0.05
     Davidson diagonalization with overlap
     ethr =  1.27E-04,  avg # of iterations =  8.6

     negative rho (up, down):  5.278E-03 0.000E+00
 
     Adding external electric field

     Computed dipole along edir(3) : 
        Dipole               -0.7550 Ry au,         -1.9190 Debye
        Dipole field         -0.0014 Ry au, 
 
        Potential amp.        0.1321 Ry
        Total length         46.3494 bohr
 

     total cpu time spent up to now is      610.2 secs

     total energy              =   -2972.72782615 Ry
     estimated scf accuracy    <       0.31183534 Ry

     iteration # 33     ecut=    29.40 Ry     beta= 0.05
     Davidson diagonalization with overlap
     ethr =  7.76E-05,  avg # of iterations =  8.8

     negative rho (up, down):  5.301E-03 0.000E+00
 
     Adding external electric field

     Computed dipole along edir(3) : 
        Dipole               -0.2247 Ry au,         -0.5710 Debye
        Dipole field         -0.0004 Ry au, 
 
        Potential amp.        0.0393 Ry
        Total length         46.3494 bohr
 

     total cpu time spent up to now is      627.7 secs

     total energy              =   -2972.72325558 Ry
     estimated scf accuracy    <       0.18964835 Ry

     iteration # 34     ecut=    29.40 Ry     beta= 0.05
     Davidson diagonalization with overlap
     ethr =  4.72E-05,  avg # of iterations =  8.6

     negative rho (up, down):  6.064E-03 0.000E+00
 
     Adding external electric field

     Computed dipole along edir(3) : 
        Dipole                0.1641 Ry au,          0.4170 Debye
        Dipole field          0.0003 Ry au, 
 
        Potential amp.       -0.0287 Ry
        Total length         46.3494 bohr
 

     total cpu time spent up to now is      641.0 secs

     total energy              =   -2972.71972102 Ry
     estimated scf accuracy    <       0.18275890 Ry

     iteration # 35     ecut=    29.40 Ry     beta= 0.05
     Davidson diagonalization with overlap
     c_bands:  2 eigenvalues not converged
     c_bands:  1 eigenvalues not converged
     c_bands:  1 eigenvalues not converged
     c_bands:  1 eigenvalues not converged
     ethr =  4.55E-05,  avg # of iterations = 15.5

     negative rho (up, down):  5.871E-03 0.000E+00
 
     Adding external electric field

     Computed dipole along edir(3) : 
        Dipole                0.2249 Ry au,          0.5715 Debye
        Dipole field          0.0004 Ry au, 
 
        Potential amp.       -0.0393 Ry
        Total length         46.3494 bohr
 

     total cpu time spent up to now is      673.8 secs

     total energy              =   -2972.72603614 Ry
     estimated scf accuracy    <       0.24874788 Ry

     iteration # 36     ecut=    29.40 Ry     beta= 0.05
     Davidson diagonalization with overlap
     ethr =  4.55E-05,  avg # of iterations =  5.0

     negative rho (up, down):  6.649E-03 0.000E+00
 
     Adding external electric field

     Computed dipole along edir(3) : 
        Dipole                0.5819 Ry au,          1.4791 Debye
        Dipole field          0.0011 Ry au, 
 
        Potential amp.       -0.1018 Ry
        Total length         46.3494 bohr
 

     total cpu time spent up to now is      685.7 secs

     total energy              =   -2972.73000267 Ry
     estimated scf accuracy    <       0.12814645 Ry

     iteration # 37     ecut=    29.40 Ry     beta= 0.05
     Davidson diagonalization with overlap
     ethr =  3.19E-05,  avg # of iterations =  6.5

     negative rho (up, down):  6.853E-03 0.000E+00
 
     Adding external electric field

     Computed dipole along edir(3) : 
        Dipole                0.5410 Ry au,          1.3750 Debye
        Dipole field          0.0010 Ry au, 
 
        Potential amp.       -0.0946 Ry
        Total length         46.3494 bohr
 

     total cpu time spent up to now is      698.2 secs

     total energy              =   -2972.72885273 Ry
     estimated scf accuracy    <       0.10000848 Ry

     iteration # 38     ecut=    29.40 Ry     beta= 0.05
     Davidson diagonalization with overlap
     c_bands:  1 eigenvalues not converged
     ethr =  2.49E-05,  avg # of iterations =  9.1

     negative rho (up, down):  7.369E-03 0.000E+00
 
     Adding external electric field

     Computed dipole along edir(3) : 
        Dipole                0.5397 Ry au,          1.3718 Debye
        Dipole field          0.0010 Ry au, 
 
        Potential amp.       -0.0944 Ry
        Total length         46.3494 bohr
 

     total cpu time spent up to now is      712.0 secs

     total energy              =   -2972.73385058 Ry
     estimated scf accuracy    <       0.03888940 Ry

     iteration # 39     ecut=    29.40 Ry     beta= 0.05
     Davidson diagonalization with overlap
     c_bands:  1 eigenvalues not converged
     c_bands:  1 eigenvalues not converged
     c_bands:  3 eigenvalues not converged
     ethr =  9.67E-06,  avg # of iterations = 10.2

     negative rho (up, down):  8.452E-03 0.000E+00
 
     Adding external electric field

     Computed dipole along edir(3) : 
        Dipole                0.6521 Ry au,          1.6574 Debye
        Dipole field          0.0012 Ry au, 
 
        Potential amp.       -0.1141 Ry
        Total length         46.3494 bohr
 

     total cpu time spent up to now is      725.5 secs

     total energy              =   -2972.73371452 Ry
     estimated scf accuracy    <       0.01606908 Ry

     iteration # 40     ecut=    29.40 Ry     beta= 0.05
     Davidson diagonalization with overlap
     c_bands:  3 eigenvalues not converged
     c_bands:  4 eigenvalues not converged
     c_bands:  4 eigenvalues not converged
     c_bands:  3 eigenvalues not converged
     c_bands:  4 eigenvalues not converged
     c_bands:  2 eigenvalues not converged
     c_bands:  2 eigenvalues not converged
     ethr =  4.00E-06,  avg # of iterations = 19.8

     negative rho (up, down):  9.715E-03 0.000E+00
 
     Adding external electric field

     Computed dipole along edir(3) : 
        Dipole                0.5918 Ry au,          1.5042 Debye
        Dipole field          0.0011 Ry au, 
 
        Potential amp.       -0.1035 Ry
        Total length         46.3494 bohr
 

     total cpu time spent up to now is      749.6 secs

     total energy              =   -2972.72796936 Ry
     estimated scf accuracy    <       0.04853820 Ry

     iteration # 41     ecut=    29.40 Ry     beta= 0.05
     Davidson diagonalization with overlap
     c_bands:  1 eigenvalues not converged
     c_bands:  1 eigenvalues not converged
     c_bands:  5 eigenvalues not converged
     ethr =  4.00E-06,  avg # of iterations = 16.6

     negative rho (up, down):  9.661E-03 0.000E+00
 
     Adding external electric field

     Computed dipole along edir(3) : 
        Dipole                0.6282 Ry au,          1.5967 Debye
        Dipole field          0.0012 Ry au, 
 
        Potential amp.       -0.1099 Ry
        Total length         46.3494 bohr
 

     total cpu time spent up to now is      774.0 secs

     total energy              =   -2972.73679710 Ry
     estimated scf accuracy    <       0.02114666 Ry

     iteration # 42     ecut=    29.40 Ry     beta= 0.05
     Davidson diagonalization with overlap
     c_bands:  2 eigenvalues not converged
     ethr =  4.00E-06,  avg # of iterations =  5.6

     negative rho (up, down):  1.016E-02 0.000E+00
 
     Adding external electric field

     Computed dipole along edir(3) : 
        Dipole                0.6383 Ry au,          1.6224 Debye
        Dipole field          0.0012 Ry au, 
 
        Potential amp.       -0.1117 Ry
        Total length         46.3494 bohr
 

     total cpu time spent up to now is      786.0 secs

     total energy              =   -2972.73521244 Ry
     estimated scf accuracy    <       0.00850561 Ry

     iteration # 43     ecut=    29.40 Ry     beta= 0.05
     Davidson diagonalization with overlap
     c_bands:  1 eigenvalues not converged
     c_bands:  3 eigenvalues not converged
     c_bands:  1 eigenvalues not converged
     c_bands:  2 eigenvalues not converged
     c_bands:  1 eigenvalues not converged
     c_bands:  2 eigenvalues not converged
     ethr =  2.12E-06,  avg # of iterations = 17.4

     negative rho (up, down):  1.092E-02 0.000E+00
 
     Adding external electric field

     Computed dipole along edir(3) : 
        Dipole                0.6103 Ry au,          1.5512 Debye
        Dipole field          0.0012 Ry au, 
 
        Potential amp.       -0.1068 Ry
        Total length         46.3494 bohr
 

     total cpu time spent up to now is      806.6 secs

     total energy              =   -2972.73720010 Ry
     estimated scf accuracy    <       0.00852311 Ry

     iteration # 44     ecut=    29.40 Ry     beta= 0.05
     Davidson diagonalization with overlap
     ethr =  2.12E-06,  avg # of iterations =  7.2

     negative rho (up, down):  1.387E-02 0.000E+00
 
     Adding external electric field

     Computed dipole along edir(3) : 
        Dipole                0.6370 Ry au,          1.6190 Debye
        Dipole field          0.0012 Ry au, 
 
        Potential amp.       -0.1114 Ry
        Total length         46.3494 bohr
 

     total cpu time spent up to now is      819.0 secs

     total energy              =   -2972.73637350 Ry
     estimated scf accuracy    <       0.00656859 Ry

     iteration # 45     ecut=    29.40 Ry     beta= 0.05
     Davidson diagonalization with overlap
     c_bands:  3 eigenvalues not converged
     c_bands:  1 eigenvalues not converged
     ethr =  1.63E-06,  avg # of iterations = 13.7

     negative rho (up, down):  1.370E-02 0.000E+00
 
     Adding external electric field

     Computed dipole along edir(3) : 
        Dipole                0.6460 Ry au,          1.6419 Debye
        Dipole field          0.0012 Ry au, 
 
        Potential amp.       -0.1130 Ry
        Total length         46.3494 bohr
 

     total cpu time spent up to now is      838.8 secs

     total energy              =   -2972.73766893 Ry
     estimated scf accuracy    <       0.00764352 Ry

     iteration # 46     ecut=    29.40 Ry     beta= 0.05
     Davidson diagonalization with overlap
     ethr =  1.63E-06,  avg # of iterations =  6.5

     negative rho (up, down):  1.354E-02 0.000E+00
 
     Adding external electric field

     Computed dipole along edir(3) : 
        Dipole                0.6455 Ry au,          1.6408 Debye
        Dipole field          0.0012 Ry au, 
 
        Potential amp.       -0.1129 Ry
        Total length         46.3494 bohr
 

     total cpu time spent up to now is      851.0 secs

     total energy              =   -2972.73757386 Ry
     estimated scf accuracy    <       0.00282098 Ry

     iteration # 47     ecut=    29.40 Ry     beta= 0.05
     Davidson diagonalization with overlap
     ethr =  7.02E-07,  avg # of iterations =  7.3

     negative rho (up, down):  1.391E-02 0.000E+00
 
     Adding external electric field

     Computed dipole along edir(3) : 
        Dipole                0.6403 Ry au,          1.6275 Debye
        Dipole field          0.0012 Ry au, 
 
        Potential amp.       -0.1120 Ry
        Total length         46.3494 bohr
 

     total cpu time spent up to now is      864.1 secs

     total energy              =   -2972.73784846 Ry
     estimated scf accuracy    <       0.00052150 Ry

     iteration # 48     ecut=    29.40 Ry     beta= 0.05
     Davidson diagonalization with overlap
     ethr =  1.30E-07,  avg # of iterations =  5.8

     negative rho (up, down):  1.414E-02 0.000E+00
 
     Adding external electric field

     Computed dipole along edir(3) : 
        Dipole                0.6551 Ry au,          1.6651 Debye
        Dipole field          0.0012 Ry au, 
 
        Potential amp.       -0.1146 Ry
        Total length         46.3494 bohr
 

     total cpu time spent up to now is      876.7 secs

     total energy              =   -2972.73771285 Ry
     estimated scf accuracy    <       0.00079898 Ry

     iteration # 49     ecut=    29.40 Ry     beta= 0.05
     Davidson diagonalization with overlap
     ethr =  1.30E-07,  avg # of iterations = 10.3

     negative rho (up, down):  1.434E-02 0.000E+00
 
     Adding external electric field

     Computed dipole along edir(3) : 
        Dipole                0.6569 Ry au,          1.6696 Debye
        Dipole field          0.0012 Ry au, 
 
        Potential amp.       -0.1149 Ry
        Total length         46.3494 bohr
 

     total cpu time spent up to now is      896.3 secs

     total energy              =   -2972.73791034 Ry
     estimated scf accuracy    <       0.00083038 Ry

     iteration # 50     ecut=    29.40 Ry     beta= 0.05
     Davidson diagonalization with overlap
     ethr =  1.30E-07,  avg # of iterations =  4.4

     negative rho (up, down):  1.457E-02 0.000E+00
 
     Adding external electric field

     Computed dipole along edir(3) : 
        Dipole                0.6555 Ry au,          1.6661 Debye
        Dipole field          0.0012 Ry au, 
 
        Potential amp.       -0.1147 Ry
        Total length         46.3494 bohr
 

     total cpu time spent up to now is      908.0 secs

     total energy              =   -2972.73781988 Ry
     estimated scf accuracy    <       0.00041466 Ry

     iteration # 51     ecut=    29.40 Ry     beta= 0.05
     Davidson diagonalization with overlap
     ethr =  1.03E-07,  avg # of iterations =  7.4

     negative rho (up, down):  1.448E-02 0.000E+00
 
     Adding external electric field

     Computed dipole along edir(3) : 
        Dipole                0.6578 Ry au,          1.6719 Debye
        Dipole field          0.0012 Ry au, 
 
        Potential amp.       -0.1151 Ry
        Total length         46.3494 bohr
 

     total cpu time spent up to now is      925.1 secs

     total energy              =   -2972.73793778 Ry
     estimated scf accuracy    <       0.00035725 Ry

     iteration # 52     ecut=    29.40 Ry     beta= 0.05
     Davidson diagonalization with overlap
     ethr =  8.89E-08,  avg # of iterations =  5.4

     negative rho (up, down):  1.467E-02 0.000E+00
 
     Adding external electric field

     Computed dipole along edir(3) : 
        Dipole                0.6575 Ry au,          1.6712 Debye
        Dipole field          0.0012 Ry au, 
 
        Potential amp.       -0.1150 Ry
        Total length         46.3494 bohr
 

     total cpu time spent up to now is      937.2 secs

     total energy              =   -2972.73797038 Ry
     estimated scf accuracy    <       0.00008473 Ry

     iteration # 53     ecut=    29.40 Ry     beta= 0.05
     Davidson diagonalization with overlap
     ethr =  2.11E-08,  avg # of iterations =  5.8

     negative rho (up, down):  1.497E-02 0.000E+00
 
     Adding external electric field

     Computed dipole along edir(3) : 
        Dipole                0.6629 Ry au,          1.6848 Debye
        Dipole field          0.0013 Ry au, 
 
        Potential amp.       -0.1160 Ry
        Total length         46.3494 bohr
 

     total cpu time spent up to now is      950.9 secs

     total energy              =   -2972.73799682 Ry
     estimated scf accuracy    <       0.00007477 Ry

     iteration # 54     ecut=    29.40 Ry     beta= 0.05
     Davidson diagonalization with overlap
     ethr =  1.86E-08,  avg # of iterations =  5.9

     negative rho (up, down):  1.513E-02 0.000E+00
 
     Adding external electric field

     Computed dipole along edir(3) : 
        Dipole                0.6708 Ry au,          1.7050 Debye
        Dipole field          0.0013 Ry au, 
 
        Potential amp.       -0.1173 Ry
        Total length         46.3494 bohr
 

     total cpu time spent up to now is      965.3 secs

     total energy              =   -2972.73801808 Ry
     estimated scf accuracy    <       0.00005497 Ry

     iteration # 55     ecut=    29.40 Ry     beta= 0.05
     Davidson diagonalization with overlap
     ethr =  1.37E-08,  avg # of iterations =  6.6

     negative rho (up, down):  1.511E-02 0.000E+00
 
     Adding external electric field

     Computed dipole along edir(3) : 
        Dipole                0.6703 Ry au,          1.7037 Debye
        Dipole field          0.0013 Ry au, 
 
        Potential amp.       -0.1173 Ry
        Total length         46.3494 bohr
 

     total cpu time spent up to now is      979.4 secs

     total energy              =   -2972.73802605 Ry
     estimated scf accuracy    <       0.00008703 Ry

     iteration # 56     ecut=    29.40 Ry     beta= 0.05
     Davidson diagonalization with overlap
     ethr =  1.37E-08,  avg # of iterations =  5.1

     negative rho (up, down):  1.510E-02 0.000E+00
 
     Adding external electric field

     Computed dipole along edir(3) : 
        Dipole                0.6700 Ry au,          1.7029 Debye
        Dipole field          0.0013 Ry au, 
 
        Potential amp.       -0.1172 Ry
        Total length         46.3494 bohr
 

     total cpu time spent up to now is      991.2 secs

     total energy              =   -2972.73802780 Ry
     estimated scf accuracy    <       0.00003769 Ry

     iteration # 57     ecut=    29.40 Ry     beta= 0.05
     Davidson diagonalization with overlap
     ethr =  9.38E-09,  avg # of iterations =  7.0

     negative rho (up, down):  1.524E-02 0.000E+00
 
     Adding external electric field

     Computed dipole along edir(3) : 
        Dipole                0.6725 Ry au,          1.7094 Debye
        Dipole field          0.0013 Ry au, 
 
        Potential amp.       -0.1177 Ry
        Total length         46.3494 bohr
 

     total cpu time spent up to now is     1006.7 secs

     total energy              =   -2972.73804240 Ry
     estimated scf accuracy    <       0.00000815 Ry

     iteration # 58     ecut=    29.40 Ry     beta= 0.05
     Davidson diagonalization with overlap
     ethr =  2.03E-09,  avg # of iterations =  6.8

     negative rho (up, down):  1.525E-02 0.000E+00
 
     Adding external electric field

     Computed dipole along edir(3) : 
        Dipole                0.6722 Ry au,          1.7087 Debye
        Dipole field          0.0013 Ry au, 
 
        Potential amp.       -0.1176 Ry
        Total length         46.3494 bohr
 

     total cpu time spent up to now is     1021.0 secs

     total energy              =   -2972.73804909 Ry
     estimated scf accuracy    <       0.00000436 Ry

     iteration # 59     ecut=    29.40 Ry     beta= 0.05
     Davidson diagonalization with overlap
     ethr =  1.09E-09,  avg # of iterations =  6.2

     negative rho (up, down):  1.523E-02 0.000E+00
 
     Adding external electric field

     Computed dipole along edir(3) : 
        Dipole                0.6729 Ry au,          1.7103 Debye
        Dipole field          0.0013 Ry au, 
 
        Potential amp.       -0.1177 Ry
        Total length         46.3494 bohr
 

     total cpu time spent up to now is     1035.3 secs

     total energy              =   -2972.73805532 Ry
     estimated scf accuracy    <       0.00000161 Ry

     iteration # 60     ecut=    29.40 Ry     beta= 0.05
     Davidson diagonalization with overlap
     ethr =  4.02E-10,  avg # of iterations =  6.9

     negative rho (up, down):  1.524E-02 0.000E+00
 
     Adding external electric field

     Computed dipole along edir(3) : 
        Dipole                0.6733 Ry au,          1.7113 Debye
        Dipole field          0.0013 Ry au, 
 
        Potential amp.       -0.1178 Ry
        Total length         46.3494 bohr
 

     total cpu time spent up to now is     1049.4 secs

     total energy              =   -2972.73806067 Ry
     estimated scf accuracy    <       0.00000219 Ry

     iteration # 61     ecut=    29.40 Ry     beta= 0.05
     Davidson diagonalization with overlap
     ethr =  4.02E-10,  avg # of iterations =  2.0

     negative rho (up, down):  1.525E-02 0.000E+00
 
     Adding external electric field

     Computed dipole along edir(3) : 
        Dipole                0.6736 Ry au,          1.7121 Debye
        Dipole field          0.0013 Ry au, 
 
        Potential amp.       -0.1178 Ry
        Total length         46.3494 bohr
 

     total cpu time spent up to now is     1060.2 secs

     total energy              =   -2972.73806529 Ry
     estimated scf accuracy    <       0.00000163 Ry

     iteration # 62     ecut=    29.40 Ry     beta= 0.05
     Davidson diagonalization with overlap
     ethr =  4.02E-10,  avg # of iterations =  6.7

     negative rho (up, down):  1.524E-02 0.000E+00
 
     Adding external electric field

     Computed dipole along edir(3) : 
        Dipole                0.6734 Ry au,          1.7116 Debye
        Dipole field          0.0013 Ry au, 
 
        Potential amp.       -0.1178 Ry
        Total length         46.3494 bohr
 

     total cpu time spent up to now is     1072.7 secs

     total energy              =   -2972.73806935 Ry
     estimated scf accuracy    <       0.00000113 Ry

     iteration # 63     ecut=    29.40 Ry     beta= 0.05
     Davidson diagonalization with overlap
     ethr =  2.81E-10,  avg # of iterations =  6.0

     negative rho (up, down):  1.523E-02 0.000E+00
 
     Adding external electric field

     Computed dipole along edir(3) : 
        Dipole                0.6732 Ry au,          1.7112 Debye
        Dipole field          0.0013 Ry au, 
 
        Potential amp.       -0.1178 Ry
        Total length         46.3494 bohr
 

     total cpu time spent up to now is     1085.2 secs

     total energy              =   -2972.73807311 Ry
     estimated scf accuracy    <       0.00000029 Ry

     iteration # 64     ecut=    29.40 Ry     beta= 0.05
     Davidson diagonalization with overlap
     ethr =  7.23E-11,  avg # of iterations =  7.2

     negative rho (up, down):  1.523E-02 0.000E+00
 
     Adding external electric field

     Computed dipole along edir(3) : 
        Dipole                0.6730 Ry au,          1.7105 Debye
        Dipole field          0.0013 Ry au, 
 
        Potential amp.       -0.1177 Ry
        Total length         46.3494 bohr
 

     total cpu time spent up to now is     1100.1 secs

     total energy              =   -2972.73807647 Ry
     estimated scf accuracy    <       0.00000014 Ry

     iteration # 65     ecut=    29.40 Ry     beta= 0.05
     Davidson diagonalization with overlap
     ethr =  3.58E-11,  avg # of iterations =  4.0

     negative rho (up, down):  1.522E-02 0.000E+00
 
     Adding external electric field

     Computed dipole along edir(3) : 
        Dipole                0.6725 Ry au,          1.7094 Debye
        Dipole field          0.0013 Ry au, 
 
        Potential amp.       -0.1176 Ry
        Total length         46.3494 bohr
 

     total cpu time spent up to now is     1111.9 secs

     total energy              =   -2972.73807954 Ry
     estimated scf accuracy    <       0.00000010 Ry

     iteration # 66     ecut=    29.40 Ry     beta= 0.05
     Davidson diagonalization with overlap
     ethr =  2.38E-11,  avg # of iterations =  6.6

     negative rho (up, down):  1.529E-02 0.000E+00
 
     Adding external electric field

     Computed dipole along edir(3) : 
        Dipole                0.6741 Ry au,          1.7134 Debye
        Dipole field          0.0013 Ry au, 
 
        Potential amp.       -0.1179 Ry
        Total length         46.3494 bohr
 

     total cpu time spent up to now is     1127.0 secs

     End of self-consistent calculation

          k = 0.0000 0.0000 0.0000 ( 18029 PWs)   bands (ev):

   -56.1197 -56.0859 -55.6570 -55.6231 -55.5649 -55.5400 -55.5305 -55.5045
   -55.4189 -55.3706 -55.3300 -55.2615 -54.9361 -54.9021 -54.8616 -54.8223
   -32.5715 -32.4108 -32.3833 -32.2799 -32.1953 -32.1870 -32.1243 -32.0728
   -32.0512 -31.9003 -31.8770 -31.8730 -31.8407 -31.8396 -31.8214 -31.7874
   -31.7775 -31.7742 -31.7608 -31.7591 -31.7541 -31.7194 -31.7179 -31.7103
   -31.6765 -31.6733 -31.6604 -31.6490 -31.6297 -31.5984 -31.5407 -31.5385
   -31.5090 -31.4822 -31.4541 -31.4214 -31.3927 -31.3361 -31.2652 -31.2418
   -31.1537 -31.1079 -31.0747 -31.0684 -31.0583 -31.0351 -30.9572 -30.9479
   -18.6313 -17.4863 -16.4405 -16.2213 -15.9861 -15.7474 -15.6959 -15.5802
   -15.5666 -15.5587 -15.4459 -15.4283 -15.3717 -15.2654 -15.1955 -15.1593
   -15.1057 -15.0973 -15.0734 -14.9806 -14.9655 -14.9494 -14.9381 -14.8630
   -14.8200 -14.8000 -14.6929 -14.6255 -14.5599 -14.5313 -14.2369 -13.4364
   -13.3231 -11.6636  -6.5459  -6.4219  -4.4137  -3.9413  -3.9313  -3.7210
    -3.5594  -3.4574  -3.3288  -3.3123  -3.1823  -3.0617  -2.9422  -2.8856
    -2.8778  -2.8065  -2.7803  -2.7747  -2.6397  -2.6008  -2.5581  -2.5349
    -2.5038  -2.4280  -2.4150  -2.3594  -2.3190  -2.2853  -2.1799  -2.1409
    -2.1015  -2.0859  -2.0619  -2.0172  -1.9808  -1.9590  -1.9491  -1.9354
    -1.8970  -1.8047  -1.7546  -1.6563  -1.6002  -1.4999  -1.4557  -1.4404
    -1.3745  -1.2799  -1.1642  -1.1513  -1.0804  -1.0370  -0.9936  -0.9662
    -0.8929  -0.8834  -0.8132  -0.7737  -0.7001  -0.6496  -0.6175  -0.5940
    -0.5709  -0.4751  -0.4258  -0.3461  -0.2884  -0.2329  -0.2119  -0.1185
    -0.0892  -0.0575  -0.0328   0.0245   0.0669   0.0841   0.1053   0.1297
     0.1631   0.1864   0.3066   0.3600   0.3732   0.4067   0.4312   0.5412
     0.6020   0.6774   0.7366   0.7775   0.8802   0.8962   0.9407   1.0662
     1.0789   1.0860   1.1446   1.3039   1.6186   1.6441   1.6851   1.7771
     2.9509   3.1087   3.2252   3.4470   3.5453   3.5801   3.8454   3.9520
     3.9895   4.0162   4.0262

          k = 0.0000 0.0419 0.0000 ( 17933 PWs)   bands (ev):

   -56.1147 -56.0908 -55.6521 -55.6279 -55.5600 -55.5353 -55.5347 -55.5096
   -55.4179 -55.3664 -55.3341 -55.2623 -54.9311 -54.9070 -54.8574 -54.8263
   -32.5178 -32.4065 -32.3866 -32.2663 -32.2516 -32.2006 -32.0727 -32.0166
   -31.9977 -31.8883 -31.8611 -31.8323 -31.8281 -31.8226 -31.8140 -31.7982
   -31.7901 -31.7742 -31.7653 -31.7644 -31.7491 -31.7411 -31.7316 -31.7236
   -31.7200 -31.7144 -31.6672 -31.6430 -31.6273 -31.5938 -31.5473 -31.5389
   -31.5346 -31.5106 -31.4767 -31.4590 -31.3477 -31.2824 -31.2616 -31.2450
   -31.1413 -31.1086 -31.0863 -31.0808 -31.0557 -31.0386 -31.0141 -30.9837
   -18.6309 -17.4836 -16.3153 -16.0924 -15.8786 -15.6900 -15.6635 -15.5830
   -15.5070 -15.4989 -15.4962 -15.4317 -15.3322 -15.3190 -15.2189 -15.1914
   -15.1584 -15.1387 -15.0789 -15.0178 -14.9939 -14.9756 -14.9054 -14.8871
   -14.8745 -14.7775 -14.7476 -14.6408 -14.6181 -14.5530 -14.3113 -13.4420
   -13.3634 -11.6664  -6.5402  -6.4261  -4.3880  -3.9257  -3.7591  -3.5405
    -3.3912  -3.3031  -3.1821  -3.1543  -3.0562  -3.0151  -2.8803  -2.8373
    -2.8260  -2.7947  -2.7663  -2.6931  -2.6595  -2.6315  -2.5779  -2.5525
    -2.5098  -2.4870  -2.4507  -2.4246  -2.3938  -2.3741  -2.3489  -2.3031
    -2.2750  -2.2524  -2.1774  -2.1038  -2.0891  -2.0740  -2.0304  -1.9641
    -1.9497  -1.7464  -1.7067  -1.5965  -1.5650  -1.4243  -1.4060  -1.3195
    -1.2937  -1.2229  -1.0597  -1.0365  -0.9679  -0.9561  -0.8857  -0.8497
    -0.7965  -0.7795  -0.7544  -0.7376  -0.7166  -0.6132  -0.5964  -0.5545
    -0.5273  -0.4397  -0.4261  -0.3719  -0.3531  -0.3217  -0.2822  -0.2215
    -0.2093  -0.1170  -0.0883  -0.0465   0.0230   0.0521   0.0824   0.1257
     0.2046   0.2104   0.2627   0.2788   0.3250   0.3397   0.3947   0.4358
     0.4923   0.5171   0.6119   0.6369   0.7103   0.7353   0.7738   0.8577
     1.0289   1.0982   1.2932   1.3954   1.4809   1.5951   1.6147   1.7248
     2.8643   3.3380   3.3821   3.5150   3.7120   3.7790   3.8282   3.8616
     3.9042   3.9571   3.9689

          k = 0.0000-0.0839 0.0000 ( 17884 PWs)   bands (ev):

   -56.1028 -56.1026 -55.6422 -55.6377 -55.5506 -55.5446 -55.5236 -55.5206
   -55.4169 -55.3607 -55.3397 -55.2633 -54.9191 -54.9189 -54.8516 -54.8320
   -32.3965 -32.3960 -32.3861 -32.3859 -32.2336 -32.2333 -31.9481 -31.9428
   -31.8917 -31.8703 -31.8681 -31.8639 -31.8607 -31.8589 -31.8327 -31.8278
   -31.7913 -31.7876 -31.7561 -31.7505 -31.7419 -31.7406 -31.7384 -31.7344
   -31.7084 -31.6936 -31.6760 -31.6661 -31.6365 -31.6227 -31.5743 -31.5633
   -31.5598 -31.5296 -31.5148 -31.4662 -31.2738 -31.2532 -31.2530 -31.1600
   -31.1502 -31.1500 -31.1112 -31.1111 -31.0670 -31.0535 -31.0436 -31.0267
   -18.6306 -17.4810 -16.0080 -16.0041 -15.7831 -15.7559 -15.6514 -15.6116
   -15.5081 -15.4908 -15.3630 -15.3629 -15.3205 -15.3120 -15.2702 -15.2599
   -15.2319 -15.2059 -15.1378 -15.1033 -15.0133 -15.0005 -14.8886 -14.8763
   -14.8182 -14.7789 -14.7511 -14.7432 -14.6517 -14.5701 -14.4182 -13.4262
   -13.4261 -11.6692  -6.5340  -6.4308  -4.3626  -3.9188  -3.3103  -3.3103
    -3.1267  -3.1142  -3.0952  -2.9987  -2.9356  -2.9299  -2.9044  -2.8773
    -2.8706  -2.8693  -2.8439  -2.8044  -2.7026  -2.6907  -2.6728  -2.6655
    -2.6476  -2.6271  -2.5540  -2.5190  -2.4491  -2.4206  -2.3572  -2.3211
    -2.2180  -2.1914  -2.1287  -2.0802  -2.0735  -2.0318  -1.9994  -1.8486
    -1.7794  -1.7490  -1.6206  -1.6034  -1.5637  -1.5528  -1.3736  -1.3514
    -1.2949  -1.1669  -1.1176  -1.0858  -1.0787  -1.0591  -0.9822  -0.9132
    -0.8568  -0.8361  -0.8049  -0.6711  -0.6084  -0.5465  -0.5117  -0.4576
    -0.4354  -0.4192  -0.3861  -0.3388  -0.3317  -0.3051  -0.2287  -0.1895
    -0.1813  -0.1350  -0.0968  -0.0179   0.0007   0.0192   0.0646   0.0890
     0.1196   0.1508   0.1721   0.1995   0.2293   0.2363   0.3387   0.3463
     0.3714   0.4012   0.4404   0.5003   0.5442   0.5546   0.6040   1.0141
     1.0387   1.1617   1.2565   1.4358   1.4370   1.5396   1.5405   1.6834
     2.7732   3.5654   3.5668   3.7203   3.7215   3.8196   3.8201   3.9362
     3.9440   3.9861   3.9927

          k = 0.0380 0.0000 0.0000 ( 17913 PWs)   bands (ev):

   -56.1196 -56.0858 -55.6568 -55.6230 -55.5648 -55.5398 -55.5304 -55.5044
   -55.4188 -55.3705 -55.3299 -55.2614 -54.9360 -54.9020 -54.8615 -54.8222
   -32.5722 -32.4106 -32.3832 -32.2775 -32.1950 -32.1867 -32.1245 -32.0729
   -32.0566 -31.8840 -31.8812 -31.8726 -31.8417 -31.8396 -31.8142 -31.7874
   -31.7776 -31.7737 -31.7608 -31.7603 -31.7584 -31.7189 -31.7179 -31.7026
   -31.6763 -31.6731 -31.6601 -31.6464 -31.6296 -31.6123 -31.5404 -31.5380
   -31.5089 -31.4821 -31.4541 -31.4212 -31.3908 -31.3357 -31.2680 -31.2399
   -31.1535 -31.1077 -31.0745 -31.0683 -31.0620 -31.0334 -30.9570 -30.9477
   -18.6309 -17.4859 -16.3418 -16.1441 -15.9044 -15.7854 -15.7244 -15.6139
   -15.5827 -15.5751 -15.4467 -15.4172 -15.3661 -15.2734 -15.2680 -15.2243
   -15.1965 -15.1038 -15.0870 -15.0317 -14.9467 -14.9246 -14.9202 -14.8048
   -14.7933 -14.7653 -14.7482 -14.6353 -14.5800 -14.5300 -14.2357 -13.4334
   -13.3228 -11.6628  -6.5399  -6.4218  -4.4046  -3.9430  -3.6616  -3.5777
    -3.4146  -3.3075  -3.2262  -3.1547  -3.1367  -3.0939  -3.0483  -3.0116
    -2.9585  -2.8879  -2.8558  -2.7537  -2.7143  -2.5735  -2.5496  -2.5051
    -2.4301  -2.3835  -2.3205  -2.2927  -2.2759  -2.2595  -2.2174  -2.2011
    -2.1501  -2.0645  -1.9939  -1.9791  -1.9303  -1.9188  -1.8934  -1.7787
    -1.7597  -1.6721  -1.5834  -1.5703  -1.5371  -1.5018  -1.4947  -1.4473
    -1.4038  -1.3700  -1.2221  -1.1946  -1.1633  -1.0970  -1.0551  -0.9903
    -0.9668  -0.9573  -0.8652  -0.8479  -0.8187  -0.7477  -0.6300  -0.5847
    -0.5374  -0.5065  -0.4392  -0.3882  -0.3285  -0.2727  -0.1999  -0.1832
    -0.1451  -0.1200  -0.0716  -0.0265   0.0157   0.0606   0.0940   0.1195
     0.1849   0.2162   0.2430   0.2561   0.3583   0.3851   0.3972   0.4409
     0.4527   0.6090   0.6653   0.7270   0.7811   0.8549   0.8852   0.9117
     1.0330   1.0960   1.0979   1.2746   1.4881   1.5356   1.6022   1.7801
     2.8825   3.2081   3.2474   3.5443   3.5726   3.6642   3.7852   3.8615
     3.9588   4.0227   4.0962

          k = 0.0380 0.0419 0.0000 ( 17878 PWs)   bands (ev):

   -56.1146 -56.0908 -55.6519 -55.6279 -55.5599 -55.5353 -55.5346 -55.5095
   -55.4178 -55.3663 -55.3341 -55.2623 -54.9310 -54.9070 -54.8573 -54.8263
   -32.5185 -32.4062 -32.3867 -32.2644 -32.2516 -32.2002 -32.0729 -32.0168
   -32.0041 -31.8727 -31.8607 -31.8316 -31.8279 -31.8215 -31.8139 -31.7987
   -31.7912 -31.7742 -31.7681 -31.7650 -31.7539 -31.7407 -31.7289 -31.7269
   -31.7152 -31.7072 -31.6671 -31.6409 -31.6273 -31.6055 -31.5489 -31.5381
   -31.5345 -31.5106 -31.4772 -31.4576 -31.3469 -31.2821 -31.2638 -31.2440
   -31.1411 -31.1085 -31.0863 -31.0809 -31.0583 -31.0381 -31.0140 -30.9836
   -18.6306 -17.4833 -16.2232 -16.0213 -15.8096 -15.7235 -15.6983 -15.6092
   -15.5092 -15.5019 -15.4394 -15.3908 -15.3543 -15.3415 -15.3054 -15.2285
   -15.2094 -15.1172 -15.0731 -15.0165 -14.9889 -14.9734 -14.9494 -14.9335
   -14.8378 -14.8178 -14.7504 -14.6733 -14.6103 -14.5507 -14.3107 -13.4399
   -13.3637 -11.6659  -6.5383  -6.4230  -4.3847  -3.9306  -3.4847  -3.4050
    -3.2597  -3.1500  -3.0762  -3.0519  -2.9900  -2.9739  -2.9243  -2.8543
    -2.8018  -2.7705  -2.7078  -2.7004  -2.6698  -2.6175  -2.5894  -2.5674
    -2.4801  -2.4586  -2.4249  -2.3807  -2.3594  -2.3269  -2.3134  -2.2821
    -2.2525  -2.2235  -2.1464  -2.1084  -2.0372  -2.0236  -1.9772  -1.9289
    -1.8736  -1.7897  -1.5992  -1.5766  -1.5070  -1.4638  -1.4151  -1.3178
    -1.2688  -1.2025  -1.1728  -1.1101  -1.0742  -1.0136  -0.9324  -0.9140
    -0.8818  -0.8471  -0.8075  -0.7556  -0.7488  -0.7197  -0.6871  -0.6410
    -0.5762  -0.5149  -0.5057  -0.4735  -0.4438  -0.3981  -0.3663  -0.3234
    -0.2661  -0.2595  -0.1706  -0.1287  -0.0677  -0.0385  -0.0082   0.0438
     0.0953   0.1440   0.1807   0.2332   0.3101   0.3386   0.3666   0.4725
     0.5146   0.5410   0.6313   0.6612   0.6895   0.7409   0.8274   0.8498
     0.9571   1.0570   1.3051   1.3850   1.4369   1.5187   1.5788   1.7360
     2.8609   3.3274   3.4688   3.6058   3.7213   3.7688   3.8405   3.8861
     3.9542   3.9986   4.0475

          k = 0.0380-0.0839 0.0000 ( 17916 PWs)   bands (ev):

   -56.1029 -56.1026 -55.6422 -55.6377 -55.5506 -55.5446 -55.5236 -55.5206
   -55.4169 -55.3607 -55.3397 -55.2633 -54.9192 -54.9189 -54.8516 -54.8321
   -32.3966 -32.3960 -32.3868 -32.3865 -32.2327 -32.2324 -31.9485 -31.9432
   -31.8920 -31.8866 -31.8831 -31.8690 -31.8327 -31.8317 -31.8312 -31.8278
   -31.7915 -31.7878 -31.7562 -31.7506 -31.7495 -31.7463 -31.7451 -31.7422
   -31.7094 -31.6824 -31.6682 -31.6661 -31.6351 -31.6227 -31.5801 -31.5659
   -31.5643 -31.5297 -31.5149 -31.4643 -31.2738 -31.2539 -31.2538 -31.1598
   -31.1501 -31.1499 -31.1112 -31.1111 -31.0671 -31.0540 -31.0448 -31.0272
   -18.6304 -17.4808 -15.9430 -15.9389 -15.7406 -15.7010 -15.6362 -15.6297
   -15.5363 -15.4797 -15.4032 -15.4017 -15.2853 -15.2730 -15.2531 -15.2425
   -15.2163 -15.1983 -15.1418 -15.1175 -15.0580 -15.0441 -14.9575 -14.9444
   -14.8687 -14.8480 -14.7697 -14.7169 -14.6409 -14.5642 -14.4146 -13.4260
   -13.4259 -11.6689  -6.5341  -6.4270  -4.3653  -3.9209  -3.1212  -3.1045
    -3.0972  -3.0107  -2.9362  -2.9281  -2.8984  -2.8565  -2.7976  -2.7904
    -2.7657  -2.7621  -2.7245  -2.7199  -2.6451  -2.6154  -2.5555  -2.5525
    -2.5407  -2.5190  -2.5027  -2.4778  -2.4546  -2.4440  -2.3672  -2.3419
    -2.2356  -2.1658  -2.1170  -2.1012  -2.0567  -1.9337  -1.8495  -1.8187
    -1.7775  -1.7593  -1.7514  -1.7322  -1.5351  -1.5180  -1.4446  -1.4150
    -1.3508  -1.3288  -1.3185  -1.2950  -1.2066  -1.1703  -1.0638  -1.0240
    -0.9321  -0.8143  -0.7664  -0.7613  -0.7261  -0.6942  -0.6012  -0.5769
    -0.5431  -0.5233  -0.4898  -0.4778  -0.4413  -0.4301  -0.3847  -0.3468
    -0.2803  -0.2632  -0.2195  -0.1558  -0.1229  -0.0608  -0.0370   0.0103
     0.0353   0.0583   0.1441   0.1905   0.2072   0.2249   0.2964   0.3332
     0.4392   0.5038   0.5652   0.6070   0.6808   0.7226   0.7517   0.9864
     1.0166   1.1762   1.2048   1.4481   1.4492   1.5239   1.5250   1.7057
     2.8326   3.5666   3.5674   3.7472   3.7492   3.9062   3.9268   3.9579
     3.9749   4.0036   4.0062

          k = 0.0380-0.0419 0.0000 ( 17876 PWs)   bands (ev):

   -56.1146 -56.0908 -55.6519 -55.6279 -55.5599 -55.5353 -55.5346 -55.5095
   -55.4178 -55.3663 -55.3341 -55.2623 -54.9310 -54.9070 -54.8573 -54.8263
   -32.5185 -32.4062 -32.3867 -32.2644 -32.2516 -32.2002 -32.0729 -32.0167
   -32.0041 -31.8726 -31.8607 -31.8316 -31.8279 -31.8214 -31.8139 -31.7987
   -31.7912 -31.7742 -31.7683 -31.7650 -31.7540 -31.7406 -31.7288 -31.7269
   -31.7152 -31.7072 -31.6671 -31.6410 -31.6273 -31.6055 -31.5489 -31.5381
   -31.5345 -31.5106 -31.4767 -31.4581 -31.3468 -31.2821 -31.2638 -31.2440
   -31.1411 -31.1084 -31.0862 -31.0809 -31.0586 -31.0380 -31.0140 -30.9835
   -18.6306 -17.4833 -16.2231 -16.0214 -15.8094 -15.7242 -15.6983 -15.6091
   -15.5097 -15.5013 -15.4394 -15.3908 -15.3537 -15.3405 -15.3055 -15.2285
   -15.2090 -15.1166 -15.0790 -15.0172 -14.9889 -14.9733 -14.9450 -14.9352
   -14.8357 -14.8169 -14.7522 -14.6703 -14.6126 -14.5503 -14.3111 -13.4399
   -13.3637 -11.6658  -6.5358  -6.4255  -4.3848  -3.9339  -3.4841  -3.4049
    -3.2584  -3.1516  -3.0775  -3.0541  -2.9904  -2.9724  -2.9063  -2.8618
    -2.7976  -2.7711  -2.7134  -2.7000  -2.6575  -2.6185  -2.5906  -2.5735
    -2.4823  -2.4535  -2.4249  -2.3883  -2.3592  -2.3290  -2.3118  -2.2861
    -2.2654  -2.2210  -2.1587  -2.1072  -2.0304  -2.0210  -1.9726  -1.9334
    -1.8755  -1.7907  -1.6184  -1.5703  -1.5246  -1.4355  -1.4016  -1.3090
    -1.2700  -1.2055  -1.1734  -1.1132  -1.0742  -1.0104  -0.9402  -0.9092
    -0.8723  -0.8407  -0.8084  -0.7709  -0.7474  -0.7164  -0.6915  -0.6267
    -0.5684  -0.5393  -0.4912  -0.4329  -0.4230  -0.3777  -0.3722  -0.3342
    -0.2667  -0.2535  -0.1689  -0.1444  -0.1122  -0.0593  -0.0062   0.0466
     0.1217   0.1401   0.1852   0.2122   0.3102   0.3340   0.3704   0.4644
     0.4994   0.5207   0.6324   0.6653   0.7090   0.7433   0.8259   0.8556
     0.9493   1.0577   1.3054   1.3833   1.4409   1.5185   1.5795   1.7385
     2.8666   3.3273   3.4689   3.6056   3.7214   3.7688   3.8437   3.8916
     3.9500   4.0123   4.0315

          k =-0.0760-0.0000 0.0000 ( 17886 PWs)   bands (ev):

   -56.1196 -56.0858 -55.6567 -55.6230 -55.5648 -55.5397 -55.5304 -55.5044
   -55.4188 -55.3705 -55.3299 -55.2613 -54.9360 -54.9020 -54.8615 -54.8222
   -32.5730 -32.4105 -32.3830 -32.2751 -32.1950 -32.1870 -32.1248 -32.0731
   -32.0617 -31.8905 -31.8724 -31.8492 -31.8429 -31.8388 -31.8078 -31.8070
   -31.7873 -31.7773 -31.7606 -31.7582 -31.7434 -31.7187 -31.7184 -31.6959
   -31.6764 -31.6730 -31.6601 -31.6440 -31.6298 -31.6293 -31.5402 -31.5380
   -31.5089 -31.4822 -31.4543 -31.4213 -31.3890 -31.3354 -31.2708 -31.2387
   -31.1535 -31.1075 -31.0748 -31.0682 -31.0655 -31.0322 -30.9570 -30.9476
   -18.6306 -17.4856 -16.1693 -16.0962 -15.8214 -15.8168 -15.8075 -15.6094
   -15.5732 -15.5550 -15.4841 -15.4449 -15.4353 -15.3032 -15.2698 -15.2083
   -15.1881 -15.1512 -15.1364 -15.0967 -15.0396 -14.9445 -14.8516 -14.8340
   -14.8051 -14.7087 -14.6894 -14.6516 -14.5826 -14.5298 -14.2351 -13.4306
   -13.3224 -11.6620  -6.5338  -6.4218  -4.3973  -3.9529  -3.5515  -3.3852
    -3.2761  -3.2679  -3.1521  -3.1232  -3.0902  -3.0203  -3.0152  -2.9606
    -2.8941  -2.8796  -2.7643  -2.7161  -2.6529  -2.6333  -2.5107  -2.4029
    -2.3579  -2.3178  -2.2791  -2.2682  -2.2281  -2.2018  -2.1849  -2.1698
    -2.1008  -2.0826  -2.0067  -1.9804  -1.9331  -1.9128  -1.8575  -1.7856
    -1.7486  -1.6993  -1.6457  -1.6209  -1.6023  -1.4875  -1.4747  -1.4239
    -1.4002  -1.3445  -1.3077  -1.2731  -1.2281  -1.1433  -1.0993  -1.0826
    -0.9835  -0.9598  -0.8818  -0.8317  -0.8082  -0.7910  -0.7661  -0.7014
    -0.5794  -0.5179  -0.4723  -0.4400  -0.4054  -0.2979  -0.2948  -0.2393
    -0.2304  -0.2065  -0.2053  -0.1182  -0.0425   0.0179   0.0495   0.0971
     0.1464   0.1608   0.1948   0.2055   0.3377   0.3436   0.4621   0.4900
     0.5320   0.5748   0.6110   0.7407   0.7754   0.7904   0.8002   0.8808
     1.0832   1.0997   1.1184   1.2430   1.2673   1.4087   1.5419   1.7809
     2.8326   3.1986   3.2929   3.4206   3.5443   3.6094   3.7024   3.8586
     3.9141   3.9679   4.0509

          k =-0.0760 0.0419 0.0000 ( 17914 PWs)   bands (ev):

   -56.1146 -56.0908 -55.6519 -55.6279 -55.5600 -55.5353 -55.5346 -55.5096
   -55.4179 -55.3663 -55.3341 -55.2623 -54.9310 -54.9070 -54.8574 -54.8263
   -32.5194 -32.4063 -32.3867 -32.2626 -32.2519 -32.2002 -32.0733 -32.0171
   -32.0102 -31.8607 -31.8490 -31.8396 -31.8276 -31.8162 -31.8105 -31.7991
   -31.7925 -31.7917 -31.7742 -31.7651 -31.7436 -31.7387 -31.7314 -31.7279
   -31.7151 -31.6970 -31.6672 -31.6392 -31.6274 -31.6191 -31.5508 -31.5377
   -31.5345 -31.5107 -31.4774 -31.4570 -31.3461 -31.2819 -31.2662 -31.2433
   -31.1411 -31.1084 -31.0863 -31.0809 -31.0615 -31.0375 -31.0141 -30.9836
   -18.6304 -17.4831 -16.0607 -15.9809 -15.7664 -15.7495 -15.7211 -15.6251
   -15.5143 -15.5075 -15.4464 -15.3795 -15.3721 -15.3501 -15.2899 -15.2309
   -15.2143 -15.1254 -15.1155 -15.0950 -15.0721 -14.9980 -14.9246 -14.9216
   -14.9027 -14.7957 -14.7264 -14.6858 -14.6082 -14.5490 -14.3110 -13.4380
   -13.3640 -11.6654  -6.5341  -6.4225  -4.3827  -3.9379  -3.3880  -3.2321
    -3.0636  -3.0612  -2.9751  -2.9255  -2.8974  -2.8380  -2.8130  -2.8007
    -2.7795  -2.7126  -2.7027  -2.6659  -2.6113  -2.5726  -2.5478  -2.5037
    -2.4767  -2.4517  -2.4113  -2.4075  -2.3685  -2.3224  -2.2566  -2.2462
    -2.2372  -2.2094  -2.1592  -2.0704  -1.9305  -1.8892  -1.8474  -1.8132
    -1.8022  -1.7737  -1.7285  -1.6565  -1.5632  -1.4544  -1.4203  -1.3123
    -1.2743  -1.2498  -1.2212  -1.1867  -1.0968  -1.0808  -1.0565  -1.0459
    -1.0061  -0.9866  -0.9319  -0.8611  -0.8204  -0.7814  -0.7602  -0.7112
    -0.6837  -0.6519  -0.6266  -0.5704  -0.5440  -0.4904  -0.4691  -0.4233
    -0.3785  -0.3230  -0.2756  -0.2142  -0.1789  -0.1530  -0.0735  -0.0524
     0.0007   0.0621   0.0915   0.1485   0.3185   0.4036   0.4904   0.5095
     0.5869   0.6084   0.6515   0.6756   0.7742   0.8348   0.8445   0.8976
     0.9444   1.0401   1.2432   1.3195   1.4217   1.4467   1.5659   1.7504
     2.8728   3.3246   3.4832   3.4967   3.6347   3.7715   3.8864   3.8922
     3.9295   4.0498   4.0739

          k =-0.0760-0.0839 0.0000 ( 17948 PWs)   bands (ev):

   -56.1029 -56.1026 -55.6422 -55.6377 -55.5507 -55.5447 -55.5236 -55.5206
   -55.4169 -55.3607 -55.3398 -55.2633 -54.9192 -54.9189 -54.8517 -54.8321
   -32.3966 -32.3961 -32.3875 -32.3872 -32.2317 -32.2314 -31.9489 -31.9436
   -31.8942 -31.8927 -31.8901 -31.8693 -31.8326 -31.8277 -31.8091 -31.8078
   -31.7916 -31.7880 -31.7655 -31.7598 -31.7563 -31.7508 -31.7504 -31.7445
   -31.7104 -31.6717 -31.6658 -31.6594 -31.6337 -31.6227 -31.5871 -31.5729
   -31.5656 -31.5297 -31.5149 -31.4624 -31.2738 -31.2547 -31.2545 -31.1597
   -31.1502 -31.1499 -31.1112 -31.1111 -31.0672 -31.0546 -31.0459 -31.0276
   -18.6302 -17.4807 -15.8156 -15.8102 -15.7434 -15.7395 -15.6703 -15.6077
   -15.5077 -15.5039 -15.4607 -15.3728 -15.2951 -15.2763 -15.2062 -15.1997
   -15.1979 -15.1892 -15.1206 -15.1102 -15.0749 -15.0519 -15.0269 -15.0233
   -14.9947 -14.9714 -14.7586 -14.7021 -14.6358 -14.5603 -14.4116 -13.4258
   -13.4257 -11.6687  -6.5343  -6.4232  -4.3680  -3.9231  -3.1153  -3.0177
    -2.9362  -2.9246  -2.8953  -2.8044  -2.7835  -2.7343  -2.7105  -2.6894
    -2.6149  -2.6033  -2.5515  -2.5458  -2.5123  -2.4953  -2.4415  -2.4317
    -2.4214  -2.4164  -2.3675  -2.3322  -2.3282  -2.3176  -2.2959  -2.2271
    -2.1638  -2.1260  -2.0885  -2.0732  -2.0707  -2.0133  -1.9865  -1.9539
    -1.9022  -1.8982  -1.8645  -1.8135  -1.6838  -1.6733  -1.5413  -1.4706
    -1.4518  -1.3729  -1.3232  -1.2901  -1.2144  -1.1660  -1.1365  -1.0293
    -1.0077  -0.9763  -0.9618  -0.9272  -0.9225  -0.8823  -0.7728  -0.7532
    -0.7154  -0.7127  -0.6339  -0.6039  -0.5503  -0.5296  -0.5175  -0.4751
    -0.4566  -0.3731  -0.3502  -0.2944  -0.2399  -0.1967  -0.1465  -0.0947
    -0.0110   0.0544   0.1079   0.1992   0.2017   0.2140   0.4197   0.4253
     0.5247   0.6077   0.7338   0.7598   0.7740   0.8781   0.9180   0.9416
     0.9687   1.1330   1.1748   1.4700   1.4716   1.5014   1.5018   1.7259
     2.8913   3.6423   3.6425   3.6784   3.6798   3.9120   3.9164   3.9644
     3.9708   4.0263   4.0503

     the Fermi energy is     3.0503 ev

!    total energy              =   -2972.73810741 Ry
     estimated scf accuracy    <       0.00000007 Ry
     smearing contrib. (-TS)   =      -0.01267873 Ry
     internal energy E=F+TS    =   -2972.72542867 Ry

     The total energy is F=E-TS. E is the sum of the following terms:
     one-electron contribution =  -24071.25788687 Ry
     hartree contribution      =   12129.23876697 Ry
     xc contribution           =    -493.17028467 Ry
     ewald contribution        =    9462.46311833 Ry
     electric field correction =       0.00085756 Ry

     convergence has been achieved in  66 iterations

     Forces acting on atoms (cartesian axes, Ry/au):

     atom    1 type  1   force =     0.00012438   -0.00029574    0.10881011
     atom    2 type  1   force =    -0.00011800   -0.00040631   -0.16774305
     atom    3 type  2   force =    -0.00015374   -0.00001027   -0.04385910
     atom    4 type  2   force =     0.00004852   -0.00075079    0.03933712
     atom    5 type  2   force =    -0.01327732    0.00016481   -0.00457215
     atom    6 type  2   force =     0.01487562    0.00103819   -0.00539346
     atom    7 type  1   force =    -0.00093626   -0.00251457    0.01166999
     atom    8 type  1   force =     0.00124990    0.00154090    0.07746379
     atom    9 type  2   force =    -0.00005947   -0.00014867   -0.00023633
     atom   10 type  2   force =    -0.00114552    0.00038828   -0.05116555
     atom   11 type  2   force =    -0.00009019    0.00036147    0.00010495
     atom   12 type  2   force =     0.00000399    0.00024762    0.00006531
     atom   13 type  1   force =     0.00047614    0.00001229    0.00001771
     atom   14 type  1   force =    -0.00026115   -0.00009184    0.00017381
     atom   15 type  2   force =    -0.00019929   -0.00012368    0.00045107
     atom   16 type  2   force =     0.00013545    0.00002121   -0.00012189
     atom   17 type  2   force =    -0.00066795    0.00037192   -0.00018017
     atom   18 type  2   force =     0.00034393    0.00031128   -0.00014279
     atom   19 type  1   force =     0.00033547   -0.00017755    0.00016882
     atom   20 type  1   force =    -0.00011799    0.00051705   -0.00019952
     atom   21 type  2   force =     0.00007890    0.00005602    0.10120647
     atom   22 type  2   force =    -0.00016031   -0.00001118    0.00017721
     atom   23 type  2   force =    -0.07507421   -0.00002205   -0.03017116
     atom   24 type  2   force =     0.07504921    0.00043420   -0.03016854
     atom   25 type  1   force =     0.00021201   -0.00029056    0.10844965
     atom   26 type  1   force =    -0.00010347   -0.00045178   -0.16776150
     atom   27 type  2   force =    -0.00001879   -0.00025299   -0.04286347
     atom   28 type  2   force =     0.00011529   -0.00047171    0.03869619
     atom   29 type  2   force =    -0.01359544    0.00094670   -0.00480310
     atom   30 type  2   force =     0.01512932    0.00120872   -0.00567599
     atom   31 type  1   force =    -0.00125942    0.00051051    0.00737189
     atom   32 type  1   force =     0.00133313   -0.00408908    0.07789460
     atom   33 type  2   force =    -0.00006394    0.00012422   -0.00026395
     atom   34 type  2   force =    -0.00137460    0.00034741   -0.05722147
     atom   35 type  2   force =    -0.00002410   -0.00049831   -0.00003545
     atom   36 type  2   force =    -0.00034265   -0.00022303   -0.00013526
     atom   37 type  1   force =    -0.00004295   -0.00002620   -0.00028816
     atom   38 type  1   force =    -0.00022040    0.00021994   -0.00010842
     atom   39 type  2   force =     0.00001144   -0.00002166   -0.00046771
     atom   40 type  2   force =    -0.00001643    0.00028950    0.00021291
     atom   41 type  2   force =    -0.00000633   -0.00011051    0.00005065
     atom   42 type  2   force =    -0.00031636    0.00004152   -0.00007384
     atom   43 type  1   force =     0.00024036    0.00079990    0.00036748
     atom   44 type  1   force =    -0.00004339   -0.00001830    0.00008587
     atom   45 type  2   force =     0.00006907    0.00003782    0.10117349
     atom   46 type  2   force =    -0.07506335    0.00003541   -0.03013235
     atom   47 type  2   force =     0.07504091    0.00047000   -0.03014314
     atom   48 type  3   force =     0.00003281    0.00003254    0.00027110
     atom   49 type  3   force =     0.00019913    0.00018750    0.00006895
     atom   50 type  4   force =    -0.00016014    0.00008530   -0.00001130
     atom   51 type  5   force =     0.00021127    0.00051345   -0.00023168
     atom   52 type  5   force =    -0.00020414   -0.00017271    0.00002146
     atom   53 type  2   force =     0.01226849    0.00682487    0.00348978
     atom   54 type  5   force =    -0.01360219   -0.00813802   -0.00390179
     atom   55 type  5   force =     0.00113474    0.00117697    0.00027191

     Total force =     0.391062     Total SCF correction =     0.000970
  @ DRIVER MODE: Message from server: STATUS
  @ DRIVER MODE: Message from server: GETFORCE
  @ DRIVER MODE: Returning v,forces,stress,ensemble 

     Writing output data file ./calc.save/
  @ DRIVER MODE: Message from server: EXIT
  @ DRIVE MODE: Exiting  
 
     init_run     :     10.95s CPU     11.17s WALL (       1 calls)
     electrons    :   1100.62s CPU   1115.63s WALL (       1 calls)
     forces       :      2.30s CPU      2.39s WALL (       1 calls)

     Called by init_run:
     wfcinit      :      4.83s CPU      4.90s WALL (       1 calls)
     potinit      :      5.48s CPU      5.54s WALL (       1 calls)
     hinit0       :      0.29s CPU      0.31s WALL (       1 calls)

     Called by electrons:
     c_bands      :    943.24s CPU    949.48s WALL (      66 calls)
     sum_band     :    108.65s CPU    112.20s WALL (      66 calls)
     v_of_rho     :     36.92s CPU     38.73s WALL (      67 calls)
     newd         :     15.13s CPU     18.49s WALL (      67 calls)
     mix_rho      :      1.37s CPU      1.41s WALL (      66 calls)
     vdW_kernel   :      4.54s CPU      4.56s WALL (       1 calls)

     Called by c_bands:
     init_us_2    :      5.56s CPU      5.59s WALL (    1340 calls)
     cegterg      :    925.68s CPU    931.65s WALL (     672 calls)

     Called by *egterg:
     cdiaghg      :    160.47s CPU    161.18s WALL (    5724 calls)
     h_psi        :    495.05s CPU    499.14s WALL (    5735 calls)
     s_psi        :     59.30s CPU     59.47s WALL (    5735 calls)
     g_psi        :      1.68s CPU      1.69s WALL (    5053 calls)

     Called by h_psi:
     h_psi:calbec :     58.76s CPU     59.03s WALL (    5735 calls)
     vloc_psi     :    373.88s CPU    377.21s WALL (    5735 calls)
     add_vuspsi   :     59.59s CPU     59.87s WALL (    5735 calls)

     General routines
     calbec       :     77.60s CPU     77.93s WALL (    6435 calls)
     fft          :     18.91s CPU     19.05s WALL (    4221 calls)
     ffts         :      0.14s CPU      0.14s WALL (     133 calls)
     fftw         :    419.16s CPU    422.92s WALL (  919914 calls)
     interpolate  :      0.40s CPU      0.41s WALL (      67 calls)
     davcio       :      0.00s CPU      0.16s WALL (      10 calls)
 
     Parallel routines
 
     PWSCF        :  18m34.15s CPU  18m50.10s WALL

 
   This run was terminated on:   4:25:21  16Sep2021            

=------------------------------------------------------------------------------=
   JOB DONE.
=------------------------------------------------------------------------------=
