
     Program PWSCF v.6.7GPU starts on 25Sep2021 at 22:44: 7 

     This program is part of the open-source Quantum ESPRESSO suite
     for quantum simulation of materials; please cite
         "P. Giannozzi et al., J. Phys.:Condens. Matter 21 395502 (2009);
         "P. Giannozzi et al., J. Phys.:Condens. Matter 29 465901 (2017);
         "P. Giannozzi et al., J. Chem. Phys. 152 154105 (2020);
          URL http://www.quantum-espresso.org", 
     in publications or presentations arising from this work. More details at
     http://www.quantum-espresso.org/quote

     Parallel version (MPI), running on     8 processors

     MPI processes distributed on     1 nodes
     R & G space division:  proc/nbgrp/npool/nimage =       8
     Reading input from /storage/home/hcoda1/3/ntian30/research/carbon/CxH_vib/H2O_calc/ads_slab/CH3OHN2HO_a/out_0015/pw.inp
Warning: card &CELL ignored
Warning: card   CELL_DYNAMICS='IPI', ignored
Warning: card / ignored

     Current dimensions of program PWSCF are:
     Max number of different atomic species (ntypx) = 10
     Max number of k-points (npk) =  40000
     Max angular momentum in pseudopotentials (lmaxx) =  3
     Presently no symmetry can be used with electric field

     Message from routine cell_base_init:
     DEPRECATED: use true lattice parameter, not A to a.u. conversion factor

     **************************************************************************
     Initializing libbeef V0.1.2 with the BEEF-vdW functional.
     Citation: Wellendorff et al., PRB 85, 235149 (2012).
     **************************************************************************


     IMPORTANT: XC functional enforced from input :
     Exchange-correlation= BEEF-VDW
                           (   1   4  43  14   2   0   0)
     Any further DFT definition will be discarded
     Please, verify this is what you really want


     Subspace diagonalization in iterative solution of the eigenvalue problem:
     one sub-group per band group will be used
     scalapack distributed-memory algorithm (size of sub-group:  2*  2 procs)

  @ DRIVER MODE: Connecting to 
 qe_1139763_2971668.sched-torque.pace.gatech.eduzxqkzkum_scratch
  using UNIX socket
  @ DRIVER MODE: Message from server: STATUS
  @ DRIVER MODE: Message from server: INIT
  @ DRIVER MODE: Receiving replica           0          -1
  @ DRIVER MODE: Receiving encoded integer          25
  @ DRIVER MODE:  SCF:  T  FORCE:  T  STRESS:  F  VC:  F  ENSEMBLE:  F
  @ DRIVER MODE:  SCF:  T  FORCE:  T  STRESS:  F  VC:  F  ENSEMBLE:  F
 
     Parallelization info
     --------------------
     sticks:   dense  smooth     PW     G-vecs:    dense   smooth      PW
     Min         409     164     47                70857    17926    2743
     Max         411     165     48                70858    17931    2751
     Sum        3275    1317    379               566857   143421   21985
 
     Using Slab Decomposition
 


     bravais-lattice index     =            0
     lattice parameter (alat)  =       1.8897  a.u.
     unit-cell volume          =    6658.9804 (a.u.)^3
     number of atoms/cell      =           57
     number of atomic types    =            5
     number of electrons       =       409.00
     number of Kohn-Sham states=          214
     kinetic-energy cutoff     =      29.3995  Ry
     charge density cutoff     =     293.9946  Ry
     scf convergence threshold =      7.3E-08
     mixing beta               =       0.0500
     number of iterations used =            8  plain     mixing
     Exchange-correlation= BEEF-VDW
                           (   1   4  43  14   2   0   0)

     celldm(1)=   1.889726  celldm(2)=   0.000000  celldm(3)=   0.000000
     celldm(4)=   0.000000  celldm(5)=   0.000000  celldm(6)=   0.000000

     crystal axes: (cart. coord. in units of alat)
               a(1) = (   6.579727   0.000000   0.000000 )  
               a(2) = (  -0.000775   5.961596   0.000000 )  
               a(3) = (   0.000000   0.000000  25.155947 )  

     reciprocal axes: (cart. coord. in units 2 pi/alat)
               b(1) = (  0.151982  0.000020  0.000000 )  
               b(2) = (  0.000000  0.167740  0.000000 )  
               b(3) = (  0.000000  0.000000  0.039752 )  


     PseudoPot. # 1 for Ti read from file:
     /storage/coda1/p-amedford6/0/shared/rich_project_chbe-medford/medford-share/data/pseudos_module/espresso/nninc/pbe/van/Ti.UPF
     MD5 check sum: 8e4df49b7f0d34bbd5052bf3f5ea0213
     Pseudo is Ultrasoft, Zval = 12.0
     Generated by new atomic code, or converted to UPF format
     Using radial grid of  851 points,  6 beta functions with: 
                l(1) =   0
                l(2) =   0
                l(3) =   1
                l(4) =   1
                l(5) =   2
                l(6) =   2
     Q(r) pseudized with  8 coefficients,  rinner =    1.000   1.000   1.000
                                                       1.000   1.000

     PseudoPot. # 2 for O  read from file:
     /storage/coda1/p-amedford6/0/shared/rich_project_chbe-medford/medford-share/data/pseudos_module/espresso/nninc/pbe/van/O.UPF
     MD5 check sum: 78c19812648e8988a0fe644b0f25305e
     Pseudo is Ultrasoft, Zval =  6.0
     Generated by new atomic code, or converted to UPF format
     Using radial grid of  737 points,  4 beta functions with: 
                l(1) =   0
                l(2) =   0
                l(3) =   1
                l(4) =   1
     Q(r) pseudized with  8 coefficients,  rinner =    0.800   0.800   0.800


     PseudoPot. # 3 for C  read from file:
     /storage/coda1/p-amedford6/0/shared/rich_project_chbe-medford/medford-share/data/pseudos_module/espresso/nninc/pbe/van/C.UPF
     MD5 check sum: 1a69bf6b8db32088f5b2163dbdb77a27
     Pseudo is Ultrasoft, Zval =  4.0
     Generated by new atomic code, or converted to UPF format
     Using radial grid of  721 points,  4 beta functions with: 
                l(1) =   0
                l(2) =   0
                l(3) =   1
                l(4) =   1
     Q(r) pseudized with  8 coefficients,  rinner =    0.800   0.800   0.800


     PseudoPot. # 4 for H  read from file:
     /storage/coda1/p-amedford6/0/shared/rich_project_chbe-medford/medford-share/data/pseudos_module/espresso/nninc/pbe/van/H.UPF
     MD5 check sum: b5ee9d7bfd3a09ee7748110bda690ff7
     Pseudo is Ultrasoft, Zval =  1.0
     Generated by new atomic code, or converted to UPF format
     Using radial grid of  615 points,  1 beta functions with: 
                l(1) =   0
     Q(r) pseudized with  8 coefficients,  rinner =    0.800

     PseudoPot. # 5 for N  read from file:
     /storage/coda1/p-amedford6/0/shared/rich_project_chbe-medford/medford-share/data/pseudos_module/espresso/nninc/pbe/van/N.UPF
     MD5 check sum: 90d10febe142ad51ac9d5be1deb811c4
     Pseudo is Ultrasoft, Zval =  5.0
     Generated by new atomic code, or converted to UPF format
     Using radial grid of  729 points,  4 beta functions with: 
                l(1) =   0
                l(2) =   0
                l(3) =   1
                l(4) =   1
     Q(r) pseudized with  8 coefficients,  rinner =    0.800   0.800   0.800


     atomic species   valence    mass     pseudopotential
        Ti1           12.00    47.86700     Ti( 1.00)
        O1             6.00    15.99900     O ( 1.00)
        C1             4.00    12.01100     C ( 1.00)
        H1             1.00     1.00800     H ( 1.00)
        N1             5.00    14.00700     N ( 1.00)

     No symmetry found



   Cartesian axes

     site n.     atom                  positions (alat units)
         1           Ti1 tau(   1) = (   0.0004258   2.9801865   6.0000000  )
         2           Ti1 tau(   2) = (   3.2906075   1.4906267   6.0002472  )
         3           O1  tau(   3) = (   0.0006271   0.0005054   7.9858123  )
         4           O1  tau(   4) = (   3.2906025   0.0005020   7.3038282  )
         5           O1  tau(   5) = (   4.5942328   1.4918067   9.2879030  )
         6           O1  tau(   6) = (   1.9868534   1.4903216   9.2879459  )
         7           Ti1 tau(   7) = (   3.3371032   3.0268772   9.1887580  )
         8           Ti1 tau(   8) = (   0.0611061   1.5258697   9.2809523  )
         9           O1  tau(   9) = (   3.3143856   0.0188946  11.3581724  )
        10           O1  tau(  10) = (   0.0164151   0.0031400  10.5895864  )
        11           O1  tau(  11) = (   1.3088961   1.4994640  12.6347600  )
        12           O1  tau(  12) = (   5.3347766   1.4946156  12.6347356  )
        13           Ti1 tau(  13) = (   0.0202478   3.0292801  12.5720800  )
        14           Ti1 tau(  14) = (   3.3188568   1.5851219  12.4260843  )
        15           O1  tau(  15) = (   0.0445434   5.9450813  14.6510506  )
        16           O1  tau(  16) = (   3.3207065   5.8849141  14.0104376  )
        17           O1  tau(  17) = (   4.6249962   1.5116716  16.1313945  )
        18           O1  tau(  18) = (   2.0639035   1.5439872  16.0680944  )
        19           Ti1 tau(  19) = (   3.3360141   2.9454253  15.6763505  )
        20           Ti1 tau(  20) = (   0.0686920   1.3314864  15.9334539  )
        21           O1  tau(  21) = (   3.2904802   0.0005063   4.7018136  )
        22           O1  tau(  22) = (   0.0979609   0.0039778  17.1657837  )
        23           O1  tau(  23) = (   1.3043587   1.4918075   6.0039043  )
        24           O1  tau(  24) = (   5.2767064   1.4903225   6.0039473  )
        25           Ti1 tau(  25) = (   0.0000382   5.9609847   6.0000000  )
        26           Ti1 tau(  26) = (   3.2902200   4.4714249   6.0002472  )
        27           O1  tau(  27) = (   0.0002396   2.9813036   7.9858123  )
        28           O1  tau(  28) = (   3.2902150   2.9813002   7.3038282  )
        29           O1  tau(  29) = (   4.5938453   4.4726049   9.2879030  )
        30           O1  tau(  30) = (   1.9864658   4.4711199   9.2879459  )
        31           Ti1 tau(  31) = (   3.3368545   0.0404040   9.1664313  )
        32           Ti1 tau(  32) = (   0.0604674   4.4799263   9.2696248  )
        33           O1  tau(  33) = (   3.3137611   2.9662427  11.3084074  )
        34           O1  tau(  34) = (   0.0134136   2.9850836  10.6046154  )
        35           O1  tau(  35) = (   1.3054726   4.4719986  12.6384794  )
        36           O1  tau(  36) = (   5.3362180   4.4781181  12.6390536  )
        37           Ti1 tau(  37) = (   0.0365240   0.0487139  12.4702884  )
        38           Ti1 tau(  38) = (   3.3180881   4.6653017  12.7087268  )
        39           O1  tau(  39) = (   0.0228105   2.9918545  14.7761892  )
        40           O1  tau(  40) = (   3.3431522   2.9700269  13.9040455  )
        41           O1  tau(  41) = (   4.6265974   4.4152401  16.1544535  )
        42           O1  tau(  42) = (   2.0571238   4.3592187  16.1146037  )
        43           Ti1 tau(  43) = (   3.3848590   5.9294639  16.2700006  )
        44           Ti1 tau(  44) = (   0.0517009   4.5268197  15.8466567  )
        45           O1  tau(  45) = (   3.2900926   2.9813045   4.7018136  )
        46           O1  tau(  46) = (   1.3039711   4.4726057   6.0039043  )
        47           O1  tau(  47) = (   5.2763189   4.4711207   6.0039473  )
        48           C1  tau(  48) = (   5.9450987   3.0517216  18.8599509  )
        49           O1  tau(  49) = (   0.1802289   3.0084098  17.6484507  )
        50           H1  tau(  50) = (   4.9625852   2.6732861  18.5889656  )
        51           H1  tau(  51) = (   1.1163247   3.1442434  17.8758057  )
        52           H1  tau(  52) = (   6.3899442   2.3914015  19.6026461  )
        53           H1  tau(  53) = (   5.8846647   4.0795385  19.2151274  )
        54           N1  tau(  54) = (   5.7598779   3.1323611  22.9045362  )
        55           N1  tau(  55) = (   4.9845974   3.1850264  22.1203839  )
        56           O1  tau(  56) = (   3.1467188   0.0118795  18.1166202  )
        57           H1  tau(  57) = (   2.2164505   0.0865285  18.3868412  )

     number of k points=    10  Fermi-Dirac smearing, width (Ry)=  0.0073
                       cart. coord. in units 2pi/alat
        k(    1) = (   0.0000000   0.0000000   0.0000000), wk =   0.1250000
        k(    2) = (   0.0000000   0.0419351   0.0000000), wk =   0.2500000
        k(    3) = (   0.0000000  -0.0838702   0.0000000), wk =   0.1250000
        k(    4) = (   0.0379955   0.0000049   0.0000000), wk =   0.2500000
        k(    5) = (   0.0379955   0.0419400   0.0000000), wk =   0.2500000
        k(    6) = (   0.0379955  -0.0838652   0.0000000), wk =   0.2500000
        k(    7) = (   0.0379955  -0.0419301   0.0000000), wk =   0.2500000
        k(    8) = (  -0.0759910  -0.0000099   0.0000000), wk =   0.1250000
        k(    9) = (  -0.0759910   0.0419252   0.0000000), wk =   0.2500000
        k(   10) = (  -0.0759910  -0.0838800   0.0000000), wk =   0.1250000

     Dense  grid:   566857 G-vectors     FFT dimensions: (  72,  64, 270)

     Smooth grid:   143421 G-vectors     FFT dimensions: (  45,  40, 180)

     Estimated max dynamical RAM per process >     462.31 MB

     Estimated total dynamical RAM >       3.61 GB
     Cannot read rho : file not found

     Initial potential from superposition of free atoms

     starting charge  392.99914, renormalised to  409.00000

     negative rho (up, down):  9.139E-03 0.000E+00


     %%%%%%%%%%%%%%%%%%%%%%%%%%%%%%%%%%%%%%%%%%%%%%%%%%%%%%%%%%%%%%%%%%%%%%%%
     %                                                                      %
     % You are using vdW-DF, which was implemented by the Thonhauser group. %
     % Please cite the following two papers that made this development      %
     % possible and the two reviews that describe the various versions:     %
     %                                                                      %
     %   T. Thonhauser et al., PRL 115, 136402 (2015).                      %
     %   T. Thonhauser et al., PRB 76, 125112 (2007).                       %
     %   K. Berland et al., Rep. Prog. Phys. 78, 066501 (2015).             %
     %   D.C. Langreth et al., J. Phys.: Condens. Matter 21, 084203 (2009). %
     %                                                                      %
     %                                                                      %
     % If you are calculating the stress with vdW-DF, please also cite:     %
     %                                                                      %
     %   R. Sabatini et al., J. Phys.: Condens. Matter 24, 424209 (2012).   %
     %                                                                      %
     %%%%%%%%%%%%%%%%%%%%%%%%%%%%%%%%%%%%%%%%%%%%%%%%%%%%%%%%%%%%%%%%%%%%%%%%


 
     Adding external electric field

     Computed dipole along edir(3) : 
        Dipole              -18.8687 Ry au,        -47.9594 Debye
        Dipole field         -0.0356 Ry au, 
 
        Potential amp.        3.3008 Ry
        Total length         46.3494 bohr
 
     Starting wfcs are  309 atomic wfcs
  @ DRIVER MODE: Message from server: STATUS
  @ DRIVER MODE: Message from server: POSDATA
  @ DRIVER MODE: Reading and sharing cell 
  @ DRIVER MODE: Reading and sharing positions 
  @ DRIVER MODE: Received positions 

     total cpu time spent up to now is       23.8 secs

     Self-consistent Calculation

     iteration #  1     ecut=    29.40 Ry     beta= 0.05
     Davidson diagonalization with overlap
     c_bands:  5 eigenvalues not converged
     c_bands:  5 eigenvalues not converged
     c_bands:  1 eigenvalues not converged
     c_bands:  4 eigenvalues not converged
     c_bands:  1 eigenvalues not converged
     c_bands:  3 eigenvalues not converged
     ethr =  1.00E-05,  avg # of iterations = 27.3

     negative rho (up, down):  6.623E-03 0.000E+00
 
     Adding external electric field

     Computed dipole along edir(3) : 
        Dipole               65.1449 Ry au,        165.5818 Debye
        Dipole field          0.1229 Ry au, 
 
        Potential amp.      -11.3961 Ry
        Total length         46.3494 bohr
 

     total cpu time spent up to now is       96.2 secs

     total energy              =   -2113.20456739 Ry
     estimated scf accuracy    <   10331.03201495 Ry

     iteration #  2     ecut=    29.40 Ry     beta= 0.05
     Davidson diagonalization with overlap
     ethr =  1.00E-02,  avg # of iterations = 29.5

     negative rho (up, down):  1.097E-04 0.000E+00
 
     Adding external electric field

     Computed dipole along edir(3) : 
        Dipole               -2.1781 Ry au,         -5.5361 Debye
        Dipole field         -0.0041 Ry au, 
 
        Potential amp.        0.3810 Ry
        Total length         46.3494 bohr
 

     total cpu time spent up to now is      229.5 secs

     total energy              =   -2404.18195042 Ry
     estimated scf accuracy    <   87846.86792844 Ry

     iteration #  3     ecut=    29.40 Ry     beta= 0.05
     Davidson diagonalization with overlap
     ethr =  1.00E-02,  avg # of iterations = 16.6

     negative rho (up, down):  1.386E-04 0.000E+00
 
     Adding external electric field

     Computed dipole along edir(3) : 
        Dipole               -5.2844 Ry au,        -13.4317 Debye
        Dipole field         -0.0100 Ry au, 
 
        Potential amp.        0.9244 Ry
        Total length         46.3494 bohr
 

     total cpu time spent up to now is      296.5 secs

     total energy              =   -2998.40115191 Ry
     estimated scf accuracy    <    9358.03041145 Ry

     iteration #  4     ecut=    29.40 Ry     beta= 0.05
     Davidson diagonalization with overlap
     ethr =  1.00E-02,  avg # of iterations = 12.0

     negative rho (up, down):  1.475E-04 0.000E+00
 
     Adding external electric field

     Computed dipole along edir(3) : 
        Dipole               -6.5266 Ry au,        -16.5889 Debye
        Dipole field         -0.0123 Ry au, 
 
        Potential amp.        1.1417 Ry
        Total length         46.3494 bohr
 

     total cpu time spent up to now is      331.0 secs

     total energy              =   -3005.63674053 Ry
     estimated scf accuracy    <    2874.45580272 Ry

     iteration #  5     ecut=    29.40 Ry     beta= 0.05
     Davidson diagonalization with overlap
     c_bands:  3 eigenvalues not converged
     ethr =  1.00E-02,  avg # of iterations =  8.5

     negative rho (up, down):  1.605E-04 0.000E+00
 
     Adding external electric field

     Computed dipole along edir(3) : 
        Dipole               -7.4339 Ry au,        -18.8950 Debye
        Dipole field         -0.0140 Ry au, 
 
        Potential amp.        1.3004 Ry
        Total length         46.3494 bohr
 

     total cpu time spent up to now is      351.4 secs

     total energy              =   -2982.63490274 Ry
     estimated scf accuracy    <    1927.81502700 Ry

     iteration #  6     ecut=    29.40 Ry     beta= 0.05
     Davidson diagonalization with overlap
     ethr =  1.00E-02,  avg # of iterations = 11.8

     negative rho (up, down):  1.523E-04 0.000E+00
 
     Adding external electric field

     Computed dipole along edir(3) : 
        Dipole               -5.3000 Ry au,        -13.4713 Debye
        Dipole field         -0.0100 Ry au, 
 
        Potential amp.        0.9272 Ry
        Total length         46.3494 bohr
 

     total cpu time spent up to now is      384.2 secs

     total energy              =   -3011.03745126 Ry
     estimated scf accuracy    <     116.92742027 Ry

     iteration #  7     ecut=    29.40 Ry     beta= 0.05
     Davidson diagonalization with overlap
     ethr =  1.00E-02,  avg # of iterations =  1.9

     negative rho (up, down):  1.469E-04 0.000E+00
 
     Adding external electric field

     Computed dipole along edir(3) : 
        Dipole               -3.4368 Ry au,         -8.7354 Debye
        Dipole field         -0.0065 Ry au, 
 
        Potential amp.        0.6012 Ry
        Total length         46.3494 bohr
 

     total cpu time spent up to now is      397.9 secs

     total energy              =   -3010.33147098 Ry
     estimated scf accuracy    <     105.78241808 Ry

     iteration #  8     ecut=    29.40 Ry     beta= 0.05
     Davidson diagonalization with overlap
     ethr =  1.00E-02,  avg # of iterations =  1.9

     negative rho (up, down):  1.442E-04 0.000E+00
 
     Adding external electric field

     Computed dipole along edir(3) : 
        Dipole               -2.2343 Ry au,         -5.6791 Debye
        Dipole field         -0.0042 Ry au, 
 
        Potential amp.        0.3909 Ry
        Total length         46.3494 bohr
 

     total cpu time spent up to now is      414.6 secs

     total energy              =   -3011.36227689 Ry
     estimated scf accuracy    <     166.39958065 Ry

     iteration #  9     ecut=    29.40 Ry     beta= 0.05
     Davidson diagonalization with overlap
     ethr =  1.00E-02,  avg # of iterations =  1.2

     negative rho (up, down):  1.454E-04 0.000E+00
 
     Adding external electric field

     Computed dipole along edir(3) : 
        Dipole               -2.3414 Ry au,         -5.9512 Debye
        Dipole field         -0.0044 Ry au, 
 
        Potential amp.        0.4096 Ry
        Total length         46.3494 bohr
 

     total cpu time spent up to now is      428.9 secs

     total energy              =   -3013.33859097 Ry
     estimated scf accuracy    <     585.28153867 Ry

     iteration # 10     ecut=    29.40 Ry     beta= 0.05
     Davidson diagonalization with overlap
     ethr =  1.00E-02,  avg # of iterations =  1.1

     negative rho (up, down):  1.558E-04 0.000E+00
 
     Adding external electric field

     Computed dipole along edir(3) : 
        Dipole                0.2949 Ry au,          0.7496 Debye
        Dipole field          0.0006 Ry au, 
 
        Potential amp.       -0.0516 Ry
        Total length         46.3494 bohr
 

     total cpu time spent up to now is      442.4 secs

     total energy              =   -3001.75401769 Ry
     estimated scf accuracy    <     608.13806136 Ry

     iteration # 11     ecut=    29.40 Ry     beta= 0.05
     Davidson diagonalization with overlap
     ethr =  1.00E-02,  avg # of iterations =  4.3

     negative rho (up, down):  2.431E-04 0.000E+00
 
     Adding external electric field

     Computed dipole along edir(3) : 
        Dipole               10.9070 Ry au,         27.7228 Debye
        Dipole field          0.0206 Ry au, 
 
        Potential amp.       -1.9080 Ry
        Total length         46.3494 bohr
 

     total cpu time spent up to now is      461.9 secs

     total energy              =   -2989.79912394 Ry
     estimated scf accuracy    <     114.23471865 Ry

     iteration # 12     ecut=    29.40 Ry     beta= 0.05
     Davidson diagonalization with overlap
     ethr =  1.00E-02,  avg # of iterations = 16.2

     negative rho (up, down):  8.955E-05 0.000E+00
 
     Adding external electric field

     Computed dipole along edir(3) : 
        Dipole                5.4854 Ry au,         13.9424 Debye
        Dipole field          0.0104 Ry au, 
 
        Potential amp.       -0.9596 Ry
        Total length         46.3494 bohr
 

     total cpu time spent up to now is      518.9 secs

     total energy              =   -3004.25323251 Ry
     estimated scf accuracy    <   13768.01304857 Ry

     iteration # 13     ecut=    29.40 Ry     beta= 0.05
     Davidson diagonalization with overlap
     ethr =  1.00E-02,  avg # of iterations = 12.9

     negative rho (up, down):  1.783E-04 0.000E+00
 
     Adding external electric field

     Computed dipole along edir(3) : 
        Dipole                5.5543 Ry au,         14.1176 Debye
        Dipole field          0.0105 Ry au, 
 
        Potential amp.       -0.9716 Ry
        Total length         46.3494 bohr
 

     total cpu time spent up to now is      545.4 secs

     total energy              =   -3026.86084678 Ry
     estimated scf accuracy    <    3566.97673474 Ry

     iteration # 14     ecut=    29.40 Ry     beta= 0.05
     Davidson diagonalization with overlap
     ethr =  1.00E-02,  avg # of iterations =  1.8

     negative rho (up, down):  2.094E-05 0.000E+00
 
     Adding external electric field

     Computed dipole along edir(3) : 
        Dipole               -0.3166 Ry au,         -0.8046 Debye
        Dipole field         -0.0006 Ry au, 
 
        Potential amp.        0.0554 Ry
        Total length         46.3494 bohr
 

     total cpu time spent up to now is      562.5 secs

     total energy              =   -2986.15735489 Ry
     estimated scf accuracy    <    3576.98955458 Ry

     iteration # 15     ecut=    29.40 Ry     beta= 0.05
     Davidson diagonalization with overlap
     ethr =  1.00E-02,  avg # of iterations = 11.1

     negative rho (up, down):  7.953E-06 0.000E+00
 
     Adding external electric field

     Computed dipole along edir(3) : 
        Dipole                0.6043 Ry au,          1.5359 Debye
        Dipole field          0.0011 Ry au, 
 
        Potential amp.       -0.1057 Ry
        Total length         46.3494 bohr
 

     total cpu time spent up to now is      592.1 secs

     total energy              =   -3011.03194260 Ry
     estimated scf accuracy    <     303.17718852 Ry

     iteration # 16     ecut=    29.40 Ry     beta= 0.05
     Davidson diagonalization with overlap
     ethr =  1.00E-02,  avg # of iterations =  1.4

     negative rho (up, down):  4.905E-06 0.000E+00
 
     Adding external electric field

     Computed dipole along edir(3) : 
        Dipole                0.9691 Ry au,          2.4633 Debye
        Dipole field          0.0018 Ry au, 
 
        Potential amp.       -0.1695 Ry
        Total length         46.3494 bohr
 

     total cpu time spent up to now is      607.4 secs

     total energy              =   -3014.21547084 Ry
     estimated scf accuracy    <     362.31305548 Ry

     iteration # 17     ecut=    29.40 Ry     beta= 0.05
     Davidson diagonalization with overlap
     ethr =  1.00E-02,  avg # of iterations =  1.3

     negative rho (up, down):  6.345E-06 0.000E+00
 
     Adding external electric field

     Computed dipole along edir(3) : 
        Dipole               -0.7499 Ry au,         -1.9060 Debye
        Dipole field         -0.0014 Ry au, 
 
        Potential amp.        0.1312 Ry
        Total length         46.3494 bohr
 

     total cpu time spent up to now is      621.1 secs

     total energy              =   -3010.20680730 Ry
     estimated scf accuracy    <     294.75063550 Ry

     iteration # 18     ecut=    29.40 Ry     beta= 0.05
     Davidson diagonalization with overlap
     ethr =  1.00E-02,  avg # of iterations =  1.4

     negative rho (up, down):  6.937E-06 0.000E+00
 
     Adding external electric field

     Computed dipole along edir(3) : 
        Dipole               -2.5267 Ry au,         -6.4221 Debye
        Dipole field         -0.0048 Ry au, 
 
        Potential amp.        0.4420 Ry
        Total length         46.3494 bohr
 

     total cpu time spent up to now is      634.9 secs

     total energy              =   -3006.65596348 Ry
     estimated scf accuracy    <     202.09679974 Ry

     iteration # 19     ecut=    29.40 Ry     beta= 0.05
     Davidson diagonalization with overlap
     ethr =  1.00E-02,  avg # of iterations =  3.9

     negative rho (up, down):  1.301E-02 0.000E+00
 
     Adding external electric field

     Computed dipole along edir(3) : 
        Dipole               -1.1877 Ry au,         -3.0190 Debye
        Dipole field         -0.0022 Ry au, 
 
        Potential amp.        0.2078 Ry
        Total length         46.3494 bohr
 

     total cpu time spent up to now is      650.0 secs

     total energy              =   -3009.65472359 Ry
     estimated scf accuracy    <     135.48116764 Ry

     iteration # 20     ecut=    29.40 Ry     beta= 0.05
     Davidson diagonalization with overlap
     ethr =  1.00E-02,  avg # of iterations =  3.7

     negative rho (up, down):  2.847E-01 0.000E+00
 
     Adding external electric field

     Computed dipole along edir(3) : 
        Dipole               -5.6715 Ry au,        -14.4155 Debye
        Dipole field         -0.0107 Ry au, 
 
        Potential amp.        0.9921 Ry
        Total length         46.3494 bohr
 

     total cpu time spent up to now is      666.6 secs

     total energy              =   -3002.70199990 Ry
     estimated scf accuracy    <     270.03944183 Ry

     iteration # 21     ecut=    29.40 Ry     beta= 0.05
     Davidson diagonalization with overlap
     ethr =  1.00E-02,  avg # of iterations =  6.9

     negative rho (up, down):  2.746E-02 0.000E+00
 
     Adding external electric field

     Computed dipole along edir(3) : 
        Dipole               -5.9390 Ry au,        -15.0954 Debye
        Dipole field         -0.0112 Ry au, 
 
        Potential amp.        1.0389 Ry
        Total length         46.3494 bohr
 

     total cpu time spent up to now is      683.0 secs

     total energy              =   -3005.14630774 Ry
     estimated scf accuracy    <     124.65814638 Ry

     iteration # 22     ecut=    29.40 Ry     beta= 0.05
     Davidson diagonalization with overlap
     ethr =  1.00E-02,  avg # of iterations =  5.3

     negative rho (up, down):  2.225E-03 0.000E+00
 
     Adding external electric field

     Computed dipole along edir(3) : 
        Dipole               -7.6717 Ry au,        -19.4995 Debye
        Dipole field         -0.0145 Ry au, 
 
        Potential amp.        1.3420 Ry
        Total length         46.3494 bohr
 

     total cpu time spent up to now is      700.7 secs

     total energy              =   -3005.97762632 Ry
     estimated scf accuracy    <      18.97177229 Ry

     iteration # 23     ecut=    29.40 Ry     beta= 0.05
     Davidson diagonalization with overlap
     c_bands:  3 eigenvalues not converged
     c_bands:  5 eigenvalues not converged
     c_bands:  3 eigenvalues not converged
     c_bands:  5 eigenvalues not converged
     c_bands:  1 eigenvalues not converged
     c_bands:  3 eigenvalues not converged
     ethr =  4.64E-03,  avg # of iterations = 20.8

     negative rho (up, down):  3.659E-04 0.000E+00
 
     Adding external electric field

     Computed dipole along edir(3) : 
        Dipole               -5.7376 Ry au,        -14.5835 Debye
        Dipole field         -0.0108 Ry au, 
 
        Potential amp.        1.0037 Ry
        Total length         46.3494 bohr
 

     total cpu time spent up to now is      730.3 secs

     total energy              =   -3006.79107830 Ry
     estimated scf accuracy    <     221.31698370 Ry

     iteration # 24     ecut=    29.40 Ry     beta= 0.05
     Davidson diagonalization with overlap
     ethr =  4.64E-03,  avg # of iterations =  1.0

     negative rho (up, down):  8.594E-06 0.000E+00
 
     Adding external electric field

     Computed dipole along edir(3) : 
        Dipole               -4.4654 Ry au,        -11.3499 Debye
        Dipole field         -0.0084 Ry au, 
 
        Potential amp.        0.7812 Ry
        Total length         46.3494 bohr
 

     total cpu time spent up to now is      743.5 secs

     total energy              =   -3005.65962895 Ry
     estimated scf accuracy    <     107.62846812 Ry

     iteration # 25     ecut=    29.40 Ry     beta= 0.05
     Davidson diagonalization with overlap
     ethr =  4.64E-03,  avg # of iterations =  1.0

     negative rho (up, down):  1.109E-05 0.000E+00
 
     Adding external electric field

     Computed dipole along edir(3) : 
        Dipole               -4.7299 Ry au,        -12.0223 Debye
        Dipole field         -0.0089 Ry au, 
 
        Potential amp.        0.8274 Ry
        Total length         46.3494 bohr
 

     total cpu time spent up to now is      756.7 secs

     total energy              =   -3006.28011619 Ry
     estimated scf accuracy    <      82.19130100 Ry

     iteration # 26     ecut=    29.40 Ry     beta= 0.05
     Davidson diagonalization with overlap
     ethr =  4.64E-03,  avg # of iterations =  1.4

     negative rho (up, down):  9.616E-04 0.000E+00
 
     Adding external electric field

     Computed dipole along edir(3) : 
        Dipole                1.5317 Ry au,          3.8932 Debye
        Dipole field          0.0029 Ry au, 
 
        Potential amp.       -0.2679 Ry
        Total length         46.3494 bohr
 

     total cpu time spent up to now is      771.6 secs

     total energy              =   -2998.64718720 Ry
     estimated scf accuracy    <     107.72433796 Ry

     iteration # 27     ecut=    29.40 Ry     beta= 0.05
     Davidson diagonalization with overlap
     ethr =  4.64E-03,  avg # of iterations = 11.0

     negative rho (up, down):  1.671E-03 0.000E+00
 
     Adding external electric field

     Computed dipole along edir(3) : 
        Dipole                1.1806 Ry au,          3.0007 Debye
        Dipole field          0.0022 Ry au, 
 
        Potential amp.       -0.2065 Ry
        Total length         46.3494 bohr
 

     total cpu time spent up to now is      798.1 secs

     total energy              =   -3009.83246022 Ry
     estimated scf accuracy    <     123.54915949 Ry

     iteration # 28     ecut=    29.40 Ry     beta= 0.05
     Davidson diagonalization with overlap
     ethr =  4.64E-03,  avg # of iterations =  2.1

     negative rho (up, down):  3.470E-04 0.000E+00
 
     Adding external electric field

     Computed dipole along edir(3) : 
        Dipole                0.9851 Ry au,          2.5040 Debye
        Dipole field          0.0019 Ry au, 
 
        Potential amp.       -0.1723 Ry
        Total length         46.3494 bohr
 

     total cpu time spent up to now is      812.2 secs

     total energy              =   -3009.41705209 Ry
     estimated scf accuracy    <     103.97943310 Ry

     iteration # 29     ecut=    29.40 Ry     beta= 0.05
     Davidson diagonalization with overlap
     ethr =  4.64E-03,  avg # of iterations =  1.0

     negative rho (up, down):  1.241E-05 0.000E+00
 
     Adding external electric field

     Computed dipole along edir(3) : 
        Dipole               -3.8679 Ry au,         -9.8313 Debye
        Dipole field         -0.0073 Ry au, 
 
        Potential amp.        0.6766 Ry
        Total length         46.3494 bohr
 

     total cpu time spent up to now is      825.5 secs

     total energy              =   -3003.83115545 Ry
     estimated scf accuracy    <      46.97574857 Ry

     iteration # 30     ecut=    29.40 Ry     beta= 0.05
     Davidson diagonalization with overlap
     ethr =  4.64E-03,  avg # of iterations =  2.0

     negative rho (up, down):  2.480E-03 0.000E+00
 
     Adding external electric field

     Computed dipole along edir(3) : 
        Dipole               -4.1113 Ry au,        -10.4499 Debye
        Dipole field         -0.0078 Ry au, 
 
        Potential amp.        0.7192 Ry
        Total length         46.3494 bohr
 

     total cpu time spent up to now is      839.9 secs

     total energy              =   -3007.02380107 Ry
     estimated scf accuracy    <       5.36285690 Ry

     iteration # 31     ecut=    29.40 Ry     beta= 0.05
     Davidson diagonalization with overlap
     ethr =  1.31E-03,  avg # of iterations = 15.4

     negative rho (up, down):  1.144E-02 0.000E+00
 
     Adding external electric field

     Computed dipole along edir(3) : 
        Dipole               -3.7472 Ry au,         -9.5244 Debye
        Dipole field         -0.0071 Ry au, 
 
        Potential amp.        0.6555 Ry
        Total length         46.3494 bohr
 

     total cpu time spent up to now is      862.9 secs

     total energy              =   -3006.50543990 Ry
     estimated scf accuracy    <       4.06222693 Ry

     iteration # 32     ecut=    29.40 Ry     beta= 0.05
     Davidson diagonalization with overlap
     ethr =  9.93E-04,  avg # of iterations = 10.0

     negative rho (up, down):  1.395E-02 0.000E+00
 
     Adding external electric field

     Computed dipole along edir(3) : 
        Dipole               -4.1995 Ry au,        -10.6740 Debye
        Dipole field         -0.0079 Ry au, 
 
        Potential amp.        0.7346 Ry
        Total length         46.3494 bohr
 

     total cpu time spent up to now is      885.4 secs

     total energy              =   -3006.80397136 Ry
     estimated scf accuracy    <       2.67100015 Ry

     iteration # 33     ecut=    29.40 Ry     beta= 0.05
     Davidson diagonalization with overlap
     ethr =  6.53E-04,  avg # of iterations =  3.7

     negative rho (up, down):  1.277E-03 0.000E+00
 
     Adding external electric field

     Computed dipole along edir(3) : 
        Dipole               -3.2025 Ry au,         -8.1400 Debye
        Dipole field         -0.0060 Ry au, 
 
        Potential amp.        0.5602 Ry
        Total length         46.3494 bohr
 

     total cpu time spent up to now is      905.9 secs

     total energy              =   -3006.42610411 Ry
     estimated scf accuracy    <      14.84441733 Ry

     iteration # 34     ecut=    29.40 Ry     beta= 0.05
     Davidson diagonalization with overlap
     ethr =  6.53E-04,  avg # of iterations =  5.0

     negative rho (up, down):  1.033E-04 0.000E+00
 
     Adding external electric field

     Computed dipole along edir(3) : 
        Dipole               -2.1533 Ry au,         -5.4731 Debye
        Dipole field         -0.0041 Ry au, 
 
        Potential amp.        0.3767 Ry
        Total length         46.3494 bohr
 

     total cpu time spent up to now is      921.3 secs

     total energy              =   -3006.51224241 Ry
     estimated scf accuracy    <       1.95007884 Ry

     iteration # 35     ecut=    29.40 Ry     beta= 0.05
     Davidson diagonalization with overlap
     c_bands:  1 eigenvalues not converged
     ethr =  4.77E-04,  avg # of iterations = 13.3

     negative rho (up, down):  1.812E-04 0.000E+00
 
     Adding external electric field

     Computed dipole along edir(3) : 
        Dipole               -1.7023 Ry au,         -4.3268 Debye
        Dipole field         -0.0032 Ry au, 
 
        Potential amp.        0.2978 Ry
        Total length         46.3494 bohr
 

     total cpu time spent up to now is      946.0 secs

     total energy              =   -3006.51097328 Ry
     estimated scf accuracy    <       1.40298298 Ry

     iteration # 36     ecut=    29.40 Ry     beta= 0.05
     Davidson diagonalization with overlap
     c_bands:  1 eigenvalues not converged
     ethr =  3.43E-04,  avg # of iterations = 15.7

     negative rho (up, down):  1.214E-04 0.000E+00
 
     Adding external electric field

     Computed dipole along edir(3) : 
        Dipole               -2.2865 Ry au,         -5.8117 Debye
        Dipole field         -0.0043 Ry au, 
 
        Potential amp.        0.4000 Ry
        Total length         46.3494 bohr
 

     total cpu time spent up to now is      977.7 secs

     total energy              =   -3006.56527072 Ry
     estimated scf accuracy    <       2.01560819 Ry

     iteration # 37     ecut=    29.40 Ry     beta= 0.05
     Davidson diagonalization with overlap
     ethr =  3.43E-04,  avg # of iterations =  4.6

     negative rho (up, down):  1.263E-04 0.000E+00
 
     Adding external electric field

     Computed dipole along edir(3) : 
        Dipole               -2.3153 Ry au,         -5.8849 Debye
        Dipole field         -0.0044 Ry au, 
 
        Potential amp.        0.4050 Ry
        Total length         46.3494 bohr
 

     total cpu time spent up to now is      993.0 secs

     total energy              =   -3006.57522021 Ry
     estimated scf accuracy    <       1.22115523 Ry

     iteration # 38     ecut=    29.40 Ry     beta= 0.05
     Davidson diagonalization with overlap
     ethr =  2.99E-04,  avg # of iterations =  1.5

     negative rho (up, down):  7.799E-03 0.000E+00
 
     Adding external electric field

     Computed dipole along edir(3) : 
        Dipole               -3.0558 Ry au,         -7.7671 Debye
        Dipole field         -0.0058 Ry au, 
 
        Potential amp.        0.5346 Ry
        Total length         46.3494 bohr
 

     total cpu time spent up to now is     1006.8 secs

     total energy              =   -3006.54125831 Ry
     estimated scf accuracy    <       1.05839544 Ry

     iteration # 39     ecut=    29.40 Ry     beta= 0.05
     Davidson diagonalization with overlap
     c_bands:  1 eigenvalues not converged
     ethr =  2.59E-04,  avg # of iterations = 11.1

     negative rho (up, down):  7.439E-03 0.000E+00
 
     Adding external electric field

     Computed dipole along edir(3) : 
        Dipole               -2.7014 Ry au,         -6.8664 Debye
        Dipole field         -0.0051 Ry au, 
 
        Potential amp.        0.4726 Ry
        Total length         46.3494 bohr
 

     total cpu time spent up to now is     1024.8 secs

     total energy              =   -3006.56199560 Ry
     estimated scf accuracy    <      10.16337476 Ry

     iteration # 40     ecut=    29.40 Ry     beta= 0.05
     Davidson diagonalization with overlap
     c_bands:  1 eigenvalues not converged
     ethr =  2.59E-04,  avg # of iterations =  7.6

     negative rho (up, down):  2.934E-03 0.000E+00
 
     Adding external electric field

     Computed dipole along edir(3) : 
        Dipole               -2.6134 Ry au,         -6.6425 Debye
        Dipole field         -0.0049 Ry au, 
 
        Potential amp.        0.4572 Ry
        Total length         46.3494 bohr
 

     total cpu time spent up to now is     1041.3 secs

     total energy              =   -3006.56763049 Ry
     estimated scf accuracy    <       1.95860543 Ry

     iteration # 41     ecut=    29.40 Ry     beta= 0.05
     Davidson diagonalization with overlap
     ethr =  2.59E-04,  avg # of iterations =  2.5

     negative rho (up, down):  9.038E-04 0.000E+00
 
     Adding external electric field

     Computed dipole along edir(3) : 
        Dipole               -2.4389 Ry au,         -6.1991 Debye
        Dipole field         -0.0046 Ry au, 
 
        Potential amp.        0.4267 Ry
        Total length         46.3494 bohr
 

     total cpu time spent up to now is     1055.6 secs

     total energy              =   -3006.52814100 Ry
     estimated scf accuracy    <       0.92022496 Ry

     iteration # 42     ecut=    29.40 Ry     beta= 0.05
     Davidson diagonalization with overlap
     ethr =  2.25E-04,  avg # of iterations =  2.0

     negative rho (up, down):  4.356E-04 0.000E+00
 
     Adding external electric field

     Computed dipole along edir(3) : 
        Dipole               -1.8916 Ry au,         -4.8080 Debye
        Dipole field         -0.0036 Ry au, 
 
        Potential amp.        0.3309 Ry
        Total length         46.3494 bohr
 

     total cpu time spent up to now is     1070.0 secs

     total energy              =   -3006.48652553 Ry
     estimated scf accuracy    <       2.00555258 Ry

     iteration # 43     ecut=    29.40 Ry     beta= 0.05
     Davidson diagonalization with overlap
     c_bands:  5 eigenvalues not converged
     c_bands:  5 eigenvalues not converged
     c_bands:  4 eigenvalues not converged
     c_bands:  1 eigenvalues not converged
     c_bands:  4 eigenvalues not converged
     c_bands:  3 eigenvalues not converged
     ethr =  2.25E-04,  avg # of iterations = 24.6

     negative rho (up, down):  3.806E-04 0.000E+00
 
     Adding external electric field

     Computed dipole along edir(3) : 
        Dipole               -1.9035 Ry au,         -4.8383 Debye
        Dipole field         -0.0036 Ry au, 
 
        Potential amp.        0.3330 Ry
        Total length         46.3494 bohr
 

     total cpu time spent up to now is     1105.8 secs

     total energy              =   -3006.54643853 Ry
     estimated scf accuracy    <       6.00535342 Ry

     iteration # 44     ecut=    29.40 Ry     beta= 0.05
     Davidson diagonalization with overlap
     ethr =  2.25E-04,  avg # of iterations =  1.8

     negative rho (up, down):  5.169E-04 0.000E+00
 
     Adding external electric field

     Computed dipole along edir(3) : 
        Dipole               -2.1858 Ry au,         -5.5557 Debye
        Dipole field         -0.0041 Ry au, 
 
        Potential amp.        0.3824 Ry
        Total length         46.3494 bohr
 

     total cpu time spent up to now is     1122.1 secs

     total energy              =   -3006.55355971 Ry
     estimated scf accuracy    <       1.30471804 Ry

     iteration # 45     ecut=    29.40 Ry     beta= 0.05
     Davidson diagonalization with overlap
     c_bands:  1 eigenvalues not converged
     ethr =  2.25E-04,  avg # of iterations =  7.9

     negative rho (up, down):  4.593E-04 0.000E+00
 
     Adding external electric field

     Computed dipole along edir(3) : 
        Dipole               -2.1200 Ry au,         -5.3886 Debye
        Dipole field         -0.0040 Ry au, 
 
        Potential amp.        0.3709 Ry
        Total length         46.3494 bohr
 

     total cpu time spent up to now is     1140.3 secs

     total energy              =   -3006.62295885 Ry
     estimated scf accuracy    <       5.35099621 Ry

     iteration # 46     ecut=    29.40 Ry     beta= 0.05
     Davidson diagonalization with overlap
     ethr =  2.25E-04,  avg # of iterations =  2.6

     negative rho (up, down):  4.318E-04 0.000E+00
 
     Adding external electric field

     Computed dipole along edir(3) : 
        Dipole               -2.0740 Ry au,         -5.2716 Debye
        Dipole field         -0.0039 Ry au, 
 
        Potential amp.        0.3628 Ry
        Total length         46.3494 bohr
 

     total cpu time spent up to now is     1154.6 secs

     total energy              =   -3006.60067395 Ry
     estimated scf accuracy    <       7.27131343 Ry

     iteration # 47     ecut=    29.40 Ry     beta= 0.05
     Davidson diagonalization with overlap
     ethr =  2.25E-04,  avg # of iterations =  1.3

     negative rho (up, down):  3.939E-04 0.000E+00
 
     Adding external electric field

     Computed dipole along edir(3) : 
        Dipole               -1.8877 Ry au,         -4.7981 Debye
        Dipole field         -0.0036 Ry au, 
 
        Potential amp.        0.3302 Ry
        Total length         46.3494 bohr
 

     total cpu time spent up to now is     1174.3 secs

     total energy              =   -3006.53257234 Ry
     estimated scf accuracy    <       5.02722898 Ry

     iteration # 48     ecut=    29.40 Ry     beta= 0.05
     Davidson diagonalization with overlap
     ethr =  2.25E-04,  avg # of iterations =  1.1

     negative rho (up, down):  7.028E-04 0.000E+00
 
     Adding external electric field

     Computed dipole along edir(3) : 
        Dipole               -1.7897 Ry au,         -4.5489 Debye
        Dipole field         -0.0034 Ry au, 
 
        Potential amp.        0.3131 Ry
        Total length         46.3494 bohr
 

     total cpu time spent up to now is     1187.8 secs

     total energy              =   -3006.56727557 Ry
     estimated scf accuracy    <       1.00052055 Ry

     iteration # 49     ecut=    29.40 Ry     beta= 0.05
     Davidson diagonalization with overlap
     ethr =  2.25E-04,  avg # of iterations = 11.9

     negative rho (up, down):  6.967E-04 0.000E+00
 
     Adding external electric field

     Computed dipole along edir(3) : 
        Dipole               -1.8043 Ry au,         -4.5860 Debye
        Dipole field         -0.0034 Ry au, 
 
        Potential amp.        0.3156 Ry
        Total length         46.3494 bohr
 

     total cpu time spent up to now is     1214.4 secs

     total energy              =   -3006.59733129 Ry
     estimated scf accuracy    <       3.88420029 Ry

     iteration # 50     ecut=    29.40 Ry     beta= 0.05
     Davidson diagonalization with overlap
     ethr =  2.25E-04,  avg # of iterations =  1.1

     negative rho (up, down):  7.155E-04 0.000E+00
 
     Adding external electric field

     Computed dipole along edir(3) : 
        Dipole               -1.9599 Ry au,         -4.9815 Debye
        Dipole field         -0.0037 Ry au, 
 
        Potential amp.        0.3429 Ry
        Total length         46.3494 bohr
 

     total cpu time spent up to now is     1227.8 secs

     total energy              =   -3006.49985819 Ry
     estimated scf accuracy    <       3.34686431 Ry

     iteration # 51     ecut=    29.40 Ry     beta= 0.05
     Davidson diagonalization with overlap
     c_bands:  3 eigenvalues not converged
     c_bands:  4 eigenvalues not converged
     c_bands:  1 eigenvalues not converged
     c_bands:  5 eigenvalues not converged
     c_bands:  2 eigenvalues not converged
     ethr =  2.25E-04,  avg # of iterations = 19.7

     negative rho (up, down):  5.989E-04 0.000E+00
 
     Adding external electric field

     Computed dipole along edir(3) : 
        Dipole               -1.9637 Ry au,         -4.9911 Debye
        Dipole field         -0.0037 Ry au, 
 
        Potential amp.        0.3435 Ry
        Total length         46.3494 bohr
 

     total cpu time spent up to now is     1253.1 secs

     total energy              =   -3006.56687369 Ry
     estimated scf accuracy    <       9.36183541 Ry

     iteration # 52     ecut=    29.40 Ry     beta= 0.05
     Davidson diagonalization with overlap
     c_bands:  1 eigenvalues not converged
     c_bands:  2 eigenvalues not converged
     ethr =  2.25E-04,  avg # of iterations =  6.8

     negative rho (up, down):  5.331E-04 0.000E+00
 
     Adding external electric field

     Computed dipole along edir(3) : 
        Dipole               -1.8173 Ry au,         -4.6191 Debye
        Dipole field         -0.0034 Ry au, 
 
        Potential amp.        0.3179 Ry
        Total length         46.3494 bohr
 

     total cpu time spent up to now is     1269.2 secs

     total energy              =   -3006.50149051 Ry
     estimated scf accuracy    <       5.29500894 Ry

     iteration # 53     ecut=    29.40 Ry     beta= 0.05
     Davidson diagonalization with overlap
     ethr =  2.25E-04,  avg # of iterations =  4.7

     negative rho (up, down):  9.547E-04 0.000E+00
 
     Adding external electric field

     Computed dipole along edir(3) : 
        Dipole               -1.5687 Ry au,         -3.9873 Debye
        Dipole field         -0.0030 Ry au, 
 
        Potential amp.        0.2744 Ry
        Total length         46.3494 bohr
 

     total cpu time spent up to now is     1286.7 secs

     total energy              =   -3006.52126136 Ry
     estimated scf accuracy    <       0.36950431 Ry

     iteration # 54     ecut=    29.40 Ry     beta= 0.05
     Davidson diagonalization with overlap
     c_bands:  3 eigenvalues not converged
     ethr =  9.03E-05,  avg # of iterations =  6.0

     negative rho (up, down):  1.479E-03 0.000E+00
 
     Adding external electric field

     Computed dipole along edir(3) : 
        Dipole               -1.3540 Ry au,         -3.4416 Debye
        Dipole field         -0.0026 Ry au, 
 
        Potential amp.        0.2369 Ry
        Total length         46.3494 bohr
 

     total cpu time spent up to now is     1306.5 secs

     total energy              =   -3006.51600815 Ry
     estimated scf accuracy    <       0.24342471 Ry

     iteration # 55     ecut=    29.40 Ry     beta= 0.05
     Davidson diagonalization with overlap
     c_bands:  1 eigenvalues not converged
     c_bands:  2 eigenvalues not converged
     ethr =  5.95E-05,  avg # of iterations = 10.2

     negative rho (up, down):  1.553E-03 0.000E+00
 
     Adding external electric field

     Computed dipole along edir(3) : 
        Dipole               -1.3499 Ry au,         -3.4311 Debye
        Dipole field         -0.0025 Ry au, 
 
        Potential amp.        0.2361 Ry
        Total length         46.3494 bohr
 

     total cpu time spent up to now is     1324.3 secs

     total energy              =   -3006.52253661 Ry
     estimated scf accuracy    <       0.16218832 Ry

     iteration # 56     ecut=    29.40 Ry     beta= 0.05
     Davidson diagonalization with overlap
     c_bands:  2 eigenvalues not converged
     ethr =  3.97E-05,  avg # of iterations =  5.3

     negative rho (up, down):  2.673E-03 0.000E+00
 
     Adding external electric field

     Computed dipole along edir(3) : 
        Dipole               -1.2375 Ry au,         -3.1454 Debye
        Dipole field         -0.0023 Ry au, 
 
        Potential amp.        0.2165 Ry
        Total length         46.3494 bohr
 

     total cpu time spent up to now is     1341.0 secs

     total energy              =   -3006.52652010 Ry
     estimated scf accuracy    <       0.17222468 Ry

     iteration # 57     ecut=    29.40 Ry     beta= 0.05
     Davidson diagonalization with overlap
     c_bands:  1 eigenvalues not converged
     ethr =  3.97E-05,  avg # of iterations =  9.8

     negative rho (up, down):  2.479E-03 0.000E+00
 
     Adding external electric field

     Computed dipole along edir(3) : 
        Dipole               -1.2495 Ry au,         -3.1759 Debye
        Dipole field         -0.0024 Ry au, 
 
        Potential amp.        0.2186 Ry
        Total length         46.3494 bohr
 

     total cpu time spent up to now is     1358.3 secs

     total energy              =   -3006.52956547 Ry
     estimated scf accuracy    <       0.18208978 Ry

     iteration # 58     ecut=    29.40 Ry     beta= 0.05
     Davidson diagonalization with overlap
     ethr =  3.97E-05,  avg # of iterations =  2.1

     negative rho (up, down):  2.138E-03 0.000E+00
 
     Adding external electric field

     Computed dipole along edir(3) : 
        Dipole               -1.3069 Ry au,         -3.3218 Debye
        Dipole field         -0.0025 Ry au, 
 
        Potential amp.        0.2286 Ry
        Total length         46.3494 bohr
 

     total cpu time spent up to now is     1372.1 secs

     total energy              =   -3006.53295209 Ry
     estimated scf accuracy    <       0.17200752 Ry

     iteration # 59     ecut=    29.40 Ry     beta= 0.05
     Davidson diagonalization with overlap
     ethr =  3.97E-05,  avg # of iterations =  2.0

     negative rho (up, down):  1.831E-03 0.000E+00
 
     Adding external electric field

     Computed dipole along edir(3) : 
        Dipole               -1.4052 Ry au,         -3.5717 Debye
        Dipole field         -0.0027 Ry au, 
 
        Potential amp.        0.2458 Ry
        Total length         46.3494 bohr
 

     total cpu time spent up to now is     1385.9 secs

     total energy              =   -3006.53137522 Ry
     estimated scf accuracy    <       0.18509738 Ry

     iteration # 60     ecut=    29.40 Ry     beta= 0.05
     Davidson diagonalization with overlap
     c_bands:  3 eigenvalues not converged
     c_bands:  1 eigenvalues not converged
     ethr =  3.97E-05,  avg # of iterations = 12.0

     negative rho (up, down):  2.254E-03 0.000E+00
 
     Adding external electric field

     Computed dipole along edir(3) : 
        Dipole               -1.3407 Ry au,         -3.4078 Debye
        Dipole field         -0.0025 Ry au, 
 
        Potential amp.        0.2345 Ry
        Total length         46.3494 bohr
 

     total cpu time spent up to now is     1406.3 secs

     total energy              =   -3006.52662059 Ry
     estimated scf accuracy    <       0.24481101 Ry

     iteration # 61     ecut=    29.40 Ry     beta= 0.05
     Davidson diagonalization with overlap
     ethr =  3.97E-05,  avg # of iterations =  2.1

     negative rho (up, down):  4.860E-02 0.000E+00
 
     Adding external electric field

     Computed dipole along edir(3) : 
        Dipole               -0.6778 Ry au,         -1.7227 Debye
        Dipole field         -0.0013 Ry au, 
 
        Potential amp.        0.1186 Ry
        Total length         46.3494 bohr
 

     total cpu time spent up to now is     1421.3 secs

     total energy              =   -3006.54125766 Ry
     estimated scf accuracy    <       0.18932307 Ry

     iteration # 62     ecut=    29.40 Ry     beta= 0.05
     Davidson diagonalization with overlap
     c_bands:  2 eigenvalues not converged
     c_bands:  1 eigenvalues not converged
     c_bands:  1 eigenvalues not converged
     c_bands:  1 eigenvalues not converged
     c_bands:  1 eigenvalues not converged
     c_bands:  1 eigenvalues not converged
     ethr =  3.97E-05,  avg # of iterations = 19.6

     negative rho (up, down):  5.302E-03 0.000E+00
 
     Adding external electric field

     Computed dipole along edir(3) : 
        Dipole               -0.5600 Ry au,         -1.4233 Debye
        Dipole field         -0.0011 Ry au, 
 
        Potential amp.        0.0980 Ry
        Total length         46.3494 bohr
 

     total cpu time spent up to now is     1453.0 secs

     total energy              =   -3006.46003881 Ry
     estimated scf accuracy    <       1.14512450 Ry

     iteration # 63     ecut=    29.40 Ry     beta= 0.05
     Davidson diagonalization with overlap
     c_bands:  3 eigenvalues not converged
     c_bands:  2 eigenvalues not converged
     c_bands:  4 eigenvalues not converged
     c_bands:  1 eigenvalues not converged
     c_bands:  1 eigenvalues not converged
     c_bands:  2 eigenvalues not converged
     c_bands:  5 eigenvalues not converged
     ethr =  3.97E-05,  avg # of iterations = 19.8

     negative rho (up, down):  1.806E-03 0.000E+00
 
     Adding external electric field

     Computed dipole along edir(3) : 
        Dipole               -0.6518 Ry au,         -1.6566 Debye
        Dipole field         -0.0012 Ry au, 
 
        Potential amp.        0.1140 Ry
        Total length         46.3494 bohr
 

     total cpu time spent up to now is     1490.7 secs

     total energy              =   -3006.46938439 Ry
     estimated scf accuracy    <       0.35507416 Ry

     iteration # 64     ecut=    29.40 Ry     beta= 0.05
     Davidson diagonalization with overlap
     c_bands:  5 eigenvalues not converged
     c_bands:  1 eigenvalues not converged
     ethr =  3.97E-05,  avg # of iterations = 15.7

     negative rho (up, down):  2.357E-03 0.000E+00
 
     Adding external electric field

     Computed dipole along edir(3) : 
        Dipole               -0.5092 Ry au,         -1.2943 Debye
        Dipole field         -0.0010 Ry au, 
 
        Potential amp.        0.0891 Ry
        Total length         46.3494 bohr
 

     total cpu time spent up to now is     1514.1 secs

     total energy              =   -3006.47652634 Ry
     estimated scf accuracy    <       0.26969966 Ry

     iteration # 65     ecut=    29.40 Ry     beta= 0.05
     Davidson diagonalization with overlap
     ethr =  3.97E-05,  avg # of iterations = 10.7

     negative rho (up, down):  2.430E-02 0.000E+00
 
     Adding external electric field

     Computed dipole along edir(3) : 
        Dipole                0.1447 Ry au,          0.3678 Debye
        Dipole field          0.0003 Ry au, 
 
        Potential amp.       -0.0253 Ry
        Total length         46.3494 bohr
 

     total cpu time spent up to now is     1532.5 secs

     total energy              =   -3006.45857634 Ry
     estimated scf accuracy    <       0.17043079 Ry

     iteration # 66     ecut=    29.40 Ry     beta= 0.05
     Davidson diagonalization with overlap
     c_bands:  1 eigenvalues not converged
     c_bands:  1 eigenvalues not converged
     c_bands:  2 eigenvalues not converged
     c_bands:  1 eigenvalues not converged
     c_bands:  1 eigenvalues not converged
     ethr =  3.97E-05,  avg # of iterations = 18.3

     negative rho (up, down):  3.215E-02 0.000E+00
 
     Adding external electric field

     Computed dipole along edir(3) : 
        Dipole                0.4411 Ry au,          1.1213 Debye
        Dipole field          0.0008 Ry au, 
 
        Potential amp.       -0.0772 Ry
        Total length         46.3494 bohr
 

     total cpu time spent up to now is     1557.9 secs

     total energy              =   -3006.46052474 Ry
     estimated scf accuracy    <       0.09305551 Ry

     iteration # 67     ecut=    29.40 Ry     beta= 0.05
     Davidson diagonalization with overlap
     c_bands:  1 eigenvalues not converged
     c_bands:  1 eigenvalues not converged
     ethr =  2.28E-05,  avg # of iterations = 12.4

     negative rho (up, down):  2.509E-02 0.000E+00
 
     Adding external electric field

     Computed dipole along edir(3) : 
        Dipole                0.5713 Ry au,          1.4520 Debye
        Dipole field          0.0011 Ry au, 
 
        Potential amp.       -0.0999 Ry
        Total length         46.3494 bohr
 

     total cpu time spent up to now is     1580.1 secs

     total energy              =   -3006.46241342 Ry
     estimated scf accuracy    <       0.03464811 Ry

     iteration # 68     ecut=    29.40 Ry     beta= 0.05
     Davidson diagonalization with overlap
     c_bands:  2 eigenvalues not converged
     c_bands:  1 eigenvalues not converged
     c_bands:  1 eigenvalues not converged
     c_bands:  1 eigenvalues not converged
     ethr =  8.47E-06,  avg # of iterations = 17.6

     negative rho (up, down):  2.464E-02 0.000E+00
 
     Adding external electric field

     Computed dipole along edir(3) : 
        Dipole                0.7961 Ry au,          2.0235 Debye
        Dipole field          0.0015 Ry au, 
 
        Potential amp.       -0.1393 Ry
        Total length         46.3494 bohr
 

     total cpu time spent up to now is     1602.6 secs

     total energy              =   -3006.46045252 Ry
     estimated scf accuracy    <       0.01687897 Ry

     iteration # 69     ecut=    29.40 Ry     beta= 0.05
     Davidson diagonalization with overlap
     c_bands:  2 eigenvalues not converged
     c_bands:  2 eigenvalues not converged
     c_bands:  1 eigenvalues not converged
     c_bands:  2 eigenvalues not converged
     c_bands:  1 eigenvalues not converged
     c_bands:  1 eigenvalues not converged
     c_bands:  1 eigenvalues not converged
     c_bands:  1 eigenvalues not converged
     c_bands:  1 eigenvalues not converged
     ethr =  4.13E-06,  avg # of iterations = 19.9

     negative rho (up, down):  2.718E-02 0.000E+00
 
     Adding external electric field

     Computed dipole along edir(3) : 
        Dipole                0.8264 Ry au,          2.1005 Debye
        Dipole field          0.0016 Ry au, 
 
        Potential amp.       -0.1446 Ry
        Total length         46.3494 bohr
 

     total cpu time spent up to now is     1637.6 secs

     total energy              =   -3006.46096318 Ry
     estimated scf accuracy    <       0.02219019 Ry

     iteration # 70     ecut=    29.40 Ry     beta= 0.05
     Davidson diagonalization with overlap
     c_bands:  1 eigenvalues not converged
     ethr =  4.13E-06,  avg # of iterations =  9.6

     negative rho (up, down):  2.715E-02 0.000E+00
 
     Adding external electric field

     Computed dipole along edir(3) : 
        Dipole                0.8709 Ry au,          2.2136 Debye
        Dipole field          0.0016 Ry au, 
 
        Potential amp.       -0.1523 Ry
        Total length         46.3494 bohr
 

     total cpu time spent up to now is     1654.5 secs

     total energy              =   -3006.45935378 Ry
     estimated scf accuracy    <       0.02142690 Ry

     iteration # 71     ecut=    29.40 Ry     beta= 0.05
     Davidson diagonalization with overlap
     c_bands:  2 eigenvalues not converged
     c_bands:  1 eigenvalues not converged
     c_bands:  2 eigenvalues not converged
     ethr =  4.13E-06,  avg # of iterations = 16.9

     negative rho (up, down):  2.697E-02 0.000E+00
 
     Adding external electric field

     Computed dipole along edir(3) : 
        Dipole                0.9626 Ry au,          2.4468 Debye
        Dipole field          0.0018 Ry au, 
 
        Potential amp.       -0.1684 Ry
        Total length         46.3494 bohr
 

     total cpu time spent up to now is     1677.5 secs

     total energy              =   -3006.45944637 Ry
     estimated scf accuracy    <       0.00740243 Ry

     iteration # 72     ecut=    29.40 Ry     beta= 0.05
     Davidson diagonalization with overlap
     ethr =  1.81E-06,  avg # of iterations =  8.0

     negative rho (up, down):  2.476E-02 0.000E+00
 
     Adding external electric field

     Computed dipole along edir(3) : 
        Dipole                1.0344 Ry au,          2.6291 Debye
        Dipole field          0.0020 Ry au, 
 
        Potential amp.       -0.1810 Ry
        Total length         46.3494 bohr
 

     total cpu time spent up to now is     1694.6 secs

     total energy              =   -3006.45890404 Ry
     estimated scf accuracy    <       0.00318290 Ry

     iteration # 73     ecut=    29.40 Ry     beta= 0.05
     Davidson diagonalization with overlap
     c_bands:  2 eigenvalues not converged
     c_bands:  2 eigenvalues not converged
     c_bands:  1 eigenvalues not converged
     c_bands:  2 eigenvalues not converged
     ethr =  7.78E-07,  avg # of iterations = 18.7

     negative rho (up, down):  1.262E-02 0.000E+00
 
     Adding external electric field

     Computed dipole along edir(3) : 
        Dipole                1.0034 Ry au,          2.5503 Debye
        Dipole field          0.0019 Ry au, 
 
        Potential amp.       -0.1755 Ry
        Total length         46.3494 bohr
 

     total cpu time spent up to now is     1719.2 secs

     total energy              =   -3006.45830112 Ry
     estimated scf accuracy    <       0.00401629 Ry

     iteration # 74     ecut=    29.40 Ry     beta= 0.05
     Davidson diagonalization with overlap
     ethr =  7.78E-07,  avg # of iterations = 11.3

     negative rho (up, down):  1.224E-02 0.000E+00
 
     Adding external electric field

     Computed dipole along edir(3) : 
        Dipole                1.0145 Ry au,          2.5786 Debye
        Dipole field          0.0019 Ry au, 
 
        Potential amp.       -0.1775 Ry
        Total length         46.3494 bohr
 

     total cpu time spent up to now is     1738.8 secs

     total energy              =   -3006.45839527 Ry
     estimated scf accuracy    <       0.00134097 Ry

     iteration # 75     ecut=    29.40 Ry     beta= 0.05
     Davidson diagonalization with overlap
     ethr =  3.28E-07,  avg # of iterations = 12.2

     negative rho (up, down):  1.250E-02 0.000E+00
 
     Adding external electric field

     Computed dipole along edir(3) : 
        Dipole                1.0158 Ry au,          2.5819 Debye
        Dipole field          0.0019 Ry au, 
 
        Potential amp.       -0.1777 Ry
        Total length         46.3494 bohr
 

     total cpu time spent up to now is     1759.7 secs

     total energy              =   -3006.45830029 Ry
     estimated scf accuracy    <       0.00072860 Ry

     iteration # 76     ecut=    29.40 Ry     beta= 0.05
     Davidson diagonalization with overlap
     ethr =  1.78E-07,  avg # of iterations = 14.0

     negative rho (up, down):  1.011E-02 0.000E+00
 
     Adding external electric field

     Computed dipole along edir(3) : 
        Dipole                0.9960 Ry au,          2.5315 Debye
        Dipole field          0.0019 Ry au, 
 
        Potential amp.       -0.1742 Ry
        Total length         46.3494 bohr
 

     total cpu time spent up to now is     1791.4 secs

     total energy              =   -3006.45831184 Ry
     estimated scf accuracy    <       0.00059894 Ry

     iteration # 77     ecut=    29.40 Ry     beta= 0.05
     Davidson diagonalization with overlap
     ethr =  1.46E-07,  avg # of iterations = 10.0

     negative rho (up, down):  1.018E-02 0.000E+00
 
     Adding external electric field

     Computed dipole along edir(3) : 
        Dipole                1.0229 Ry au,          2.5999 Debye
        Dipole field          0.0019 Ry au, 
 
        Potential amp.       -0.1789 Ry
        Total length         46.3494 bohr
 

     total cpu time spent up to now is     1811.4 secs

     total energy              =   -3006.45828505 Ry
     estimated scf accuracy    <       0.00034177 Ry

     iteration # 78     ecut=    29.40 Ry     beta= 0.05
     Davidson diagonalization with overlap
     c_bands:  1 eigenvalues not converged
     ethr =  8.36E-08,  avg # of iterations = 14.4

     negative rho (up, down):  1.049E-02 0.000E+00
 
     Adding external electric field

     Computed dipole along edir(3) : 
        Dipole                1.0275 Ry au,          2.6117 Debye
        Dipole field          0.0019 Ry au, 
 
        Potential amp.       -0.1797 Ry
        Total length         46.3494 bohr
 

     total cpu time spent up to now is     1838.2 secs

     total energy              =   -3006.45829553 Ry
     estimated scf accuracy    <       0.00035552 Ry

     iteration # 79     ecut=    29.40 Ry     beta= 0.05
     Davidson diagonalization with overlap
     ethr =  8.36E-08,  avg # of iterations = 12.6

     negative rho (up, down):  1.066E-02 0.000E+00
 
     Adding external electric field

     Computed dipole along edir(3) : 
        Dipole                1.0488 Ry au,          2.6659 Debye
        Dipole field          0.0020 Ry au, 
 
        Potential amp.       -0.1835 Ry
        Total length         46.3494 bohr
 

     total cpu time spent up to now is     1869.8 secs

     total energy              =   -3006.45830348 Ry
     estimated scf accuracy    <       0.00010245 Ry

     iteration # 80     ecut=    29.40 Ry     beta= 0.05
     Davidson diagonalization with overlap
     c_bands:  2 eigenvalues not converged
     ethr =  2.50E-08,  avg # of iterations = 12.1

     negative rho (up, down):  1.042E-02 0.000E+00
 
     Adding external electric field

     Computed dipole along edir(3) : 
        Dipole                1.0468 Ry au,          2.6607 Debye
        Dipole field          0.0020 Ry au, 
 
        Potential amp.       -0.1831 Ry
        Total length         46.3494 bohr
 

     total cpu time spent up to now is     1895.7 secs

     total energy              =   -3006.45831738 Ry
     estimated scf accuracy    <       0.00010929 Ry

     iteration # 81     ecut=    29.40 Ry     beta= 0.05
     Davidson diagonalization with overlap
     ethr =  2.50E-08,  avg # of iterations = 10.7

     negative rho (up, down):  1.009E-02 0.000E+00
 
     Adding external electric field

     Computed dipole along edir(3) : 
        Dipole                1.0383 Ry au,          2.6392 Debye
        Dipole field          0.0020 Ry au, 
 
        Potential amp.       -0.1816 Ry
        Total length         46.3494 bohr
 

     total cpu time spent up to now is     1915.2 secs

     total energy              =   -3006.45830813 Ry
     estimated scf accuracy    <       0.00005183 Ry

     iteration # 82     ecut=    29.40 Ry     beta= 0.05
     Davidson diagonalization with overlap
     c_bands:  1 eigenvalues not converged
     ethr =  1.27E-08,  avg # of iterations = 15.3

     negative rho (up, down):  1.015E-02 0.000E+00
 
     Adding external electric field

     Computed dipole along edir(3) : 
        Dipole                1.0427 Ry au,          2.6502 Debye
        Dipole field          0.0020 Ry au, 
 
        Potential amp.       -0.1824 Ry
        Total length         46.3494 bohr
 

     total cpu time spent up to now is     1944.0 secs

     total energy              =   -3006.45832379 Ry
     estimated scf accuracy    <       0.00008508 Ry

     iteration # 83     ecut=    29.40 Ry     beta= 0.05
     Davidson diagonalization with overlap
     ethr =  1.27E-08,  avg # of iterations =  9.7

     negative rho (up, down):  1.032E-02 0.000E+00
 
     Adding external electric field

     Computed dipole along edir(3) : 
        Dipole                1.0501 Ry au,          2.6691 Debye
        Dipole field          0.0020 Ry au, 
 
        Potential amp.       -0.1837 Ry
        Total length         46.3494 bohr
 

     total cpu time spent up to now is     1961.6 secs

     total energy              =   -3006.45831823 Ry
     estimated scf accuracy    <       0.00005589 Ry

     iteration # 84     ecut=    29.40 Ry     beta= 0.05
     Davidson diagonalization with overlap
     ethr =  1.27E-08,  avg # of iterations =  8.1

     negative rho (up, down):  1.023E-02 0.000E+00
 
     Adding external electric field

     Computed dipole along edir(3) : 
        Dipole                1.0523 Ry au,          2.6747 Debye
        Dipole field          0.0020 Ry au, 
 
        Potential amp.       -0.1841 Ry
        Total length         46.3494 bohr
 

     total cpu time spent up to now is     1978.9 secs

     total energy              =   -3006.45831978 Ry
     estimated scf accuracy    <       0.00002253 Ry

     iteration # 85     ecut=    29.40 Ry     beta= 0.05
     Davidson diagonalization with overlap
     ethr =  5.51E-09,  avg # of iterations =  7.2

     negative rho (up, down):  1.029E-02 0.000E+00
 
     Adding external electric field

     Computed dipole along edir(3) : 
        Dipole                1.0545 Ry au,          2.6803 Debye
        Dipole field          0.0020 Ry au, 
 
        Potential amp.       -0.1845 Ry
        Total length         46.3494 bohr
 

     total cpu time spent up to now is     1996.6 secs

     total energy              =   -3006.45832116 Ry
     estimated scf accuracy    <       0.00000812 Ry

     iteration # 86     ecut=    29.40 Ry     beta= 0.05
     Davidson diagonalization with overlap
     ethr =  1.99E-09,  avg # of iterations = 11.8

     negative rho (up, down):  1.028E-02 0.000E+00
 
     Adding external electric field

     Computed dipole along edir(3) : 
        Dipole                1.0521 Ry au,          2.6741 Debye
        Dipole field          0.0020 Ry au, 
 
        Potential amp.       -0.1840 Ry
        Total length         46.3494 bohr
 

     total cpu time spent up to now is     2022.4 secs

     total energy              =   -3006.45832277 Ry
     estimated scf accuracy    <       0.00000537 Ry

     iteration # 87     ecut=    29.40 Ry     beta= 0.05
     Davidson diagonalization with overlap
     ethr =  1.31E-09,  avg # of iterations =  7.7

     negative rho (up, down):  1.031E-02 0.000E+00
 
     Adding external electric field

     Computed dipole along edir(3) : 
        Dipole                1.0480 Ry au,          2.6636 Debye
        Dipole field          0.0020 Ry au, 
 
        Potential amp.       -0.1833 Ry
        Total length         46.3494 bohr
 

     total cpu time spent up to now is     2039.3 secs

     total energy              =   -3006.45832290 Ry
     estimated scf accuracy    <       0.00000283 Ry

     iteration # 88     ecut=    29.40 Ry     beta= 0.05
     Davidson diagonalization with overlap
     ethr =  6.91E-10,  avg # of iterations = 13.8

     negative rho (up, down):  1.037E-02 0.000E+00
 
     Adding external electric field

     Computed dipole along edir(3) : 
        Dipole                1.0500 Ry au,          2.6689 Debye
        Dipole field          0.0020 Ry au, 
 
        Potential amp.       -0.1837 Ry
        Total length         46.3494 bohr
 

     total cpu time spent up to now is     2066.8 secs

     total energy              =   -3006.45832401 Ry
     estimated scf accuracy    <       0.00000499 Ry

     iteration # 89     ecut=    29.40 Ry     beta= 0.05
     Davidson diagonalization with overlap
     ethr =  6.91E-10,  avg # of iterations =  7.4

     negative rho (up, down):  1.046E-02 0.000E+00
 
     Adding external electric field

     Computed dipole along edir(3) : 
        Dipole                1.0520 Ry au,          2.6739 Debye
        Dipole field          0.0020 Ry au, 
 
        Potential amp.       -0.1840 Ry
        Total length         46.3494 bohr
 

     total cpu time spent up to now is     2090.7 secs

     total energy              =   -3006.45832407 Ry
     estimated scf accuracy    <       0.00000261 Ry

     iteration # 90     ecut=    29.40 Ry     beta= 0.05
     Davidson diagonalization with overlap
     ethr =  6.38E-10,  avg # of iterations = 11.6

     negative rho (up, down):  1.045E-02 0.000E+00
 
     Adding external electric field

     Computed dipole along edir(3) : 
        Dipole                1.0504 Ry au,          2.6698 Debye
        Dipole field          0.0020 Ry au, 
 
        Potential amp.       -0.1837 Ry
        Total length         46.3494 bohr
 

     total cpu time spent up to now is     2124.6 secs

     total energy              =   -3006.45832481 Ry
     estimated scf accuracy    <       0.00000059 Ry

     iteration # 91     ecut=    29.40 Ry     beta= 0.05
     Davidson diagonalization with overlap
     ethr =  1.45E-10,  avg # of iterations = 11.7

     negative rho (up, down):  1.052E-02 0.000E+00
 
     Adding external electric field

     Computed dipole along edir(3) : 
        Dipole                1.0503 Ry au,          2.6695 Debye
        Dipole field          0.0020 Ry au, 
 
        Potential amp.       -0.1837 Ry
        Total length         46.3494 bohr
 

     total cpu time spent up to now is     2145.2 secs

     total energy              =   -3006.45832515 Ry
     estimated scf accuracy    <       0.00000043 Ry

     iteration # 92     ecut=    29.40 Ry     beta= 0.05
     Davidson diagonalization with overlap
     ethr =  1.05E-10,  avg # of iterations =  6.9

     negative rho (up, down):  1.053E-02 0.000E+00
 
     Adding external electric field

     Computed dipole along edir(3) : 
        Dipole                1.0499 Ry au,          2.6685 Debye
        Dipole field          0.0020 Ry au, 
 
        Potential amp.       -0.1837 Ry
        Total length         46.3494 bohr
 

     total cpu time spent up to now is     2165.0 secs

     total energy              =   -3006.45832551 Ry
     estimated scf accuracy    <       0.00000032 Ry

     iteration # 93     ecut=    29.40 Ry     beta= 0.05
     Davidson diagonalization with overlap
     ethr =  7.80E-11,  avg # of iterations =  9.0

     negative rho (up, down):  1.056E-02 0.000E+00
 
     Adding external electric field

     Computed dipole along edir(3) : 
        Dipole                1.0501 Ry au,          2.6692 Debye
        Dipole field          0.0020 Ry au, 
 
        Potential amp.       -0.1837 Ry
        Total length         46.3494 bohr
 

     total cpu time spent up to now is     2186.1 secs

     total energy              =   -3006.45832576 Ry
     estimated scf accuracy    <       0.00000034 Ry

     iteration # 94     ecut=    29.40 Ry     beta= 0.05
     Davidson diagonalization with overlap
     ethr =  7.80E-11,  avg # of iterations =  8.6

     negative rho (up, down):  1.056E-02 0.000E+00
 
     Adding external electric field

     Computed dipole along edir(3) : 
        Dipole                1.0501 Ry au,          2.6691 Debye
        Dipole field          0.0020 Ry au, 
 
        Potential amp.       -0.1837 Ry
        Total length         46.3494 bohr
 

     total cpu time spent up to now is     2204.0 secs

     total energy              =   -3006.45832605 Ry
     estimated scf accuracy    <       0.00000010 Ry

     iteration # 95     ecut=    29.40 Ry     beta= 0.05
     Davidson diagonalization with overlap
     ethr =  2.40E-11,  avg # of iterations = 10.3

     negative rho (up, down):  1.064E-02 0.000E+00
 
     Adding external electric field

     Computed dipole along edir(3) : 
        Dipole                1.0503 Ry au,          2.6695 Debye
        Dipole field          0.0020 Ry au, 
 
        Potential amp.       -0.1837 Ry
        Total length         46.3494 bohr
 

     total cpu time spent up to now is     2233.9 secs

     End of self-consistent calculation

          k = 0.0000 0.0000 0.0000 ( 18029 PWs)   bands (ev):

   -55.3286 -55.2532 -55.2180 -55.1439 -55.1220 -55.0872 -55.0511 -55.0466
   -55.0448 -55.0257 -55.0155 -54.9857 -54.8987 -54.8231 -54.2131 -54.1791
[...]
   -55.0451 -55.0220 -55.0201 -54.9895 -54.8968 -54.8248 -54.2080 -54.1839
   -31.6858 -31.6781 -31.6086 -31.5764 -31.5708 -31.5442 -31.5416 -31.5281
   -31.4817 -31.4702 -31.4590 -31.4101 -31.4079 -31.3907 -31.3740 -31.3610
   -31.3603 -31.3412 -31.3254 -31.3240 -31.3227 -31.3056 -31.2905 -31.2894
   -31.2770 -31.2597 -31.2566 -31.2483 -31.2440 -31.2271 -31.2205 -31.2159
   -31.2100 -31.2011 -31.1948 -31.1825 -31.1785 -31.1662 -31.0965 -31.0898
   -31.0634 -31.0280 -30.5647 -30.5320 -30.5124 -30.4234 -30.3626 -30.2952
   -21.5067 -19.7096 -16.1205 -15.7166 -15.5433 -15.4651 -15.3191 -15.2261
   -15.1508 -15.0886 -14.9847 -14.9666 -14.9566 -14.8888 -14.8512 -14.8355
   -14.7559 -14.7452 -14.7362 -14.7099 -14.6652 -14.6154 -14.5854 -14.5604
   -14.5377 -14.5130 -14.4839 -14.4531 -14.4257 -14.3990 -14.1970 -14.1479
   -12.7145 -12.6363 -10.5659  -6.6867  -6.4117  -4.6617  -4.6335  -4.5721
    -4.4069  -3.6393  -3.3656  -2.9607  -2.8286  -2.7257  -2.7120  -2.6917
    -2.6183  -2.5886  -2.4567  -2.4139  -2.3953  -2.3544  -2.3127  -2.2566
    -2.2269  -2.1328  -2.1266  -2.0924  -2.0790  -2.0314  -2.0124  -1.9764
    -1.9474  -1.9155  -1.8856  -1.8636  -1.8326  -1.7859  -1.7474  -1.6935
    -1.6809  -1.6184  -1.5955  -1.5052  -1.4775  -1.3608  -1.3457  -1.2952
    -1.2308  -1.1833  -1.0148  -0.9873  -0.9197  -0.8817  -0.8335  -0.7535
    -0.6899  -0.6207  -0.5795  -0.5625  -0.5244  -0.4666  -0.4167  -0.3848
    -0.3510  -0.3163  -0.2789  -0.2281  -0.1987  -0.1775  -0.1124  -0.0623
    -0.0053   0.0155   0.0616   0.0683   0.0964   0.1094   0.1719   0.1842
     0.2421   0.3337   0.3550   0.3713   0.4232   0.4617   0.5084   0.5545
     0.6046   0.6559   0.7455   0.7971   0.8412   0.9241   0.9564   1.0122
     1.0567   1.0941   1.1297   1.2009   1.2163   1.3355   1.4023   1.6765
     2.0125   2.1015   2.2574   2.3201   4.0726   4.0995   4.1451   4.2890
     4.3433   4.3611   4.3988   4.4453   4.4690   4.4802

          k = 0.0380-0.0839 0.0000 ( 17916 PWs)   bands (ev):

   -55.3278 -55.2400 -55.2310 -55.1379 -55.1176 -55.0930 -55.0507 -55.0455
   -55.0373 -55.0291 -55.0165 -54.9949 -54.8950 -54.8267 -54.1962 -54.1957
   -31.6418 -31.5794 -31.5676 -31.5503 -31.5432 -31.5415 -31.5361 -31.5204
   -31.4567 -31.4535 -31.4128 -31.3933 -31.3813 -31.3762 -31.3612 -31.3555
   -31.3524 -31.3490 -31.3427 -31.3392 -31.3345 -31.3268 -31.3160 -31.3137
   -31.3065 -31.2927 -31.2701 -31.2681 -31.2639 -31.2512 -31.2472 -31.2278
   -31.2190 -31.2168 -31.2140 -31.1996 -31.1911 -31.1738 -31.1547 -31.0883
   -31.0744 -31.0287 -30.5223 -30.5220 -30.4330 -30.4315 -30.3932 -30.3923
   -21.5067 -19.7079 -16.1148 -15.5547 -15.4264 -15.2922 -15.2791 -15.1081
   -15.0858 -15.0641 -15.0422 -15.0160 -14.9344 -14.9085 -14.8898 -14.7989
   -14.7834 -14.7512 -14.7214 -14.6899 -14.6437 -14.6342 -14.6051 -14.5906
   -14.5818 -14.5708 -14.5275 -14.5150 -14.4995 -14.4089 -14.3957 -14.2182
   -12.6989 -12.6980 -10.5655  -6.6862  -6.4102  -4.6612  -4.6372  -4.5700
    -4.4032  -3.6370  -3.3635  -2.6883  -2.6216  -2.5475  -2.4762  -2.4491
    -2.3928  -2.3647  -2.3496  -2.3315  -2.3204  -2.2986  -2.2858  -2.2391
    -2.2301  -2.1904  -2.1608  -2.1489  -2.1348  -2.1044  -2.0920  -2.0650
    -2.0092  -1.9799  -1.9604  -1.9121  -1.8864  -1.8659  -1.8168  -1.8037
    -1.6400  -1.5001  -1.4545  -1.4035  -1.3153  -1.2927  -1.2374  -1.1869
    -1.1481  -1.1097  -1.0642  -1.0491  -1.0095  -0.9817  -0.9321  -0.9069
    -0.8890  -0.8663  -0.8433  -0.7418  -0.7295  -0.6273  -0.5232  -0.4444
    -0.3990  -0.3745  -0.3302  -0.2727  -0.1163  -0.0998  -0.0561  -0.0134
     0.0119   0.0326   0.0572   0.0839   0.1105   0.1308   0.1655   0.1893
     0.2087   0.2293   0.2906   0.3383   0.3642   0.4407   0.4614   0.5556
     0.6353   0.6886   0.7225   0.7734   0.8076   0.8909   0.8978   0.9231
     0.9864   1.0079   1.0709   1.1131   1.2095   1.2836   1.4587   1.4785
     2.1539   2.1687   2.2591   2.2640   4.1580   4.2867   4.3077   4.3239
     4.3645   4.4407   4.4630   4.5014   4.5320   4.5490

          k = 0.0380-0.0419 0.0000 ( 17876 PWs)   bands (ev):

   -55.3281 -55.2483 -55.2226 -55.1410 -55.1198 -55.0899 -55.0484 -55.0459
   -55.0452 -55.0220 -55.0201 -54.9895 -54.8968 -54.8248 -54.2080 -54.1839
   -31.6858 -31.6781 -31.6088 -31.5761 -31.5708 -31.5442 -31.5417 -31.5281
   -31.4817 -31.4703 -31.4590 -31.4101 -31.4078 -31.3907 -31.3740 -31.3609
   -31.3603 -31.3413 -31.3254 -31.3237 -31.3228 -31.3057 -31.2909 -31.2904
   -31.2768 -31.2583 -31.2565 -31.2483 -31.2440 -31.2274 -31.2209 -31.2150
   -31.2100 -31.2011 -31.1947 -31.1817 -31.1797 -31.1662 -31.0963 -31.0898
   -31.0635 -31.0280 -30.5647 -30.5320 -30.5124 -30.4234 -30.3626 -30.2952
   -21.5067 -19.7096 -16.1204 -15.7168 -15.5435 -15.4645 -15.3181 -15.2251
   -15.1510 -15.0881 -14.9847 -14.9755 -14.9554 -14.8890 -14.8515 -14.8344
   -14.7541 -14.7408 -14.7342 -14.7099 -14.6661 -14.6172 -14.5851 -14.5604
   -14.5373 -14.5142 -14.4842 -14.4545 -14.4248 -14.3992 -14.1967 -14.1479
   -12.7145 -12.6363 -10.5658  -6.6867  -6.4113  -4.6620  -4.6334  -4.5721
    -4.4055  -3.6413  -3.3656  -2.9598  -2.8301  -2.7251  -2.7107  -2.6907
    -2.6192  -2.5890  -2.4543  -2.4170  -2.3940  -2.3583  -2.3109  -2.2599
    -2.2326  -2.1392  -2.1204  -2.1045  -2.0848  -2.0267  -2.0016  -1.9763
    -1.9432  -1.9063  -1.8844  -1.8625  -1.8337  -1.7891  -1.7433  -1.6981
    -1.6868  -1.6251  -1.5829  -1.4807  -1.4505  -1.4135  -1.3221  -1.2990
    -1.2271  -1.1812  -1.0342  -0.9734  -0.9280  -0.8850  -0.8652  -0.7473
    -0.6964  -0.6198  -0.5690  -0.5526  -0.5257  -0.4573  -0.4016  -0.3895
    -0.3320  -0.3135  -0.2710  -0.2475  -0.2056  -0.1885  -0.1046  -0.0614
    -0.0225   0.0011   0.0459   0.0633   0.0973   0.1241   0.1661   0.2132
     0.2357   0.3190   0.3464   0.3864   0.4173   0.4879   0.5261   0.5320
     0.5945   0.6447   0.7376   0.7926   0.8361   0.9334   0.9728   1.0076
     1.0520   1.1045   1.1277   1.2092   1.2185   1.3436   1.4007   1.6759
     2.0123   2.1019   2.2568   2.3208   4.0757   4.0995   4.1566   4.2870
     4.3460   4.3563   4.4017   4.4295   4.4517   4.4837

          k =-0.0760-0.0000 0.0000 ( 17886 PWs)   bands (ev):

   -55.3284 -55.2530 -55.2179 -55.1437 -55.1218 -55.0871 -55.0505 -55.0461
   -55.0451 -55.0259 -55.0154 -54.9856 -54.8986 -54.8230 -54.2129 -54.1789
   -31.7329 -31.7231 -31.6398 -31.6272 -31.5756 -31.5691 -31.5421 -31.5409
   -31.5168 -31.4960 -31.4853 -31.4194 -31.4088 -31.4012 -31.3660 -31.3614
   -31.3530 -31.3351 -31.3182 -31.3166 -31.3121 -31.2730 -31.2653 -31.2640
   -31.2626 -31.2577 -31.2561 -31.2392 -31.2341 -31.2328 -31.2277 -31.2075
   -31.1952 -31.1756 -31.1709 -31.1621 -31.1615 -31.1288 -31.0973 -31.0682
   -31.0372 -31.0278 -30.6184 -30.5394 -30.5071 -30.4359 -30.3497 -30.2381
   -21.5068 -19.7111 -16.1203 -15.6891 -15.6052 -15.5171 -15.3259 -15.2274
   -15.2157 -15.1236 -15.0338 -15.0306 -15.0149 -14.9681 -14.9454 -14.9219
   -14.9146 -14.7344 -14.7265 -14.7033 -14.6170 -14.5875 -14.5457 -14.5168
   -14.4862 -14.4743 -14.3956 -14.3907 -14.3748 -14.3128 -14.0996 -14.0820
   -12.7063 -12.5958 -10.5678  -6.6878  -6.4164  -4.6611  -4.6297  -4.5661
    -4.4116  -3.6360  -3.3652  -3.0854  -2.8975  -2.7429  -2.7190  -2.6702
    -2.6658  -2.6116  -2.5665  -2.5296  -2.5011  -2.4835  -2.4818  -2.4604
    -2.2885  -2.1940  -2.1677  -2.0480  -1.8725  -1.8310  -1.7970  -1.7895
    -1.7807  -1.7359  -1.7178  -1.6842  -1.6788  -1.6208  -1.5933  -1.5726
    -1.5542  -1.5421  -1.4728  -1.4444  -1.4000  -1.3914  -1.3666  -1.3317
    -1.2100  -1.1236  -1.0884  -0.9840  -0.9232  -0.8897  -0.8303  -0.8226
    -0.7909  -0.7133  -0.7062  -0.7019  -0.6635  -0.6298  -0.6055  -0.5734
    -0.5256  -0.5042  -0.4285  -0.4021  -0.3143  -0.2831  -0.1244  -0.0439
    -0.0083   0.0353   0.1647   0.1697   0.1845   0.2435   0.2521   0.3101
     0.3373   0.3613   0.4237   0.4660   0.4956   0.5439   0.5545   0.5680
     0.6326   0.6800   0.7313   0.7447   0.7833   0.8472   0.8624   0.9501
     0.9923   1.0487   1.1480   1.2711   1.4192   1.4441   1.4620   1.7822
     1.8449   1.9490   2.1403   2.2880   3.8997   3.9148   4.1596   4.1675
     4.1745   4.2376   4.2750   4.3191   4.3871   4.4094

          k =-0.0760 0.0419 0.0000 ( 17914 PWs)   bands (ev):

   -55.3281 -55.2483 -55.2227 -55.1410 -55.1198 -55.0899 -55.0482 -55.0457
   -55.0455 -55.0220 -55.0203 -54.9896 -54.8969 -54.8248 -54.2080 -54.1840
   -31.6862 -31.6791 -31.6111 -31.5738 -31.5728 -31.5443 -31.5403 -31.5282
   -31.4819 -31.4706 -31.4642 -31.4103 -31.4078 -31.3886 -31.3755 -31.3607
   -31.3548 -31.3412 -31.3258 -31.3254 -31.3237 -31.2915 -31.2848 -31.2738
   -31.2714 -31.2575 -31.2538 -31.2475 -31.2464 -31.2376 -31.2315 -31.2249
   -31.2101 -31.2010 -31.1945 -31.1881 -31.1793 -31.1662 -31.0962 -31.0943
   -31.0635 -31.0294 -30.5645 -30.5348 -30.5117 -30.4234 -30.3626 -30.2952
   -21.5068 -19.7094 -16.1160 -15.6101 -15.5131 -15.4369 -15.2345 -15.1495
   -15.1313 -15.0572 -14.9937 -14.9827 -14.9713 -14.9571 -14.9327 -14.9076
   -14.8681 -14.7597 -14.7412 -14.7362 -14.6854 -14.6166 -14.5722 -14.5649
   -14.5266 -14.5202 -14.4988 -14.4757 -14.4193 -14.3904 -14.1945 -14.1491
   -12.7124 -12.6366 -10.5672  -6.6873  -6.4138  -4.6614  -4.6333  -4.5677
    -4.4074  -3.6263  -3.3631  -2.9353  -2.7659  -2.6217  -2.4966  -2.4751
    -2.4346  -2.4020  -2.3815  -2.3532  -2.3404  -2.3049  -2.2806  -2.2536
    -2.1969  -2.1662  -2.1223  -2.0690  -2.0419  -1.9752  -1.9597  -1.9225
    -1.9074  -1.8734  -1.8296  -1.7935  -1.7751  -1.7331  -1.7098  -1.6916
    -1.6872  -1.6410  -1.6226  -1.4296  -1.3846  -1.3349  -1.3141  -1.2259
    -1.2044  -1.1443  -1.1269  -1.0249  -0.9247  -0.8744  -0.8383  -0.8134
    -0.7417  -0.7123  -0.6830  -0.6250  -0.5720  -0.5525  -0.4971  -0.4725
    -0.4653  -0.4372  -0.4029  -0.3832  -0.3682  -0.3038  -0.2758  -0.2187
    -0.1754  -0.1458  -0.1003  -0.0375   0.0097   0.0337   0.0901   0.1523
     0.1812   0.1972   0.2652   0.3431   0.4221   0.4621   0.5541   0.5919
     0.6125   0.6264   0.7086   0.7181   0.8630   0.9211   0.9600   1.0835
     1.1137   1.1349   1.2401   1.2787   1.3033   1.3091   1.4072   1.4828
     2.0266   2.1037   2.1802   2.3082   4.0794   4.0960   4.1080   4.1983
     4.2553   4.2849   4.3307   4.3844   4.5182   4.5418

          k =-0.0760-0.0839 0.0000 ( 17948 PWs)   bands (ev):

   -55.3278 -55.2400 -55.2310 -55.1379 -55.1176 -55.0930 -55.0505 -55.0458
   -55.0372 -55.0289 -55.0167 -54.9949 -54.8950 -54.8267 -54.1963 -54.1958
   -31.6422 -31.5783 -31.5686 -31.5510 -31.5423 -31.5417 -31.5362 -31.5204
   -31.4582 -31.4535 -31.4146 -31.3933 -31.3816 -31.3765 -31.3600 -31.3580
   -31.3544 -31.3525 -31.3457 -31.3398 -31.3348 -31.3328 -31.3174 -31.3154
   -31.2965 -31.2858 -31.2564 -31.2500 -31.2472 -31.2429 -31.2350 -31.2337
   -31.2271 -31.2223 -31.2185 -31.2141 -31.2116 -31.1734 -31.1546 -31.0916
   -31.0744 -31.0309 -30.5233 -30.5230 -30.4330 -30.4315 -30.3932 -30.3923
   -21.5067 -19.7078 -16.1121 -15.5352 -15.3787 -15.2078 -15.1940 -15.1146
   -15.0230 -15.0053 -14.9744 -14.9615 -14.9442 -14.9197 -14.9117 -14.8764
   -14.8136 -14.7717 -14.7486 -14.7404 -14.6934 -14.6881 -14.6846 -14.6218
   -14.6146 -14.5965 -14.5717 -14.5118 -14.5029 -14.4024 -14.3873 -14.2151
   -12.6987 -12.6978 -10.5667  -6.6868  -6.4111  -4.6618  -4.6372  -4.5689
    -4.4072  -3.6173  -3.3611  -2.6836  -2.5986  -2.5247  -2.4316  -2.3532
    -2.2987  -2.2497  -2.2286  -2.1839  -2.1628  -2.0932  -2.0585  -2.0498
    -2.0304  -2.0282  -1.9977  -1.9823  -1.9696  -1.9483  -1.9200  -1.9027
    -1.8921  -1.8712  -1.8513  -1.8254  -1.8133  -1.8034  -1.7886  -1.7726
    -1.6617  -1.6451  -1.6123  -1.4501  -1.4386  -1.3692  -1.3376  -1.3110
    -1.3075  -1.2770  -1.2621  -1.2203  -1.1145  -1.0866  -1.0372  -0.9975
    -0.9027  -0.8870  -0.8361  -0.7851  -0.7393  -0.7108  -0.6802  -0.6651
    -0.6113  -0.4729  -0.4521  -0.4071  -0.2880  -0.2147  -0.1990  -0.1864
    -0.1647  -0.1416  -0.0951  -0.0869  -0.0250  -0.0125   0.0584   0.0623
     0.0914   0.1130   0.2155   0.3375   0.4162   0.4600   0.5049   0.5543
     0.5880   0.6703   0.7468   0.8330   0.9090   0.9386   0.9523   1.0701
     1.1025   1.1551   1.2010   1.2211   1.2794   1.3152   1.3554   1.3885
     2.1731   2.1867   2.2431   2.2487   4.0514   4.3015   4.3614   4.3785
     4.3883   4.4206   4.4416   4.4930   4.5097   4.5332

     the Fermi energy is     3.8808 ev

!    total energy              =   -3006.45832858 Ry
     estimated scf accuracy    <       0.00000007 Ry
     smearing contrib. (-TS)   =      -0.02082660 Ry
     internal energy E=F+TS    =   -3006.43750198 Ry

     The total energy is F=E-TS. E is the sum of the following terms:
     one-electron contribution =  -22317.78004341 Ry
     hartree contribution      =   11258.41425936 Ry
     xc contribution           =    -501.14351088 Ry
     ewald contribution        =    8554.06971131 Ry
     electric field correction =       0.00208163 Ry

     convergence has been achieved in  95 iterations

     Forces acting on atoms (cartesian axes, Ry/au):

     atom    1 type  1   force =    -0.00037499   -0.00017418    0.09497717
     atom    2 type  1   force =    -0.00035382    0.00513144   -0.17482111
     atom    3 type  2   force =     0.00070774    0.00013237   -0.02673360
     atom    4 type  2   force =     0.00129024    0.00083342    0.05207268
     atom    5 type  2   force =    -0.01095609   -0.00256178    0.00077668
     atom    6 type  2   force =     0.01193134   -0.00381200    0.00178650
     atom    7 type  1   force =    -0.00021787    0.00039015    0.00067545
     atom    8 type  1   force =     0.00013226    0.00022165    0.00016053
     atom    9 type  2   force =     0.00024950    0.00075416   -0.00066099
     atom   10 type  2   force =    -0.00039128    0.00016624    0.00014182
     atom   11 type  2   force =     0.00044342   -0.00015308    0.00011035
     atom   12 type  2   force =    -0.00085364   -0.00015280    0.00036287
     atom   13 type  1   force =     0.00043612    0.00034244   -0.00021696
     atom   14 type  1   force =    -0.00034154   -0.00071068    0.00094605
     atom   15 type  2   force =    -0.00014040   -0.00052598   -0.00096052
     atom   16 type  2   force =    -0.00027917   -0.00000622   -0.00023164
     atom   17 type  2   force =    -0.00097108    0.00030318    0.00000230
     atom   18 type  2   force =     0.00048265    0.00069155   -0.00007545
     atom   19 type  1   force =     0.00025014   -0.00079501    0.00020607
     atom   20 type  1   force =    -0.00021698    0.00008765    0.00037334
     atom   21 type  2   force =    -0.00000338    0.00007484    0.10302604
     atom   22 type  2   force =    -0.00003273   -0.00012746    0.00096240
     atom   23 type  2   force =    -0.07196159    0.00013756   -0.02803716
     atom   24 type  2   force =     0.07179632    0.00063602   -0.02814154
     atom   25 type  1   force =    -0.00036479    0.00026085    0.10243373
     atom   26 type  1   force =    -0.00010769   -0.00475194   -0.17506353
     atom   27 type  2   force =     0.00084755    0.00116720   -0.02485464
     atom   28 type  2   force =     0.00119627    0.00025285    0.05170045
     atom   29 type  2   force =    -0.01191618    0.00381671    0.00171814
     atom   30 type  2   force =     0.01375916    0.00146603    0.00244918
     atom   31 type  1   force =    -0.00028936   -0.00015759    0.00080460
     atom   32 type  1   force =     0.00027617    0.00029156    0.00058785
     atom   33 type  2   force =     0.00000550    0.00020090    0.00009136
     atom   34 type  2   force =    -0.00027322   -0.00032811   -0.00056256
     atom   35 type  2   force =    -0.00022263    0.00005136   -0.00046904
     atom   36 type  2   force =    -0.00038813    0.00009723   -0.00008824
     atom   37 type  1   force =    -0.00005235   -0.00033763    0.00004366
     atom   38 type  1   force =    -0.00056736    0.00028762    0.00001916
     atom   39 type  2   force =    -0.00025236   -0.00025004    0.00080441
     atom   40 type  2   force =    -0.00019883    0.00010866    0.00031912
     atom   41 type  2   force =    -0.00140343   -0.00024346   -0.00007778
     atom   42 type  2   force =     0.00107032   -0.00013466   -0.00050205
     atom   43 type  1   force =    -0.00019786    0.00049394    0.00015440
     atom   44 type  1   force =    -0.00009333    0.00011360    0.00009182
     atom   45 type  2   force =     0.00000209    0.00013915    0.10261454
     atom   46 type  2   force =    -0.07185339   -0.00062740   -0.02798266
     atom   47 type  2   force =     0.07171100   -0.00013659   -0.02805688
     atom   48 type  3   force =    -0.00359483   -0.00325174   -0.00092436
     atom   49 type  2   force =    -0.00108963   -0.00070787    0.00023308
     atom   50 type  4   force =     0.00333061    0.00256204    0.00083614
     atom   51 type  4   force =     0.00038957    0.00039526   -0.00069993
     atom   52 type  4   force =     0.00050627    0.00037323   -0.00026349
     atom   53 type  4   force =    -0.00101735   -0.00068484   -0.00136839
     atom   54 type  5   force =     0.00013106   -0.00007777    0.00033548
     atom   55 type  5   force =    -0.00048049    0.00006006   -0.00030898
     atom   56 type  2   force =     0.00080677   -0.00053408    0.00048221
     atom   57 type  4   force =    -0.00029429   -0.00079798   -0.00119810

     Total force =     0.364887     Total SCF correction =     0.000724
  @ DRIVER MODE: Message from server: STATUS
  @ DRIVER MODE: Message from server: GETFORCE
  @ DRIVER MODE: Returning v,forces,stress,ensemble 

     Writing output data file ./calc.save/
  @ DRIVER MODE: Message from server: EXIT
  @ DRIVE MODE: Exiting  
 
     init_run     :     20.36s CPU     20.77s WALL (       1 calls)
     electrons    :   2142.22s CPU   2210.15s WALL (       1 calls)
     forces       :      3.06s CPU      3.24s WALL (       1 calls)

     Called by init_run:
     wfcinit      :     11.42s CPU     11.62s WALL (       1 calls)
     potinit      :      7.30s CPU      7.38s WALL (       1 calls)
     hinit0       :      0.48s CPU      0.50s WALL (       1 calls)

     Called by electrons:
     c_bands      :   1818.48s CPU   1859.76s WALL (      95 calls)
     sum_band     :    225.60s CPU    240.14s WALL (      95 calls)
     v_of_rho     :     70.80s CPU     74.35s WALL (      96 calls)
     newd         :     28.92s CPU     36.83s WALL (      96 calls)
     mix_rho      :      3.98s CPU      4.24s WALL (      95 calls)
     vdW_kernel   :      6.14s CPU      6.16s WALL (       1 calls)

     Called by c_bands:
     init_us_2    :      9.86s CPU      9.96s WALL (    1920 calls)
     cegterg      :   1784.33s CPU   1824.69s WALL (     974 calls)

     Called by *egterg:
     cdiaghg      :    291.90s CPU    297.99s WALL (    9681 calls)
     h_psi        :    976.84s CPU   1001.91s WALL (    9697 calls)
     s_psi        :    115.53s CPU    116.15s WALL (    9697 calls)
     g_psi        :      3.01s CPU      3.04s WALL (    8713 calls)

     Called by h_psi:
     h_psi:calbec :    118.28s CPU    120.19s WALL (    9697 calls)
     vloc_psi     :    738.76s CPU    755.54s WALL (    9697 calls)
     add_vuspsi   :    115.92s CPU    119.26s WALL (    9697 calls)

     General routines
     calbec       :    155.37s CPU    157.50s WALL (   10687 calls)
     fft          :     39.87s CPU     40.46s WALL (    6048 calls)
     ffts         :      0.36s CPU      0.37s WALL (     191 calls)
     fftw         :    835.03s CPU    857.67s WALL ( 1324496 calls)
     interpolate  :      0.91s CPU      0.95s WALL (      96 calls)
     davcio       :      0.00s CPU      1.06s WALL (      10 calls)
 
     Parallel routines
 
     PWSCF        :  36m 8.87s CPU  37m33.37s WALL

 
   This run was terminated on:  23:21:40  25Sep2021            

=------------------------------------------------------------------------------=
   JOB DONE.
=------------------------------------------------------------------------------=
