
     Program PWSCF v.6.7GPU starts on 25Sep2021 at 18:16:45 

     This program is part of the open-source Quantum ESPRESSO suite
     for quantum simulation of materials; please cite
         "P. Giannozzi et al., J. Phys.:Condens. Matter 21 395502 (2009);
         "P. Giannozzi et al., J. Phys.:Condens. Matter 29 465901 (2017);
         "P. Giannozzi et al., J. Chem. Phys. 152 154105 (2020);
          URL http://www.quantum-espresso.org", 
     in publications or presentations arising from this work. More details at
     http://www.quantum-espresso.org/quote

     Parallel version (MPI), running on     8 processors

     MPI processes distributed on     1 nodes
     R & G space division:  proc/nbgrp/npool/nimage =       8
     Reading input from /storage/home/hcoda1/3/ntian30/research/carbon/CxH_vib/H2O_calc/ads_slab/CH3ON2H2O_a/out_0008/pw.inp
Warning: card &CELL ignored
Warning: card   CELL_DYNAMICS='IPI', ignored
Warning: card / ignored

     Current dimensions of program PWSCF are:
     Max number of different atomic species (ntypx) = 10
     Max number of k-points (npk) =  40000
     Max angular momentum in pseudopotentials (lmaxx) =  3
     Presently no symmetry can be used with electric field

     Message from routine cell_base_init:
     DEPRECATED: use true lattice parameter, not A to a.u. conversion factor

     **************************************************************************
     Initializing libbeef V0.1.2 with the BEEF-vdW functional.
     Citation: Wellendorff et al., PRB 85, 235149 (2012).
     **************************************************************************


     IMPORTANT: XC functional enforced from input :
     Exchange-correlation= BEEF-VDW
                           (   1   4  43  14   2   0   0)
     Any further DFT definition will be discarded
     Please, verify this is what you really want


     Subspace diagonalization in iterative solution of the eigenvalue problem:
     one sub-group per band group will be used
     scalapack distributed-memory algorithm (size of sub-group:  2*  2 procs)

  @ DRIVER MODE: Connecting to 
 qe_1139763_2971672.sched-torque.pace.gatech.eduvckf7s3o_scratch
  using UNIX socket
  @ DRIVER MODE: Message from server: STATUS
  @ DRIVER MODE: Message from server: INIT
  @ DRIVER MODE: Receiving replica           0          -1
  @ DRIVER MODE: Receiving encoded integer          25
  @ DRIVER MODE:  SCF:  T  FORCE:  T  STRESS:  F  VC:  F  ENSEMBLE:  F
  @ DRIVER MODE:  SCF:  T  FORCE:  T  STRESS:  F  VC:  F  ENSEMBLE:  F
 
     Parallelization info
     --------------------
     sticks:   dense  smooth     PW     G-vecs:    dense   smooth      PW
     Min         409     164     47                70857    17926    2743
     Max         411     165     48                70858    17931    2751
     Sum        3275    1317    379               566857   143421   21985
 
     Using Slab Decomposition
 


     bravais-lattice index     =            0
     lattice parameter (alat)  =       1.8897  a.u.
     unit-cell volume          =    6658.9804 (a.u.)^3
     number of atoms/cell      =           57
     number of atomic types    =            5
     number of electrons       =       409.00
     number of Kohn-Sham states=          214
     kinetic-energy cutoff     =      29.3995  Ry
     charge density cutoff     =     293.9946  Ry
     scf convergence threshold =      7.3E-08
     mixing beta               =       0.0500
     number of iterations used =            8  plain     mixing
     Exchange-correlation= BEEF-VDW
                           (   1   4  43  14   2   0   0)

     celldm(1)=   1.889726  celldm(2)=   0.000000  celldm(3)=   0.000000
     celldm(4)=   0.000000  celldm(5)=   0.000000  celldm(6)=   0.000000

     crystal axes: (cart. coord. in units of alat)
               a(1) = (   6.579727   0.000000   0.000000 )  
               a(2) = (  -0.000775   5.961596   0.000000 )  
               a(3) = (   0.000000   0.000000  25.155947 )  

     reciprocal axes: (cart. coord. in units 2 pi/alat)
               b(1) = (  0.151982  0.000020  0.000000 )  
               b(2) = (  0.000000  0.167740  0.000000 )  
               b(3) = (  0.000000  0.000000  0.039752 )  


     PseudoPot. # 1 for Ti read from file:
     /storage/coda1/p-amedford6/0/shared/rich_project_chbe-medford/medford-share/data/pseudos_module/espresso/nninc/pbe/van/Ti.UPF
     MD5 check sum: 8e4df49b7f0d34bbd5052bf3f5ea0213
     Pseudo is Ultrasoft, Zval = 12.0
     Generated by new atomic code, or converted to UPF format
     Using radial grid of  851 points,  6 beta functions with: 
                l(1) =   0
                l(2) =   0
                l(3) =   1
                l(4) =   1
                l(5) =   2
                l(6) =   2
     Q(r) pseudized with  8 coefficients,  rinner =    1.000   1.000   1.000
                                                       1.000   1.000

     PseudoPot. # 2 for O  read from file:
     /storage/coda1/p-amedford6/0/shared/rich_project_chbe-medford/medford-share/data/pseudos_module/espresso/nninc/pbe/van/O.UPF
     MD5 check sum: 78c19812648e8988a0fe644b0f25305e
     Pseudo is Ultrasoft, Zval =  6.0
     Generated by new atomic code, or converted to UPF format
     Using radial grid of  737 points,  4 beta functions with: 
                l(1) =   0
                l(2) =   0
                l(3) =   1
                l(4) =   1
     Q(r) pseudized with  8 coefficients,  rinner =    0.800   0.800   0.800


     PseudoPot. # 3 for C  read from file:
     /storage/coda1/p-amedford6/0/shared/rich_project_chbe-medford/medford-share/data/pseudos_module/espresso/nninc/pbe/van/C.UPF
     MD5 check sum: 1a69bf6b8db32088f5b2163dbdb77a27
     Pseudo is Ultrasoft, Zval =  4.0
     Generated by new atomic code, or converted to UPF format
     Using radial grid of  721 points,  4 beta functions with: 
                l(1) =   0
                l(2) =   0
                l(3) =   1
                l(4) =   1
     Q(r) pseudized with  8 coefficients,  rinner =    0.800   0.800   0.800


     PseudoPot. # 4 for H  read from file:
     /storage/coda1/p-amedford6/0/shared/rich_project_chbe-medford/medford-share/data/pseudos_module/espresso/nninc/pbe/van/H.UPF
     MD5 check sum: b5ee9d7bfd3a09ee7748110bda690ff7
     Pseudo is Ultrasoft, Zval =  1.0
     Generated by new atomic code, or converted to UPF format
     Using radial grid of  615 points,  1 beta functions with: 
                l(1) =   0
     Q(r) pseudized with  8 coefficients,  rinner =    0.800

     PseudoPot. # 5 for N  read from file:
     /storage/coda1/p-amedford6/0/shared/rich_project_chbe-medford/medford-share/data/pseudos_module/espresso/nninc/pbe/van/N.UPF
     MD5 check sum: 90d10febe142ad51ac9d5be1deb811c4
     Pseudo is Ultrasoft, Zval =  5.0
     Generated by new atomic code, or converted to UPF format
     Using radial grid of  729 points,  4 beta functions with: 
                l(1) =   0
                l(2) =   0
                l(3) =   1
                l(4) =   1
     Q(r) pseudized with  8 coefficients,  rinner =    0.800   0.800   0.800


     atomic species   valence    mass     pseudopotential
        Ti1           12.00    47.86700     Ti( 1.00)
        O1             6.00    15.99900     O ( 1.00)
        C1             4.00    12.01100     C ( 1.00)
        H1             1.00     1.00800     H ( 1.00)
        N1             5.00    14.00700     N ( 1.00)

     No symmetry found



   Cartesian axes

     site n.     atom                  positions (alat units)
         1           Ti1 tau(   1) = (   0.0004258   2.9801865   6.0000000  )
         2           Ti1 tau(   2) = (   3.2906075   1.4906267   6.0002472  )
         3           O1  tau(   3) = (   0.0006271   0.0005054   7.9858123  )
         4           O1  tau(   4) = (   3.2906025   0.0005020   7.3038282  )
         5           O1  tau(   5) = (   4.5942328   1.4918067   9.2879030  )
         6           O1  tau(   6) = (   1.9868534   1.4903216   9.2879459  )
         7           Ti1 tau(   7) = (   3.3113259   3.0354369   9.1618307  )
         8           Ti1 tau(   8) = (   0.0141821   1.6139659   9.3625064  )
         9           O1  tau(   9) = (   3.2964399   0.0287090  11.3517035  )
        10           O1  tau(  10) = (   0.0046459   0.0167322  10.6079620  )
        11           O1  tau(  11) = (   1.2916403   1.5142126  12.6509924  )
        12           O1  tau(  12) = (   5.2954765   1.5212855  12.6445515  )
        13           Ti1 tau(  13) = (   0.0303381   3.0181167  12.7741416  )
        14           Ti1 tau(  14) = (   3.3376880   1.5190318  12.5019279  )
        15           O1  tau(  15) = (   6.5702980   0.0162101  14.7136675  )
        16           O1  tau(  16) = (   3.3118210   0.0215951  13.9605728  )
        17           O1  tau(  17) = (   4.5586303   1.5408398  16.0643691  )
        18           O1  tau(  18) = (   2.0376984   1.5397913  16.0346728  )
        19           Ti1 tau(  19) = (   3.2806018   3.0126274  15.6982083  )
        20           Ti1 tau(  20) = (   0.0204579   1.3876160  16.0921805  )
        21           O1  tau(  21) = (   3.2904802   0.0005063   4.7018136  )
        22           O1  tau(  22) = (   0.0362274   0.0182013  17.2505027  )
        23           O1  tau(  23) = (   1.3043587   1.4918075   6.0039043  )
        24           O1  tau(  24) = (   5.2767064   1.4903225   6.0039473  )
        25           Ti1 tau(  25) = (   0.0000382   5.9609847   6.0000000  )
        26           Ti1 tau(  26) = (   3.2902200   4.4714249   6.0002472  )
        27           O1  tau(  27) = (   0.0002396   2.9813036   7.9858123  )
        28           O1  tau(  28) = (   3.2902150   2.9813002   7.3038282  )
        29           O1  tau(  29) = (   4.5938453   4.4726049   9.2879030  )
        30           O1  tau(  30) = (   1.9864658   4.4711199   9.2879459  )
        31           Ti1 tau(  31) = (   3.2918133   0.0584897   9.1554610  )
        32           Ti1 tau(  32) = (   0.0176696   4.5429683   9.2683582  )
        33           O1  tau(  33) = (   3.2944385   3.0046939  11.3531965  )
        34           O1  tau(  34) = (   0.0071923   2.9964285  10.5824339  )
        35           O1  tau(  35) = (   1.2923070   4.5060354  12.6395470  )
        36           O1  tau(  36) = (   5.2930342   4.4972821  12.6335129  )
        37           Ti1 tau(  37) = (   0.0360028   0.0369787  12.5252624  )
        38           Ti1 tau(  38) = (   3.3378333   4.5109478  12.5016189  )
        39           O1  tau(  39) = (   0.0182598   3.0415135  14.6926035  )
        40           O1  tau(  40) = (   3.2973286   3.0139918  13.9115332  )
        41           O1  tau(  41) = (   4.5518717   4.4752506  16.0920674  )
        42           O1  tau(  42) = (   2.0385343   4.4722040  16.0556704  )
        43           Ti1 tau(  43) = (   3.3273276   0.0437280  15.7880462  )
        44           Ti1 tau(  44) = (   0.0148993   4.5306414  15.9319406  )
        45           O1  tau(  45) = (   3.2900926   2.9813045   4.7018136  )
        46           O1  tau(  46) = (   1.3039711   4.4726057   6.0039043  )
        47           O1  tau(  47) = (   5.2763189   4.4711207   6.0039473  )
        48           C1  tau(  48) = (   6.0619278   3.0088867  18.6555636  )
        49           O1  tau(  49) = (   0.0091652   2.9994598  17.3400993  )
        50           H1  tau(  50) = (   4.9713474   2.8828304  18.6515055  )
        51           H1  tau(  51) = (   6.4909130   2.1836263  19.2313859  )
        52           H1  tau(  52) = (   6.3070107   3.9563896  19.1453893  )
        53           N1  tau(  53) = (   5.9950546   3.0301018  22.7159517  )
        54           N1  tau(  54) = (   5.2276613   3.1827328  21.9368001  )
        55           O1  tau(  55) = (   3.1818816   0.0591848  18.2205797  )
        56           H1  tau(  56) = (   3.8437189   5.3938241  18.5518935  )
        57           H1  tau(  57) = (   2.3086839   5.6188137  18.3735615  )

     number of k points=    10  Fermi-Dirac smearing, width (Ry)=  0.0073
                       cart. coord. in units 2pi/alat
        k(    1) = (   0.0000000   0.0000000   0.0000000), wk =   0.1250000
        k(    2) = (   0.0000000   0.0419351   0.0000000), wk =   0.2500000
        k(    3) = (   0.0000000  -0.0838702   0.0000000), wk =   0.1250000
        k(    4) = (   0.0379955   0.0000049   0.0000000), wk =   0.2500000
        k(    5) = (   0.0379955   0.0419400   0.0000000), wk =   0.2500000
        k(    6) = (   0.0379955  -0.0838652   0.0000000), wk =   0.2500000
        k(    7) = (   0.0379955  -0.0419301   0.0000000), wk =   0.2500000
        k(    8) = (  -0.0759910  -0.0000099   0.0000000), wk =   0.1250000
        k(    9) = (  -0.0759910   0.0419252   0.0000000), wk =   0.2500000
        k(   10) = (  -0.0759910  -0.0838800   0.0000000), wk =   0.1250000

     Dense  grid:   566857 G-vectors     FFT dimensions: (  72,  64, 270)

     Smooth grid:   143421 G-vectors     FFT dimensions: (  45,  40, 180)

     Estimated max dynamical RAM per process >     462.31 MB

     Estimated total dynamical RAM >       3.61 GB
     Cannot read rho : file not found

     Initial potential from superposition of free atoms

     starting charge  392.99914, renormalised to  409.00000

     negative rho (up, down):  9.745E-03 0.000E+00


     %%%%%%%%%%%%%%%%%%%%%%%%%%%%%%%%%%%%%%%%%%%%%%%%%%%%%%%%%%%%%%%%%%%%%%%%
     %                                                                      %
     % You are using vdW-DF, which was implemented by the Thonhauser group. %
     % Please cite the following two papers that made this development      %
     % possible and the two reviews that describe the various versions:     %
     %                                                                      %
     %   T. Thonhauser et al., PRL 115, 136402 (2015).                      %
     %   T. Thonhauser et al., PRB 76, 125112 (2007).                       %
     %   K. Berland et al., Rep. Prog. Phys. 78, 066501 (2015).             %
     %   D.C. Langreth et al., J. Phys.: Condens. Matter 21, 084203 (2009). %
     %                                                                      %
     %                                                                      %
     % If you are calculating the stress with vdW-DF, please also cite:     %
     %                                                                      %
     %   R. Sabatini et al., J. Phys.: Condens. Matter 24, 424209 (2012).   %
     %                                                                      %
     %%%%%%%%%%%%%%%%%%%%%%%%%%%%%%%%%%%%%%%%%%%%%%%%%%%%%%%%%%%%%%%%%%%%%%%%


 
     Adding external electric field

     Computed dipole along edir(3) : 
        Dipole              -18.5715 Ry au,        -47.2041 Debye
        Dipole field         -0.0350 Ry au, 
 
        Potential amp.        3.2488 Ry
        Total length         46.3494 bohr
 
     Starting wfcs are  309 atomic wfcs
  @ DRIVER MODE: Message from server: STATUS
  @ DRIVER MODE: Message from server: POSDATA
  @ DRIVER MODE: Reading and sharing cell 
  @ DRIVER MODE: Reading and sharing positions 
  @ DRIVER MODE: Received positions 

     total cpu time spent up to now is       16.2 secs

     Self-consistent Calculation

     iteration #  1     ecut=    29.40 Ry     beta= 0.05
     Davidson diagonalization with overlap
     c_bands:  3 eigenvalues not converged
     c_bands:  2 eigenvalues not converged
     c_bands:  2 eigenvalues not converged
     c_bands:  5 eigenvalues not converged
     c_bands:  5 eigenvalues not converged
     c_bands:  5 eigenvalues not converged
     c_bands:  1 eigenvalues not converged
     c_bands:  3 eigenvalues not converged
     ethr =  1.00E-05,  avg # of iterations = 28.7

     negative rho (up, down):  6.861E-03 0.000E+00
 
     Adding external electric field

     Computed dipole along edir(3) : 
        Dipole               65.1205 Ry au,        165.5199 Debye
        Dipole field          0.1229 Ry au, 
 
        Potential amp.      -11.3918 Ry
        Total length         46.3494 bohr
 

     total cpu time spent up to now is       87.4 secs

     total energy              =   -2113.12546504 Ry
     estimated scf accuracy    <   10297.56056323 Ry

     iteration #  2     ecut=    29.40 Ry     beta= 0.05
     Davidson diagonalization with overlap
     ethr =  1.00E-02,  avg # of iterations = 31.8

     negative rho (up, down):  1.222E-04 0.000E+00
 
     Adding external electric field

     Computed dipole along edir(3) : 
        Dipole               -1.9132 Ry au,         -4.8629 Debye
        Dipole field         -0.0036 Ry au, 
 
        Potential amp.        0.3347 Ry
        Total length         46.3494 bohr
 

     total cpu time spent up to now is      220.9 secs

     total energy              =   -2409.27944257 Ry
     estimated scf accuracy    <   87253.50322302 Ry

     iteration #  3     ecut=    29.40 Ry     beta= 0.05
     Davidson diagonalization with overlap
     ethr =  1.00E-02,  avg # of iterations = 17.4

     negative rho (up, down):  1.524E-04 0.000E+00
 
     Adding external electric field

     Computed dipole along edir(3) : 
        Dipole               -5.1151 Ry au,        -13.0014 Debye
        Dipole field         -0.0097 Ry au, 
 
        Potential amp.        0.8948 Ry
        Total length         46.3494 bohr
 

     total cpu time spent up to now is      289.6 secs

     total energy              =   -3000.66916227 Ry
     estimated scf accuracy    <    9426.27717977 Ry

     iteration #  4     ecut=    29.40 Ry     beta= 0.05
     Davidson diagonalization with overlap
     ethr =  1.00E-02,  avg # of iterations = 12.6

     negative rho (up, down):  1.609E-04 0.000E+00
 
     Adding external electric field

     Computed dipole along edir(3) : 
        Dipole               -6.3495 Ry au,        -16.1389 Debye
        Dipole field         -0.0120 Ry au, 
 
        Potential amp.        1.1108 Ry
        Total length         46.3494 bohr
 

     total cpu time spent up to now is      324.8 secs

     total energy              =   -3007.83592956 Ry
     estimated scf accuracy    <    2752.52534457 Ry

     iteration #  5     ecut=    29.40 Ry     beta= 0.05
     Davidson diagonalization with overlap
     ethr =  1.00E-02,  avg # of iterations =  4.5

     negative rho (up, down):  1.843E-04 0.000E+00
 
     Adding external electric field

     Computed dipole along edir(3) : 
        Dipole               -8.1357 Ry au,        -20.6788 Debye
        Dipole field         -0.0154 Ry au, 
 
        Potential amp.        1.4232 Ry
        Total length         46.3494 bohr
 

     total cpu time spent up to now is      340.3 secs

     total energy              =   -2965.81910233 Ry
     estimated scf accuracy    <    2561.30466535 Ry

     iteration #  6     ecut=    29.40 Ry     beta= 0.05
     Davidson diagonalization with overlap
     ethr =  1.00E-02,  avg # of iterations = 14.8

     negative rho (up, down):  1.576E-04 0.000E+00
 
     Adding external electric field

     Computed dipole along edir(3) : 
        Dipole               -5.0959 Ry au,        -12.9525 Debye
        Dipole field         -0.0096 Ry au, 
 
        Potential amp.        0.8915 Ry
        Total length         46.3494 bohr
 

     total cpu time spent up to now is      379.7 secs

     total energy              =   -3009.35511671 Ry
     estimated scf accuracy    <     193.71017463 Ry

     iteration #  7     ecut=    29.40 Ry     beta= 0.05
     Davidson diagonalization with overlap
     ethr =  1.00E-02,  avg # of iterations =  4.9

     negative rho (up, down):  1.554E-04 0.000E+00
 
     Adding external electric field

     Computed dipole along edir(3) : 
        Dipole               -2.7937 Ry au,         -7.1009 Debye
        Dipole field         -0.0053 Ry au, 
 
        Potential amp.        0.4887 Ry
        Total length         46.3494 bohr
 

     total cpu time spent up to now is      395.4 secs

     total energy              =   -3010.58509227 Ry
     estimated scf accuracy    <      93.10522085 Ry

     iteration #  8     ecut=    29.40 Ry     beta= 0.05
     Davidson diagonalization with overlap
     ethr =  1.00E-02,  avg # of iterations =  5.3

     negative rho (up, down):  1.556E-04 0.000E+00
 
     Adding external electric field

     Computed dipole along edir(3) : 
        Dipole               -2.5413 Ry au,         -6.4594 Debye
        Dipole field         -0.0048 Ry au, 
 
        Potential amp.        0.4446 Ry
        Total length         46.3494 bohr
 

     total cpu time spent up to now is      411.1 secs

     total energy              =   -3012.41792325 Ry
     estimated scf accuracy    <     307.84694924 Ry

     iteration #  9     ecut=    29.40 Ry     beta= 0.05
     Davidson diagonalization with overlap
     ethr =  1.00E-02,  avg # of iterations =  1.5

     negative rho (up, down):  1.638E-04 0.000E+00
 
     Adding external electric field

     Computed dipole along edir(3) : 
        Dipole               -1.6596 Ry au,         -4.2183 Debye
        Dipole field         -0.0031 Ry au, 
 
        Potential amp.        0.2903 Ry
        Total length         46.3494 bohr
 

     total cpu time spent up to now is      425.0 secs

     total energy              =   -3001.54700865 Ry
     estimated scf accuracy    <     383.87296416 Ry

     iteration # 10     ecut=    29.40 Ry     beta= 0.05
     Davidson diagonalization with overlap
     ethr =  1.00E-02,  avg # of iterations =  6.3

     negative rho (up, down):  1.958E-04 0.000E+00
 
     Adding external electric field

     Computed dipole along edir(3) : 
        Dipole                1.5867 Ry au,          4.0330 Debye
        Dipole field          0.0030 Ry au, 
 
        Potential amp.       -0.2776 Ry
        Total length         46.3494 bohr
 

     total cpu time spent up to now is      442.7 secs

     total energy              =   -3002.96136128 Ry
     estimated scf accuracy    <      61.28867652 Ry

     iteration # 11     ecut=    29.40 Ry     beta= 0.05
     Davidson diagonalization with overlap
     ethr =  1.00E-02,  avg # of iterations =  8.0

     negative rho (up, down):  2.122E-04 0.000E+00
 
     Adding external electric field

     Computed dipole along edir(3) : 
        Dipole               -0.0316 Ry au,         -0.0802 Debye
        Dipole field         -0.0001 Ry au, 
 
        Potential amp.        0.0055 Ry
        Total length         46.3494 bohr
 

     total cpu time spent up to now is      463.9 secs

     total energy              =   -3007.50015424 Ry
     estimated scf accuracy    <     264.29647385 Ry

     iteration # 12     ecut=    29.40 Ry     beta= 0.05
     Davidson diagonalization with overlap
     ethr =  1.00E-02,  avg # of iterations =  4.4

     negative rho (up, down):  2.220E-04 0.000E+00
 
     Adding external electric field

     Computed dipole along edir(3) : 
        Dipole               -2.5261 Ry au,         -6.4207 Debye
        Dipole field         -0.0048 Ry au, 
 
        Potential amp.        0.4419 Ry
        Total length         46.3494 bohr
 

     total cpu time spent up to now is      479.2 secs

     total energy              =   -3010.87770693 Ry
     estimated scf accuracy    <      27.93912777 Ry

     iteration # 13     ecut=    29.40 Ry     beta= 0.05
     Davidson diagonalization with overlap
     ethr =  6.83E-03,  avg # of iterations =  3.1

     negative rho (up, down):  2.149E-04 0.000E+00
 
     Adding external electric field

     Computed dipole along edir(3) : 
        Dipole               -2.7000 Ry au,         -6.8627 Debye
        Dipole field         -0.0051 Ry au, 
 
        Potential amp.        0.4723 Ry
        Total length         46.3494 bohr
 

     total cpu time spent up to now is      494.4 secs

     total energy              =   -3010.52192818 Ry
     estimated scf accuracy    <      29.03138946 Ry

     iteration # 14     ecut=    29.40 Ry     beta= 0.05
     Davidson diagonalization with overlap
     ethr =  6.83E-03,  avg # of iterations =  2.9

     negative rho (up, down):  2.524E-04 0.000E+00
 
     Adding external electric field

     Computed dipole along edir(3) : 
        Dipole               -3.4362 Ry au,         -8.7339 Debye
        Dipole field         -0.0065 Ry au, 
 
        Potential amp.        0.6011 Ry
        Total length         46.3494 bohr
 

     total cpu time spent up to now is      509.3 secs

     total energy              =   -3012.63037608 Ry
     estimated scf accuracy    <      37.01842390 Ry

     iteration # 15     ecut=    29.40 Ry     beta= 0.05
     Davidson diagonalization with overlap
     ethr =  6.83E-03,  avg # of iterations =  8.8

     negative rho (up, down):  1.536E-04 0.000E+00
 
     Adding external electric field

     Computed dipole along edir(3) : 
        Dipole               -0.2500 Ry au,         -0.6353 Debye
        Dipole field         -0.0005 Ry au, 
 
        Potential amp.        0.0437 Ry
        Total length         46.3494 bohr
 

     total cpu time spent up to now is      533.7 secs

     total energy              =   -3012.38972157 Ry
     estimated scf accuracy    <     796.02316605 Ry

     iteration # 16     ecut=    29.40 Ry     beta= 0.05
     Davidson diagonalization with overlap
     ethr =  6.83E-03,  avg # of iterations =  5.4

     negative rho (up, down):  1.532E-04 0.000E+00
 
     Adding external electric field

     Computed dipole along edir(3) : 
        Dipole               -0.1807 Ry au,         -0.4594 Debye
        Dipole field         -0.0003 Ry au, 
 
        Potential amp.        0.0316 Ry
        Total length         46.3494 bohr
 

     total cpu time spent up to now is      549.6 secs

     total energy              =   -3012.52747278 Ry
     estimated scf accuracy    <     273.68121715 Ry

     iteration # 17     ecut=    29.40 Ry     beta= 0.05
     Davidson diagonalization with overlap
     ethr =  6.83E-03,  avg # of iterations =  1.8

     negative rho (up, down):  1.395E-04 0.000E+00
 
     Adding external electric field

     Computed dipole along edir(3) : 
        Dipole                0.2986 Ry au,          0.7589 Debye
        Dipole field          0.0006 Ry au, 
 
        Potential amp.       -0.0522 Ry
        Total length         46.3494 bohr
 

     total cpu time spent up to now is      564.0 secs

     total energy              =   -3015.13041133 Ry
     estimated scf accuracy    <     173.30253404 Ry

     iteration # 18     ecut=    29.40 Ry     beta= 0.05
     Davidson diagonalization with overlap
     ethr =  6.83E-03,  avg # of iterations =  1.5

     negative rho (up, down):  1.674E-04 0.000E+00
 
     Adding external electric field

     Computed dipole along edir(3) : 
        Dipole                5.0326 Ry au,         12.7915 Debye
        Dipole field          0.0095 Ry au, 
 
        Potential amp.       -0.8804 Ry
        Total length         46.3494 bohr
 

     total cpu time spent up to now is      577.8 secs

     total energy              =   -2996.01815071 Ry
     estimated scf accuracy    <     255.46641330 Ry

     iteration # 19     ecut=    29.40 Ry     beta= 0.05
     Davidson diagonalization with overlap
     ethr =  6.83E-03,  avg # of iterations = 16.8

     negative rho (up, down):  9.093E-04 0.000E+00
 
     Adding external electric field

     Computed dipole along edir(3) : 
        Dipole               -2.3442 Ry au,         -5.9582 Debye
        Dipole field         -0.0044 Ry au, 
 
        Potential amp.        0.4101 Ry
        Total length         46.3494 bohr
 

     total cpu time spent up to now is      614.5 secs

     total energy              =   -2954.32454097 Ry
     estimated scf accuracy    <    4173.64118743 Ry

     iteration # 20     ecut=    29.40 Ry     beta= 0.05
     Davidson diagonalization with overlap
     ethr =  6.83E-03,  avg # of iterations = 13.9

     negative rho (up, down):  3.463E-03 0.000E+00
 
     Adding external electric field

     Computed dipole along edir(3) : 
        Dipole               -3.6792 Ry au,         -9.3515 Debye
        Dipole field         -0.0069 Ry au, 
 
        Potential amp.        0.6436 Ry
        Total length         46.3494 bohr
 

     total cpu time spent up to now is      656.1 secs

     total energy              =   -3022.84826827 Ry
     estimated scf accuracy    <     773.64379761 Ry

     iteration # 21     ecut=    29.40 Ry     beta= 0.05
     Davidson diagonalization with overlap
     ethr =  6.83E-03,  avg # of iterations =  6.0

     negative rho (up, down):  2.822E-03 0.000E+00
 
     Adding external electric field

     Computed dipole along edir(3) : 
        Dipole               -4.3751 Ry au,        -11.1204 Debye
        Dipole field         -0.0083 Ry au, 
 
        Potential amp.        0.7654 Ry
        Total length         46.3494 bohr
 

     total cpu time spent up to now is      672.8 secs

     total energy              =   -3008.91988369 Ry
     estimated scf accuracy    <    1273.92555384 Ry

     iteration # 22     ecut=    29.40 Ry     beta= 0.05
     Davidson diagonalization with overlap
     ethr =  6.83E-03,  avg # of iterations =  5.4

     negative rho (up, down):  4.585E-03 0.000E+00
 
     Adding external electric field

     Computed dipole along edir(3) : 
        Dipole               -4.0451 Ry au,        -10.2816 Debye
        Dipole field         -0.0076 Ry au, 
 
        Potential amp.        0.7076 Ry
        Total length         46.3494 bohr
 

     total cpu time spent up to now is      688.6 secs

     total energy              =   -3008.14960768 Ry
     estimated scf accuracy    <     728.51236298 Ry

     iteration # 23     ecut=    29.40 Ry     beta= 0.05
     Davidson diagonalization with overlap
     ethr =  6.83E-03,  avg # of iterations =  3.7

     negative rho (up, down):  6.749E-03 0.000E+00
 
     Adding external electric field

     Computed dipole along edir(3) : 
        Dipole               -1.5211 Ry au,         -3.8663 Debye
        Dipole field         -0.0029 Ry au, 
 
        Potential amp.        0.2661 Ry
        Total length         46.3494 bohr
 

     total cpu time spent up to now is      703.3 secs

     total energy              =   -2999.81763550 Ry
     estimated scf accuracy    <     413.85344139 Ry

     iteration # 24     ecut=    29.40 Ry     beta= 0.05
     Davidson diagonalization with overlap
     ethr =  6.83E-03,  avg # of iterations = 10.3

     negative rho (up, down):  9.254E-03 0.000E+00
 
     Adding external electric field

     Computed dipole along edir(3) : 
        Dipole               -1.6512 Ry au,         -4.1969 Debye
        Dipole field         -0.0031 Ry au, 
 
        Potential amp.        0.2889 Ry
        Total length         46.3494 bohr
 

     total cpu time spent up to now is      724.5 secs

     total energy              =   -3006.65412313 Ry
     estimated scf accuracy    <       8.22496455 Ry

     iteration # 25     ecut=    29.40 Ry     beta= 0.05
     Davidson diagonalization with overlap
     ethr =  2.01E-03,  avg # of iterations =  3.9

     negative rho (up, down):  2.213E-02 0.000E+00
 
     Adding external electric field

     Computed dipole along edir(3) : 
        Dipole               -1.9193 Ry au,         -4.8783 Debye
        Dipole field         -0.0036 Ry au, 
 
        Potential amp.        0.3357 Ry
        Total length         46.3494 bohr
 

     total cpu time spent up to now is      739.8 secs

     total energy              =   -3006.85947188 Ry
     estimated scf accuracy    <       4.89326809 Ry

     iteration # 26     ecut=    29.40 Ry     beta= 0.05
     Davidson diagonalization with overlap
     c_bands:  2 eigenvalues not converged
     c_bands:  1 eigenvalues not converged
     c_bands:  1 eigenvalues not converged
     ethr =  1.20E-03,  avg # of iterations =  8.5

     negative rho (up, down):  2.012E-02 0.000E+00
 
     Adding external electric field

     Computed dipole along edir(3) : 
        Dipole               -1.3641 Ry au,         -3.4671 Debye
        Dipole field         -0.0026 Ry au, 
 
        Potential amp.        0.2386 Ry
        Total length         46.3494 bohr
 

     total cpu time spent up to now is      756.6 secs

     total energy              =   -3006.78798835 Ry
     estimated scf accuracy    <      16.42498183 Ry

     iteration # 27     ecut=    29.40 Ry     beta= 0.05
     Davidson diagonalization with overlap
     c_bands:  2 eigenvalues not converged
     ethr =  1.20E-03,  avg # of iterations =  3.8

     negative rho (up, down):  1.950E-02 0.000E+00
 
     Adding external electric field

     Computed dipole along edir(3) : 
        Dipole               -1.0854 Ry au,         -2.7588 Debye
        Dipole field         -0.0020 Ry au, 
 
        Potential amp.        0.1899 Ry
        Total length         46.3494 bohr
 

     total cpu time spent up to now is      771.3 secs

     total energy              =   -3006.81616799 Ry
     estimated scf accuracy    <       2.37427563 Ry

     iteration # 28     ecut=    29.40 Ry     beta= 0.05
     Davidson diagonalization with overlap
     ethr =  5.81E-04,  avg # of iterations =  2.9

     negative rho (up, down):  2.299E-02 0.000E+00
 
     Adding external electric field

     Computed dipole along edir(3) : 
        Dipole               -0.1733 Ry au,         -0.4406 Debye
        Dipole field         -0.0003 Ry au, 
 
        Potential amp.        0.0303 Ry
        Total length         46.3494 bohr
 

     total cpu time spent up to now is      786.2 secs

     total energy              =   -3006.63769438 Ry
     estimated scf accuracy    <       2.55875921 Ry

     iteration # 29     ecut=    29.40 Ry     beta= 0.05
     Davidson diagonalization with overlap
     ethr =  5.81E-04,  avg # of iterations =  9.1

     negative rho (up, down):  3.240E-02 0.000E+00
 
     Adding external electric field

     Computed dipole along edir(3) : 
        Dipole               -0.3592 Ry au,         -0.9130 Debye
        Dipole field         -0.0007 Ry au, 
 
        Potential amp.        0.0628 Ry
        Total length         46.3494 bohr
 

     total cpu time spent up to now is      804.2 secs

     total energy              =   -3007.14739718 Ry
     estimated scf accuracy    <      50.87063401 Ry

     iteration # 30     ecut=    29.40 Ry     beta= 0.05
     Davidson diagonalization with overlap
     ethr =  5.81E-04,  avg # of iterations =  3.0

     negative rho (up, down):  2.449E-02 0.000E+00
 
     Adding external electric field

     Computed dipole along edir(3) : 
        Dipole               -0.2229 Ry au,         -0.5664 Debye
        Dipole field         -0.0004 Ry au, 
 
        Potential amp.        0.0390 Ry
        Total length         46.3494 bohr
 

     total cpu time spent up to now is      818.6 secs

     total energy              =   -3007.08182999 Ry
     estimated scf accuracy    <      90.40619805 Ry

     iteration # 31     ecut=    29.40 Ry     beta= 0.05
     Davidson diagonalization with overlap
     ethr =  5.81E-04,  avg # of iterations =  1.1

     negative rho (up, down):  9.791E-03 0.000E+00
 
     Adding external electric field

     Computed dipole along edir(3) : 
        Dipole               -0.1874 Ry au,         -0.4764 Debye
        Dipole field         -0.0004 Ry au, 
 
        Potential amp.        0.0328 Ry
        Total length         46.3494 bohr
 

     total cpu time spent up to now is      832.3 secs

     total energy              =   -3006.61883187 Ry
     estimated scf accuracy    <      82.28321719 Ry

     iteration # 32     ecut=    29.40 Ry     beta= 0.05
     Davidson diagonalization with overlap
     ethr =  5.81E-04,  avg # of iterations =  1.1

     negative rho (up, down):  4.721E-03 0.000E+00
 
     Adding external electric field

     Computed dipole along edir(3) : 
        Dipole               -0.2871 Ry au,         -0.7299 Debye
        Dipole field         -0.0005 Ry au, 
 
        Potential amp.        0.0502 Ry
        Total length         46.3494 bohr
 

     total cpu time spent up to now is      845.9 secs

     total energy              =   -3006.59496783 Ry
     estimated scf accuracy    <      13.61629880 Ry

     iteration # 33     ecut=    29.40 Ry     beta= 0.05
     Davidson diagonalization with overlap
     ethr =  5.81E-04,  avg # of iterations =  1.4

     negative rho (up, down):  3.387E-03 0.000E+00
 
     Adding external electric field

     Computed dipole along edir(3) : 
        Dipole                0.1376 Ry au,          0.3498 Debye
        Dipole field          0.0003 Ry au, 
 
        Potential amp.       -0.0241 Ry
        Total length         46.3494 bohr
 

     total cpu time spent up to now is      859.9 secs

     total energy              =   -3006.63995909 Ry
     estimated scf accuracy    <       1.70879063 Ry

     iteration # 34     ecut=    29.40 Ry     beta= 0.05
     Davidson diagonalization with overlap
     ethr =  4.18E-04,  avg # of iterations =  3.1

     negative rho (up, down):  1.416E-03 0.000E+00
 
     Adding external electric field

     Computed dipole along edir(3) : 
        Dipole                0.7305 Ry au,          1.8567 Debye
        Dipole field          0.0014 Ry au, 
 
        Potential amp.       -0.1278 Ry
        Total length         46.3494 bohr
 

     total cpu time spent up to now is      874.7 secs

     total energy              =   -3006.59648665 Ry
     estimated scf accuracy    <       5.74148069 Ry

     iteration # 35     ecut=    29.40 Ry     beta= 0.05
     Davidson diagonalization with overlap
     c_bands:  2 eigenvalues not converged
     ethr =  4.18E-04,  avg # of iterations =  7.0

     negative rho (up, down):  1.844E-03 0.000E+00
 
     Adding external electric field

     Computed dipole along edir(3) : 
        Dipole                0.6334 Ry au,          1.6100 Debye
        Dipole field          0.0012 Ry au, 
 
        Potential amp.       -0.1108 Ry
        Total length         46.3494 bohr
 

     total cpu time spent up to now is      891.6 secs

     total energy              =   -3006.60333993 Ry
     estimated scf accuracy    <       1.33973008 Ry

     iteration # 36     ecut=    29.40 Ry     beta= 0.05
     Davidson diagonalization with overlap
     ethr =  3.28E-04,  avg # of iterations =  2.2

     negative rho (up, down):  1.877E-03 0.000E+00
 
     Adding external electric field

     Computed dipole along edir(3) : 
        Dipole                0.6605 Ry au,          1.6788 Debye
        Dipole field          0.0012 Ry au, 
 
        Potential amp.       -0.1155 Ry
        Total length         46.3494 bohr
 

     total cpu time spent up to now is      906.0 secs

     total energy              =   -3006.57429068 Ry
     estimated scf accuracy    <       1.07097790 Ry

     iteration # 37     ecut=    29.40 Ry     beta= 0.05
     Davidson diagonalization with overlap
     c_bands:  4 eigenvalues not converged
     ethr =  2.62E-04,  avg # of iterations =  6.2

     negative rho (up, down):  1.438E-03 0.000E+00
 
     Adding external electric field

     Computed dipole along edir(3) : 
        Dipole                0.7325 Ry au,          1.8618 Debye
        Dipole field          0.0014 Ry au, 
 
        Potential amp.       -0.1281 Ry
        Total length         46.3494 bohr
 

     total cpu time spent up to now is      922.1 secs

     total energy              =   -3006.57927734 Ry
     estimated scf accuracy    <       0.75838495 Ry

     iteration # 38     ecut=    29.40 Ry     beta= 0.05
     Davidson diagonalization with overlap
     c_bands:  4 eigenvalues not converged
     c_bands:  1 eigenvalues not converged
     ethr =  1.85E-04,  avg # of iterations =  7.2

     negative rho (up, down):  1.284E-03 0.000E+00
 
     Adding external electric field

     Computed dipole along edir(3) : 
        Dipole                0.6814 Ry au,          1.7319 Debye
        Dipole field          0.0013 Ry au, 
 
        Potential amp.       -0.1192 Ry
        Total length         46.3494 bohr
 

     total cpu time spent up to now is      938.3 secs

     total energy              =   -3006.54855004 Ry
     estimated scf accuracy    <       0.72849059 Ry

     iteration # 39     ecut=    29.40 Ry     beta= 0.05
     Davidson diagonalization with overlap
     c_bands:  2 eigenvalues not converged
     ethr =  1.78E-04,  avg # of iterations =  3.3

     negative rho (up, down):  1.640E-03 0.000E+00
 
     Adding external electric field

     Computed dipole along edir(3) : 
        Dipole                0.7657 Ry au,          1.9463 Debye
        Dipole field          0.0014 Ry au, 
 
        Potential amp.       -0.1340 Ry
        Total length         46.3494 bohr
 

     total cpu time spent up to now is      953.4 secs

     total energy              =   -3006.53260491 Ry
     estimated scf accuracy    <       0.55188801 Ry

     iteration # 40     ecut=    29.40 Ry     beta= 0.05
     Davidson diagonalization with overlap
     c_bands:  2 eigenvalues not converged
     c_bands:  2 eigenvalues not converged
     c_bands:  4 eigenvalues not converged
     c_bands:  5 eigenvalues not converged
     c_bands:  1 eigenvalues not converged
     c_bands:  5 eigenvalues not converged
     ethr =  1.35E-04,  avg # of iterations = 22.2

     negative rho (up, down):  1.714E-03 0.000E+00
 
     Adding external electric field

     Computed dipole along edir(3) : 
        Dipole                0.7512 Ry au,          1.9094 Debye
        Dipole field          0.0014 Ry au, 
 
        Potential amp.       -0.1314 Ry
        Total length         46.3494 bohr
 

     total cpu time spent up to now is      981.7 secs

     total energy              =   -3006.55467492 Ry
     estimated scf accuracy    <       0.23766401 Ry

     iteration # 41     ecut=    29.40 Ry     beta= 0.05
     Davidson diagonalization with overlap
     c_bands:  2 eigenvalues not converged
     c_bands:  2 eigenvalues not converged
     c_bands:  2 eigenvalues not converged
     ethr =  5.81E-05,  avg # of iterations = 14.6

     negative rho (up, down):  1.817E-03 0.000E+00
 
     Adding external electric field

     Computed dipole along edir(3) : 
        Dipole                0.7752 Ry au,          1.9704 Debye
        Dipole field          0.0015 Ry au, 
 
        Potential amp.       -0.1356 Ry
        Total length         46.3494 bohr
 

     total cpu time spent up to now is     1003.5 secs

     total energy              =   -3006.55392800 Ry
     estimated scf accuracy    <       0.27290240 Ry

     iteration # 42     ecut=    29.40 Ry     beta= 0.05
     Davidson diagonalization with overlap
     c_bands:  4 eigenvalues not converged
     ethr =  5.81E-05,  avg # of iterations =  8.2

     negative rho (up, down):  1.828E-03 0.000E+00
 
     Adding external electric field

     Computed dipole along edir(3) : 
        Dipole                0.9253 Ry au,          2.3518 Debye
        Dipole field          0.0017 Ry au, 
 
        Potential amp.       -0.1619 Ry
        Total length         46.3494 bohr
 

     total cpu time spent up to now is     1020.7 secs

     total energy              =   -3006.54643597 Ry
     estimated scf accuracy    <       0.23911421 Ry

     iteration # 43     ecut=    29.40 Ry     beta= 0.05
     Davidson diagonalization with overlap
     c_bands:  4 eigenvalues not converged
     ethr =  5.81E-05,  avg # of iterations = 12.7

     negative rho (up, down):  2.177E-03 0.000E+00
 
     Adding external electric field

     Computed dipole along edir(3) : 
        Dipole                1.0197 Ry au,          2.5919 Debye
        Dipole field          0.0019 Ry au, 
 
        Potential amp.       -0.1784 Ry
        Total length         46.3494 bohr
 

     total cpu time spent up to now is     1040.3 secs

     total energy              =   -3006.53559108 Ry
     estimated scf accuracy    <       0.13719159 Ry

     iteration # 44     ecut=    29.40 Ry     beta= 0.05
     Davidson diagonalization with overlap
     c_bands:  2 eigenvalues not converged
     c_bands:  5 eigenvalues not converged
     c_bands:  4 eigenvalues not converged
     c_bands:  1 eigenvalues not converged
     c_bands:  2 eigenvalues not converged
     c_bands:  2 eigenvalues not converged
     c_bands:  2 eigenvalues not converged
     c_bands:  2 eigenvalues not converged
     ethr =  3.35E-05,  avg # of iterations = 23.4

     negative rho (up, down):  1.769E-03 0.000E+00
 
     Adding external electric field

     Computed dipole along edir(3) : 
        Dipole                1.5122 Ry au,          3.8437 Debye
        Dipole field          0.0029 Ry au, 
 
        Potential amp.       -0.2645 Ry
        Total length         46.3494 bohr
 

     total cpu time spent up to now is     1070.0 secs

     total energy              =   -3006.64233930 Ry
     estimated scf accuracy    <       1.71469167 Ry

     iteration # 45     ecut=    29.40 Ry     beta= 0.05
     Davidson diagonalization with overlap
     c_bands:  1 eigenvalues not converged
     c_bands:  1 eigenvalues not converged
     ethr =  3.35E-05,  avg # of iterations = 12.0

     negative rho (up, down):  4.041E-03 0.000E+00
 
     Adding external electric field

     Computed dipole along edir(3) : 
        Dipole                1.4143 Ry au,          3.5947 Debye
        Dipole field          0.0027 Ry au, 
 
        Potential amp.       -0.2474 Ry
        Total length         46.3494 bohr
 

     total cpu time spent up to now is     1091.1 secs

     total energy              =   -3006.62864045 Ry
     estimated scf accuracy    <       3.52582312 Ry

     iteration # 46     ecut=    29.40 Ry     beta= 0.05
     Davidson diagonalization with overlap
     ethr =  3.35E-05,  avg # of iterations =  3.2

     negative rho (up, down):  3.325E-03 0.000E+00
 
     Adding external electric field

     Computed dipole along edir(3) : 
        Dipole                1.4061 Ry au,          3.5740 Debye
        Dipole field          0.0027 Ry au, 
 
        Potential amp.       -0.2460 Ry
        Total length         46.3494 bohr
 

     total cpu time spent up to now is     1105.9 secs

     total energy              =   -3006.64085077 Ry
     estimated scf accuracy    <       2.33552612 Ry

     iteration # 47     ecut=    29.40 Ry     beta= 0.05
     Davidson diagonalization with overlap
     ethr =  3.35E-05,  avg # of iterations =  1.0

     negative rho (up, down):  1.183E-03 0.000E+00
 
     Adding external electric field

     Computed dipole along edir(3) : 
        Dipole                1.2365 Ry au,          3.1428 Debye
        Dipole field          0.0023 Ry au, 
 
        Potential amp.       -0.2163 Ry
        Total length         46.3494 bohr
 

     total cpu time spent up to now is     1119.5 secs

     total energy              =   -3006.59911265 Ry
     estimated scf accuracy    <       2.33752430 Ry

     iteration # 48     ecut=    29.40 Ry     beta= 0.05
     Davidson diagonalization with overlap
     ethr =  3.35E-05,  avg # of iterations =  5.2

     negative rho (up, down):  2.048E-03 0.000E+00
 
     Adding external electric field

     Computed dipole along edir(3) : 
        Dipole                1.4522 Ry au,          3.6910 Debye
        Dipole field          0.0027 Ry au, 
 
        Potential amp.       -0.2540 Ry
        Total length         46.3494 bohr
 

     total cpu time spent up to now is     1135.4 secs

     total energy              =   -3006.68219857 Ry
     estimated scf accuracy    <       1.98290091 Ry

     iteration # 49     ecut=    29.40 Ry     beta= 0.05
     Davidson diagonalization with overlap
     c_bands:  1 eigenvalues not converged
     ethr =  3.35E-05,  avg # of iterations =  8.2

     negative rho (up, down):  1.476E-03 0.000E+00
 
     Adding external electric field

     Computed dipole along edir(3) : 
        Dipole                1.4380 Ry au,          3.6551 Debye
        Dipole field          0.0027 Ry au, 
 
        Potential amp.       -0.2516 Ry
        Total length         46.3494 bohr
 

     total cpu time spent up to now is     1152.6 secs

     total energy              =   -3006.70848761 Ry
     estimated scf accuracy    <       3.44920812 Ry

     iteration # 50     ecut=    29.40 Ry     beta= 0.05
     Davidson diagonalization with overlap
     c_bands:  2 eigenvalues not converged
     c_bands:  2 eigenvalues not converged
     c_bands:  2 eigenvalues not converged
     c_bands:  3 eigenvalues not converged
     c_bands:  2 eigenvalues not converged
     c_bands:  2 eigenvalues not converged
     ethr =  3.35E-05,  avg # of iterations = 14.8

     negative rho (up, down):  1.177E-03 0.000E+00
 
     Adding external electric field

     Computed dipole along edir(3) : 
        Dipole                1.5298 Ry au,          3.8884 Debye
        Dipole field          0.0029 Ry au, 
 
        Potential amp.       -0.2676 Ry
        Total length         46.3494 bohr
 

     total cpu time spent up to now is     1176.3 secs

     total energy              =   -3006.73226328 Ry
     estimated scf accuracy    <       4.04896545 Ry

     iteration # 51     ecut=    29.40 Ry     beta= 0.05
     Davidson diagonalization with overlap
     c_bands:  2 eigenvalues not converged
     c_bands:  2 eigenvalues not converged
     c_bands:  1 eigenvalues not converged
     ethr =  3.35E-05,  avg # of iterations = 13.7

     negative rho (up, down):  1.300E-03 0.000E+00
 
     Adding external electric field

     Computed dipole along edir(3) : 
        Dipole                1.7274 Ry au,          4.3905 Debye
        Dipole field          0.0033 Ry au, 
 
        Potential amp.       -0.3022 Ry
        Total length         46.3494 bohr
 

     total cpu time spent up to now is     1196.2 secs

     total energy              =   -3006.80409228 Ry
     estimated scf accuracy    <       7.58176285 Ry

     iteration # 52     ecut=    29.40 Ry     beta= 0.05
     Davidson diagonalization with overlap
     c_bands:  1 eigenvalues not converged
     ethr =  3.35E-05,  avg # of iterations =  5.0

     negative rho (up, down):  2.992E-03 0.000E+00
 
     Adding external electric field

     Computed dipole along edir(3) : 
        Dipole                1.2677 Ry au,          3.2223 Debye
        Dipole field          0.0024 Ry au, 
 
        Potential amp.       -0.2218 Ry
        Total length         46.3494 bohr
 

     total cpu time spent up to now is     1211.8 secs

     total energy              =   -3006.30580373 Ry
     estimated scf accuracy    <      34.25221587 Ry

     iteration # 53     ecut=    29.40 Ry     beta= 0.05
     Davidson diagonalization with overlap
     c_bands:  2 eigenvalues not converged
     c_bands:  1 eigenvalues not converged
     c_bands:  4 eigenvalues not converged
     c_bands:  2 eigenvalues not converged
     c_bands:  2 eigenvalues not converged
     c_bands:  4 eigenvalues not converged
     c_bands:  2 eigenvalues not converged
     c_bands:  5 eigenvalues not converged
     ethr =  3.35E-05,  avg # of iterations = 21.1

     negative rho (up, down):  2.748E-03 0.000E+00
 
     Adding external electric field

     Computed dipole along edir(3) : 
        Dipole                1.1721 Ry au,          2.9792 Debye
        Dipole field          0.0022 Ry au, 
 
        Potential amp.       -0.2050 Ry
        Total length         46.3494 bohr
 

     total cpu time spent up to now is     1245.9 secs

     total energy              =   -3006.53848234 Ry
     estimated scf accuracy    <       1.96684044 Ry

     iteration # 54     ecut=    29.40 Ry     beta= 0.05
     Davidson diagonalization with overlap
     c_bands:  3 eigenvalues not converged
     ethr =  3.35E-05,  avg # of iterations =  6.6

     negative rho (up, down):  3.054E-03 0.000E+00
 
     Adding external electric field

     Computed dipole along edir(3) : 
        Dipole                1.1572 Ry au,          2.9413 Debye
        Dipole field          0.0022 Ry au, 
 
        Potential amp.       -0.2024 Ry
        Total length         46.3494 bohr
 

     total cpu time spent up to now is     1262.7 secs

     total energy              =   -3006.54868534 Ry
     estimated scf accuracy    <       0.29059331 Ry

     iteration # 55     ecut=    29.40 Ry     beta= 0.05
     Davidson diagonalization with overlap
     c_bands:  5 eigenvalues not converged
     c_bands:  1 eigenvalues not converged
     c_bands:  2 eigenvalues not converged
     c_bands:  2 eigenvalues not converged
     ethr =  3.35E-05,  avg # of iterations = 15.1

     negative rho (up, down):  3.222E-03 0.000E+00
 
     Adding external electric field

     Computed dipole along edir(3) : 
        Dipole                0.9858 Ry au,          2.5056 Debye
        Dipole field          0.0019 Ry au, 
 
        Potential amp.       -0.1724 Ry
        Total length         46.3494 bohr
 

     total cpu time spent up to now is     1283.6 secs

     total energy              =   -3006.48250891 Ry
     estimated scf accuracy    <       2.03875384 Ry

     iteration # 56     ecut=    29.40 Ry     beta= 0.05
     Davidson diagonalization with overlap
     c_bands:  1 eigenvalues not converged
     c_bands:  1 eigenvalues not converged
     c_bands:  2 eigenvalues not converged
     c_bands:  1 eigenvalues not converged
     c_bands:  1 eigenvalues not converged
     ethr =  3.35E-05,  avg # of iterations = 16.2

     negative rho (up, down):  2.831E-03 0.000E+00
 
     Adding external electric field

     Computed dipole along edir(3) : 
        Dipole                1.0061 Ry au,          2.5573 Debye
        Dipole field          0.0019 Ry au, 
 
        Potential amp.       -0.1760 Ry
        Total length         46.3494 bohr
 

     total cpu time spent up to now is     1305.3 secs

     total energy              =   -3006.52621355 Ry
     estimated scf accuracy    <       0.27737562 Ry

     iteration # 57     ecut=    29.40 Ry     beta= 0.05
     Davidson diagonalization with overlap
     c_bands:  4 eigenvalues not converged
     ethr =  3.35E-05,  avg # of iterations = 10.3

     negative rho (up, down):  3.018E-03 0.000E+00
 
     Adding external electric field

     Computed dipole along edir(3) : 
        Dipole                1.0287 Ry au,          2.6148 Debye
        Dipole field          0.0019 Ry au, 
 
        Potential amp.       -0.1800 Ry
        Total length         46.3494 bohr
 

     total cpu time spent up to now is     1323.0 secs

     total energy              =   -3006.52609423 Ry
     estimated scf accuracy    <       0.11111547 Ry

     iteration # 58     ecut=    29.40 Ry     beta= 0.05
     Davidson diagonalization with overlap
     c_bands:  4 eigenvalues not converged
     c_bands:  3 eigenvalues not converged
     ethr =  2.72E-05,  avg # of iterations =  8.5

     negative rho (up, down):  3.581E-03 0.000E+00
 
     Adding external electric field

     Computed dipole along edir(3) : 
        Dipole                1.0752 Ry au,          2.7330 Debye
        Dipole field          0.0020 Ry au, 
 
        Potential amp.       -0.1881 Ry
        Total length         46.3494 bohr
 

     total cpu time spent up to now is     1340.9 secs

     total energy              =   -3006.52666634 Ry
     estimated scf accuracy    <       0.09231054 Ry

     iteration # 59     ecut=    29.40 Ry     beta= 0.05
     Davidson diagonalization with overlap
     c_bands:  1 eigenvalues not converged
     ethr =  2.26E-05,  avg # of iterations =  9.7

     negative rho (up, down):  3.899E-03 0.000E+00
 
     Adding external electric field

     Computed dipole along edir(3) : 
        Dipole                1.0978 Ry au,          2.7903 Debye
        Dipole field          0.0021 Ry au, 
 
        Potential amp.       -0.1920 Ry
        Total length         46.3494 bohr
 

     total cpu time spent up to now is     1358.3 secs

     total energy              =   -3006.52666767 Ry
     estimated scf accuracy    <       0.06897237 Ry

     iteration # 60     ecut=    29.40 Ry     beta= 0.05
     Davidson diagonalization with overlap
     c_bands:  1 eigenvalues not converged
     c_bands:  3 eigenvalues not converged
     c_bands:  4 eigenvalues not converged
     ethr =  1.69E-05,  avg # of iterations = 13.2

     negative rho (up, down):  4.146E-03 0.000E+00
 
     Adding external electric field

     Computed dipole along edir(3) : 
        Dipole                1.0310 Ry au,          2.6205 Debye
        Dipole field          0.0019 Ry au, 
 
        Potential amp.       -0.1804 Ry
        Total length         46.3494 bohr
 

     total cpu time spent up to now is     1379.6 secs

     total energy              =   -3006.51508454 Ry
     estimated scf accuracy    <       0.13903761 Ry

     iteration # 61     ecut=    29.40 Ry     beta= 0.05
     Davidson diagonalization with overlap
     c_bands:  3 eigenvalues not converged
     c_bands:  3 eigenvalues not converged
     c_bands:  1 eigenvalues not converged
     c_bands:  1 eigenvalues not converged
     ethr =  1.69E-05,  avg # of iterations = 15.3

     negative rho (up, down):  4.101E-03 0.000E+00
 
     Adding external electric field

     Computed dipole along edir(3) : 
        Dipole                1.0166 Ry au,          2.5838 Debye
        Dipole field          0.0019 Ry au, 
 
        Potential amp.       -0.1778 Ry
        Total length         46.3494 bohr
 

     total cpu time spent up to now is     1400.4 secs

     total energy              =   -3006.51915671 Ry
     estimated scf accuracy    <       0.04671998 Ry

     iteration # 62     ecut=    29.40 Ry     beta= 0.05
     Davidson diagonalization with overlap
     c_bands:  1 eigenvalues not converged
     c_bands:  1 eigenvalues not converged
     c_bands:  1 eigenvalues not converged
     ethr =  1.14E-05,  avg # of iterations = 15.7

     negative rho (up, down):  4.961E-03 0.000E+00
 
     Adding external electric field

     Computed dipole along edir(3) : 
        Dipole                1.0448 Ry au,          2.6556 Debye
        Dipole field          0.0020 Ry au, 
 
        Potential amp.       -0.1828 Ry
        Total length         46.3494 bohr
 

     total cpu time spent up to now is     1421.4 secs

     total energy              =   -3006.52056712 Ry
     estimated scf accuracy    <       0.00651468 Ry

     iteration # 63     ecut=    29.40 Ry     beta= 0.05
     Davidson diagonalization with overlap
     c_bands:  1 eigenvalues not converged
     c_bands:  3 eigenvalues not converged
     c_bands:  1 eigenvalues not converged
     c_bands:  2 eigenvalues not converged
     c_bands:  3 eigenvalues not converged
     c_bands:  2 eigenvalues not converged
     c_bands:  3 eigenvalues not converged
     c_bands:  2 eigenvalues not converged
     c_bands:  1 eigenvalues not converged
     ethr =  1.59E-06,  avg # of iterations = 19.8

     negative rho (up, down):  5.581E-03 0.000E+00
 
     Adding external electric field

     Computed dipole along edir(3) : 
        Dipole                1.0654 Ry au,          2.7081 Debye
        Dipole field          0.0020 Ry au, 
 
        Potential amp.       -0.1864 Ry
        Total length         46.3494 bohr
 

     total cpu time spent up to now is     1449.3 secs

     total energy              =   -3006.52099716 Ry
     estimated scf accuracy    <       0.00402337 Ry

     iteration # 64     ecut=    29.40 Ry     beta= 0.05
     Davidson diagonalization with overlap
     c_bands:  1 eigenvalues not converged
     c_bands:  2 eigenvalues not converged
     c_bands:  1 eigenvalues not converged
     c_bands:  1 eigenvalues not converged
     c_bands:  4 eigenvalues not converged
     c_bands:  2 eigenvalues not converged
     c_bands:  4 eigenvalues not converged
     c_bands:  2 eigenvalues not converged
     c_bands:  2 eigenvalues not converged
     ethr =  9.84E-07,  avg # of iterations = 18.6

     negative rho (up, down):  5.883E-03 0.000E+00
 
     Adding external electric field

     Computed dipole along edir(3) : 
        Dipole                1.0505 Ry au,          2.6700 Debye
        Dipole field          0.0020 Ry au, 
 
        Potential amp.       -0.1838 Ry
        Total length         46.3494 bohr
 

     total cpu time spent up to now is     1473.9 secs

     total energy              =   -3006.52073862 Ry
     estimated scf accuracy    <       0.01090766 Ry

     iteration # 65     ecut=    29.40 Ry     beta= 0.05
     Davidson diagonalization with overlap
     c_bands:  2 eigenvalues not converged
     c_bands:  1 eigenvalues not converged
     c_bands:  1 eigenvalues not converged
     c_bands:  1 eigenvalues not converged
     c_bands:  2 eigenvalues not converged
     ethr =  9.84E-07,  avg # of iterations = 17.4

     negative rho (up, down):  6.116E-03 0.000E+00
 
     Adding external electric field

     Computed dipole along edir(3) : 
        Dipole                1.0500 Ry au,          2.6689 Debye
        Dipole field          0.0020 Ry au, 
 
        Potential amp.       -0.1837 Ry
        Total length         46.3494 bohr
 

     total cpu time spent up to now is     1496.7 secs

     total energy              =   -3006.52103832 Ry
     estimated scf accuracy    <       0.00295539 Ry

     iteration # 66     ecut=    29.40 Ry     beta= 0.05
     Davidson diagonalization with overlap
     ethr =  7.23E-07,  avg # of iterations =  6.6

     negative rho (up, down):  7.636E-03 0.000E+00
 
     Adding external electric field

     Computed dipole along edir(3) : 
        Dipole                1.0374 Ry au,          2.6369 Debye
        Dipole field          0.0020 Ry au, 
 
        Potential amp.       -0.1815 Ry
        Total length         46.3494 bohr
 

     total cpu time spent up to now is     1512.6 secs

     total energy              =   -3006.52101502 Ry
     estimated scf accuracy    <       0.00284902 Ry

     iteration # 67     ecut=    29.40 Ry     beta= 0.05
     Davidson diagonalization with overlap
     ethr =  6.97E-07,  avg # of iterations = 14.2

     negative rho (up, down):  8.598E-03 0.000E+00
 
     Adding external electric field

     Computed dipole along edir(3) : 
        Dipole                1.0379 Ry au,          2.6381 Debye
        Dipole field          0.0020 Ry au, 
 
        Potential amp.       -0.1816 Ry
        Total length         46.3494 bohr
 

     total cpu time spent up to now is     1533.9 secs

     total energy              =   -3006.52113378 Ry
     estimated scf accuracy    <       0.00345539 Ry

     iteration # 68     ecut=    29.40 Ry     beta= 0.05
     Davidson diagonalization with overlap
     ethr =  6.97E-07,  avg # of iterations =  9.9

     negative rho (up, down):  8.724E-03 0.000E+00
 
     Adding external electric field

     Computed dipole along edir(3) : 
        Dipole                1.0367 Ry au,          2.6350 Debye
        Dipole field          0.0020 Ry au, 
 
        Potential amp.       -0.1814 Ry
        Total length         46.3494 bohr
 

     total cpu time spent up to now is     1551.2 secs

     total energy              =   -3006.52122543 Ry
     estimated scf accuracy    <       0.00056652 Ry

     iteration # 69     ecut=    29.40 Ry     beta= 0.05
     Davidson diagonalization with overlap
     c_bands:  1 eigenvalues not converged
     ethr =  1.39E-07,  avg # of iterations = 13.8

     negative rho (up, down):  9.139E-03 0.000E+00
 
     Adding external electric field

     Computed dipole along edir(3) : 
        Dipole                1.0284 Ry au,          2.6139 Debye
        Dipole field          0.0019 Ry au, 
 
        Potential amp.       -0.1799 Ry
        Total length         46.3494 bohr
 

     total cpu time spent up to now is     1571.8 secs

     total energy              =   -3006.52124717 Ry
     estimated scf accuracy    <       0.00043839 Ry

     iteration # 70     ecut=    29.40 Ry     beta= 0.05
     Davidson diagonalization with overlap
     ethr =  1.07E-07,  avg # of iterations = 13.5

     negative rho (up, down):  1.066E-02 0.000E+00
 
     Adding external electric field

     Computed dipole along edir(3) : 
        Dipole                1.0014 Ry au,          2.5453 Debye
        Dipole field          0.0019 Ry au, 
 
        Potential amp.       -0.1752 Ry
        Total length         46.3494 bohr
 

     total cpu time spent up to now is     1591.6 secs

     total energy              =   -3006.52121541 Ry
     estimated scf accuracy    <       0.00051066 Ry

     iteration # 71     ecut=    29.40 Ry     beta= 0.05
     Davidson diagonalization with overlap
     c_bands:  1 eigenvalues not converged
     c_bands:  1 eigenvalues not converged
     ethr =  1.07E-07,  avg # of iterations = 16.7

     negative rho (up, down):  1.057E-02 0.000E+00
 
     Adding external electric field

     Computed dipole along edir(3) : 
        Dipole                1.0111 Ry au,          2.5699 Debye
        Dipole field          0.0019 Ry au, 
 
        Potential amp.       -0.1769 Ry
        Total length         46.3494 bohr
 

     total cpu time spent up to now is     1619.2 secs

     total energy              =   -3006.52124612 Ry
     estimated scf accuracy    <       0.00054484 Ry

     iteration # 72     ecut=    29.40 Ry     beta= 0.05
     Davidson diagonalization with overlap
     ethr =  1.07E-07,  avg # of iterations =  9.9

     negative rho (up, down):  1.063E-02 0.000E+00
 
     Adding external electric field

     Computed dipole along edir(3) : 
        Dipole                1.0086 Ry au,          2.5637 Debye
        Dipole field          0.0019 Ry au, 
 
        Potential amp.       -0.1764 Ry
        Total length         46.3494 bohr
 

     total cpu time spent up to now is     1638.8 secs

     total energy              =   -3006.52130296 Ry
     estimated scf accuracy    <       0.00021645 Ry

     iteration # 73     ecut=    29.40 Ry     beta= 0.05
     Davidson diagonalization with overlap
     ethr =  5.29E-08,  avg # of iterations =  2.0

     negative rho (up, down):  1.049E-02 0.000E+00
 
     Adding external electric field

     Computed dipole along edir(3) : 
        Dipole                1.0145 Ry au,          2.5786 Debye
        Dipole field          0.0019 Ry au, 
 
        Potential amp.       -0.1775 Ry
        Total length         46.3494 bohr
 

     total cpu time spent up to now is     1654.2 secs

     total energy              =   -3006.52125115 Ry
     estimated scf accuracy    <       0.00024637 Ry

     iteration # 74     ecut=    29.40 Ry     beta= 0.05
     Davidson diagonalization with overlap
     ethr =  5.29E-08,  avg # of iterations = 10.3

     negative rho (up, down):  1.056E-02 0.000E+00
 
     Adding external electric field

     Computed dipole along edir(3) : 
        Dipole                1.0084 Ry au,          2.5630 Debye
        Dipole field          0.0019 Ry au, 
 
        Potential amp.       -0.1764 Ry
        Total length         46.3494 bohr
 

     total cpu time spent up to now is     1679.1 secs

     total energy              =   -3006.52130191 Ry
     estimated scf accuracy    <       0.00020145 Ry

     iteration # 75     ecut=    29.40 Ry     beta= 0.05
     Davidson diagonalization with overlap
     ethr =  4.93E-08,  avg # of iterations =  4.1

     negative rho (up, down):  1.076E-02 0.000E+00
 
     Adding external electric field

     Computed dipole along edir(3) : 
        Dipole                0.9986 Ry au,          2.5383 Debye
        Dipole field          0.0019 Ry au, 
 
        Potential amp.       -0.1747 Ry
        Total length         46.3494 bohr
 

     total cpu time spent up to now is     1694.4 secs

     total energy              =   -3006.52127529 Ry
     estimated scf accuracy    <       0.00017098 Ry

     iteration # 76     ecut=    29.40 Ry     beta= 0.05
     Davidson diagonalization with overlap
     ethr =  4.18E-08,  avg # of iterations =  8.5

     negative rho (up, down):  1.091E-02 0.000E+00
 
     Adding external electric field

     Computed dipole along edir(3) : 
        Dipole                1.0026 Ry au,          2.5484 Debye
        Dipole field          0.0019 Ry au, 
 
        Potential amp.       -0.1754 Ry
        Total length         46.3494 bohr
 

     total cpu time spent up to now is     1714.7 secs

     total energy              =   -3006.52129355 Ry
     estimated scf accuracy    <       0.00006729 Ry

     iteration # 77     ecut=    29.40 Ry     beta= 0.05
     Davidson diagonalization with overlap
     ethr =  1.65E-08,  avg # of iterations = 10.5

     negative rho (up, down):  1.108E-02 0.000E+00
 
     Adding external electric field

     Computed dipole along edir(3) : 
        Dipole                0.9989 Ry au,          2.5389 Debye
        Dipole field          0.0019 Ry au, 
 
        Potential amp.       -0.1747 Ry
        Total length         46.3494 bohr
 

     total cpu time spent up to now is     1733.3 secs

     total energy              =   -3006.52128884 Ry
     estimated scf accuracy    <       0.00004460 Ry

     iteration # 78     ecut=    29.40 Ry     beta= 0.05
     Davidson diagonalization with overlap
     ethr =  1.09E-08,  avg # of iterations = 12.7

     negative rho (up, down):  1.096E-02 0.000E+00
 
     Adding external electric field

     Computed dipole along edir(3) : 
        Dipole                0.9972 Ry au,          2.5347 Debye
        Dipole field          0.0019 Ry au, 
 
        Potential amp.       -0.1745 Ry
        Total length         46.3494 bohr
 

     total cpu time spent up to now is     1759.0 secs

     total energy              =   -3006.52129912 Ry
     estimated scf accuracy    <       0.00001757 Ry

     iteration # 79     ecut=    29.40 Ry     beta= 0.05
     Davidson diagonalization with overlap
     ethr =  4.30E-09,  avg # of iterations =  7.1

     negative rho (up, down):  1.090E-02 0.000E+00
 
     Adding external electric field

     Computed dipole along edir(3) : 
        Dipole                0.9977 Ry au,          2.5359 Debye
        Dipole field          0.0019 Ry au, 
 
        Potential amp.       -0.1745 Ry
        Total length         46.3494 bohr
 

     total cpu time spent up to now is     1775.7 secs

     total energy              =   -3006.52129720 Ry
     estimated scf accuracy    <       0.00001734 Ry

     iteration # 80     ecut=    29.40 Ry     beta= 0.05
     Davidson diagonalization with overlap
     ethr =  4.24E-09,  avg # of iterations = 12.1

     negative rho (up, down):  1.102E-02 0.000E+00
 
     Adding external electric field

     Computed dipole along edir(3) : 
        Dipole                0.9970 Ry au,          2.5340 Debye
        Dipole field          0.0019 Ry au, 
 
        Potential amp.       -0.1744 Ry
        Total length         46.3494 bohr
 

     total cpu time spent up to now is     1797.7 secs

     total energy              =   -3006.52130007 Ry
     estimated scf accuracy    <       0.00000836 Ry

     iteration # 81     ecut=    29.40 Ry     beta= 0.05
     Davidson diagonalization with overlap
     ethr =  2.04E-09,  avg # of iterations =  9.8

     negative rho (up, down):  1.104E-02 0.000E+00
 
     Adding external electric field

     Computed dipole along edir(3) : 
        Dipole                0.9968 Ry au,          2.5336 Debye
        Dipole field          0.0019 Ry au, 
 
        Potential amp.       -0.1744 Ry
        Total length         46.3494 bohr
 

     total cpu time spent up to now is     1819.3 secs

     total energy              =   -3006.52130183 Ry
     estimated scf accuracy    <       0.00000290 Ry

     iteration # 82     ecut=    29.40 Ry     beta= 0.05
     Davidson diagonalization with overlap
     ethr =  7.10E-10,  avg # of iterations =  7.8

     negative rho (up, down):  1.102E-02 0.000E+00
 
     Adding external electric field

     Computed dipole along edir(3) : 
        Dipole                0.9968 Ry au,          2.5336 Debye
        Dipole field          0.0019 Ry au, 
 
        Potential amp.       -0.1744 Ry
        Total length         46.3494 bohr
 

     total cpu time spent up to now is     1836.9 secs

     total energy              =   -3006.52130263 Ry
     estimated scf accuracy    <       0.00000205 Ry

     iteration # 83     ecut=    29.40 Ry     beta= 0.05
     Davidson diagonalization with overlap
     ethr =  5.01E-10,  avg # of iterations =  9.8

     negative rho (up, down):  1.098E-02 0.000E+00
 
     Adding external electric field

     Computed dipole along edir(3) : 
        Dipole                0.9973 Ry au,          2.5350 Debye
        Dipole field          0.0019 Ry au, 
 
        Potential amp.       -0.1745 Ry
        Total length         46.3494 bohr
 

     total cpu time spent up to now is     1855.7 secs

     total energy              =   -3006.52130370 Ry
     estimated scf accuracy    <       0.00000138 Ry

     iteration # 84     ecut=    29.40 Ry     beta= 0.05
     Davidson diagonalization with overlap
     ethr =  3.37E-10,  avg # of iterations = 14.7

     negative rho (up, down):  1.095E-02 0.000E+00
 
     Adding external electric field

     Computed dipole along edir(3) : 
        Dipole                0.9970 Ry au,          2.5341 Debye
        Dipole field          0.0019 Ry au, 
 
        Potential amp.       -0.1744 Ry
        Total length         46.3494 bohr
 

     total cpu time spent up to now is     1884.0 secs

     total energy              =   -3006.52130409 Ry
     estimated scf accuracy    <       0.00000387 Ry

     iteration # 85     ecut=    29.40 Ry     beta= 0.05
     Davidson diagonalization with overlap
     ethr =  3.37E-10,  avg # of iterations = 11.3

     negative rho (up, down):  1.100E-02 0.000E+00
 
     Adding external electric field

     Computed dipole along edir(3) : 
        Dipole                0.9969 Ry au,          2.5340 Debye
        Dipole field          0.0019 Ry au, 
 
        Potential amp.       -0.1744 Ry
        Total length         46.3494 bohr
 

     total cpu time spent up to now is     1908.1 secs

     total energy              =   -3006.52130493 Ry
     estimated scf accuracy    <       0.00000137 Ry

     iteration # 86     ecut=    29.40 Ry     beta= 0.05
     Davidson diagonalization with overlap
     ethr =  3.35E-10,  avg # of iterations =  7.7

     negative rho (up, down):  1.101E-02 0.000E+00
 
     Adding external electric field

     Computed dipole along edir(3) : 
        Dipole                0.9975 Ry au,          2.5355 Debye
        Dipole field          0.0019 Ry au, 
 
        Potential amp.       -0.1745 Ry
        Total length         46.3494 bohr
 

     total cpu time spent up to now is     1926.0 secs

     total energy              =   -3006.52130555 Ry
     estimated scf accuracy    <       0.00000060 Ry

     iteration # 87     ecut=    29.40 Ry     beta= 0.05
     Davidson diagonalization with overlap
     ethr =  1.47E-10,  avg # of iterations = 11.6

     negative rho (up, down):  1.098E-02 0.000E+00
 
     Adding external electric field

     Computed dipole along edir(3) : 
        Dipole                0.9975 Ry au,          2.5354 Debye
        Dipole field          0.0019 Ry au, 
 
        Potential amp.       -0.1745 Ry
        Total length         46.3494 bohr
 

     total cpu time spent up to now is     1951.5 secs

     total energy              =   -3006.52130621 Ry
     estimated scf accuracy    <       0.00000051 Ry

     iteration # 88     ecut=    29.40 Ry     beta= 0.05
     Davidson diagonalization with overlap
     ethr =  1.25E-10,  avg # of iterations =  6.0

     negative rho (up, down):  1.096E-02 0.000E+00
 
     Adding external electric field

     Computed dipole along edir(3) : 
        Dipole                0.9974 Ry au,          2.5352 Debye
        Dipole field          0.0019 Ry au, 
 
        Potential amp.       -0.1745 Ry
        Total length         46.3494 bohr
 

     total cpu time spent up to now is     1967.7 secs

     total energy              =   -3006.52130669 Ry
     estimated scf accuracy    <       0.00000019 Ry

     iteration # 89     ecut=    29.40 Ry     beta= 0.05
     Davidson diagonalization with overlap
     ethr =  4.74E-11,  avg # of iterations = 13.5

     negative rho (up, down):  1.096E-02 0.000E+00
 
     Adding external electric field

     Computed dipole along edir(3) : 
        Dipole                0.9977 Ry au,          2.5358 Debye
        Dipole field          0.0019 Ry au, 
 
        Potential amp.       -0.1745 Ry
        Total length         46.3494 bohr
 

     total cpu time spent up to now is     1995.6 secs

     total energy              =   -3006.52130719 Ry
     estimated scf accuracy    <       0.00000018 Ry

     iteration # 90     ecut=    29.40 Ry     beta= 0.05
     Davidson diagonalization with overlap
     ethr =  4.41E-11,  avg # of iterations =  7.8

     negative rho (up, down):  1.096E-02 0.000E+00
 
     Adding external electric field

     Computed dipole along edir(3) : 
        Dipole                0.9980 Ry au,          2.5366 Debye
        Dipole field          0.0019 Ry au, 
 
        Potential amp.       -0.1746 Ry
        Total length         46.3494 bohr
 

     total cpu time spent up to now is     2013.2 secs

     total energy              =   -3006.52130758 Ry
     estimated scf accuracy    <       0.00000008 Ry

     iteration # 91     ecut=    29.40 Ry     beta= 0.05
     Davidson diagonalization with overlap
     ethr =  1.94E-11,  avg # of iterations = 15.2

     negative rho (up, down):  1.095E-02 0.000E+00
 
     Adding external electric field

     Computed dipole along edir(3) : 
        Dipole                0.9978 Ry au,          2.5362 Debye
        Dipole field          0.0019 Ry au, 
 
        Potential amp.       -0.1746 Ry
        Total length         46.3494 bohr
 

     total cpu time spent up to now is     2040.9 secs

     total energy              =   -3006.52130796 Ry
     estimated scf accuracy    <       0.00000010 Ry

     iteration # 92     ecut=    29.40 Ry     beta= 0.05
     Davidson diagonalization with overlap
     ethr =  1.94E-11,  avg # of iterations = 14.9

     negative rho (up, down):  1.095E-02 0.000E+00
 
     Adding external electric field

     Computed dipole along edir(3) : 
        Dipole                0.9980 Ry au,          2.5366 Debye
        Dipole field          0.0019 Ry au, 
 
        Potential amp.       -0.1746 Ry
        Total length         46.3494 bohr
 

     total cpu time spent up to now is     2070.7 secs

     total energy              =   -3006.52130832 Ry
     estimated scf accuracy    <       0.00000009 Ry

     iteration # 93     ecut=    29.40 Ry     beta= 0.05
     Davidson diagonalization with overlap
     ethr =  1.94E-11,  avg # of iterations =  9.3

     negative rho (up, down):  1.093E-02 0.000E+00
 
     Adding external electric field

     Computed dipole along edir(3) : 
        Dipole                0.9984 Ry au,          2.5376 Debye
        Dipole field          0.0019 Ry au, 
 
        Potential amp.       -0.1746 Ry
        Total length         46.3494 bohr
 

     total cpu time spent up to now is     2089.4 secs

     End of self-consistent calculation

          k = 0.0000 0.0000 0.0000 ( 18029 PWs)   bands (ev):

   -55.2842 -55.2503 -55.2483 -55.2139 -55.1907 -55.1744 -55.1673 -55.1316
   -55.0810 -55.0628 -55.0466 -55.0397 -55.0059 -54.9518 -54.2912 -54.2571
   -31.8074 -31.7534 -31.6754 -31.6443 -31.6231 -31.5760 -31.5587 -31.5554
   -31.5191 -31.5138 -31.4775 -31.4637 -31.4570 -31.4480 -31.4438 -31.4315
   -31.4242 -31.3894 -31.3841 -31.3757 -31.3712 -31.3525 -31.3487 -31.3400
   -31.3316 -31.3259 -31.3100 -31.2887 -31.2782 -31.2725 -31.2692 -31.2613
[...]
   -55.0823 -55.0612 -55.0476 -55.0349 -55.0107 -54.9530 -54.2861 -54.2620
   -31.7503 -31.7005 -31.6323 -31.5971 -31.5753 -31.5703 -31.5461 -31.5412
   -31.4844 -31.4825 -31.4727 -31.4678 -31.4486 -31.4354 -31.4324 -31.4273
   -31.4250 -31.4192 -31.4155 -31.3921 -31.3704 -31.3621 -31.3617 -31.3569
   -31.3423 -31.3174 -31.3168 -31.2965 -31.2845 -31.2827 -31.2808 -31.2734
   -31.2693 -31.2628 -31.2625 -31.2395 -31.2314 -31.2040 -31.1997 -31.1886
   -31.1695 -31.1382 -30.6460 -30.6039 -30.5843 -30.5044 -30.4435 -30.3768
   -21.4273 -18.7339 -17.1518 -15.7966 -15.5240 -15.3912 -15.3409 -15.2160
   -15.1800 -15.1205 -15.0690 -14.9831 -14.9648 -14.9187 -14.8891 -14.8805
   -14.8537 -14.8021 -14.7814 -14.7328 -14.7287 -14.7045 -14.6580 -14.6190
   -14.5901 -14.5860 -14.5636 -14.5284 -14.4771 -14.4170 -14.4110 -14.3602
   -12.7928 -12.7133  -9.1323  -6.6048  -6.5236  -4.5653  -4.5582  -3.8527
    -3.7320  -3.4855  -3.2801  -3.1294  -2.9706  -2.8404  -2.7686  -2.7537
    -2.7218  -2.6208  -2.5580  -2.5220  -2.4189  -2.3357  -2.3000  -2.2583
    -2.2327  -2.2206  -2.1659  -2.1449  -2.1287  -2.0934  -2.0655  -2.0252
    -2.0197  -2.0051  -1.9774  -1.9320  -1.8871  -1.8516  -1.7857  -1.7520
    -1.7139  -1.6238  -1.5952  -1.5392  -1.4712  -1.4312  -1.3323  -1.2992
    -1.2572  -1.2071  -1.0667  -1.0224  -0.9791  -0.9082  -0.8051  -0.7435
    -0.7159  -0.7017  -0.6189  -0.5903  -0.5432  -0.5186  -0.4968  -0.4478
    -0.3859  -0.3407  -0.2991  -0.2606  -0.2088  -0.1870  -0.1352  -0.1014
    -0.0508  -0.0169   0.0086   0.0468   0.0679   0.1071   0.1481   0.1816
     0.2287   0.2623   0.2868   0.3094   0.3786   0.4165   0.4542   0.4996
     0.5449   0.6032   0.6387   0.7222   0.8455   0.8726   0.9135   0.9492
     1.0224   1.0421   1.0690   1.1138   1.1828   1.2899   1.3553   1.6284
     1.9345   2.0006   2.1899   2.2656   4.0543   4.1530   4.1787   4.1907
     4.2735   4.3100   4.3434   4.3868   4.4024   4.4340

          k = 0.0380-0.0839 0.0000 ( 17916 PWs)   bands (ev):

   -55.2720 -55.2603 -55.2343 -55.2297 -55.1877 -55.1721 -55.1566 -55.1422
   -55.0837 -55.0598 -55.0487 -55.0250 -55.0206 -54.9543 -54.2746 -54.2735
   -31.6190 -31.6024 -31.5756 -31.5729 -31.5638 -31.5623 -31.5454 -31.5120
   -31.5055 -31.4825 -31.4817 -31.4684 -31.4396 -31.4294 -31.4182 -31.4146
   -31.4101 -31.4028 -31.3990 -31.3988 -31.3913 -31.3864 -31.3723 -31.3636
   -31.3543 -31.3430 -31.3383 -31.3372 -31.3317 -31.3136 -31.2887 -31.2832
   -31.2743 -31.2721 -31.2713 -31.2701 -31.2604 -31.2401 -31.2397 -31.2016
   -31.1798 -31.1368 -30.5947 -30.5934 -30.5139 -30.5130 -30.4745 -30.4736
   -21.4273 -18.7337 -17.1373 -15.5114 -15.4489 -15.2746 -15.2443 -15.1601
   -15.1321 -15.1079 -15.0856 -15.0195 -15.0016 -14.9489 -14.9387 -14.8187
   -14.8105 -14.7893 -14.7773 -14.7465 -14.7042 -14.6987 -14.6727 -14.6664
   -14.6510 -14.6453 -14.6391 -14.5729 -14.5401 -14.5189 -14.5065 -14.4725
   -12.7763 -12.7745  -9.1335  -6.6045  -6.5243  -4.5648  -4.5621  -3.8150
    -3.7212  -3.4758  -3.2752  -3.0139  -2.7527  -2.5846  -2.5054  -2.4623
    -2.4514  -2.4230  -2.4140  -2.4009  -2.3544  -2.3422  -2.3356  -2.3167
    -2.2900  -2.2657  -2.2342  -2.2073  -2.1449  -2.1236  -2.1103  -2.0707
    -2.0528  -2.0462  -2.0269  -2.0063  -1.9485  -1.9328  -1.8771  -1.8235
    -1.7984  -1.6817  -1.4346  -1.4228  -1.3760  -1.3009  -1.2341  -1.1839
    -1.1633  -1.1473  -1.1138  -1.0700  -1.0394  -1.0290  -0.9889  -0.9375
    -0.9052  -0.8585  -0.8244  -0.7854  -0.7608  -0.5844  -0.4621  -0.4227
    -0.3830  -0.3352  -0.2705  -0.2395  -0.2160  -0.1857  -0.1286  -0.0587
    -0.0416  -0.0131  -0.0039   0.0253   0.0496   0.0872   0.1212   0.1482
     0.1681   0.1833   0.2084   0.2604   0.2689   0.3812   0.4462   0.5112
     0.5477   0.5876   0.6929   0.7543   0.7677   0.8123   0.8487   0.8599
     0.9146   0.9404   1.0256   1.0697   1.2470   1.2664   1.3995   1.4410
     2.0734   2.0759   2.1991   2.2034   4.1163   4.1451   4.2492   4.2606
     4.2815   4.2989   4.4610   4.4756   4.4982   4.5225

          k = 0.0380-0.0419 0.0000 ( 17876 PWs)   bands (ev):

   -55.2794 -55.2528 -55.2448 -55.2190 -55.1891 -55.1732 -55.1630 -55.1357
   -55.0823 -55.0612 -55.0476 -55.0349 -55.0107 -54.9530 -54.2861 -54.2620
   -31.7503 -31.7005 -31.6323 -31.5970 -31.5754 -31.5703 -31.5461 -31.5412
   -31.4844 -31.4825 -31.4726 -31.4678 -31.4486 -31.4355 -31.4323 -31.4274
   -31.4242 -31.4192 -31.4155 -31.3921 -31.3704 -31.3621 -31.3616 -31.3573
   -31.3422 -31.3176 -31.3166 -31.2971 -31.2909 -31.2832 -31.2770 -31.2724
   -31.2676 -31.2626 -31.2609 -31.2412 -31.2308 -31.2026 -31.1998 -31.1899
   -31.1695 -31.1382 -30.6460 -30.6039 -30.5843 -30.5044 -30.4435 -30.3768
   -21.4273 -18.7339 -17.1518 -15.7966 -15.5240 -15.3911 -15.3407 -15.2161
   -15.1801 -15.1204 -15.0698 -14.9810 -14.9654 -14.9207 -14.8903 -14.8799
   -14.8530 -14.8020 -14.7829 -14.7305 -14.7275 -14.7041 -14.6586 -14.6196
   -14.5901 -14.5865 -14.5631 -14.5286 -14.4764 -14.4180 -14.4114 -14.3597
   -12.7928 -12.7133  -9.1324  -6.6047  -6.5230  -4.5653  -4.5582  -3.8536
    -3.7330  -3.4917  -3.2808  -3.1263  -2.9641  -2.8403  -2.7695  -2.7564
    -2.7207  -2.6195  -2.5589  -2.5182  -2.4204  -2.3368  -2.2992  -2.2614
    -2.2366  -2.2192  -2.1652  -2.1445  -2.1299  -2.0937  -2.0591  -2.0280
    -2.0198  -2.0022  -1.9776  -1.9280  -1.8888  -1.8501  -1.7851  -1.7514
    -1.7214  -1.6194  -1.5966  -1.5221  -1.4815  -1.4372  -1.3180  -1.2924
    -1.2544  -1.2039  -1.0656  -1.0222  -0.9976  -0.9055  -0.8038  -0.7463
    -0.7239  -0.7030  -0.6140  -0.5914  -0.5436  -0.5253  -0.5000  -0.4504
    -0.3828  -0.3408  -0.3070  -0.2696  -0.2076  -0.1911  -0.1431  -0.1017
    -0.0427  -0.0270   0.0096   0.0438   0.0765   0.1098   0.1397   0.1703
     0.2366   0.2589   0.2932   0.3151   0.3795   0.4138   0.4585   0.5056
     0.5448   0.6016   0.6452   0.7214   0.8507   0.8718   0.9202   0.9694
     1.0045   1.0366   1.0759   1.1100   1.1841   1.2912   1.3587   1.6285
     1.9344   2.0007   2.1895   2.2664   4.0575   4.1601   4.1793   4.1984
     4.2619   4.3072   4.3323   4.3777   4.4026   4.4349

          k =-0.0760-0.0000 0.0000 ( 17886 PWs)   bands (ev):

   -55.2840 -55.2500 -55.2482 -55.2138 -55.1903 -55.1746 -55.1672 -55.1314
   -55.0809 -55.0623 -55.0465 -55.0398 -55.0058 -54.9517 -54.2910 -54.2570
   -31.8077 -31.7553 -31.6758 -31.6535 -31.6298 -31.5757 -31.5587 -31.5551
   -31.5261 -31.5145 -31.4639 -31.4572 -31.4379 -31.4314 -31.4243 -31.4207
   -31.4102 -31.3977 -31.3840 -31.3783 -31.3754 -31.3723 -31.3709 -31.3489
   -31.3311 -31.3090 -31.2878 -31.2794 -31.2716 -31.2699 -31.2659 -31.2623
   -31.2589 -31.2543 -31.2538 -31.2273 -31.2240 -31.1830 -31.1687 -31.1468
   -31.1424 -31.1415 -30.6996 -30.6113 -30.5789 -30.5168 -30.4308 -30.3197
   -21.4273 -18.7338 -17.1645 -15.8204 -15.5713 -15.3954 -15.3750 -15.2825
   -15.1937 -15.1673 -15.0803 -15.0539 -15.0458 -15.0386 -14.9696 -14.9129
   -14.9031 -14.8886 -14.7729 -14.7496 -14.6907 -14.6162 -14.5942 -14.5918
   -14.5827 -14.5439 -14.4674 -14.4493 -14.4258 -14.3523 -14.3150 -14.2900
   -12.7853 -12.6733  -9.1312  -6.6058  -6.5171  -4.5668  -4.5544  -3.8746
    -3.7487  -3.5410  -3.2839  -3.2598  -3.0006  -2.9150  -2.8523  -2.7389
    -2.6614  -2.6368  -2.6345  -2.5470  -2.5246  -2.5084  -2.4970  -2.4535
    -2.3137  -2.1272  -2.1176  -2.0868  -2.0586  -1.9526  -1.8414  -1.8339
    -1.8250  -1.7764  -1.7670  -1.7532  -1.7014  -1.6853  -1.6207  -1.5860
    -1.5646  -1.5298  -1.5052  -1.4674  -1.4574  -1.4434  -1.4281  -1.3925
    -1.3041  -1.1637  -1.0257  -1.0057  -0.9529  -0.9258  -0.9179  -0.8620
    -0.8550  -0.8045  -0.7650  -0.7389  -0.6478  -0.6286  -0.5804  -0.5773
    -0.5382  -0.5358  -0.4534  -0.4257  -0.3970  -0.3629  -0.0964  -0.0498
    -0.0280   0.0307   0.0617   0.0700   0.0751   0.1526   0.2063   0.2597
     0.2856   0.3069   0.3687   0.4146   0.4615   0.4916   0.5115   0.5307
     0.5689   0.6520   0.6673   0.7418   0.7667   0.8083   0.8393   0.8664
     0.9257   1.0496   1.1831   1.1893   1.3060   1.3969   1.4335   1.6590
     1.7672   1.8495   2.0655   2.2257   3.9433   3.9648   4.0130   4.1112
     4.1801   4.1952   4.3096   4.3311   4.3440   4.3647

          k =-0.0760 0.0419 0.0000 ( 17914 PWs)   bands (ev):

   -55.2794 -55.2528 -55.2448 -55.2190 -55.1890 -55.1734 -55.1631 -55.1358
   -55.0823 -55.0611 -55.0476 -55.0350 -55.0107 -54.9530 -54.2861 -54.2620
   -31.7506 -31.7015 -31.6327 -31.6023 -31.5791 -31.5704 -31.5461 -31.5413
   -31.4846 -31.4827 -31.4742 -31.4703 -31.4364 -31.4325 -31.4254 -31.4208
   -31.4198 -31.4157 -31.4041 -31.3852 -31.3820 -31.3739 -31.3699 -31.3620
   -31.3432 -31.3219 -31.3162 -31.2862 -31.2835 -31.2791 -31.2726 -31.2671
   -31.2629 -31.2620 -31.2603 -31.2569 -31.2479 -31.2006 -31.1970 -31.1939
   -31.1695 -31.1449 -30.6458 -30.6067 -30.5836 -30.5044 -30.4436 -30.3769
   -21.4273 -18.7336 -17.1506 -15.7031 -15.4572 -15.3072 -15.2735 -15.2067
   -15.1426 -15.1124 -15.0815 -15.0278 -15.0106 -14.9924 -14.9358 -14.9242
   -14.8842 -14.8693 -14.7671 -14.7585 -14.7182 -14.6881 -14.6642 -14.6473
   -14.6286 -14.5879 -14.5655 -14.5311 -14.4889 -14.4128 -14.4101 -14.3637
   -12.7906 -12.7136  -9.1323  -6.6055  -6.5191  -4.5663  -4.5581  -3.8477
    -3.7264  -3.5085  -3.2786  -3.1169  -2.9552  -2.7533  -2.5858  -2.5500
    -2.4911  -2.4338  -2.3600  -2.3474  -2.3294  -2.3216  -2.3032  -2.2945
    -2.2372  -2.2226  -2.2104  -2.1320  -2.0889  -2.0659  -2.0003  -1.9951
    -1.9708  -1.9285  -1.9029  -1.8544  -1.8326  -1.8184  -1.7493  -1.7207
    -1.6781  -1.6434  -1.6105  -1.4362  -1.4060  -1.3584  -1.3475  -1.3100
    -1.2844  -1.1753  -1.0624  -1.0334  -0.9619  -0.8903  -0.8512  -0.7923
    -0.7765  -0.7652  -0.6999  -0.6611  -0.6297  -0.5821  -0.5699  -0.5220
    -0.5033  -0.4863  -0.4658  -0.4220  -0.3763  -0.3601  -0.3295  -0.2581
    -0.2224  -0.1429  -0.1003  -0.0465  -0.0302   0.0165   0.0543   0.0987
     0.1527   0.1621   0.2019   0.2170   0.3378   0.3860   0.3935   0.4516
     0.5974   0.6115   0.6350   0.8314   0.8649   0.8725   0.9524   0.9805
     1.0567   1.1269   1.1609   1.2030   1.2288   1.2761   1.3050   1.4625
     1.9498   2.0038   2.1145   2.2508   4.0107   4.0559   4.1092   4.1819
     4.2144   4.2264   4.3408   4.3701   4.4653   4.4999

          k =-0.0760-0.0839 0.0000 ( 17948 PWs)   bands (ev):

   -55.2720 -55.2603 -55.2343 -55.2297 -55.1876 -55.1722 -55.1567 -55.1423
   -55.0837 -55.0598 -55.0488 -55.0251 -55.0207 -54.9544 -54.2747 -54.2735
   -31.6193 -31.6027 -31.5763 -31.5733 -31.5642 -31.5628 -31.5454 -31.5126
   -31.5057 -31.4886 -31.4855 -31.4748 -31.4400 -31.4295 -31.4084 -31.4045
   -31.3994 -31.3976 -31.3963 -31.3901 -31.3877 -31.3841 -31.3719 -31.3633
   -31.3576 -31.3488 -31.3483 -31.3463 -31.3413 -31.3149 -31.2896 -31.2767
   -31.2743 -31.2722 -31.2702 -31.2613 -31.2522 -31.2403 -31.2307 -31.2214
   -31.1797 -31.1460 -30.5956 -30.5943 -30.5138 -30.5129 -30.4745 -30.4736
   -21.4273 -18.7335 -17.1367 -15.4671 -15.3581 -15.2286 -15.1644 -15.1414
   -15.1149 -15.0617 -15.0452 -14.9902 -14.9860 -14.9353 -14.9291 -14.8860
   -14.8793 -14.8252 -14.7970 -14.7880 -14.7590 -14.7264 -14.7104 -14.7090
   -14.6693 -14.6473 -14.6392 -14.6089 -14.6016 -14.5395 -14.5015 -14.4690
   -12.7761 -12.7743  -9.1333  -6.6052  -6.5211  -4.5657  -4.5620  -3.8177
    -3.7155  -3.4828  -3.2734  -3.0021  -2.7526  -2.5700  -2.4782  -2.4097
    -2.3566  -2.3383  -2.2289  -2.2042  -2.1745  -2.1396  -2.1173  -2.1066
    -2.0891  -2.0799  -2.0729  -2.0544  -2.0213  -2.0021  -1.9761  -1.9508
    -1.9354  -1.9126  -1.8948  -1.8873  -1.8627  -1.8349  -1.8280  -1.8253
    -1.7629  -1.7231  -1.5644  -1.5194  -1.4981  -1.4081  -1.3887  -1.3720
    -1.3467  -1.3325  -1.3159  -1.1969  -1.1459  -1.1183  -1.0096  -0.9917
    -0.9657  -0.8275  -0.8029  -0.7711  -0.7447  -0.7003  -0.6314  -0.6093
    -0.5502  -0.5391  -0.4389  -0.4013  -0.3759  -0.3630  -0.2679  -0.2445
    -0.2389  -0.2129  -0.1503  -0.1194  -0.0725  -0.0432  -0.0123   0.0121
     0.0581   0.0780   0.1719   0.1923   0.2285   0.2716   0.3652   0.5324
     0.6250   0.7351   0.7609   0.8079   0.8683   0.9106   0.9570   1.0143
     1.0598   1.0692   1.1297   1.1682   1.2534   1.2672   1.2705   1.3389
     2.0943   2.0946   2.1825   2.1915   4.1388   4.1469   4.2043   4.2236
     4.3630   4.3691   4.3827   4.3902   4.4855   4.5534

     the Fermi energy is     3.8674 ev

!    total energy              =   -3006.52131109 Ry
     estimated scf accuracy    <       0.00000003 Ry
     smearing contrib. (-TS)   =      -0.02293431 Ry
     internal energy E=F+TS    =   -3006.49837678 Ry

     The total energy is F=E-TS. E is the sum of the following terms:
     one-electron contribution =  -22563.03428357 Ry
     hartree contribution      =   11380.87165877 Ry
     xc contribution           =    -501.14247797 Ry
     ewald contribution        =    8676.80484506 Ry
     electric field correction =       0.00188092 Ry

     convergence has been achieved in  93 iterations

     Forces acting on atoms (cartesian axes, Ry/au):

     atom    1 type  1   force =    -0.00014957   -0.00167247    0.10542002
     atom    2 type  1   force =    -0.00022567    0.00113198   -0.17917016
     atom    3 type  2   force =     0.00020616   -0.00553350   -0.03234060
     atom    4 type  2   force =     0.00010328    0.00072127    0.04630369
     atom    5 type  2   force =    -0.01804641    0.00052533    0.00423926
     atom    6 type  2   force =     0.01844420   -0.00044739    0.00410901
     atom    7 type  1   force =     0.00007385    0.00020033    0.00004321
     atom    8 type  1   force =     0.00007142    0.00031160   -0.00012013
     atom    9 type  2   force =     0.00017829    0.00035044   -0.00008177
     atom   10 type  2   force =     0.00017125   -0.00000634    0.00002313
     atom   11 type  2   force =     0.00006774   -0.00034735   -0.00038627
     atom   12 type  2   force =    -0.00008925   -0.00052310   -0.00052355
     atom   13 type  1   force =     0.00048677    0.00024058    0.00012040
     atom   14 type  1   force =    -0.00026434   -0.00047963   -0.00040376
     atom   15 type  2   force =     0.00013776   -0.00052197    0.00017236
     atom   16 type  2   force =    -0.00006104    0.00030577   -0.00023063
     atom   17 type  2   force =     0.00000615   -0.00035135    0.00032751
     atom   18 type  2   force =     0.00038992   -0.00069587   -0.00006649
     atom   19 type  1   force =     0.00008525   -0.00028311   -0.00012663
     atom   20 type  1   force =     0.00015204   -0.00082334   -0.00086987
     atom   21 type  2   force =    -0.00003547    0.00010176    0.10394488
     atom   22 type  2   force =    -0.00012020   -0.00055023    0.00052036
     atom   23 type  2   force =    -0.06943452    0.00051855   -0.02946698
     atom   24 type  2   force =     0.06919083    0.00097540   -0.02952289
     atom   25 type  1   force =    -0.00003017    0.00156411    0.11481991
     atom   26 type  1   force =    -0.00021300   -0.00047846   -0.17918162
     atom   27 type  2   force =     0.00021331    0.00414531   -0.02604740
     atom   28 type  2   force =     0.00042795    0.00092984    0.04808857
     atom   29 type  2   force =    -0.01631733    0.00162637    0.00385305
     atom   30 type  2   force =     0.01737288    0.00217613    0.00362272
     atom   31 type  1   force =    -0.00014676    0.00010835   -0.00024580
     atom   32 type  1   force =     0.00010617   -0.00009130    0.00026200
     atom   33 type  2   force =     0.00028511   -0.00050966    0.00019514
     atom   34 type  2   force =    -0.00004208   -0.00030917   -0.00026796
     atom   35 type  2   force =    -0.00044131   -0.00013456    0.00000830
     atom   36 type  2   force =     0.00051116    0.00002510   -0.00000053
     atom   37 type  1   force =     0.00048773   -0.00072787   -0.00000049
     atom   38 type  1   force =    -0.00037386   -0.00002928   -0.00035120
     atom   39 type  2   force =    -0.00049046   -0.00050517   -0.00066607
     atom   40 type  2   force =     0.00036080   -0.00041034   -0.00027407
     atom   41 type  2   force =     0.00024717   -0.00029693    0.00031170
     atom   42 type  2   force =     0.00001766   -0.00001466   -0.00021182
     atom   43 type  1   force =    -0.00001960    0.00010839    0.00134930
     atom   44 type  1   force =     0.00027756   -0.00026807   -0.00082208
     atom   45 type  2   force =    -0.00003770    0.00007751    0.10398816
     atom   46 type  2   force =    -0.06904281   -0.00107088   -0.02952185
     atom   47 type  2   force =     0.06885582   -0.00062872   -0.02960180
     atom   48 type  3   force =     0.00253756   -0.00002672   -0.00152986
     atom   49 type  2   force =    -0.00417210    0.00031244    0.00268053
     atom   50 type  4   force =    -0.00002752   -0.00008644   -0.00138179
     atom   51 type  4   force =     0.00004508   -0.00012690    0.00026041
     atom   52 type  4   force =    -0.00017931    0.00022688   -0.00048392
     atom   53 type  5   force =    -0.00107726   -0.00017826   -0.00111303
     atom   54 type  5   force =     0.00051624    0.00037189    0.00080917
     atom   55 type  2   force =     0.00074000   -0.00002947    0.00044635
     atom   56 type  4   force =    -0.00158174    0.00014544   -0.00067175
     atom   57 type  4   force =    -0.00014765    0.00095775   -0.00023635

     Total force =     0.374604     Total SCF correction =     0.000380
  @ DRIVER MODE: Message from server: STATUS
  @ DRIVER MODE: Message from server: GETFORCE
  @ DRIVER MODE: Returning v,forces,stress,ensemble 

     Writing output data file ./calc.save/
  @ DRIVER MODE: Message from server: EXIT
  @ DRIVE MODE: Exiting  
 
     init_run     :     13.99s CPU     14.56s WALL (       1 calls)
     electrons    :   2019.88s CPU   2073.18s WALL (       1 calls)
     forces       :      2.99s CPU      3.20s WALL (       1 calls)

     Called by init_run:
     wfcinit      :      6.24s CPU      6.50s WALL (       1 calls)
     potinit      :      6.87s CPU      7.00s WALL (       1 calls)
     hinit0       :      0.38s CPU      0.40s WALL (       1 calls)

     Called by electrons:
     c_bands      :   1724.32s CPU   1756.19s WALL (      93 calls)
     sum_band     :    202.79s CPU    212.87s WALL (      93 calls)
     v_of_rho     :     66.64s CPU     70.08s WALL (      94 calls)
     newd         :     27.00s CPU     34.31s WALL (      94 calls)
     mix_rho      :      4.27s CPU      4.73s WALL (      93 calls)
     vdW_kernel   :      5.86s CPU      5.91s WALL (       1 calls)

     Called by c_bands:
     init_us_2    :     10.78s CPU     10.94s WALL (    1880 calls)
     cegterg      :   1691.28s CPU   1721.98s WALL (     955 calls)

     Called by *egterg:
     cdiaghg      :    286.24s CPU    289.68s WALL (   10016 calls)
     h_psi        :    901.97s CPU    920.02s WALL (   10031 calls)
     s_psi        :    121.17s CPU    122.16s WALL (   10031 calls)
     g_psi        :      2.98s CPU      3.00s WALL (    9066 calls)

     Called by h_psi:
     h_psi:calbec :    114.43s CPU    116.57s WALL (   10031 calls)
     vloc_psi     :    662.40s CPU    671.78s WALL (   10031 calls)
     add_vuspsi   :    121.41s CPU    125.03s WALL (   10031 calls)

     General routines
     calbec       :    150.08s CPU    152.59s WALL (   11001 calls)
     fft          :     36.90s CPU     37.49s WALL (    5922 calls)
     ffts         :      0.32s CPU      0.33s WALL (     187 calls)
     fftw         :    741.42s CPU    751.94s WALL ( 1304294 calls)
     interpolate  :      0.89s CPU      0.93s WALL (      94 calls)
     davcio       :      0.00s CPU      0.73s WALL (      10 calls)
 
     Parallel routines
 
     PWSCF        :  33m58.49s CPU  34m54.00s WALL

 
   This run was terminated on:  18:51:39  25Sep2021            

=------------------------------------------------------------------------------=
   JOB DONE.
=------------------------------------------------------------------------------=
