
     Program PWSCF v.6.7GPU starts on 10Sep2021 at 22: 8:43 

     This program is part of the open-source Quantum ESPRESSO suite
     for quantum simulation of materials; please cite
         "P. Giannozzi et al., J. Phys.:Condens. Matter 21 395502 (2009);
         "P. Giannozzi et al., J. Phys.:Condens. Matter 29 465901 (2017);
         "P. Giannozzi et al., J. Chem. Phys. 152 154105 (2020);
          URL http://www.quantum-espresso.org", 
     in publications or presentations arising from this work. More details at
     http://www.quantum-espresso.org/quote

     Parallel version (MPI), running on    10 processors

     MPI processes distributed on     1 nodes
     R & G space division:  proc/nbgrp/npool/nimage =      10
     Reading input from /storage/home/hcoda1/3/ntian30/research/carbon/CxH_vib/CH2_calc/ads_slab/CH2N2H_e/out_0014/pw.inp
Warning: card &CELL ignored
Warning: card   CELL_DYNAMICS='IPI', ignored
Warning: card / ignored

     Current dimensions of program PWSCF are:
     Max number of different atomic species (ntypx) = 10
     Max number of k-points (npk) =  40000
     Max angular momentum in pseudopotentials (lmaxx) =  3
     Presently no symmetry can be used with electric field

     Message from routine cell_base_init:
     DEPRECATED: use true lattice parameter, not A to a.u. conversion factor

     **************************************************************************
     Initializing libbeef V0.1.2 with the BEEF-vdW functional.
     Citation: Wellendorff et al., PRB 85, 235149 (2012).
     **************************************************************************


     IMPORTANT: XC functional enforced from input :
     Exchange-correlation= BEEF-VDW
                           (   1   4  43  14   2   0   0)
     Any further DFT definition will be discarded
     Please, verify this is what you really want


     Subspace diagonalization in iterative solution of the eigenvalue problem:
     one sub-group per band group will be used
     scalapack distributed-memory algorithm (size of sub-group:  3*  3 procs)

  @ DRIVER MODE: Connecting to 
 qe_1139763_2792041.sched-torque.pace.gatech.eduvy2obbwo_scratch
  using UNIX socket
  @ DRIVER MODE: Message from server: STATUS
  @ DRIVER MODE: Message from server: INIT
  @ DRIVER MODE: Receiving replica           0          -1
  @ DRIVER MODE: Receiving encoded integer          25
  @ DRIVER MODE:  SCF:  T  FORCE:  T  STRESS:  F  VC:  F  ENSEMBLE:  F
  @ DRIVER MODE:  SCF:  T  FORCE:  T  STRESS:  F  VC:  F  ENSEMBLE:  F
 
     Parallelization info
     --------------------
     sticks:   dense  smooth     PW     G-vecs:    dense   smooth      PW
     Min         327     131     37                56683    14340    2191
     Max         328     133     38                56694    14346    2206
     Sum        3275    1317    379               566857   143421   21985
 
     Using Slab Decomposition
 


     bravais-lattice index     =            0
     lattice parameter (alat)  =       1.8897  a.u.
     unit-cell volume          =    6658.9804 (a.u.)^3
     number of atoms/cell      =           53
     number of atomic types    =            5
     number of electrons       =       395.00
     number of Kohn-Sham states=          207
     kinetic-energy cutoff     =      29.3995  Ry
     charge density cutoff     =     293.9946  Ry
     scf convergence threshold =      7.3E-08
     mixing beta               =       0.0500
     number of iterations used =            8  plain     mixing
     Exchange-correlation= BEEF-VDW
                           (   1   4  43  14   2   0   0)

     celldm(1)=   1.889726  celldm(2)=   0.000000  celldm(3)=   0.000000
     celldm(4)=   0.000000  celldm(5)=   0.000000  celldm(6)=   0.000000

     crystal axes: (cart. coord. in units of alat)
               a(1) = (   6.579727   0.000000   0.000000 )  
               a(2) = (  -0.000775   5.961596   0.000000 )  
               a(3) = (   0.000000   0.000000  25.155947 )  

     reciprocal axes: (cart. coord. in units 2 pi/alat)
               b(1) = (  0.151982  0.000020  0.000000 )  
               b(2) = (  0.000000  0.167740  0.000000 )  
               b(3) = (  0.000000  0.000000  0.039752 )  


     PseudoPot. # 1 for Ti read from file:
     /storage/coda1/p-amedford6/0/shared/rich_project_chbe-medford/medford-share/data/pseudos_module/espresso/nninc/pbe/van/Ti.UPF
     MD5 check sum: 8e4df49b7f0d34bbd5052bf3f5ea0213
     Pseudo is Ultrasoft, Zval = 12.0
     Generated by new atomic code, or converted to UPF format
     Using radial grid of  851 points,  6 beta functions with: 
                l(1) =   0
                l(2) =   0
                l(3) =   1
                l(4) =   1
                l(5) =   2
                l(6) =   2
     Q(r) pseudized with  8 coefficients,  rinner =    1.000   1.000   1.000
                                                       1.000   1.000

     PseudoPot. # 2 for O  read from file:
     /storage/coda1/p-amedford6/0/shared/rich_project_chbe-medford/medford-share/data/pseudos_module/espresso/nninc/pbe/van/O.UPF
     MD5 check sum: 78c19812648e8988a0fe644b0f25305e
     Pseudo is Ultrasoft, Zval =  6.0
     Generated by new atomic code, or converted to UPF format
     Using radial grid of  737 points,  4 beta functions with: 
                l(1) =   0
                l(2) =   0
                l(3) =   1
                l(4) =   1
     Q(r) pseudized with  8 coefficients,  rinner =    0.800   0.800   0.800


     PseudoPot. # 3 for N  read from file:
     /storage/coda1/p-amedford6/0/shared/rich_project_chbe-medford/medford-share/data/pseudos_module/espresso/nninc/pbe/van/N.UPF
     MD5 check sum: 90d10febe142ad51ac9d5be1deb811c4
     Pseudo is Ultrasoft, Zval =  5.0
     Generated by new atomic code, or converted to UPF format
     Using radial grid of  729 points,  4 beta functions with: 
                l(1) =   0
                l(2) =   0
                l(3) =   1
                l(4) =   1
     Q(r) pseudized with  8 coefficients,  rinner =    0.800   0.800   0.800


     PseudoPot. # 4 for C  read from file:
     /storage/coda1/p-amedford6/0/shared/rich_project_chbe-medford/medford-share/data/pseudos_module/espresso/nninc/pbe/van/C.UPF
     MD5 check sum: 1a69bf6b8db32088f5b2163dbdb77a27
     Pseudo is Ultrasoft, Zval =  4.0
     Generated by new atomic code, or converted to UPF format
     Using radial grid of  721 points,  4 beta functions with: 
                l(1) =   0
                l(2) =   0
                l(3) =   1
                l(4) =   1
     Q(r) pseudized with  8 coefficients,  rinner =    0.800   0.800   0.800


     PseudoPot. # 5 for H  read from file:
     /storage/coda1/p-amedford6/0/shared/rich_project_chbe-medford/medford-share/data/pseudos_module/espresso/nninc/pbe/van/H.UPF
     MD5 check sum: b5ee9d7bfd3a09ee7748110bda690ff7
     Pseudo is Ultrasoft, Zval =  1.0
     Generated by new atomic code, or converted to UPF format
     Using radial grid of  615 points,  1 beta functions with: 
                l(1) =   0
     Q(r) pseudized with  8 coefficients,  rinner =    0.800

     atomic species   valence    mass     pseudopotential
        Ti1           12.00    47.86700     Ti( 1.00)
        O1             6.00    15.99900     O ( 1.00)
        N1             5.00    14.00700     N ( 1.00)
        C1             4.00    12.01100     C ( 1.00)
        H1             1.00     1.00800     H ( 1.00)

     No symmetry found



   Cartesian axes

     site n.     atom                  positions (alat units)
         1           Ti1 tau(   1) = (   0.0004258   2.9801865   6.0000000  )
         2           Ti1 tau(   2) = (   3.2906075   1.4906267   6.0002472  )
         3           O1  tau(   3) = (   0.0006271   0.0005054   7.9858123  )
         4           O1  tau(   4) = (   3.2906025   0.0005020   7.3038282  )
         5           O1  tau(   5) = (   4.5942328   1.4918067   9.2879030  )
         6           O1  tau(   6) = (   1.9868534   1.4903216   9.2879459  )
         7           Ti1 tau(   7) = (   3.2907910   2.8959150   9.1758416  )
         8           Ti1 tau(   8) = (   0.0015273   1.4827037   9.2680791  )
         9           O1  tau(   9) = (   3.2922140   0.0036562  11.3253104  )
        10           O1  tau(  10) = (   0.0116148   5.9584955  10.6183126  )
        11           O1  tau(  11) = (   1.2860832   1.4889729  12.6258215  )
        12           O1  tau(  12) = (   5.2729595   1.4828594  12.6177116  )
        13           Ti1 tau(  13) = (   0.0641184   3.0073180  12.5883652  )
        14           Ti1 tau(  14) = (   3.3767723   1.4911129  12.4765728  )
        15           O1  tau(  15) = (   6.5781935   5.9569561  14.6821271  )
        16           O1  tau(  16) = (   3.2819581   0.0025077  13.9050320  )
        17           O1  tau(  17) = (   4.5172158   1.5234625  16.0337941  )
        18           O1  tau(  18) = (   2.0475084   1.5263597  16.0453316  )
        19           Ti1 tau(  19) = (   3.2743797   3.0127756  15.6984511  )
        20           Ti1 tau(  20) = (   6.5512008   1.5842238  15.7855373  )
        21           O1  tau(  21) = (   3.2904802   0.0005063   4.7018136  )
        22           O1  tau(  22) = (   6.5742344   0.0609322  17.2932839  )
        23           O1  tau(  23) = (   1.3043587   1.4918075   6.0039043  )
        24           O1  tau(  24) = (   5.2767064   1.4903225   6.0039473  )
        25           Ti1 tau(  25) = (   0.0000382   5.9609847   6.0000000  )
        26           Ti1 tau(  26) = (   3.2902200   4.4714249   6.0002472  )
        27           O1  tau(  27) = (   0.0002396   2.9813036   7.9858123  )
        28           O1  tau(  28) = (   3.2902150   2.9813002   7.3038282  )
        29           O1  tau(  29) = (   4.5938453   4.4726049   9.2879030  )
        30           O1  tau(  30) = (   1.9864658   4.4711199   9.2879459  )
        31           Ti1 tau(  31) = (   3.2891106   5.8743827   9.1763621  )
        32           Ti1 tau(  32) = (   0.0006254   4.4649316   9.2693709  )
        33           O1  tau(  33) = (   3.2917412   2.9831059  11.3263362  )
        34           O1  tau(  34) = (   0.0092240   2.9805883  10.6323155  )
        35           O1  tau(  35) = (   1.2859270   4.4784489  12.6216084  )
        36           O1  tau(  36) = (   5.2779610   4.4756213  12.6128944  )
        37           Ti1 tau(  37) = (   0.0616295   0.0157230  12.5710002  )
        38           Ti1 tau(  38) = (   3.3796684   4.4726909  12.4790056  )
        39           O1  tau(  39) = (   6.5693437   2.9756239  14.6354252  )
        40           O1  tau(  40) = (   3.2842310   3.0020566  13.9003041  )
        41           O1  tau(  41) = (   4.5171552   4.5052370  16.0986928  )
        42           O1  tau(  42) = (   2.0408908   4.5012300  16.0971631  )
        43           Ti1 tau(  43) = (   3.2680294   0.0293594  15.7040856  )
        44           Ti1 tau(  44) = (   6.5592110   4.6908586  16.1766550  )
        45           O1  tau(  45) = (   3.2900926   2.9813045   4.7018136  )
        46           O1  tau(  46) = (   1.3039711   4.4726057   6.0039043  )
        47           O1  tau(  47) = (   5.2763189   4.4711207   6.0039473  )
        48           N1  tau(  48) = (   0.0931655   2.5901963  18.5587852  )
        49           N1  tau(  49) = (   6.5755498   2.9338716  17.3126873  )
        50           C1  tau(  50) = (   0.1989803   3.3462807  19.6294495  )
        51           H1  tau(  51) = (   0.2540540   2.8541835  20.5836859  )
        52           H1  tau(  52) = (   0.1890997   4.4171571  19.5098884  )
        53           H1  tau(  53) = (   0.0969130   1.5623892  18.6894177  )

     number of k points=    10  Fermi-Dirac smearing, width (Ry)=  0.0073
                       cart. coord. in units 2pi/alat
        k(    1) = (   0.0000000   0.0000000   0.0000000), wk =   0.1250000
        k(    2) = (   0.0000000   0.0419351   0.0000000), wk =   0.2500000
        k(    3) = (   0.0000000  -0.0838702   0.0000000), wk =   0.1250000
        k(    4) = (   0.0379955   0.0000049   0.0000000), wk =   0.2500000
        k(    5) = (   0.0379955   0.0419400   0.0000000), wk =   0.2500000
        k(    6) = (   0.0379955  -0.0838652   0.0000000), wk =   0.2500000
        k(    7) = (   0.0379955  -0.0419301   0.0000000), wk =   0.2500000
        k(    8) = (  -0.0759910  -0.0000099   0.0000000), wk =   0.1250000
        k(    9) = (  -0.0759910   0.0419252   0.0000000), wk =   0.2500000
        k(   10) = (  -0.0759910  -0.0838800   0.0000000), wk =   0.1250000

     Dense  grid:   566857 G-vectors     FFT dimensions: (  72,  64, 270)

     Smooth grid:   143421 G-vectors     FFT dimensions: (  45,  40, 180)

     Estimated max dynamical RAM per process >     363.40 MB

     Estimated total dynamical RAM >       3.55 GB
     Cannot read rho : file not found

     Initial potential from superposition of free atoms

     starting charge  378.99916, renormalised to  395.00000

     negative rho (up, down):  1.523E-02 0.000E+00


     %%%%%%%%%%%%%%%%%%%%%%%%%%%%%%%%%%%%%%%%%%%%%%%%%%%%%%%%%%%%%%%%%%%%%%%%
     %                                                                      %
     % You are using vdW-DF, which was implemented by the Thonhauser group. %
     % Please cite the following two papers that made this development      %
     % possible and the two reviews that describe the various versions:     %
     %                                                                      %
     %   T. Thonhauser et al., PRL 115, 136402 (2015).                      %
     %   T. Thonhauser et al., PRB 76, 125112 (2007).                       %
     %   K. Berland et al., Rep. Prog. Phys. 78, 066501 (2015).             %
     %   D.C. Langreth et al., J. Phys.: Condens. Matter 21, 084203 (2009). %
     %                                                                      %
     %                                                                      %
     % If you are calculating the stress with vdW-DF, please also cite:     %
     %                                                                      %
     %   R. Sabatini et al., J. Phys.: Condens. Matter 24, 424209 (2012).   %
     %                                                                      %
     %%%%%%%%%%%%%%%%%%%%%%%%%%%%%%%%%%%%%%%%%%%%%%%%%%%%%%%%%%%%%%%%%%%%%%%%


 
     Adding external electric field

     Computed dipole along edir(3) : 
        Dipole               -8.7485 Ry au,        -22.2364 Debye
        Dipole field         -0.0165 Ry au, 
 
        Potential amp.        1.5304 Ry
        Total length         46.3494 bohr
 
     Starting wfcs are  299 atomic wfcs
  @ DRIVER MODE: Message from server: STATUS
  @ DRIVER MODE: Message from server: POSDATA
  @ DRIVER MODE: Reading and sharing cell 
  @ DRIVER MODE: Reading and sharing positions 
  @ DRIVER MODE: Received positions 

     total cpu time spent up to now is       12.2 secs

     Self-consistent Calculation

     iteration #  1     ecut=    29.40 Ry     beta= 0.05
     Davidson diagonalization with overlap
     c_bands:  2 eigenvalues not converged
     c_bands:  1 eigenvalues not converged
     c_bands:  1 eigenvalues not converged
     c_bands:  3 eigenvalues not converged
     c_bands:  2 eigenvalues not converged
     c_bands:  1 eigenvalues not converged
     c_bands:  1 eigenvalues not converged
     ethr =  1.00E-05,  avg # of iterations = 19.1

     negative rho (up, down):  1.370E-02 0.000E+00
 
     Adding external electric field

     Computed dipole along edir(3) : 
        Dipole               38.0426 Ry au,         96.6947 Debye
        Dipole field          0.0718 Ry au, 
 
        Potential amp.       -6.6550 Ry
        Total length         46.3494 bohr
 

     total cpu time spent up to now is       51.2 secs

     total energy              =   -2616.99711734 Ry
     estimated scf accuracy    <    3577.56667575 Ry

     iteration #  2     ecut=    29.40 Ry     beta= 0.05
     Davidson diagonalization with overlap
     ethr =  1.00E-02,  avg # of iterations = 22.5

     negative rho (up, down):  4.067E-03 0.000E+00
 
     Adding external electric field

     Computed dipole along edir(3) : 
        Dipole               -3.4859 Ry au,         -8.8603 Debye
        Dipole field         -0.0066 Ry au, 
 
        Potential amp.        0.6098 Ry
        Total length         46.3494 bohr
 

     total cpu time spent up to now is      121.3 secs

     total energy              =   -2441.19299845 Ry
     estimated scf accuracy    <   66078.92903222 Ry

     iteration #  3     ecut=    29.40 Ry     beta= 0.05
     Davidson diagonalization with overlap
     ethr =  1.00E-02,  avg # of iterations = 14.8

     negative rho (up, down):  4.135E-03 0.000E+00
 
     Adding external electric field

     Computed dipole along edir(3) : 
        Dipole               -5.1972 Ry au,        -13.2099 Debye
        Dipole field         -0.0098 Ry au, 
 
        Potential amp.        0.9092 Ry
        Total length         46.3494 bohr
 

     total cpu time spent up to now is      165.8 secs

     total energy              =   -2916.44206163 Ry
     estimated scf accuracy    <    3863.33271111 Ry

     iteration #  4     ecut=    29.40 Ry     beta= 0.05
     Davidson diagonalization with overlap
     c_bands:  2 eigenvalues not converged
     c_bands:  3 eigenvalues not converged
     c_bands:  3 eigenvalues not converged
     c_bands:  1 eigenvalues not converged
     ethr =  1.00E-02,  avg # of iterations = 17.7

     negative rho (up, down):  4.167E-03 0.000E+00
 
     Adding external electric field

     Computed dipole along edir(3) : 
        Dipole               -5.9669 Ry au,        -15.1665 Debye
        Dipole field         -0.0113 Ry au, 
 
        Potential amp.        1.0438 Ry
        Total length         46.3494 bohr
 

     total cpu time spent up to now is      187.3 secs

     total energy              =   -2935.88004605 Ry
     estimated scf accuracy    <     355.41450400 Ry

     iteration #  5     ecut=    29.40 Ry     beta= 0.05
     Davidson diagonalization with overlap
     ethr =  1.00E-02,  avg # of iterations =  4.3

     negative rho (up, down):  4.181E-03 0.000E+00
 
     Adding external electric field

     Computed dipole along edir(3) : 
        Dipole               -6.3906 Ry au,        -16.2432 Debye
        Dipole field         -0.0121 Ry au, 
 
        Potential amp.        1.1179 Ry
        Total length         46.3494 bohr
 

     total cpu time spent up to now is      198.6 secs

     total energy              =   -2936.13182036 Ry
     estimated scf accuracy    <     160.58268358 Ry

     iteration #  6     ecut=    29.40 Ry     beta= 0.05
     Davidson diagonalization with overlap
     ethr =  1.00E-02,  avg # of iterations =  1.9

     negative rho (up, down):  4.323E-03 0.000E+00
 
     Adding external electric field

     Computed dipole along edir(3) : 
        Dipole               -7.2190 Ry au,        -18.3489 Debye
        Dipole field         -0.0136 Ry au, 
 
        Potential amp.        1.2629 Ry
        Total length         46.3494 bohr
 

     total cpu time spent up to now is      208.6 secs

     total energy              =   -2931.18828070 Ry
     estimated scf accuracy    <     158.55317099 Ry

     iteration #  7     ecut=    29.40 Ry     beta= 0.05
     Davidson diagonalization with overlap
     c_bands:  1 eigenvalues not converged
     ethr =  1.00E-02,  avg # of iterations = 11.7

     negative rho (up, down):  4.238E-03 0.000E+00
 
     Adding external electric field

     Computed dipole along edir(3) : 
        Dipole               -7.1577 Ry au,        -18.1930 Debye
        Dipole field         -0.0135 Ry au, 
 
        Potential amp.        1.2521 Ry
        Total length         46.3494 bohr
 

     total cpu time spent up to now is      225.9 secs

     total energy              =   -2942.37532799 Ry
     estimated scf accuracy    <      68.83719485 Ry

     iteration #  8     ecut=    29.40 Ry     beta= 0.05
     Davidson diagonalization with overlap
     ethr =  1.00E-02,  avg # of iterations =  1.1

     negative rho (up, down):  4.407E-03 0.000E+00
 
     Adding external electric field

     Computed dipole along edir(3) : 
        Dipole               -6.9860 Ry au,        -17.7567 Debye
        Dipole field         -0.0132 Ry au, 
 
        Potential amp.        1.2221 Ry
        Total length         46.3494 bohr
 

     total cpu time spent up to now is      235.7 secs

     total energy              =   -2942.17270311 Ry
     estimated scf accuracy    <      64.06523932 Ry

     iteration #  9     ecut=    29.40 Ry     beta= 0.05
     Davidson diagonalization with overlap
     ethr =  1.00E-02,  avg # of iterations =  1.0

     negative rho (up, down):  5.045E-03 0.000E+00
 
     Adding external electric field

     Computed dipole along edir(3) : 
        Dipole               -6.7008 Ry au,        -17.0318 Debye
        Dipole field         -0.0126 Ry au, 
 
        Potential amp.        1.1722 Ry
        Total length         46.3494 bohr
 

     total cpu time spent up to now is      245.3 secs

     total energy              =   -2941.80215796 Ry
     estimated scf accuracy    <      50.12545653 Ry

     iteration # 10     ecut=    29.40 Ry     beta= 0.05
     Davidson diagonalization with overlap
     ethr =  1.00E-02,  avg # of iterations =  1.0

     negative rho (up, down):  3.563E-03 0.000E+00
 
     Adding external electric field

     Computed dipole along edir(3) : 
        Dipole               -6.5196 Ry au,        -16.5712 Debye
        Dipole field         -0.0123 Ry au, 
 
        Potential amp.        1.1405 Ry
        Total length         46.3494 bohr
 

     total cpu time spent up to now is      255.0 secs

     total energy              =   -2941.75390417 Ry
     estimated scf accuracy    <      26.51869036 Ry

     iteration # 11     ecut=    29.40 Ry     beta= 0.05
     Davidson diagonalization with overlap
     ethr =  6.71E-03,  avg # of iterations =  1.0

     negative rho (up, down):  6.512E-04 0.000E+00
 
     Adding external electric field

     Computed dipole along edir(3) : 
        Dipole               -3.5649 Ry au,         -9.0609 Debye
        Dipole field         -0.0067 Ry au, 
 
        Potential amp.        0.6236 Ry
        Total length         46.3494 bohr
 

     total cpu time spent up to now is      264.7 secs

     total energy              =   -2940.55274477 Ry
     estimated scf accuracy    <      30.65680740 Ry

     iteration # 12     ecut=    29.40 Ry     beta= 0.05
     Davidson diagonalization with overlap
     ethr =  6.71E-03,  avg # of iterations =  3.6

     negative rho (up, down):  7.835E-04 0.000E+00
 
     Adding external electric field

     Computed dipole along edir(3) : 
        Dipole               -3.7694 Ry au,         -9.5809 Debye
        Dipole field         -0.0071 Ry au, 
 
        Potential amp.        0.6594 Ry
        Total length         46.3494 bohr
 

     total cpu time spent up to now is      275.7 secs

     total energy              =   -2941.55311194 Ry
     estimated scf accuracy    <     199.93798787 Ry

     iteration # 13     ecut=    29.40 Ry     beta= 0.05
     Davidson diagonalization with overlap
     ethr =  6.71E-03,  avg # of iterations =  1.4

     negative rho (up, down):  7.799E-04 0.000E+00
 
     Adding external electric field

     Computed dipole along edir(3) : 
        Dipole               -3.6805 Ry au,         -9.3548 Debye
        Dipole field         -0.0069 Ry au, 
 
        Potential amp.        0.6438 Ry
        Total length         46.3494 bohr
 

     total cpu time spent up to now is      285.7 secs

     total energy              =   -2941.78999176 Ry
     estimated scf accuracy    <      95.84442762 Ry

     iteration # 14     ecut=    29.40 Ry     beta= 0.05
     Davidson diagonalization with overlap
     ethr =  6.71E-03,  avg # of iterations =  1.0

     negative rho (up, down):  8.951E-04 0.000E+00
 
     Adding external electric field

     Computed dipole along edir(3) : 
        Dipole               -3.9942 Ry au,        -10.1523 Debye
        Dipole field         -0.0075 Ry au, 
 
        Potential amp.        0.6987 Ry
        Total length         46.3494 bohr
 

     total cpu time spent up to now is      295.4 secs

     total energy              =   -2941.62008646 Ry
     estimated scf accuracy    <      87.26713597 Ry

     iteration # 15     ecut=    29.40 Ry     beta= 0.05
     Davidson diagonalization with overlap
     ethr =  6.71E-03,  avg # of iterations =  1.0

     negative rho (up, down):  1.004E-03 0.000E+00
 
     Adding external electric field

     Computed dipole along edir(3) : 
        Dipole               -3.1516 Ry au,         -8.0106 Debye
        Dipole field         -0.0059 Ry au, 
 
        Potential amp.        0.5513 Ry
        Total length         46.3494 bohr
 

     total cpu time spent up to now is      305.1 secs

     total energy              =   -2939.76813465 Ry
     estimated scf accuracy    <      59.28476182 Ry

     iteration # 16     ecut=    29.40 Ry     beta= 0.05
     Davidson diagonalization with overlap
     ethr =  6.71E-03,  avg # of iterations =  3.2

     negative rho (up, down):  1.199E-03 0.000E+00
 
     Adding external electric field

     Computed dipole along edir(3) : 
        Dipole               -3.3367 Ry au,         -8.4811 Debye
        Dipole field         -0.0063 Ry au, 
 
        Potential amp.        0.5837 Ry
        Total length         46.3494 bohr
 

     total cpu time spent up to now is      315.9 secs

     total energy              =   -2940.64885859 Ry
     estimated scf accuracy    <      60.13547643 Ry

     iteration # 17     ecut=    29.40 Ry     beta= 0.05
     Davidson diagonalization with overlap
     ethr =  6.71E-03,  avg # of iterations =  5.8

     negative rho (up, down):  1.416E-03 0.000E+00
 
     Adding external electric field

     Computed dipole along edir(3) : 
        Dipole               -4.3222 Ry au,        -10.9860 Debye
        Dipole field         -0.0082 Ry au, 
 
        Potential amp.        0.7561 Ry
        Total length         46.3494 bohr
 

     total cpu time spent up to now is      327.8 secs

     total energy              =   -2942.06370204 Ry
     estimated scf accuracy    <     158.77375000 Ry

     iteration # 18     ecut=    29.40 Ry     beta= 0.05
     Davidson diagonalization with overlap
     ethr =  6.71E-03,  avg # of iterations =  2.2

     negative rho (up, down):  3.958E-03 0.000E+00
 
     Adding external electric field

     Computed dipole along edir(3) : 
        Dipole               -3.2207 Ry au,         -8.1862 Debye
        Dipole field         -0.0061 Ry au, 
 
        Potential amp.        0.5634 Ry
        Total length         46.3494 bohr
 

     total cpu time spent up to now is      338.2 secs

     total energy              =   -2940.02312440 Ry
     estimated scf accuracy    <     160.77030709 Ry

     iteration # 19     ecut=    29.40 Ry     beta= 0.05
     Davidson diagonalization with overlap
     ethr =  6.71E-03,  avg # of iterations =  2.9

     negative rho (up, down):  3.963E-03 0.000E+00
 
     Adding external electric field

     Computed dipole along edir(3) : 
        Dipole               -2.9865 Ry au,         -7.5908 Debye
        Dipole field         -0.0056 Ry au, 
 
        Potential amp.        0.5224 Ry
        Total length         46.3494 bohr
 

     total cpu time spent up to now is      349.0 secs

     total energy              =   -2938.25297960 Ry
     estimated scf accuracy    <      41.60826022 Ry

     iteration # 20     ecut=    29.40 Ry     beta= 0.05
     Davidson diagonalization with overlap
     ethr =  6.71E-03,  avg # of iterations =  1.6

     negative rho (up, down):  5.264E-03 0.000E+00
 
     Adding external electric field

     Computed dipole along edir(3) : 
        Dipole               -0.5645 Ry au,         -1.4348 Debye
        Dipole field         -0.0011 Ry au, 
 
        Potential amp.        0.0987 Ry
        Total length         46.3494 bohr
 

     total cpu time spent up to now is      359.3 secs

     total energy              =   -2937.96159103 Ry
     estimated scf accuracy    <       5.91053546 Ry

     iteration # 21     ecut=    29.40 Ry     beta= 0.05
     Davidson diagonalization with overlap
     ethr =  1.50E-03,  avg # of iterations = 13.7

     negative rho (up, down):  3.169E-03 0.000E+00
 
     Adding external electric field

     Computed dipole along edir(3) : 
        Dipole               -0.4366 Ry au,         -1.1098 Debye
        Dipole field         -0.0008 Ry au, 
 
        Potential amp.        0.0764 Ry
        Total length         46.3494 bohr
 

     total cpu time spent up to now is      381.5 secs

     total energy              =   -2940.94425858 Ry
     estimated scf accuracy    <      69.42643071 Ry

     iteration # 22     ecut=    29.40 Ry     beta= 0.05
     Davidson diagonalization with overlap
     ethr =  1.50E-03,  avg # of iterations =  2.9

     negative rho (up, down):  5.801E-03 0.000E+00
 
     Adding external electric field

     Computed dipole along edir(3) : 
        Dipole                0.1974 Ry au,          0.5017 Debye
        Dipole field          0.0004 Ry au, 
 
        Potential amp.       -0.0345 Ry
        Total length         46.3494 bohr
 

     total cpu time spent up to now is      392.6 secs

     total energy              =   -2942.99717411 Ry
     estimated scf accuracy    <     148.75701672 Ry

     iteration # 23     ecut=    29.40 Ry     beta= 0.05
     Davidson diagonalization with overlap
     ethr =  1.50E-03,  avg # of iterations =  6.7

     negative rho (up, down):  8.735E-03 0.000E+00
 
     Adding external electric field

     Computed dipole along edir(3) : 
        Dipole               -1.5885 Ry au,         -4.0376 Debye
        Dipole field         -0.0030 Ry au, 
 
        Potential amp.        0.2779 Ry
        Total length         46.3494 bohr
 

     total cpu time spent up to now is      404.4 secs

     total energy              =   -2936.65577644 Ry
     estimated scf accuracy    <     190.31643128 Ry

     iteration # 24     ecut=    29.40 Ry     beta= 0.05
     Davidson diagonalization with overlap
     c_bands:  1 eigenvalues not converged
     ethr =  1.50E-03,  avg # of iterations = 10.1

     negative rho (up, down):  1.197E-02 0.000E+00
 
     Adding external electric field

     Computed dipole along edir(3) : 
        Dipole               -1.6231 Ry au,         -4.1255 Debye
        Dipole field         -0.0031 Ry au, 
 
        Potential amp.        0.2839 Ry
        Total length         46.3494 bohr
 

     total cpu time spent up to now is      418.1 secs

     total energy              =   -2938.97087162 Ry
     estimated scf accuracy    <       6.19477572 Ry

     iteration # 25     ecut=    29.40 Ry     beta= 0.05
     Davidson diagonalization with overlap
     ethr =  1.50E-03,  avg # of iterations =  2.1

     negative rho (up, down):  2.675E-02 0.000E+00
 
     Adding external electric field

     Computed dipole along edir(3) : 
        Dipole               -1.3325 Ry au,         -3.3869 Debye
        Dipole field         -0.0025 Ry au, 
 
        Potential amp.        0.2331 Ry
        Total length         46.3494 bohr
 

     total cpu time spent up to now is      428.7 secs

     total energy              =   -2938.79886755 Ry
     estimated scf accuracy    <       4.44618403 Ry

     iteration # 26     ecut=    29.40 Ry     beta= 0.05
     Davidson diagonalization with overlap
     c_bands:  1 eigenvalues not converged
     c_bands:  5 eigenvalues not converged
     c_bands:  1 eigenvalues not converged
     c_bands:  1 eigenvalues not converged
     c_bands:  3 eigenvalues not converged
     c_bands:  4 eigenvalues not converged
     c_bands:  4 eigenvalues not converged
     ethr =  1.13E-03,  avg # of iterations = 20.4

     negative rho (up, down):  2.781E-02 0.000E+00
 
     Adding external electric field

     Computed dipole along edir(3) : 
        Dipole               -1.1320 Ry au,         -2.8772 Debye
        Dipole field         -0.0021 Ry au, 
 
        Potential amp.        0.1980 Ry
        Total length         46.3494 bohr
 

     total cpu time spent up to now is      446.0 secs

     total energy              =   -2939.32648723 Ry
     estimated scf accuracy    <       2.55756810 Ry

     iteration # 27     ecut=    29.40 Ry     beta= 0.05
     Davidson diagonalization with overlap
     ethr =  6.47E-04,  avg # of iterations =  3.9

     negative rho (up, down):  1.657E-02 0.000E+00
 
     Adding external electric field

     Computed dipole along edir(3) : 
        Dipole               -0.5403 Ry au,         -1.3734 Debye
        Dipole field         -0.0010 Ry au, 
 
        Potential amp.        0.0945 Ry
        Total length         46.3494 bohr
 

     total cpu time spent up to now is      456.6 secs

     total energy              =   -2939.14137181 Ry
     estimated scf accuracy    <       2.37064004 Ry

     iteration # 28     ecut=    29.40 Ry     beta= 0.05
     Davidson diagonalization with overlap
     ethr =  6.00E-04,  avg # of iterations =  4.2

     negative rho (up, down):  9.594E-03 0.000E+00
 
     Adding external electric field

     Computed dipole along edir(3) : 
        Dipole               -0.4733 Ry au,         -1.2031 Debye
        Dipole field         -0.0009 Ry au, 
 
        Potential amp.        0.0828 Ry
        Total length         46.3494 bohr
 

     total cpu time spent up to now is      467.7 secs

     total energy              =   -2939.13337073 Ry
     estimated scf accuracy    <       1.04298468 Ry

     iteration # 29     ecut=    29.40 Ry     beta= 0.05
     Davidson diagonalization with overlap
     ethr =  2.64E-04,  avg # of iterations = 11.5

     negative rho (up, down):  1.071E-02 0.000E+00
 
     Adding external electric field

     Computed dipole along edir(3) : 
        Dipole               -0.4925 Ry au,         -1.2518 Debye
        Dipole field         -0.0009 Ry au, 
 
        Potential amp.        0.0862 Ry
        Total length         46.3494 bohr
 

     total cpu time spent up to now is      481.8 secs

     total energy              =   -2939.17053292 Ry
     estimated scf accuracy    <       0.48419569 Ry

     iteration # 30     ecut=    29.40 Ry     beta= 0.05
     Davidson diagonalization with overlap
     c_bands:  5 eigenvalues not converged
     c_bands:  4 eigenvalues not converged
     c_bands:  1 eigenvalues not converged
     ethr =  1.23E-04,  avg # of iterations = 13.3

     negative rho (up, down):  1.132E-02 0.000E+00
 
     Adding external electric field

     Computed dipole along edir(3) : 
        Dipole               -0.2332 Ry au,         -0.5927 Debye
        Dipole field         -0.0004 Ry au, 
 
        Potential amp.        0.0408 Ry
        Total length         46.3494 bohr
 

     total cpu time spent up to now is      496.2 secs

     total energy              =   -2939.15191455 Ry
     estimated scf accuracy    <       0.33957618 Ry

     iteration # 31     ecut=    29.40 Ry     beta= 0.05
     Davidson diagonalization with overlap
     c_bands:  1 eigenvalues not converged
     c_bands:  1 eigenvalues not converged
     c_bands:  2 eigenvalues not converged
     c_bands:  2 eigenvalues not converged
     ethr =  8.60E-05,  avg # of iterations = 17.6

     negative rho (up, down):  9.762E-03 0.000E+00
 
     Adding external electric field

     Computed dipole along edir(3) : 
        Dipole                0.7234 Ry au,          1.8388 Debye
        Dipole field          0.0014 Ry au, 
 
        Potential amp.       -0.1266 Ry
        Total length         46.3494 bohr
 

     total cpu time spent up to now is      512.3 secs

     total energy              =   -2939.13998951 Ry
     estimated scf accuracy    <       0.23187053 Ry

     iteration # 32     ecut=    29.40 Ry     beta= 0.05
     Davidson diagonalization with overlap
     c_bands:  4 eigenvalues not converged
     c_bands:  1 eigenvalues not converged
     c_bands:  2 eigenvalues not converged
     c_bands:  2 eigenvalues not converged
     c_bands:  2 eigenvalues not converged
     ethr =  5.87E-05,  avg # of iterations = 19.4

     negative rho (up, down):  1.141E-02 0.000E+00
 
     Adding external electric field

     Computed dipole along edir(3) : 
        Dipole                0.8439 Ry au,          2.1451 Debye
        Dipole field          0.0016 Ry au, 
 
        Potential amp.       -0.1476 Ry
        Total length         46.3494 bohr
 

     total cpu time spent up to now is      533.2 secs

     total energy              =   -2939.18576092 Ry
     estimated scf accuracy    <       0.80922903 Ry

     iteration # 33     ecut=    29.40 Ry     beta= 0.05
     Davidson diagonalization with overlap
     ethr =  5.87E-05,  avg # of iterations =  1.6

     negative rho (up, down):  1.229E-02 0.000E+00
 
     Adding external electric field

     Computed dipole along edir(3) : 
        Dipole                0.6799 Ry au,          1.7280 Debye
        Dipole field          0.0013 Ry au, 
 
        Potential amp.       -0.1189 Ry
        Total length         46.3494 bohr
 

     total cpu time spent up to now is      543.4 secs

     total energy              =   -2939.14959492 Ry
     estimated scf accuracy    <       0.84345971 Ry

     iteration # 34     ecut=    29.40 Ry     beta= 0.05
     Davidson diagonalization with overlap
     ethr =  5.87E-05,  avg # of iterations =  8.8

     negative rho (up, down):  1.239E-02 0.000E+00
 
     Adding external electric field

     Computed dipole along edir(3) : 
        Dipole                0.6114 Ry au,          1.5541 Debye
        Dipole field          0.0012 Ry au, 
 
        Potential amp.       -0.1070 Ry
        Total length         46.3494 bohr
 

     total cpu time spent up to now is      556.1 secs

     total energy              =   -2939.11785054 Ry
     estimated scf accuracy    <       0.43714712 Ry

     iteration # 35     ecut=    29.40 Ry     beta= 0.05
     Davidson diagonalization with overlap
     c_bands:  2 eigenvalues not converged
     c_bands:  1 eigenvalues not converged
     c_bands:  1 eigenvalues not converged
     c_bands:  1 eigenvalues not converged
     c_bands:  1 eigenvalues not converged
     c_bands:  2 eigenvalues not converged
     c_bands:  4 eigenvalues not converged
     ethr =  5.87E-05,  avg # of iterations = 19.6

     negative rho (up, down):  1.197E-02 0.000E+00
 
     Adding external electric field

     Computed dipole along edir(3) : 
        Dipole                0.6282 Ry au,          1.5967 Debye
        Dipole field          0.0012 Ry au, 
 
        Potential amp.       -0.1099 Ry
        Total length         46.3494 bohr
 

     total cpu time spent up to now is      576.6 secs

     total energy              =   -2939.16506156 Ry
     estimated scf accuracy    <       0.25266328 Ry

     iteration # 36     ecut=    29.40 Ry     beta= 0.05
     Davidson diagonalization with overlap
     ethr =  5.87E-05,  avg # of iterations =  2.6

     negative rho (up, down):  1.048E-02 0.000E+00
 
     Adding external electric field

     Computed dipole along edir(3) : 
        Dipole                0.7021 Ry au,          1.7845 Debye
        Dipole field          0.0013 Ry au, 
 
        Potential amp.       -0.1228 Ry
        Total length         46.3494 bohr
 

     total cpu time spent up to now is      587.0 secs

     total energy              =   -2939.14335504 Ry
     estimated scf accuracy    <       0.23958762 Ry

     iteration # 37     ecut=    29.40 Ry     beta= 0.05
     Davidson diagonalization with overlap
     ethr =  5.87E-05,  avg # of iterations =  5.3

     negative rho (up, down):  9.347E-03 0.000E+00
 
     Adding external electric field

     Computed dipole along edir(3) : 
        Dipole                0.8049 Ry au,          2.0458 Debye
        Dipole field          0.0015 Ry au, 
 
        Potential amp.       -0.1408 Ry
        Total length         46.3494 bohr
 

     total cpu time spent up to now is      598.5 secs

     total energy              =   -2939.14816243 Ry
     estimated scf accuracy    <       0.08797059 Ry

     iteration # 38     ecut=    29.40 Ry     beta= 0.05
     Davidson diagonalization with overlap
     c_bands:  1 eigenvalues not converged
     ethr =  2.23E-05,  avg # of iterations = 12.9

     negative rho (up, down):  1.049E-02 0.000E+00
 
     Adding external electric field

     Computed dipole along edir(3) : 
        Dipole                0.9643 Ry au,          2.4510 Debye
        Dipole field          0.0018 Ry au, 
 
        Potential amp.       -0.1687 Ry
        Total length         46.3494 bohr
 

     total cpu time spent up to now is      613.0 secs

     total energy              =   -2939.15420571 Ry
     estimated scf accuracy    <       0.04852720 Ry

     iteration # 39     ecut=    29.40 Ry     beta= 0.05
     Davidson diagonalization with overlap
     ethr =  1.23E-05,  avg # of iterations =  3.1

     negative rho (up, down):  1.096E-02 0.000E+00
 
     Adding external electric field

     Computed dipole along edir(3) : 
        Dipole                1.0090 Ry au,          2.5646 Debye
        Dipole field          0.0019 Ry au, 
 
        Potential amp.       -0.1765 Ry
        Total length         46.3494 bohr
 

     total cpu time spent up to now is      624.0 secs

     total energy              =   -2939.15409760 Ry
     estimated scf accuracy    <       0.02860752 Ry

     iteration # 40     ecut=    29.40 Ry     beta= 0.05
     Davidson diagonalization with overlap
     c_bands:  1 eigenvalues not converged
     c_bands:  1 eigenvalues not converged
     ethr =  7.24E-06,  avg # of iterations = 15.1

     negative rho (up, down):  1.091E-02 0.000E+00
 
     Adding external electric field

     Computed dipole along edir(3) : 
        Dipole                1.0322 Ry au,          2.6236 Debye
        Dipole field          0.0019 Ry au, 
 
        Potential amp.       -0.1806 Ry
        Total length         46.3494 bohr
 

     total cpu time spent up to now is      638.9 secs

     total energy              =   -2939.15383432 Ry
     estimated scf accuracy    <       0.01492032 Ry

     iteration # 41     ecut=    29.40 Ry     beta= 0.05
     Davidson diagonalization with overlap
     c_bands:  1 eigenvalues not converged
     ethr =  3.78E-06,  avg # of iterations = 10.7

     negative rho (up, down):  1.207E-02 0.000E+00
 
     Adding external electric field

     Computed dipole along edir(3) : 
        Dipole                1.0902 Ry au,          2.7710 Debye
        Dipole field          0.0021 Ry au, 
 
        Potential amp.       -0.1907 Ry
        Total length         46.3494 bohr
 

     total cpu time spent up to now is      652.2 secs

     total energy              =   -2939.15452405 Ry
     estimated scf accuracy    <       0.00656024 Ry

     iteration # 42     ecut=    29.40 Ry     beta= 0.05
     Davidson diagonalization with overlap
     c_bands:  1 eigenvalues not converged
     c_bands:  1 eigenvalues not converged
     ethr =  1.66E-06,  avg # of iterations = 15.6

     negative rho (up, down):  1.380E-02 0.000E+00
 
     Adding external electric field

     Computed dipole along edir(3) : 
        Dipole                1.1177 Ry au,          2.8409 Debye
        Dipole field          0.0021 Ry au, 
 
        Potential amp.       -0.1955 Ry
        Total length         46.3494 bohr
 

     total cpu time spent up to now is      670.0 secs

     total energy              =   -2939.15545748 Ry
     estimated scf accuracy    <       0.00393156 Ry

     iteration # 43     ecut=    29.40 Ry     beta= 0.05
     Davidson diagonalization with overlap
     ethr =  9.95E-07,  avg # of iterations =  3.9

     negative rho (up, down):  1.439E-02 0.000E+00
 
     Adding external electric field

     Computed dipole along edir(3) : 
        Dipole                1.0733 Ry au,          2.7281 Debye
        Dipole field          0.0020 Ry au, 
 
        Potential amp.       -0.1878 Ry
        Total length         46.3494 bohr
 

     total cpu time spent up to now is      681.4 secs

     total energy              =   -2939.15533588 Ry
     estimated scf accuracy    <       0.00221908 Ry

     iteration # 44     ecut=    29.40 Ry     beta= 0.05
     Davidson diagonalization with overlap
     c_bands:  1 eigenvalues not converged
     c_bands:  2 eigenvalues not converged
     c_bands:  3 eigenvalues not converged
     c_bands:  1 eigenvalues not converged
     c_bands:  3 eigenvalues not converged
     c_bands:  2 eigenvalues not converged
     c_bands:  2 eigenvalues not converged
     ethr =  5.62E-07,  avg # of iterations = 18.4

     negative rho (up, down):  1.405E-02 0.000E+00
 
     Adding external electric field

     Computed dipole along edir(3) : 
        Dipole                1.0632 Ry au,          2.7023 Debye
        Dipole field          0.0020 Ry au, 
 
        Potential amp.       -0.1860 Ry
        Total length         46.3494 bohr
 

     total cpu time spent up to now is      703.9 secs

     total energy              =   -2939.15587056 Ry
     estimated scf accuracy    <       0.00745931 Ry

     iteration # 45     ecut=    29.40 Ry     beta= 0.05
     Davidson diagonalization with overlap
     c_bands:  1 eigenvalues not converged
     c_bands:  2 eigenvalues not converged
     ethr =  5.62E-07,  avg # of iterations =  8.4

     negative rho (up, down):  1.401E-02 0.000E+00
 
     Adding external electric field

     Computed dipole along edir(3) : 
        Dipole                1.0623 Ry au,          2.7000 Debye
        Dipole field          0.0020 Ry au, 
 
        Potential amp.       -0.1858 Ry
        Total length         46.3494 bohr
 

     total cpu time spent up to now is      716.6 secs

     total energy              =   -2939.15596577 Ry
     estimated scf accuracy    <       0.00473053 Ry

     iteration # 46     ecut=    29.40 Ry     beta= 0.05
     Davidson diagonalization with overlap
     c_bands:  1 eigenvalues not converged
     ethr =  5.62E-07,  avg # of iterations =  3.8

     negative rho (up, down):  1.417E-02 0.000E+00
 
     Adding external electric field

     Computed dipole along edir(3) : 
        Dipole                1.0686 Ry au,          2.7162 Debye
        Dipole field          0.0020 Ry au, 
 
        Potential amp.       -0.1869 Ry
        Total length         46.3494 bohr
 

     total cpu time spent up to now is      727.2 secs

     total energy              =   -2939.15561991 Ry
     estimated scf accuracy    <       0.00449918 Ry

     iteration # 47     ecut=    29.40 Ry     beta= 0.05
     Davidson diagonalization with overlap
     ethr =  5.62E-07,  avg # of iterations = 10.5

     negative rho (up, down):  1.488E-02 0.000E+00
 
     Adding external electric field

     Computed dipole along edir(3) : 
        Dipole                1.1016 Ry au,          2.8000 Debye
        Dipole field          0.0021 Ry au, 
 
        Potential amp.       -0.1927 Ry
        Total length         46.3494 bohr
 

     total cpu time spent up to now is      740.9 secs

     total energy              =   -2939.15539979 Ry
     estimated scf accuracy    <       0.00244400 Ry

     iteration # 48     ecut=    29.40 Ry     beta= 0.05
     Davidson diagonalization with overlap
     ethr =  5.62E-07,  avg # of iterations =  7.4

     negative rho (up, down):  1.537E-02 0.000E+00
 
     Adding external electric field

     Computed dipole along edir(3) : 
        Dipole                1.1152 Ry au,          2.8345 Debye
        Dipole field          0.0021 Ry au, 
 
        Potential amp.       -0.1951 Ry
        Total length         46.3494 bohr
 

     total cpu time spent up to now is      754.5 secs

     total energy              =   -2939.15535469 Ry
     estimated scf accuracy    <       0.00161160 Ry

     iteration # 49     ecut=    29.40 Ry     beta= 0.05
     Davidson diagonalization with overlap
     ethr =  4.08E-07,  avg # of iterations = 12.1

     negative rho (up, down):  1.526E-02 0.000E+00
 
     Adding external electric field

     Computed dipole along edir(3) : 
        Dipole                1.0934 Ry au,          2.7792 Debye
        Dipole field          0.0021 Ry au, 
 
        Potential amp.       -0.1913 Ry
        Total length         46.3494 bohr
 

     total cpu time spent up to now is      772.9 secs

     total energy              =   -2939.15555780 Ry
     estimated scf accuracy    <       0.00121372 Ry

     iteration # 50     ecut=    29.40 Ry     beta= 0.05
     Davidson diagonalization with overlap
     ethr =  3.07E-07,  avg # of iterations = 10.4

     negative rho (up, down):  1.571E-02 0.000E+00
 
     Adding external electric field

     Computed dipole along edir(3) : 
        Dipole                1.1023 Ry au,          2.8018 Debye
        Dipole field          0.0021 Ry au, 
 
        Potential amp.       -0.1928 Ry
        Total length         46.3494 bohr
 

     total cpu time spent up to now is      787.6 secs

     total energy              =   -2939.15572955 Ry
     estimated scf accuracy    <       0.00040741 Ry

     iteration # 51     ecut=    29.40 Ry     beta= 0.05
     Davidson diagonalization with overlap
     ethr =  1.03E-07,  avg # of iterations =  5.3

     negative rho (up, down):  1.604E-02 0.000E+00
 
     Adding external electric field

     Computed dipole along edir(3) : 
        Dipole                1.1168 Ry au,          2.8386 Debye
        Dipole field          0.0021 Ry au, 
 
        Potential amp.       -0.1954 Ry
        Total length         46.3494 bohr
 

     total cpu time spent up to now is      799.2 secs

     total energy              =   -2939.15573931 Ry
     estimated scf accuracy    <       0.00027821 Ry

     iteration # 52     ecut=    29.40 Ry     beta= 0.05
     Davidson diagonalization with overlap
     ethr =  7.04E-08,  avg # of iterations =  9.4

     negative rho (up, down):  1.601E-02 0.000E+00
 
     Adding external electric field

     Computed dipole along edir(3) : 
        Dipole                1.1199 Ry au,          2.8464 Debye
        Dipole field          0.0021 Ry au, 
 
        Potential amp.       -0.1959 Ry
        Total length         46.3494 bohr
 

     total cpu time spent up to now is      813.6 secs

     total energy              =   -2939.15575729 Ry
     estimated scf accuracy    <       0.00019856 Ry

     iteration # 53     ecut=    29.40 Ry     beta= 0.05
     Davidson diagonalization with overlap
     ethr =  5.03E-08,  avg # of iterations =  7.2

     negative rho (up, down):  1.601E-02 0.000E+00
 
     Adding external electric field

     Computed dipole along edir(3) : 
        Dipole                1.1242 Ry au,          2.8575 Debye
        Dipole field          0.0021 Ry au, 
 
        Potential amp.       -0.1967 Ry
        Total length         46.3494 bohr
 

     total cpu time spent up to now is      826.1 secs

     total energy              =   -2939.15577690 Ry
     estimated scf accuracy    <       0.00009735 Ry

     iteration # 54     ecut=    29.40 Ry     beta= 0.05
     Davidson diagonalization with overlap
     ethr =  2.46E-08,  avg # of iterations = 10.0

     negative rho (up, down):  1.625E-02 0.000E+00
 
     Adding external electric field

     Computed dipole along edir(3) : 
        Dipole                1.1267 Ry au,          2.8637 Debye
        Dipole field          0.0021 Ry au, 
 
        Potential amp.       -0.1971 Ry
        Total length         46.3494 bohr
 

     total cpu time spent up to now is      840.4 secs

     total energy              =   -2939.15579241 Ry
     estimated scf accuracy    <       0.00007838 Ry

     iteration # 55     ecut=    29.40 Ry     beta= 0.05
     Davidson diagonalization with overlap
     ethr =  1.98E-08,  avg # of iterations =  8.9

     negative rho (up, down):  1.618E-02 0.000E+00
 
     Adding external electric field

     Computed dipole along edir(3) : 
        Dipole                1.1220 Ry au,          2.8519 Debye
        Dipole field          0.0021 Ry au, 
 
        Potential amp.       -0.1963 Ry
        Total length         46.3494 bohr
 

     total cpu time spent up to now is      855.1 secs

     total energy              =   -2939.15579835 Ry
     estimated scf accuracy    <       0.00008007 Ry

     iteration # 56     ecut=    29.40 Ry     beta= 0.05
     Davidson diagonalization with overlap
     ethr =  1.98E-08,  avg # of iterations =  5.7

     negative rho (up, down):  1.603E-02 0.000E+00
 
     Adding external electric field

     Computed dipole along edir(3) : 
        Dipole                1.1203 Ry au,          2.8476 Debye
        Dipole field          0.0021 Ry au, 
 
        Potential amp.       -0.1960 Ry
        Total length         46.3494 bohr
 

     total cpu time spent up to now is      867.1 secs

     total energy              =   -2939.15580928 Ry
     estimated scf accuracy    <       0.00002420 Ry

     iteration # 57     ecut=    29.40 Ry     beta= 0.05
     Davidson diagonalization with overlap
     ethr =  6.13E-09,  avg # of iterations = 11.2

     negative rho (up, down):  1.577E-02 0.000E+00
 
     Adding external electric field

     Computed dipole along edir(3) : 
        Dipole                1.1196 Ry au,          2.8459 Debye
        Dipole field          0.0021 Ry au, 
 
        Potential amp.       -0.1959 Ry
        Total length         46.3494 bohr
 

     total cpu time spent up to now is      880.8 secs

     total energy              =   -2939.15581475 Ry
     estimated scf accuracy    <       0.00001275 Ry

     iteration # 58     ecut=    29.40 Ry     beta= 0.05
     Davidson diagonalization with overlap
     ethr =  3.23E-09,  avg # of iterations = 10.6

     negative rho (up, down):  1.584E-02 0.000E+00
 
     Adding external electric field

     Computed dipole along edir(3) : 
        Dipole                1.1195 Ry au,          2.8455 Debye
        Dipole field          0.0021 Ry au, 
 
        Potential amp.       -0.1958 Ry
        Total length         46.3494 bohr
 

     total cpu time spent up to now is      898.0 secs

     total energy              =   -2939.15582171 Ry
     estimated scf accuracy    <       0.00001188 Ry

     iteration # 59     ecut=    29.40 Ry     beta= 0.05
     Davidson diagonalization with overlap
     ethr =  3.01E-09,  avg # of iterations =  9.3

     negative rho (up, down):  1.578E-02 0.000E+00
 
     Adding external electric field

     Computed dipole along edir(3) : 
        Dipole                1.1198 Ry au,          2.8461 Debye
        Dipole field          0.0021 Ry au, 
 
        Potential amp.       -0.1959 Ry
        Total length         46.3494 bohr
 

     total cpu time spent up to now is      912.5 secs

     total energy              =   -2939.15582850 Ry
     estimated scf accuracy    <       0.00000480 Ry

     iteration # 60     ecut=    29.40 Ry     beta= 0.05
     Davidson diagonalization with overlap
     ethr =  1.22E-09,  avg # of iterations =  4.6

     negative rho (up, down):  1.565E-02 0.000E+00
 
     Adding external electric field

     Computed dipole along edir(3) : 
        Dipole                1.1195 Ry au,          2.8454 Debye
        Dipole field          0.0021 Ry au, 
 
        Potential amp.       -0.1958 Ry
        Total length         46.3494 bohr
 

     total cpu time spent up to now is      923.9 secs

     total energy              =   -2939.15583307 Ry
     estimated scf accuracy    <       0.00000281 Ry

     iteration # 61     ecut=    29.40 Ry     beta= 0.05
     Davidson diagonalization with overlap
     ethr =  7.12E-10,  avg # of iterations = 11.1

     negative rho (up, down):  1.568E-02 0.000E+00
 
     Adding external electric field

     Computed dipole along edir(3) : 
        Dipole                1.1192 Ry au,          2.8448 Debye
        Dipole field          0.0021 Ry au, 
 
        Potential amp.       -0.1958 Ry
        Total length         46.3494 bohr
 

     total cpu time spent up to now is      942.6 secs

     total energy              =   -2939.15583840 Ry
     estimated scf accuracy    <       0.00000495 Ry

     iteration # 62     ecut=    29.40 Ry     beta= 0.05
     Davidson diagonalization with overlap
     ethr =  7.12E-10,  avg # of iterations =  3.2

     negative rho (up, down):  1.565E-02 0.000E+00
 
     Adding external electric field

     Computed dipole along edir(3) : 
        Dipole                1.1185 Ry au,          2.8430 Debye
        Dipole field          0.0021 Ry au, 
 
        Potential amp.       -0.1957 Ry
        Total length         46.3494 bohr
 

     total cpu time spent up to now is      953.5 secs

     total energy              =   -2939.15584193 Ry
     estimated scf accuracy    <       0.00000288 Ry

     iteration # 63     ecut=    29.40 Ry     beta= 0.05
     Davidson diagonalization with overlap
     ethr =  7.12E-10,  avg # of iterations =  8.9

     negative rho (up, down):  1.564E-02 0.000E+00
 
     Adding external electric field

     Computed dipole along edir(3) : 
        Dipole                1.1188 Ry au,          2.8436 Debye
        Dipole field          0.0021 Ry au, 
 
        Potential amp.       -0.1957 Ry
        Total length         46.3494 bohr
 

     total cpu time spent up to now is      969.2 secs

     total energy              =   -2939.15584617 Ry
     estimated scf accuracy    <       0.00000128 Ry

     iteration # 64     ecut=    29.40 Ry     beta= 0.05
     Davidson diagonalization with overlap
     ethr =  3.24E-10,  avg # of iterations =  5.1

     negative rho (up, down):  1.563E-02 0.000E+00
 
     Adding external electric field

     Computed dipole along edir(3) : 
        Dipole                1.1187 Ry au,          2.8434 Debye
        Dipole field          0.0021 Ry au, 
 
        Potential amp.       -0.1957 Ry
        Total length         46.3494 bohr
 

     total cpu time spent up to now is      981.0 secs

     total energy              =   -2939.15584953 Ry
     estimated scf accuracy    <       0.00000034 Ry

     iteration # 65     ecut=    29.40 Ry     beta= 0.05
     Davidson diagonalization with overlap
     ethr =  8.52E-11,  avg # of iterations = 12.5

     negative rho (up, down):  1.563E-02 0.000E+00
 
     Adding external electric field

     Computed dipole along edir(3) : 
        Dipole                1.1189 Ry au,          2.8440 Debye
        Dipole field          0.0021 Ry au, 
 
        Potential amp.       -0.1957 Ry
        Total length         46.3494 bohr
 

     total cpu time spent up to now is      995.6 secs

     total energy              =   -2939.15585259 Ry
     estimated scf accuracy    <       0.00000021 Ry

     iteration # 66     ecut=    29.40 Ry     beta= 0.05
     Davidson diagonalization with overlap
     ethr =  5.41E-11,  avg # of iterations =  6.4

     negative rho (up, down):  1.562E-02 0.000E+00
 
     Adding external electric field

     Computed dipole along edir(3) : 
        Dipole                1.1189 Ry au,          2.8441 Debye
        Dipole field          0.0021 Ry au, 
 
        Potential amp.       -0.1957 Ry
        Total length         46.3494 bohr
 

     total cpu time spent up to now is     1008.0 secs

     total energy              =   -2939.15585535 Ry
     estimated scf accuracy    <       0.00000011 Ry

     iteration # 67     ecut=    29.40 Ry     beta= 0.05
     Davidson diagonalization with overlap
     ethr =  2.67E-11,  avg # of iterations =  7.8

     negative rho (up, down):  1.569E-02 0.000E+00
 
     Adding external electric field

     Computed dipole along edir(3) : 
        Dipole                1.1189 Ry au,          2.8439 Debye
        Dipole field          0.0021 Ry au, 
 
        Potential amp.       -0.1957 Ry
        Total length         46.3494 bohr
 

     total cpu time spent up to now is     1020.9 secs

     End of self-consistent calculation

          k = 0.0000 0.0000 0.0000 ( 18029 PWs)   bands (ev):

   -55.5879 -55.5845 -55.5539 -55.5485 -55.4559 -55.4362 -55.4196 -55.4016
   -55.4010 -55.3676 -55.3627 -55.3290 -54.9571 -54.8693 -54.5661 -54.5320
   -32.1392 -32.0708 -31.9567 -31.9000 -31.8970 -31.8888 -31.8806 -31.8539
   -31.8316 -31.8119 -31.7797 -31.7701 -31.7637 -31.7401 -31.7374 -31.7244
   -31.6927 -31.6821 -31.6722 -31.6594 -31.6563 -31.6450 -31.6105 -31.6041
   -31.5942 -31.5905 -31.5863 -31.5775 -31.5672 -31.5647 -31.5402 -31.5304
   -31.5165 -31.5112 -31.5030 -31.4756 -31.4641 -31.1963 -31.1885 -31.1498
   -31.1020 -31.0483 -30.9731 -30.8849 -30.8625 -30.7900 -30.7035 -30.5923
   -18.9338 -16.3429 -16.0662 -15.8184 -15.7382 -15.7218 -15.6058 -15.4335
   -15.3171 -15.2657 -15.1629 -15.1618 -15.1251 -15.0910 -15.0427 -15.0397
   -15.0349 -15.0077 -14.9987 -14.9782 -14.9484 -14.9302 -14.8908 -14.7917
   -14.7734 -14.7235 -14.6948 -14.6683 -14.6485 -14.2643 -13.0682 -12.9517
   -12.6997  -8.8741  -6.3260  -4.8581  -3.7183  -3.6472  -3.5606  -3.4955
    -3.4604  -3.4287  -3.2334  -3.1928  -3.1433  -2.8369  -2.7762  -2.7578
    -2.7477  -2.7181  -2.4935  -2.4546  -2.4033  -2.3727  -2.3610  -2.3586
    -2.3570  -2.3271  -2.3088  -2.1677  -2.1331  -2.0427  -2.0035  -1.9969
    -1.9880  -1.9009  -1.8690  -1.8424  -1.8324  -1.8225  -1.7947  -1.7852
    -1.7769  -1.6428  -1.5640  -1.4121  -1.3917  -1.3513  -1.2199  -1.1962
    -1.0643  -1.0473  -1.0182  -0.9813  -0.9613  -0.8927  -0.7723  -0.7509
    -0.7153  -0.7000  -0.6096  -0.5714  -0.5037  -0.4690  -0.4452  -0.3973
    -0.3588  -0.3497  -0.3277  -0.2012  -0.0716  -0.0140  -0.0048   0.0225
     0.0909   0.1286   0.1890   0.2392   0.2490   0.2854   0.3370   0.3815
     0.3935   0.3958   0.4111   0.4493   0.5904   0.6069   0.6721   0.7175
     0.7609   0.8760   0.9279   1.0638   1.1558   1.3143   1.3836   1.4564
     1.5288   1.6486   2.0270   2.0459   2.0729   3.5424   3.6309   3.6751
     3.6805   3.7863   3.8818   3.9937   4.0134   4.0336   4.0893

          k = 0.0000 0.0419 0.0000 ( 17933 PWs)   bands (ev):

   -55.5829 -55.5792 -55.5588 -55.5537 -55.4511 -55.4312 -55.4243 -55.4058
   -55.3965 -55.3725 -55.3577 -55.3339 -54.9557 -54.8705 -54.5610 -54.5369
   -32.0817 -32.0169 -31.9017 -31.8764 -31.8759 -31.8699 -31.8413 -31.8136
   -31.8055 -31.8046 -31.7974 -31.7923 -31.7588 -31.7541 -31.7494 -31.7467
   -31.7263 -31.6689 -31.6589 -31.6589 -31.6541 -31.6497 -31.6243 -31.6175
   -31.6078 -31.6041 -31.5911 -31.5896 -31.5825 -31.5683 -31.5626 -31.5609
   -31.5395 -31.5364 -31.5318 -31.5194 -31.4255 -31.1954 -31.1874 -31.1707
   -31.1022 -31.0699 -30.9190 -30.8814 -30.8655 -30.7774 -30.7160 -30.6494
   -18.9319 -16.2065 -15.9459 -15.7105 -15.6283 -15.6191 -15.5701 -15.4623
   -15.3712 -15.3494 -15.1871 -15.1352 -15.1118 -15.1060 -15.1011 -15.0660
   -15.0552 -15.0460 -14.9896 -14.9793 -14.9519 -14.9332 -14.8739 -14.8293
   -14.8192 -14.7818 -14.7205 -14.7053 -14.7013 -14.3243 -13.0722 -12.9913
   -12.7029  -8.8742  -6.3237  -4.8388  -3.6532  -3.5265  -3.3972  -3.3798
    -3.3184  -3.2898  -3.1155  -3.0437  -2.9135  -2.8222  -2.7686  -2.6704
    -2.6472  -2.6318  -2.5736  -2.5526  -2.5420  -2.4775  -2.4580  -2.4074
    -2.3493  -2.3461  -2.3135  -2.2803  -2.2585  -2.2491  -2.1740  -2.1045
    -2.0797  -2.0600  -2.0085  -1.9417  -1.8930  -1.8446  -1.8263  -1.7330
    -1.6274  -1.5338  -1.4858  -1.3510  -1.2799  -1.2499  -1.2384  -1.1727
    -1.0394  -0.9474  -0.9309  -0.8761  -0.8318  -0.8045  -0.7168  -0.6142
    -0.5832  -0.5457  -0.5368  -0.5182  -0.4903  -0.4606  -0.4368  -0.4075
    -0.3579  -0.3012  -0.2227  -0.1969  -0.1676  -0.1125  -0.0916  -0.0678
    -0.0461   0.0536   0.1459   0.1607   0.1659   0.1923   0.2294   0.2519
     0.2807   0.3607   0.4376   0.4662   0.5209   0.5402   0.6107   0.6771
     0.7326   0.7425   0.7698   0.8868   1.0719   1.0867   1.1396   1.4001
     1.6452   1.7301   1.9486   1.9815   1.9848   3.7379   3.7837   3.7892
     3.8689   3.9002   3.9455   4.0068   4.0403   4.0619   4.0987

          k = 0.0000-0.0839 0.0000 ( 17884 PWs)   bands (ev):

   -55.5711 -55.5705 -55.5668 -55.5661 -55.4432 -55.4321 -55.4218 -55.4151
   -55.3847 -55.3843 -55.3464 -55.3451 -54.9543 -54.8719 -54.5490 -54.5488
   -31.9420 -31.9403 -31.8849 -31.8843 -31.8663 -31.8655 -31.8386 -31.8383
   -31.7767 -31.7748 -31.7714 -31.7657 -31.7604 -31.7577 -31.7031 -31.6995
   -31.6986 -31.6944 -31.6928 -31.6924 -31.6684 -31.6655 -31.6380 -31.6368
   -31.6358 -31.6317 -31.6306 -31.6295 -31.6208 -31.6183 -31.5789 -31.5773
   -31.5614 -31.5593 -31.5278 -31.5272 -31.3672 -31.2332 -31.1946 -31.1638
   -31.1023 -31.0923 -30.8734 -30.8732 -30.7861 -30.7859 -30.7468 -30.7467
   -18.9301 -15.8638 -15.8547 -15.6631 -15.6608 -15.4979 -15.4813 -15.3804
   -15.3757 -15.3636 -15.3478 -15.3078 -15.2965 -15.1530 -15.1489 -14.9840
   -14.9809 -14.9715 -14.9529 -14.9385 -14.9246 -14.9227 -14.8883 -14.8852
   -14.8496 -14.8363 -14.8285 -14.8189 -14.6965 -14.4014 -13.0540 -13.0539
   -12.7061  -8.8744  -6.3211  -4.8208  -3.6600  -3.3418  -3.0675  -3.0602
    -2.9990  -2.9886  -2.9657  -2.9633  -2.8798  -2.8795  -2.7863  -2.7167
    -2.7130  -2.7065  -2.6994  -2.6769  -2.6440  -2.6156  -2.5426  -2.5394
    -2.4418  -2.4149  -2.3627  -2.3466  -2.2680  -2.2647  -2.1940  -2.1770
    -2.1601  -2.0683  -2.0320  -1.9546  -1.9456  -1.9203  -1.6728  -1.5728
    -1.4729  -1.4514  -1.3975  -1.2872  -1.2632  -1.2228  -1.1164  -1.0484
    -1.0201  -1.0037  -0.9748  -0.9548  -0.9229  -0.8332  -0.7960  -0.7602
    -0.7174  -0.6908  -0.6338  -0.4747  -0.4014  -0.2926  -0.2489  -0.2351
    -0.2149  -0.2094  -0.1858  -0.1675  -0.1072  -0.0827  -0.0500  -0.0357
    -0.0316   0.0198   0.0447   0.0918   0.1104   0.1228   0.1466   0.2019
     0.2091   0.2205   0.2660   0.2996   0.3238   0.3617   0.4945   0.6424
     0.6503   0.6572   0.6888   0.9224   1.0068   1.0601   1.1049   1.1374
     1.7889   1.7894   1.8404   1.9184   1.9186   3.8529   3.8745   3.8942
     3.9171   3.9799   3.9874   4.0728   4.0947   4.1334   4.1424

          k = 0.0380 0.0000 0.0000 ( 17913 PWs)   bands (ev):

   -55.5878 -55.5844 -55.5538 -55.5484 -55.4558 -55.4361 -55.4195 -55.4013
   -55.4009 -55.3675 -55.3627 -55.3289 -54.9571 -54.8692 -54.5660 -54.5319
   -32.1393 -32.0717 -31.9623 -31.9001 -31.8979 -31.8888 -31.8804 -31.8587
   -31.8316 -31.7954 -31.7790 -31.7700 -31.7636 -31.7372 -31.7308 -31.7239
   -31.6924 -31.6750 -31.6684 -31.6617 -31.6580 -31.6448 -31.6098 -31.6042
   -31.5933 -31.5870 -31.5835 -31.5780 -31.5671 -31.5646 -31.5612 -31.5303
   -31.5166 -31.5103 -31.5027 -31.4758 -31.4627 -31.1980 -31.1885 -31.1496
   -31.1019 -31.0481 -30.9727 -30.8883 -30.8605 -30.7898 -30.7034 -30.5921
   -18.9337 -16.2708 -15.9828 -15.7465 -15.7300 -15.6380 -15.6051 -15.4770
   -15.3147 -15.3091 -15.2800 -15.2628 -15.2122 -15.1570 -15.1493 -15.1383
   -15.0611 -14.9501 -14.8970 -14.8781 -14.8685 -14.8534 -14.8334 -14.8119
   -14.7805 -14.7720 -14.7288 -14.7144 -14.6702 -14.2611 -13.0649 -12.9514
   -12.6987  -8.8736  -6.3245  -4.8448  -3.6912  -3.6394  -3.3739  -3.3284
    -3.2890  -3.2167  -3.1352  -3.1316  -3.0683  -3.0600  -2.8383  -2.8346
    -2.7001  -2.6675  -2.6026  -2.5731  -2.4366  -2.3904  -2.3602  -2.3174
    -2.3027  -2.2405  -2.1953  -2.1645  -2.0826  -2.0700  -2.0106  -1.9813
    -1.9541  -1.9427  -1.8609  -1.8115  -1.7777  -1.7624  -1.6277  -1.6064
    -1.5634  -1.5258  -1.4607  -1.4473  -1.4092  -1.3484  -1.2408  -1.1928
    -1.1388  -1.1075  -1.0277  -1.0228  -1.0078  -0.9319  -0.8753  -0.8699
    -0.8555  -0.7488  -0.7104  -0.6239  -0.5171  -0.4827  -0.4324  -0.4082
    -0.3806  -0.3238  -0.3046  -0.1874  -0.0984  -0.0480  -0.0377  -0.0157
     0.0548   0.1034   0.1234   0.1519   0.2018   0.2329   0.2418   0.2589
     0.2851   0.2957   0.3440   0.4804   0.5154   0.5494   0.5918   0.6551
     0.7283   0.7498   0.7746   1.0399   1.1001   1.3163   1.3821   1.3994
     1.4682   1.6181   1.9135   1.9195   1.9901   3.5735   3.6031   3.8861
     3.9141   3.9232   3.9659   3.9921   4.0050   4.0338   4.0680

          k = 0.0380 0.0419 0.0000 ( 17878 PWs)   bands (ev):

   -55.5828 -55.5791 -55.5588 -55.5537 -55.4510 -55.4311 -55.4242 -55.4058
   -55.3963 -55.3725 -55.3578 -55.3339 -54.9557 -54.8705 -54.5609 -54.5369
   -32.0818 -32.0177 -31.9084 -31.8761 -31.8756 -31.8700 -31.8424 -31.8138
   -31.8084 -31.8036 -31.7941 -31.7852 -31.7587 -31.7537 -31.7495 -31.7372
   -31.7238 -31.6694 -31.6586 -31.6557 -31.6517 -31.6496 -31.6230 -31.6197
   -31.6079 -31.5929 -31.5910 -31.5888 -31.5831 -31.5683 -31.5634 -31.5611
   -31.5572 -31.5396 -31.5274 -31.5240 -31.4247 -31.1969 -31.1874 -31.1706
   -31.1026 -31.0697 -30.9187 -30.8841 -30.8645 -30.7772 -30.7161 -30.6493
   -18.9318 -16.1411 -15.8693 -15.6445 -15.6239 -15.5681 -15.5337 -15.4643
   -15.4071 -15.3503 -15.2455 -15.2149 -15.1853 -15.1807 -15.1433 -15.0847
   -15.0263 -15.0134 -14.9740 -14.9525 -14.9148 -14.9042 -14.8780 -14.8531
   -14.8290 -14.8210 -14.7757 -14.7467 -14.6853 -14.3212 -13.0700 -12.9915
   -12.7022  -8.8738  -6.3227  -4.8316  -3.6741  -3.4617  -3.3512  -3.1682
    -3.1272  -3.0436  -2.9806  -2.9249  -2.9074  -2.8910  -2.7445  -2.6913
    -2.6235  -2.5958  -2.5761  -2.4889  -2.4804  -2.4457  -2.4052  -2.3771
    -2.3350  -2.3170  -2.3048  -2.2759  -2.2434  -2.2201  -2.1742  -2.1311
    -2.0813  -2.0500  -1.9393  -1.9000  -1.8572  -1.7881  -1.7399  -1.6251
    -1.5911  -1.5528  -1.4904  -1.3471  -1.3185  -1.2851  -1.1789  -1.0940
    -1.0408  -1.0228  -1.0002  -0.9282  -0.9089  -0.8556  -0.8278  -0.7653
    -0.7305  -0.6689  -0.6334  -0.5809  -0.5343  -0.5208  -0.4592  -0.4248
    -0.3956  -0.3472  -0.3108  -0.2740  -0.2364  -0.2204  -0.1891  -0.1706
    -0.0952  -0.0524  -0.0279   0.0379   0.0928   0.1072   0.1367   0.1831
     0.2490   0.3329   0.3633   0.4965   0.5118   0.5826   0.6233   0.6736
     0.7215   0.7717   0.7933   0.8470   0.9987   1.0614   1.1811   1.3379
     1.6559   1.7341   1.9007   1.9040   1.9656   3.7263   3.7842   3.8627
     3.9242   3.9462   3.9916   4.0663   4.0983   4.1256   4.1380

          k = 0.0380-0.0839 0.0000 ( 17916 PWs)   bands (ev):

   -55.5711 -55.5705 -55.5668 -55.5661 -55.4433 -55.4321 -55.4218 -55.4152
   -55.3846 -55.3843 -55.3465 -55.3452 -54.9544 -54.8719 -54.5491 -54.5489
   -31.9423 -31.9406 -31.8857 -31.8850 -31.8663 -31.8655 -31.8387 -31.8384
   -31.7965 -31.7853 -31.7671 -31.7612 -31.7448 -31.7359 -31.7038 -31.7004
   -31.6993 -31.6954 -31.6917 -31.6913 -31.6796 -31.6769 -31.6456 -31.6387
   -31.6306 -31.6291 -31.6212 -31.6168 -31.6140 -31.6126 -31.5787 -31.5771
   -31.5616 -31.5594 -31.5396 -31.5389 -31.3670 -31.2331 -31.1959 -31.1639
   -31.1033 -31.0923 -30.8743 -30.8742 -30.7860 -30.7858 -30.7468 -30.7467
   -18.9301 -15.8220 -15.8119 -15.6133 -15.6113 -15.4709 -15.4585 -15.3840
   -15.3667 -15.3210 -15.2927 -15.2839 -15.2711 -15.1651 -15.1619 -15.0566
   -15.0379 -15.0056 -15.0029 -14.9750 -14.9561 -14.9478 -14.9205 -14.9016
   -14.8932 -14.8831 -14.8535 -14.8002 -14.6840 -14.3963 -13.0538 -13.0537
   -12.7058  -8.8743  -6.3208  -4.8200  -3.6611  -3.3369  -3.0596  -3.0495
    -2.8362  -2.8279  -2.7835  -2.7715  -2.7264  -2.7014  -2.6695  -2.6650
    -2.6201  -2.6025  -2.5762  -2.5525  -2.5473  -2.4854  -2.4330  -2.4280
    -2.4240  -2.4143  -2.3617  -2.3101  -2.2910  -2.2500  -2.2257  -2.2013
    -2.1391  -2.0965  -2.0479  -1.9930  -1.7104  -1.7002  -1.6930  -1.5340
    -1.4986  -1.4763  -1.4323  -1.4095  -1.3615  -1.3504  -1.3015  -1.2475
    -1.2278  -1.2079  -1.1363  -1.0576  -1.0218  -0.8887  -0.8351  -0.7475
    -0.7122  -0.6879  -0.6238  -0.6112  -0.5250  -0.4978  -0.4184  -0.3776
    -0.3590  -0.3482  -0.3220  -0.2936  -0.2630  -0.2195  -0.1922  -0.1675
    -0.1431  -0.1306  -0.1266  -0.0377  -0.0045   0.0167   0.1377   0.1761
     0.2448   0.2905   0.4171   0.4776   0.5054   0.5263   0.5543   0.5814
     0.6333   0.7494   0.7664   0.8983   0.9327   1.0602   1.1016   1.1531
     1.8021   1.8025   1.8723   1.9074   1.9081   3.8227   3.8583   3.9028
     3.9318   3.9663   3.9763   4.1243   4.1453   4.1701   4.1751

          k = 0.0380-0.0419 0.0000 ( 17876 PWs)   bands (ev):

   -55.5828 -55.5791 -55.5588 -55.5537 -55.4510 -55.4311 -55.4242 -55.4058
   -55.3963 -55.3725 -55.3578 -55.3339 -54.9557 -54.8705 -54.5609 -54.5369
   -32.0818 -32.0177 -31.9084 -31.8761 -31.8756 -31.8700 -31.8424 -31.8138
   -31.8084 -31.8038 -31.7941 -31.7853 -31.7586 -31.7537 -31.7495 -31.7373
   -31.7238 -31.6690 -31.6586 -31.6557 -31.6516 -31.6496 -31.6232 -31.6196
   -31.6080 -31.5929 -31.5909 -31.5888 -31.5831 -31.5683 -31.5632 -31.5611
   -31.5576 -31.5396 -31.5273 -31.5240 -31.4247 -31.1969 -31.1873 -31.1706
   -31.1025 -31.0697 -30.9186 -30.8841 -30.8645 -30.7772 -30.7161 -30.6493
   -18.9318 -16.1410 -15.8692 -15.6444 -15.6236 -15.5681 -15.5335 -15.4651
   -15.4069 -15.3508 -15.2459 -15.2149 -15.1859 -15.1807 -15.1455 -15.0847
   -15.0239 -15.0122 -14.9736 -14.9523 -14.9143 -14.9044 -14.8782 -14.8526
   -14.8292 -14.8215 -14.7756 -14.7474 -14.6852 -14.3214 -13.0700 -12.9915
   -12.7022  -8.8739  -6.3227  -4.8317  -3.6749  -3.4622  -3.3518  -3.1657
    -3.1278  -3.0430  -2.9798  -2.9289  -2.9034  -2.8914  -2.7447  -2.6908
    -2.6193  -2.5947  -2.5753  -2.4869  -2.4796  -2.4554  -2.4056  -2.3783
    -2.3366  -2.3194  -2.3063  -2.2753  -2.2453  -2.2230  -2.1697  -2.1318
    -2.0816  -2.0507  -1.9394  -1.9032  -1.8503  -1.7860  -1.7355  -1.6221
    -1.5876  -1.5570  -1.4900  -1.3414  -1.3069  -1.2862  -1.1805  -1.1080
    -1.0450  -1.0171  -0.9984  -0.9299  -0.9026  -0.8461  -0.8322  -0.7716
    -0.7238  -0.6754  -0.6399  -0.5876  -0.5268  -0.5151  -0.4728  -0.4230
    -0.3977  -0.3573  -0.3055  -0.2831  -0.2498  -0.2204  -0.1905  -0.1695
    -0.0908  -0.0499  -0.0363   0.0487   0.0960   0.1132   0.1270   0.1806
     0.2567   0.3427   0.3708   0.4718   0.5203   0.5967   0.6147   0.6787
     0.7241   0.7693   0.8022   0.8450   0.9996   1.0603   1.1805   1.3376
     1.6560   1.7343   1.9000   1.9038   1.9662   3.7235   3.7835   3.8594
     3.9140   3.9566   3.9847   4.0694   4.1055   4.1221   4.1314

          k =-0.0760-0.0000 0.0000 ( 17886 PWs)   bands (ev):

   -55.5878 -55.5843 -55.5538 -55.5484 -55.4558 -55.4360 -55.4195 -55.4011
   -55.4009 -55.3675 -55.3628 -55.3289 -54.9570 -54.8691 -54.5659 -54.5319
   -32.1395 -32.0726 -31.9676 -31.9003 -31.8988 -31.8888 -31.8802 -31.8632
   -31.8317 -31.7818 -31.7700 -31.7678 -31.7636 -31.7343 -31.7251 -31.7238
   -31.7000 -31.6924 -31.6649 -31.6579 -31.6452 -31.6176 -31.6096 -31.6066
   -31.6042 -31.5918 -31.5878 -31.5789 -31.5773 -31.5672 -31.5644 -31.5302
   -31.5174 -31.5096 -31.5027 -31.4764 -31.4616 -31.2002 -31.1884 -31.1496
   -31.1021 -31.0480 -30.9723 -30.8915 -30.8592 -30.7897 -30.7033 -30.5922
   -18.9335 -16.1766 -15.9040 -15.6915 -15.6864 -15.6043 -15.5487 -15.4495
   -15.3894 -15.3631 -15.3121 -15.2948 -15.2696 -15.2596 -15.2148 -15.1616
   -15.1326 -14.9524 -14.9379 -14.8997 -14.8771 -14.8360 -14.8216 -14.7839
   -14.7695 -14.7438 -14.7262 -14.6841 -14.6720 -14.2585 -13.0619 -12.9511
   -12.6978  -8.8733  -6.3232  -4.8325  -3.7186  -3.6183  -3.3444  -3.2539
    -3.1962  -3.1147  -2.9993  -2.9968  -2.8494  -2.8401  -2.8380  -2.8364
    -2.8176  -2.6414  -2.6150  -2.4456  -2.3907  -2.3756  -2.3356  -2.3265
    -2.2282  -2.1643  -2.1470  -2.0891  -2.0699  -2.0061  -1.9835  -1.9311
    -1.9112  -1.8725  -1.8280  -1.8179  -1.7799  -1.7649  -1.7308  -1.7204
    -1.6701  -1.5599  -1.4033  -1.3645  -1.3452  -1.2352  -1.1969  -1.1863
    -1.1723  -1.1534  -1.1403  -1.0529  -1.0212  -0.9759  -0.9589  -0.8975
    -0.8725  -0.8308  -0.7660  -0.7493  -0.7407  -0.6338  -0.5248  -0.4245
    -0.3760  -0.3029  -0.2677  -0.2413  -0.2344  -0.1677  -0.1134  -0.0622
    -0.0434   0.0113   0.0620   0.0911   0.1276   0.1508   0.2109   0.2238
     0.2615   0.3165   0.3760   0.4189   0.4415   0.4979   0.6037   0.6488
     0.6795   0.8567   0.8777   0.9881   1.1037   1.1147   1.3160   1.3974
     1.4894   1.5937   1.7867   1.8045   1.9346   3.5784   3.5813   3.7064
     3.8257   3.8817   3.9624   3.9922   4.0563   4.0785   4.0840

          k =-0.0760 0.0419 0.0000 ( 17914 PWs)   bands (ev):

   -55.5828 -55.5790 -55.5588 -55.5537 -55.4511 -55.4311 -55.4243 -55.4058
   -55.3962 -55.3725 -55.3579 -55.3339 -54.9557 -54.8705 -54.5610 -54.5369
   -32.0822 -32.0187 -31.9148 -31.8762 -31.8757 -31.8703 -31.8437 -31.8139
   -31.8130 -31.8032 -31.7950 -31.7677 -31.7588 -31.7537 -31.7497 -31.7279
   -31.7216 -31.6885 -31.6585 -31.6530 -31.6496 -31.6229 -31.6223 -31.6190
   -31.6081 -31.5965 -31.5910 -31.5875 -31.5825 -31.5807 -31.5681 -31.5616
   -31.5599 -31.5396 -31.5305 -31.5272 -31.4240 -31.1987 -31.1874 -31.1707
   -31.1032 -31.0698 -30.9184 -30.8869 -30.8638 -30.7772 -30.7161 -30.6494
   -18.9318 -16.0570 -15.7895 -15.6058 -15.5808 -15.5657 -15.4696 -15.4491
   -15.3508 -15.3455 -15.3254 -15.2478 -15.2394 -15.2374 -15.1842 -15.1411
   -15.1097 -15.0103 -14.9917 -14.9724 -14.9301 -14.9286 -14.8737 -14.8562
   -14.8322 -14.7962 -14.7746 -14.7566 -14.6817 -14.3190 -13.0679 -12.9919
   -12.7016  -8.8736  -6.3218  -4.8253  -3.6889  -3.4472  -3.3385  -3.0986
    -2.9379  -2.8991  -2.8165  -2.7153  -2.7046  -2.6795  -2.6442  -2.6355
    -2.6034  -2.5839  -2.5494  -2.5368  -2.4629  -2.4113  -2.3747  -2.3661
    -2.3383  -2.3030  -2.2782  -2.2657  -2.2028  -2.1681  -2.1005  -2.0796
    -2.0667  -1.9944  -1.9218  -1.8114  -1.7875  -1.7114  -1.7014  -1.6514
    -1.5876  -1.5482  -1.5159  -1.3746  -1.2703  -1.2093  -1.1997  -1.1488
    -1.1345  -1.0784  -1.0582  -1.0074  -0.9679  -0.9031  -0.8820  -0.8686
    -0.8142  -0.8070  -0.7631  -0.7464  -0.7124  -0.6548  -0.6288  -0.5906
    -0.5520  -0.5406  -0.4286  -0.3775  -0.3389  -0.3299  -0.2965  -0.2561
    -0.2148  -0.1795  -0.1169  -0.0387  -0.0133   0.0841   0.1155   0.2400
     0.2561   0.3362   0.4464   0.4671   0.5536   0.6500   0.6756   0.7380
     0.7778   0.8302   0.8603   0.9263   0.9671   0.9986   1.1731   1.2118
     1.6707   1.7370   1.8272   1.8614   1.9549   3.7098   3.7728   3.7818
     3.8694   3.8985   3.9088   4.0323   4.1145   4.1378   4.1896

          k =-0.0760-0.0839 0.0000 ( 17948 PWs)   bands (ev):

   -55.5711 -55.5705 -55.5668 -55.5661 -55.4433 -55.4321 -55.4218 -55.4152
   -55.3846 -55.3842 -55.3466 -55.3453 -54.9544 -54.8719 -54.5491 -54.5489
   -31.9426 -31.9409 -31.8864 -31.8858 -31.8663 -31.8656 -31.8388 -31.8385
   -31.8042 -31.7917 -31.7674 -31.7612 -31.7268 -31.7188 -31.7038 -31.7013
   -31.6993 -31.6963 -31.6905 -31.6901 -31.6868 -31.6841 -31.6566 -31.6489
   -31.6305 -31.6278 -31.6214 -31.6153 -31.5850 -31.5836 -31.5783 -31.5767
   -31.5621 -31.5616 -31.5612 -31.5594 -31.3668 -31.2329 -31.1971 -31.1639
   -31.1041 -31.0923 -30.8753 -30.8751 -30.7860 -30.7858 -30.7468 -30.7467
   -18.9300 -15.7730 -15.7583 -15.5321 -15.5167 -15.5056 -15.4967 -15.3493
   -15.3224 -15.2841 -15.2811 -15.2092 -15.1638 -15.1473 -15.1318 -15.1292
   -15.1108 -15.1025 -15.0541 -15.0470 -15.0460 -15.0281 -15.0215 -14.9071
   -14.9031 -14.8952 -14.8428 -14.7935 -14.6768 -14.3919 -13.0536 -13.0535
   -12.7054  -8.8742  -6.3204  -4.8193  -3.6616  -3.3342  -3.0607  -3.0494
    -2.7594  -2.7485  -2.7462  -2.7031  -2.5107  -2.5058  -2.4918  -2.4597
    -2.4262  -2.4150  -2.4051  -2.3908  -2.3853  -2.3367  -2.3147  -2.2696
    -2.2565  -2.2533  -2.2519  -2.2165  -2.2061  -2.1640  -2.1533  -2.1301
    -2.1180  -2.0859  -2.0551  -1.9082  -1.8221  -1.8031  -1.7292  -1.7224
    -1.6900  -1.6528  -1.6392  -1.5945  -1.5598  -1.4432  -1.3311  -1.2891
    -1.2746  -1.1745  -1.1381  -1.0999  -1.0473  -0.9732  -0.9651  -0.9360
    -0.8699  -0.7979  -0.7814  -0.7588  -0.6945  -0.6703  -0.5968  -0.5756
    -0.5506  -0.5457  -0.4892  -0.4233  -0.4077  -0.3560  -0.3479  -0.3069
    -0.2724  -0.2433  -0.2239  -0.0845  -0.0832  -0.0428   0.0919   0.1477
     0.3802   0.4297   0.4496   0.5212   0.6210   0.6694   0.6829   0.7247
     0.7340   0.7491   0.8093   0.9390   0.9446   1.0132   1.0541   1.1558
     1.8204   1.8208   1.8928   1.8928   1.9059   3.8384   3.8649   3.8777
     3.9015   4.0492   4.0591   4.0789   4.0797   4.1991   4.2202

     the Fermi energy is     3.5438 ev

!    total energy              =   -2939.15587997 Ry
     estimated scf accuracy    <       0.00000007 Ry
     smearing contrib. (-TS)   =      -0.02147254 Ry
     internal energy E=F+TS    =   -2939.13440743 Ry

     The total energy is F=E-TS. E is the sum of the following terms:
     one-electron contribution =  -24212.81058848 Ry
     hartree contribution      =   12196.24765483 Ry
     xc contribution           =    -485.25388779 Ry
     ewald contribution        =    9562.68005155 Ry
     electric field correction =       0.00236246 Ry

     convergence has been achieved in  67 iterations

     Forces acting on atoms (cartesian axes, Ry/au):

     atom    1 type  1   force =     0.00008525   -0.00018018    0.09642724
     atom    2 type  1   force =    -0.00018496   -0.00073031   -0.17540012
     atom    3 type  2   force =     0.00004650   -0.00013102   -0.02409447
     atom    4 type  2   force =     0.00007695   -0.00141155    0.05266900
     atom    5 type  2   force =    -0.01130223   -0.00007633    0.00339126
     atom    6 type  2   force =     0.01295439    0.00063788    0.00223633
     atom    7 type  1   force =    -0.00120425    0.00047305   -0.01224755
     atom    8 type  1   force =     0.00043053    0.00232788    0.02518600
     atom    9 type  2   force =    -0.00025180    0.00019009    0.00002324
     atom   10 type  2   force =    -0.00120556    0.00199137   -0.01303165
     atom   11 type  2   force =     0.00058849    0.00015690    0.00024481
     atom   12 type  2   force =    -0.00050166    0.00006238    0.00012189
     atom   13 type  1   force =    -0.00050861    0.00027775    0.00017360
     atom   14 type  1   force =     0.00061762   -0.00036691   -0.00027561
     atom   15 type  2   force =    -0.00006940    0.00030874    0.00004667
     atom   16 type  2   force =    -0.00002216    0.00018037    0.00056867
     atom   17 type  2   force =    -0.00055914   -0.00005038   -0.00007796
     atom   18 type  2   force =     0.00013639   -0.00009578   -0.00027951
     atom   19 type  1   force =     0.00014605    0.00076862    0.00051562
     atom   20 type  1   force =    -0.00004066    0.00026319   -0.00013553
     atom   21 type  2   force =     0.00010049   -0.00012660    0.10316191
     atom   22 type  2   force =    -0.00027372    0.00015191    0.00004800
     atom   23 type  2   force =    -0.07150679   -0.00020789   -0.02773952
     atom   24 type  2   force =     0.07150897    0.00025406   -0.02774661
     atom   25 type  1   force =     0.00012540   -0.00025912    0.09595024
     atom   26 type  1   force =    -0.00010854   -0.00044756   -0.17554958
     atom   27 type  2   force =     0.00009759   -0.00013126   -0.02333972
     atom   28 type  2   force =     0.00011148   -0.00121386    0.05263074
     atom   29 type  2   force =    -0.01155285   -0.00029716    0.00347534
     atom   30 type  2   force =     0.01313849    0.00016467    0.00227928
     atom   31 type  1   force =    -0.00120452    0.00345978   -0.01236770
     atom   32 type  1   force =     0.00053841   -0.00379390    0.02547215
     atom   33 type  2   force =     0.00002535   -0.00017503   -0.00003384
     atom   34 type  2   force =    -0.00098406    0.00046336   -0.02166709
     atom   35 type  2   force =     0.00015355    0.00000898    0.00018898
     atom   36 type  2   force =    -0.00014762    0.00002132    0.00007136
     atom   37 type  1   force =    -0.00045505   -0.00031662    0.00015437
     atom   38 type  1   force =     0.00044161    0.00028212   -0.00028364
     atom   39 type  2   force =    -0.00001573   -0.00044947    0.00031596
     atom   40 type  2   force =    -0.00012792   -0.00008717    0.00011726
     atom   41 type  2   force =    -0.00082840   -0.00016575   -0.00025864
     atom   42 type  2   force =     0.00087294    0.00000390   -0.00000815
     atom   43 type  1   force =     0.00000212   -0.00077293    0.00014770
     atom   44 type  1   force =    -0.00002829    0.00008583    0.00016256
     atom   45 type  2   force =     0.00010503   -0.00010678    0.10319339
     atom   46 type  2   force =    -0.07150212   -0.00015409   -0.02772650
     atom   47 type  2   force =     0.07151235    0.00029020   -0.02773267
     atom   48 type  3   force =     0.00215410   -0.00094733    0.00017978
     atom   49 type  3   force =    -0.00025916   -0.00007973    0.00009870
     atom   50 type  4   force =    -0.00275679    0.00046360   -0.00091498
     atom   51 type  5   force =     0.00078194   -0.00076160    0.00091446
     atom   52 type  5   force =     0.00110229   -0.00059720    0.00047370
     atom   53 type  5   force =    -0.00025225    0.00084555    0.00027082

     Total force =     0.366760     Total SCF correction =     0.000571
  @ DRIVER MODE: Message from server: STATUS
  @ DRIVER MODE: Message from server: GETFORCE
  @ DRIVER MODE: Returning v,forces,stress,ensemble 

     Writing output data file ./calc.save/
  @ DRIVER MODE: Message from server: EXIT
  @ DRIVE MODE: Exiting  
 
     init_run     :     10.98s CPU     11.35s WALL (       1 calls)
     electrons    :    992.83s CPU   1008.71s WALL (       1 calls)
     forces       :      2.35s CPU      2.44s WALL (       1 calls)

     Called by init_run:
     wfcinit      :      4.97s CPU      5.08s WALL (       1 calls)
     potinit      :      5.35s CPU      5.48s WALL (       1 calls)
     hinit0       :      0.32s CPU      0.34s WALL (       1 calls)

     Called by electrons:
     c_bands      :    835.41s CPU    841.95s WALL (      67 calls)
     sum_band     :    106.27s CPU    109.88s WALL (      67 calls)
     v_of_rho     :     38.53s CPU     40.70s WALL (      68 calls)
     newd         :     15.43s CPU     18.90s WALL (      68 calls)
     mix_rho      :      1.49s CPU      1.58s WALL (      67 calls)
     vdW_kernel   :      4.56s CPU      4.58s WALL (       1 calls)

     Called by c_bands:
     init_us_2    :      6.10s CPU      6.16s WALL (    1360 calls)
     cegterg      :    817.58s CPU    823.74s WALL (     681 calls)

     Called by *egterg:
     cdiaghg      :    128.05s CPU    128.97s WALL (    6201 calls)
     h_psi        :    446.31s CPU    450.37s WALL (    6211 calls)
     s_psi        :     58.31s CPU     58.51s WALL (    6211 calls)
     g_psi        :      1.58s CPU      1.59s WALL (    5520 calls)

     Called by h_psi:
     h_psi:calbec :     55.52s CPU     55.81s WALL (    6211 calls)
     vloc_psi     :    329.37s CPU    332.56s WALL (    6211 calls)
     add_vuspsi   :     58.53s CPU     58.92s WALL (    6211 calls)

     General routines
     calbec       :     74.28s CPU     74.63s WALL (    6921 calls)
     fft          :     19.69s CPU     19.90s WALL (    4284 calls)
     ffts         :      0.16s CPU      0.16s WALL (     135 calls)
     fftw         :    371.81s CPU    375.39s WALL (  883090 calls)
     interpolate  :      0.48s CPU      0.50s WALL (      68 calls)
     davcio       :      0.00s CPU      0.33s WALL (      10 calls)
 
     Parallel routines
 
     PWSCF        :  16m46.57s CPU  17m22.90s WALL

 
   This run was terminated on:  22:26: 6  10Sep2021            

=------------------------------------------------------------------------------=
   JOB DONE.
=------------------------------------------------------------------------------=
